 Entering Gaussian System, Link 0=g16
 Initial command:
 /share/apps/gaussian/g16/l1.exe "/tmp/55620.mgr/Gau-62372.inp" -scrdir="/tmp/55620.mgr/"
 Entering Link 1 = /share/apps/gaussian/g16/l1.exe PID=     62373.
  
 Copyright (c) 1988,1990,1992,1993,1995,1998,2003,2009,2016,
            Gaussian, Inc.  All Rights Reserved.
  
 This is part of the Gaussian(R) 16 program.  It is based on
 the Gaussian(R) 09 system (copyright 2009, Gaussian, Inc.),
 the Gaussian(R) 03 system (copyright 2003, Gaussian, Inc.),
 the Gaussian(R) 98 system (copyright 1998, Gaussian, Inc.),
 the Gaussian(R) 94 system (copyright 1995, Gaussian, Inc.),
 the Gaussian 92(TM) system (copyright 1992, Gaussian, Inc.),
 the Gaussian 90(TM) system (copyright 1990, Gaussian, Inc.),
 the Gaussian 88(TM) system (copyright 1988, Gaussian, Inc.),
 the Gaussian 86(TM) system (copyright 1986, Carnegie Mellon
 University), and the Gaussian 82(TM) system (copyright 1983,
 Carnegie Mellon University). Gaussian is a federally registered
 trademark of Gaussian, Inc.
  
 This software contains proprietary and confidential information,
 including trade secrets, belonging to Gaussian, Inc.
  
 This software is provided under written license and may be
 used, copied, transmitted, or stored only in accord with that
 written license.
  
 The following legend is applicable only to US Government
 contracts under FAR:
  
                    RESTRICTED RIGHTS LEGEND
  
 Use, reproduction and disclosure by the US Government is
 subject to restrictions as set forth in subparagraphs (a)
 and (c) of the Commercial Computer Software - Restricted
 Rights clause in FAR 52.227-19.
  
 Gaussian, Inc.
 340 Quinnipiac St., Bldg. 40, Wallingford CT 06492
  
  
 ---------------------------------------------------------------
 Warning -- This program may not be used in any manner that
 competes with the business of Gaussian, Inc. or will provide
 assistance to any competitor of Gaussian, Inc.  The licensee
 of this program is prohibited from giving any competitor of
 Gaussian, Inc. access to this program.  By using this program,
 the user acknowledges that Gaussian, Inc. is engaged in the
 business of creating and licensing software in the field of
 computational chemistry and represents and warrants to the
 licensee that it is not a competitor of Gaussian, Inc. and that
 it will not use this program in any manner prohibited above.
 ---------------------------------------------------------------
  

 Cite this work as:
 Gaussian 16, Revision A.03,
 M. J. Frisch, G. W. Trucks, H. B. Schlegel, G. E. Scuseria, 
 M. A. Robb, J. R. Cheeseman, G. Scalmani, V. Barone, 
 G. A. Petersson, H. Nakatsuji, X. Li, M. Caricato, A. V. Marenich, 
 J. Bloino, B. G. Janesko, R. Gomperts, B. Mennucci, H. P. Hratchian, 
 J. V. Ortiz, A. F. Izmaylov, J. L. Sonnenberg, D. Williams-Young, 
 F. Ding, F. Lipparini, F. Egidi, J. Goings, B. Peng, A. Petrone, 
 T. Henderson, D. Ranasinghe, V. G. Zakrzewski, J. Gao, N. Rega, 
 G. Zheng, W. Liang, M. Hada, M. Ehara, K. Toyota, R. Fukuda, 
 J. Hasegawa, M. Ishida, T. Nakajima, Y. Honda, O. Kitao, H. Nakai, 
 T. Vreven, K. Throssell, J. A. Montgomery, Jr., J. E. Peralta, 
 F. Ogliaro, M. J. Bearpark, J. J. Heyd, E. N. Brothers, K. N. Kudin, 
 V. N. Staroverov, T. A. Keith, R. Kobayashi, J. Normand, 
 K. Raghavachari, A. P. Rendell, J. C. Burant, S. S. Iyengar, 
 J. Tomasi, M. Cossi, J. M. Millam, M. Klene, C. Adamo, R. Cammi, 
 J. W. Ochterski, R. L. Martin, K. Morokuma, O. Farkas, 
 J. B. Foresman, and D. J. Fox, Gaussian, Inc., Wallingford CT, 2016.
 
 ******************************************
 Gaussian 16:  ES64L-G16RevA.03 25-Dec-2016
                22-Sep-2023 
 ******************************************
 %nprocshared=4
 Will use up to    4 processors via shared memory.
 %mem=4GB
 ----------------
 # b3lyp/6-31g(d)
 ----------------
 1/38=1,172=1/1;
 2/12=2,17=6,18=5,40=1/2;
 3/5=1,6=6,7=1,11=2,25=1,30=1,74=-5/1,2,3;
 4//1;
 5/5=2,38=5/2;
 6/7=2,8=2,9=2,10=2,28=1/1;
 99/5=1,9=1/99;
 ----------------------
 tmpdir/M1_conf_0_9.gjf
 ----------------------
 Symbolic Z-matrix:
 Charge =  0 Multiplicity = 1
 C                     1.60982   1.29196  -0.47913 
 H                     2.00488   1.53347  -1.48141 
 H                     2.39239   1.52526   0.28752 
 H                     1.38479   0.2532   -0.4382 
 H                     0.64105   1.93477  -0.30256 
 
                          Input orientation:                          
 ---------------------------------------------------------------------
 Center     Atomic      Atomic             Coordinates (Angstroms)
 Number     Number       Type             X           Y           Z
 ---------------------------------------------------------------------
      1          6           0        1.609821    1.291962   -0.479130
      2          1           0        2.004885    1.533473   -1.481410
      3          1           0        2.392394    1.525255    0.287523
      4          1           0        1.384792    0.253199   -0.438196
      5          1           0        0.641053    1.934767   -0.302558
 ---------------------------------------------------------------------
                    Distance matrix (angstroms):
                    1          2          3          4          5
     1  C    0.000000
     2  H    1.104069   0.000000
     3  H    1.120091   1.810899   0.000000
     4  H    1.063646   1.764062   1.777655   0.000000
     5  H    1.175962   1.846826   1.892905   1.843697   0.000000
 Stoichiometry    CH4
 Framework group  C1[X(CH4)]
 Deg. of freedom     9
 Full point group                 C1      NOp   1
 Largest Abelian subgroup         C1      NOp   1
 Largest concise Abelian subgroup C1      NOp   1
                         Standard orientation:                         
 ---------------------------------------------------------------------
 Center     Atomic      Atomic             Coordinates (Angstroms)
 Number     Number       Type             X           Y           Z
 ---------------------------------------------------------------------
      1          6           0       -0.005198    0.000036    0.006406
      2          1           0       -0.153836    0.910317   -0.600441
      3          1           0       -0.660121   -0.815989   -0.393322
      4          1           0       -0.284747    0.206260    1.011725
      5          1           0        1.129895   -0.300805   -0.056398
 ---------------------------------------------------------------------
 Rotational constants (GHZ):         158.1906225         149.2500638         145.5613298
 Standard basis: 6-31G(d) (6D, 7F)
 There are    23 symmetry adapted cartesian basis functions of A   symmetry.
 There are    23 symmetry adapted basis functions of A   symmetry.
    23 basis functions,    44 primitive gaussians,    23 cartesian basis functions
     5 alpha electrons        5 beta electrons
       nuclear repulsion energy        13.1384649990 Hartrees.
 NAtoms=    5 NActive=    5 NUniq=    5 SFac= 1.00D+00 NAtFMM=   60 NAOKFM=F Big=F
 Integral buffers will be    131072 words long.
 Raffenetti 2 integral format.
 Two-electron integral symmetry is turned on.
 One-electron integrals computed using PRISM.
 NBasis=    23 RedAO= T EigKep=  1.90D-02  NBF=    23
 NBsUse=    23 1.00D-06 EigRej= -1.00D+00 NBFU=    23
 ExpMin= 1.61D-01 ExpMax= 3.05D+03 ExpMxC= 4.57D+02 IAcc=3 IRadAn=         5 AccDes= 0.00D+00
 Harris functional with IExCor=  402 and IRadAn=       5 diagonalized for initial guess.
 HarFok:  IExCor=  402 AccDes= 0.00D+00 IRadAn=         5 IDoV= 1 UseB2=F ITyADJ=14
 ICtDFT=  3500011 ScaDFX=  1.000000  1.000000  1.000000  1.000000
 FoFCou: FMM=F IPFlag=           0 FMFlag=      100000 FMFlg1=           0
         NFxFlg=           0 DoJE=T BraDBF=F KetDBF=T FulRan=T
         wScrn=  0.000000 ICntrl=       500 IOpCl=  0 I1Cent=   200000004 NGrid=           0
         NMat0=    1 NMatS0=      1 NMatT0=    0 NMatD0=    1 NMtDS0=    0 NMtDT0=    0
 Petite list used in FoFCou.
 Keep R1 ints in memory in canonical form, NReq=3486400.
 Requested convergence on RMS density matrix=1.00D-08 within 128 cycles.
 Requested convergence on MAX density matrix=1.00D-06.
 Requested convergence on             energy=1.00D-06.
 No special actions if energy rises.
 Integral accuracy reduced to 1.0D-05 until final iterations.
 Initial convergence to 1.0D-05 achieved.  Increase integral accuracy.
 SCF Done:  E(RB3LYP) =  -40.5134661275     A.U. after    9 cycles
            NFock=  9  Conv=0.42D-08     -V/T= 2.0136

 **********************************************************************

            Population analysis using the SCF density.

 **********************************************************************

 Orbital symmetries:
       Occupied  (A) (A) (A) (A) (A)
       Virtual   (A) (A) (A) (A) (A) (A) (A) (A) (A) (A) (A) (A)
                 (A) (A) (A) (A) (A) (A)
 The electronic state is 1-A.
 Alpha  occ. eigenvalues --  -10.17620  -0.68468  -0.39333  -0.38566  -0.37714
 Alpha virt. eigenvalues --    0.10968   0.15786   0.17023   0.18163   0.52591
 Alpha virt. eigenvalues --    0.53794   0.55680   0.84703   0.88048   0.89754
 Alpha virt. eigenvalues --    0.94176   1.09319   1.65968   1.66095   2.15569
 Alpha virt. eigenvalues --    2.22051   2.26783   4.16395
          Condensed to atoms (all electrons):
               1          2          3          4          5
     1  C    5.098465   0.380081   0.379504   0.384721   0.373767
     2  H    0.380081   0.545170  -0.026837  -0.029129  -0.025972
     3  H    0.379504  -0.026837   0.545362  -0.028895  -0.022349
     4  H    0.384721  -0.029129  -0.028895   0.529868  -0.024450
     5  H    0.373767  -0.025972  -0.022349  -0.024450   0.560253
 Mulliken charges:
               1
     1  C   -0.616538
     2  H    0.156687
     3  H    0.153215
     4  H    0.167885
     5  H    0.138751
 Sum of Mulliken charges =   0.00000
 Mulliken charges with hydrogens summed into heavy atoms:
               1
     1  C    0.000000
 Electronic spatial extent (au):  <R**2>=             36.3437
 Charge=              0.0000 electrons
 Dipole moment (field-independent basis, Debye):
    X=             -0.0601    Y=              0.0423    Z=              0.0263  Tot=              0.0781
 Quadrupole moment (field-independent basis, Debye-Ang):
   XX=             -8.2285   YY=             -8.3506   ZZ=             -8.3504
   XY=              0.0265   XZ=             -0.0270   YZ=              0.0102
 Traceless Quadrupole moment (field-independent basis, Debye-Ang):
   XX=              0.0813   YY=             -0.0408   ZZ=             -0.0406
   XY=              0.0265   XZ=             -0.0270   YZ=              0.0102
 Octapole moment (field-independent basis, Debye-Ang**2):
  XXX=              0.5085  YYY=              0.2849  ZZZ=              0.6673  XYY=             -0.4167
  XXY=             -0.4257  XXZ=             -0.0734  XZZ=             -0.3961  YZZ=              0.3277
  YYZ=             -0.4237  XYZ=             -0.1184
 Hexadecapole moment (field-independent basis, Debye-Ang**3):
 XXXX=            -16.1632 YYYY=            -15.7046 ZZZZ=            -14.8852 XXXY=             -0.1574
 XXXZ=             -0.0481 YYYX=              0.2784 YYYZ=             -0.2208 ZZZX=             -0.2879
 ZZZY=              0.0877 XXYY=             -5.3829 XXZZ=             -5.5331 YYZZ=             -5.0377
 XXYZ=              0.1826 YYXZ=              0.2239 ZZXY=             -0.0104
 N-N= 1.313846499901D+01 E-N=-1.192370026740D+02  KE= 3.996990234178D+01
 1\1\GINC-NODE61\SP\RB3LYP\6-31G(d)\C1H4\YANZ\22-Sep-2023\0\\# b3lyp/6-
 31g(d)\\tmpdir/M1_conf_0_9.gjf\\0,1\C,0,1.609821,1.291962,-0.47913\H,0
 ,2.004885,1.533473,-1.48141\H,0,2.39239389,1.52525526,0.28752318\H,0,1
 .38479163,0.25319862,-0.43819569\H,0,0.64105304,1.93476709,-0.30255788
 \\Version=ES64L-G16RevA.03\State=1-A\HF=-40.5134661\RMSD=4.220e-09\Dip
 ole=0.0157774,-0.0235575,-0.0118183\Quadrupole=0.0251271,0.0033786,-0.
 0285057,-0.04282,0.0306123,-0.0096671\PG=C01 [X(C1H4)]\\@


 Cherishing children is the mark of a civilized society.
 -- Joan Ganz Cooney
 Job cpu time:       0 days  0 hours  0 minutes  5.3 seconds.
 Elapsed time:       0 days  0 hours  0 minutes  1.5 seconds.
 File lengths (MBytes):  RWF=      6 Int=      0 D2E=      0 Chk=      1 Scr=      1
 Normal termination of Gaussian 16 at Fri Sep 22 17:00:22 2023.
