 Entering Gaussian System, Link 0=g16
 Initial command:
 /share/apps/gaussian/g16/l1.exe "/tmp/55620.mgr/Gau-62495.inp" -scrdir="/tmp/55620.mgr/"
 Entering Link 1 = /share/apps/gaussian/g16/l1.exe PID=     62496.
  
 Copyright (c) 1988,1990,1992,1993,1995,1998,2003,2009,2016,
            Gaussian, Inc.  All Rights Reserved.
  
 This is part of the Gaussian(R) 16 program.  It is based on
 the Gaussian(R) 09 system (copyright 2009, Gaussian, Inc.),
 the Gaussian(R) 03 system (copyright 2003, Gaussian, Inc.),
 the Gaussian(R) 98 system (copyright 1998, Gaussian, Inc.),
 the Gaussian(R) 94 system (copyright 1995, Gaussian, Inc.),
 the Gaussian 92(TM) system (copyright 1992, Gaussian, Inc.),
 the Gaussian 90(TM) system (copyright 1990, Gaussian, Inc.),
 the Gaussian 88(TM) system (copyright 1988, Gaussian, Inc.),
 the Gaussian 86(TM) system (copyright 1986, Carnegie Mellon
 University), and the Gaussian 82(TM) system (copyright 1983,
 Carnegie Mellon University). Gaussian is a federally registered
 trademark of Gaussian, Inc.
  
 This software contains proprietary and confidential information,
 including trade secrets, belonging to Gaussian, Inc.
  
 This software is provided under written license and may be
 used, copied, transmitted, or stored only in accord with that
 written license.
  
 The following legend is applicable only to US Government
 contracts under FAR:
  
                    RESTRICTED RIGHTS LEGEND
  
 Use, reproduction and disclosure by the US Government is
 subject to restrictions as set forth in subparagraphs (a)
 and (c) of the Commercial Computer Software - Restricted
 Rights clause in FAR 52.227-19.
  
 Gaussian, Inc.
 340 Quinnipiac St., Bldg. 40, Wallingford CT 06492
  
  
 ---------------------------------------------------------------
 Warning -- This program may not be used in any manner that
 competes with the business of Gaussian, Inc. or will provide
 assistance to any competitor of Gaussian, Inc.  The licensee
 of this program is prohibited from giving any competitor of
 Gaussian, Inc. access to this program.  By using this program,
 the user acknowledges that Gaussian, Inc. is engaged in the
 business of creating and licensing software in the field of
 computational chemistry and represents and warrants to the
 licensee that it is not a competitor of Gaussian, Inc. and that
 it will not use this program in any manner prohibited above.
 ---------------------------------------------------------------
  

 Cite this work as:
 Gaussian 16, Revision A.03,
 M. J. Frisch, G. W. Trucks, H. B. Schlegel, G. E. Scuseria, 
 M. A. Robb, J. R. Cheeseman, G. Scalmani, V. Barone, 
 G. A. Petersson, H. Nakatsuji, X. Li, M. Caricato, A. V. Marenich, 
 J. Bloino, B. G. Janesko, R. Gomperts, B. Mennucci, H. P. Hratchian, 
 J. V. Ortiz, A. F. Izmaylov, J. L. Sonnenberg, D. Williams-Young, 
 F. Ding, F. Lipparini, F. Egidi, J. Goings, B. Peng, A. Petrone, 
 T. Henderson, D. Ranasinghe, V. G. Zakrzewski, J. Gao, N. Rega, 
 G. Zheng, W. Liang, M. Hada, M. Ehara, K. Toyota, R. Fukuda, 
 J. Hasegawa, M. Ishida, T. Nakajima, Y. Honda, O. Kitao, H. Nakai, 
 T. Vreven, K. Throssell, J. A. Montgomery, Jr., J. E. Peralta, 
 F. Ogliaro, M. J. Bearpark, J. J. Heyd, E. N. Brothers, K. N. Kudin, 
 V. N. Staroverov, T. A. Keith, R. Kobayashi, J. Normand, 
 K. Raghavachari, A. P. Rendell, J. C. Burant, S. S. Iyengar, 
 J. Tomasi, M. Cossi, J. M. Millam, M. Klene, C. Adamo, R. Cammi, 
 J. W. Ochterski, R. L. Martin, K. Morokuma, O. Farkas, 
 J. B. Foresman, and D. J. Fox, Gaussian, Inc., Wallingford CT, 2016.
 
 ******************************************
 Gaussian 16:  ES64L-G16RevA.03 25-Dec-2016
                22-Sep-2023 
 ******************************************
 %nprocshared=4
 Will use up to    4 processors via shared memory.
 %mem=4GB
 ----------------
 # b3lyp/6-31g(d)
 ----------------
 1/38=1,172=1/1;
 2/12=2,17=6,18=5,40=1/2;
 3/5=1,6=6,7=1,11=2,25=1,30=1,74=-5/1,2,3;
 4//1;
 5/5=2,38=5/2;
 6/7=2,8=2,9=2,10=2,28=1/1;
 99/5=1,9=1/99;
 -----------------------
 tmpdir/M1_conf_0_11.gjf
 -----------------------
 Symbolic Z-matrix:
 Charge =  0 Multiplicity = 1
 C                     0.53664   3.42502  -0.67679 
 H                    -0.46248   3.85943  -0.58576 
 H                     1.2276    4.00843  -0.05196 
 H                     0.86522   3.50074  -1.72534 
 H                     0.44905   2.31639  -0.33792 
 
                          Input orientation:                          
 ---------------------------------------------------------------------
 Center     Atomic      Atomic             Coordinates (Angstroms)
 Number     Number       Type             X           Y           Z
 ---------------------------------------------------------------------
      1          6           0        0.536642    3.425016   -0.676786
      2          1           0       -0.462482    3.859426   -0.585764
      3          1           0        1.227601    4.008426   -0.051961
      4          1           0        0.865224    3.500742   -1.725343
      5          1           0        0.449051    2.316392   -0.337921
 ---------------------------------------------------------------------
                    Distance matrix (angstroms):
                    1          2          3          4          5
     1  C    0.000000
     2  H    1.093273   0.000000
     3  H    1.099181   1.778631   0.000000
     4  H    1.101441   1.786084   1.785852   0.000000
     5  H    1.162562   1.809219   1.884381   1.871050   0.000000
 Stoichiometry    CH4
 Framework group  C1[X(CH4)]
 Deg. of freedom     9
 Full point group                 C1      NOp   1
 Largest Abelian subgroup         C1      NOp   1
 Largest concise Abelian subgroup C1      NOp   1
                         Standard orientation:                         
 ---------------------------------------------------------------------
 Center     Atomic      Atomic             Coordinates (Angstroms)
 Number     Number       Type             X           Y           Z
 ---------------------------------------------------------------------
      1          6           0        0.004107    0.000671   -0.005519
      2          1           0       -0.028181   -0.320747    1.038940
      3          1           0        0.610953   -0.719561   -0.572265
      4          1           0        0.490540    0.987318   -0.061057
      5          1           0       -1.097954    0.048961   -0.372504
 ---------------------------------------------------------------------
 Rotational constants (GHZ):         159.3179848         148.7987933         146.7015747
 Standard basis: 6-31G(d) (6D, 7F)
 There are    23 symmetry adapted cartesian basis functions of A   symmetry.
 There are    23 symmetry adapted basis functions of A   symmetry.
    23 basis functions,    44 primitive gaussians,    23 cartesian basis functions
     5 alpha electrons        5 beta electrons
       nuclear repulsion energy        13.1527411250 Hartrees.
 NAtoms=    5 NActive=    5 NUniq=    5 SFac= 1.00D+00 NAtFMM=   60 NAOKFM=F Big=F
 Integral buffers will be    131072 words long.
 Raffenetti 2 integral format.
 Two-electron integral symmetry is turned on.
 One-electron integrals computed using PRISM.
 NBasis=    23 RedAO= T EigKep=  1.90D-02  NBF=    23
 NBsUse=    23 1.00D-06 EigRej= -1.00D+00 NBFU=    23
 ExpMin= 1.61D-01 ExpMax= 3.05D+03 ExpMxC= 4.57D+02 IAcc=3 IRadAn=         5 AccDes= 0.00D+00
 Harris functional with IExCor=  402 and IRadAn=       5 diagonalized for initial guess.
 HarFok:  IExCor=  402 AccDes= 0.00D+00 IRadAn=         5 IDoV= 1 UseB2=F ITyADJ=14
 ICtDFT=  3500011 ScaDFX=  1.000000  1.000000  1.000000  1.000000
 FoFCou: FMM=F IPFlag=           0 FMFlag=      100000 FMFlg1=           0
         NFxFlg=           0 DoJE=T BraDBF=F KetDBF=T FulRan=T
         wScrn=  0.000000 ICntrl=       500 IOpCl=  0 I1Cent=   200000004 NGrid=           0
         NMat0=    1 NMatS0=      1 NMatT0=    0 NMatD0=    1 NMtDS0=    0 NMtDT0=    0
 Petite list used in FoFCou.
 Keep R1 ints in memory in canonical form, NReq=3486400.
 Requested convergence on RMS density matrix=1.00D-08 within 128 cycles.
 Requested convergence on MAX density matrix=1.00D-06.
 Requested convergence on             energy=1.00D-06.
 No special actions if energy rises.
 Integral accuracy reduced to 1.0D-05 until final iterations.
 Initial convergence to 1.0D-05 achieved.  Increase integral accuracy.
 SCF Done:  E(RB3LYP) =  -40.5150746898     A.U. after    9 cycles
            NFock=  9  Conv=0.50D-08     -V/T= 2.0136

 **********************************************************************

            Population analysis using the SCF density.

 **********************************************************************

 Orbital symmetries:
       Occupied  (A) (A) (A) (A) (A)
       Virtual   (A) (A) (A) (A) (A) (A) (A) (A) (A) (A) (A) (A)
                 (A) (A) (A) (A) (A) (A)
 The electronic state is 1-A.
 Alpha  occ. eigenvalues --  -10.17550  -0.68477  -0.39168  -0.38730  -0.37769
 Alpha virt. eigenvalues --    0.11090   0.16126   0.17323   0.17621   0.53137
 Alpha virt. eigenvalues --    0.53358   0.55481   0.85407   0.88980   0.89475
 Alpha virt. eigenvalues --    0.93067   1.09283   1.65958   1.66251   2.16581
 Alpha virt. eigenvalues --    2.23553   2.24607   4.16422
          Condensed to atoms (all electrons):
               1          2          3          4          5
     1  C    5.099178   0.380368   0.381921   0.381458   0.375544
     2  H    0.380368   0.545586  -0.028542  -0.027601  -0.028687
     3  H    0.381921  -0.028542   0.538386  -0.029000  -0.021581
     4  H    0.381458  -0.027601  -0.029000   0.540161  -0.023009
     5  H    0.375544  -0.028687  -0.021581  -0.023009   0.554945
 Mulliken charges:
               1
     1  C   -0.618470
     2  H    0.158876
     3  H    0.158816
     4  H    0.157990
     5  H    0.142787
 Sum of Mulliken charges =  -0.00000
 Mulliken charges with hydrogens summed into heavy atoms:
               1
     1  C   -0.000000
 Electronic spatial extent (au):  <R**2>=             36.2661
 Charge=             -0.0000 electrons
 Dipole moment (field-independent basis, Debye):
    X=              0.0488    Y=             -0.0100    Z=              0.0506  Tot=              0.0710
 Quadrupole moment (field-independent basis, Debye-Ang):
   XX=             -8.1595   YY=             -8.3371   ZZ=             -8.4217
   XY=              0.0037   XZ=             -0.0525   YZ=              0.0041
 Traceless Quadrupole moment (field-independent basis, Debye-Ang):
   XX=              0.1466   YY=             -0.0310   ZZ=             -0.1156
   XY=              0.0037   XZ=             -0.0525   YZ=              0.0041
 Octapole moment (field-independent basis, Debye-Ang**2):
  XXX=             -0.4667  YYY=              0.3385  ZZZ=              0.7067  XYY=              0.6238
  XXY=              0.0037  XXZ=             -0.4102  XZZ=              0.0926  YZZ=             -0.3794
  YYZ=             -0.1166  XYZ=              0.1748
 Hexadecapole moment (field-independent basis, Debye-Ang**3):
 XXXX=            -16.0892 YYYY=            -15.3086 ZZZZ=            -15.1634 XXXY=             -0.1113
 XXXZ=              0.2557 YYYX=              0.2659 YYYZ=              0.1328 ZZZX=             -0.2097
 ZZZY=             -0.2332 XXYY=             -5.2840 XXZZ=             -5.4258 YYZZ=             -5.2212
 XXYZ=              0.1269 YYXZ=             -0.2596 ZZXY=             -0.1420
 N-N= 1.315274112497D+01 E-N=-1.192709037105D+02  KE= 3.997273978455D+01
 1\1\GINC-NODE61\SP\RB3LYP\6-31G(d)\C1H4\YANZ\22-Sep-2023\0\\# b3lyp/6-
 31g(d)\\tmpdir/M1_conf_0_11.gjf\\0,1\C,0,0.536642,3.425016,-0.676786\H
 ,0,-0.462482,3.859426,-0.585764\H,0,1.227601,4.008426,-0.051961\H,0,0.
 865224,3.500742,-1.725343\H,0,0.44905058,2.31639178,-0.33792051\\Versi
 on=ES64L-G16RevA.03\State=1-A\HF=-40.5150747\RMSD=4.962e-09\Dipole=-0.
 0111471,0.0249488,-0.0058325\Quadrupole=-0.0284507,0.0459381,-0.017487
 4,0.0918357,-0.0317318,-0.0197055\PG=C01 [X(C1H4)]\\@


 IT IS A SIMPLE TASK TO MAKE THINGS COMPLEX,
 BUT A COMPLEX TASK TO MAKE THEM SIMPLE.
 Job cpu time:       0 days  0 hours  0 minutes  4.9 seconds.
 Elapsed time:       0 days  0 hours  0 minutes  1.4 seconds.
 File lengths (MBytes):  RWF=      6 Int=      0 D2E=      0 Chk=      1 Scr=      1
 Normal termination of Gaussian 16 at Fri Sep 22 17:00:23 2023.
