 Entering Gaussian System, Link 0=g16
 Initial command:
 /share/apps/gaussian/g16/l1.exe "/tmp/55620.mgr/Gau-62357.inp" -scrdir="/tmp/55620.mgr/"
 Entering Link 1 = /share/apps/gaussian/g16/l1.exe PID=     62361.
  
 Copyright (c) 1988,1990,1992,1993,1995,1998,2003,2009,2016,
            Gaussian, Inc.  All Rights Reserved.
  
 This is part of the Gaussian(R) 16 program.  It is based on
 the Gaussian(R) 09 system (copyright 2009, Gaussian, Inc.),
 the Gaussian(R) 03 system (copyright 2003, Gaussian, Inc.),
 the Gaussian(R) 98 system (copyright 1998, Gaussian, Inc.),
 the Gaussian(R) 94 system (copyright 1995, Gaussian, Inc.),
 the Gaussian 92(TM) system (copyright 1992, Gaussian, Inc.),
 the Gaussian 90(TM) system (copyright 1990, Gaussian, Inc.),
 the Gaussian 88(TM) system (copyright 1988, Gaussian, Inc.),
 the Gaussian 86(TM) system (copyright 1986, Carnegie Mellon
 University), and the Gaussian 82(TM) system (copyright 1983,
 Carnegie Mellon University). Gaussian is a federally registered
 trademark of Gaussian, Inc.
  
 This software contains proprietary and confidential information,
 including trade secrets, belonging to Gaussian, Inc.
  
 This software is provided under written license and may be
 used, copied, transmitted, or stored only in accord with that
 written license.
  
 The following legend is applicable only to US Government
 contracts under FAR:
  
                    RESTRICTED RIGHTS LEGEND
  
 Use, reproduction and disclosure by the US Government is
 subject to restrictions as set forth in subparagraphs (a)
 and (c) of the Commercial Computer Software - Restricted
 Rights clause in FAR 52.227-19.
  
 Gaussian, Inc.
 340 Quinnipiac St., Bldg. 40, Wallingford CT 06492
  
  
 ---------------------------------------------------------------
 Warning -- This program may not be used in any manner that
 competes with the business of Gaussian, Inc. or will provide
 assistance to any competitor of Gaussian, Inc.  The licensee
 of this program is prohibited from giving any competitor of
 Gaussian, Inc. access to this program.  By using this program,
 the user acknowledges that Gaussian, Inc. is engaged in the
 business of creating and licensing software in the field of
 computational chemistry and represents and warrants to the
 licensee that it is not a competitor of Gaussian, Inc. and that
 it will not use this program in any manner prohibited above.
 ---------------------------------------------------------------
  

 Cite this work as:
 Gaussian 16, Revision A.03,
 M. J. Frisch, G. W. Trucks, H. B. Schlegel, G. E. Scuseria, 
 M. A. Robb, J. R. Cheeseman, G. Scalmani, V. Barone, 
 G. A. Petersson, H. Nakatsuji, X. Li, M. Caricato, A. V. Marenich, 
 J. Bloino, B. G. Janesko, R. Gomperts, B. Mennucci, H. P. Hratchian, 
 J. V. Ortiz, A. F. Izmaylov, J. L. Sonnenberg, D. Williams-Young, 
 F. Ding, F. Lipparini, F. Egidi, J. Goings, B. Peng, A. Petrone, 
 T. Henderson, D. Ranasinghe, V. G. Zakrzewski, J. Gao, N. Rega, 
 G. Zheng, W. Liang, M. Hada, M. Ehara, K. Toyota, R. Fukuda, 
 J. Hasegawa, M. Ishida, T. Nakajima, Y. Honda, O. Kitao, H. Nakai, 
 T. Vreven, K. Throssell, J. A. Montgomery, Jr., J. E. Peralta, 
 F. Ogliaro, M. J. Bearpark, J. J. Heyd, E. N. Brothers, K. N. Kudin, 
 V. N. Staroverov, T. A. Keith, R. Kobayashi, J. Normand, 
 K. Raghavachari, A. P. Rendell, J. C. Burant, S. S. Iyengar, 
 J. Tomasi, M. Cossi, J. M. Millam, M. Klene, C. Adamo, R. Cammi, 
 J. W. Ochterski, R. L. Martin, K. Morokuma, O. Farkas, 
 J. B. Foresman, and D. J. Fox, Gaussian, Inc., Wallingford CT, 2016.
 
 ******************************************
 Gaussian 16:  ES64L-G16RevA.03 25-Dec-2016
                22-Sep-2023 
 ******************************************
 %nprocshared=4
 Will use up to    4 processors via shared memory.
 %mem=4GB
 ----------------
 # b3lyp/6-31g(d)
 ----------------
 1/38=1,172=1/1;
 2/12=2,17=6,18=5,40=1/2;
 3/5=1,6=6,7=1,11=2,25=1,30=1,74=-5/1,2,3;
 4//1;
 5/5=2,38=5/2;
 6/7=2,8=2,9=2,10=2,28=1/1;
 99/5=1,9=1/99;
 ----------------------
 tmpdir/M1_conf_0_8.gjf
 ----------------------
 Symbolic Z-matrix:
 Charge =  0 Multiplicity = 1
 C                     2.69089   1.61424   0.57995 
 H                     2.90489   2.68841   0.51263 
 H                     2.24625   1.44514   1.56829 
 H                     3.65857   1.05851   0.48757 
 H                     1.90832   1.38095  -0.1867 
 
                          Input orientation:                          
 ---------------------------------------------------------------------
 Center     Atomic      Atomic             Coordinates (Angstroms)
 Number     Number       Type             X           Y           Z
 ---------------------------------------------------------------------
      1          6           0        2.690893    1.614241    0.579950
      2          1           0        2.904885    2.688412    0.512625
      3          1           0        2.246247    1.445135    1.568287
      4          1           0        3.658567    1.058511    0.487566
      5          1           0        1.908320    1.380948   -0.186703
 ---------------------------------------------------------------------
                    Distance matrix (angstroms):
                    1          2          3          4          5
     1  C    0.000000
     2  H    1.097346   0.000000
     3  H    1.096867   1.758967   0.000000
     4  H    1.119716   1.795896   1.819914   0.000000
     5  H    1.120091   1.786523   1.788381   1.903147   0.000000
 Stoichiometry    CH4
 Framework group  C1[X(CH4)]
 Deg. of freedom     9
 Full point group                 C1      NOp   1
 Largest Abelian subgroup         C1      NOp   1
 Largest concise Abelian subgroup C1      NOp   1
                         Standard orientation:                         
 ---------------------------------------------------------------------
 Center     Atomic      Atomic             Coordinates (Angstroms)
 Number     Number       Type             X           Y           Z
 ---------------------------------------------------------------------
      1          6           0       -0.005012   -0.007947   -0.010273
      2          1           0        0.003373   -0.037861    1.086633
      3          1           0        0.155413    1.038840   -0.295959
      4          1           0       -1.008577   -0.358608   -0.361925
      5          1           0        0.879864   -0.594688   -0.367111
 ---------------------------------------------------------------------
 Rotational constants (GHZ):         161.8308078         149.6460066         148.3907268
 Standard basis: 6-31G(d) (6D, 7F)
 There are    23 symmetry adapted cartesian basis functions of A   symmetry.
 There are    23 symmetry adapted basis functions of A   symmetry.
    23 basis functions,    44 primitive gaussians,    23 cartesian basis functions
     5 alpha electrons        5 beta electrons
       nuclear repulsion energy        13.2147442194 Hartrees.
 NAtoms=    5 NActive=    5 NUniq=    5 SFac= 1.00D+00 NAtFMM=   60 NAOKFM=F Big=F
 Integral buffers will be    131072 words long.
 Raffenetti 2 integral format.
 Two-electron integral symmetry is turned on.
 One-electron integrals computed using PRISM.
 NBasis=    23 RedAO= T EigKep=  1.88D-02  NBF=    23
 NBsUse=    23 1.00D-06 EigRej= -1.00D+00 NBFU=    23
 ExpMin= 1.61D-01 ExpMax= 3.05D+03 ExpMxC= 4.57D+02 IAcc=3 IRadAn=         5 AccDes= 0.00D+00
 Harris functional with IExCor=  402 and IRadAn=       5 diagonalized for initial guess.
 HarFok:  IExCor=  402 AccDes= 0.00D+00 IRadAn=         5 IDoV= 1 UseB2=F ITyADJ=14
 ICtDFT=  3500011 ScaDFX=  1.000000  1.000000  1.000000  1.000000
 FoFCou: FMM=F IPFlag=           0 FMFlag=      100000 FMFlg1=           0
         NFxFlg=           0 DoJE=T BraDBF=F KetDBF=T FulRan=T
         wScrn=  0.000000 ICntrl=       500 IOpCl=  0 I1Cent=   200000004 NGrid=           0
         NMat0=    1 NMatS0=      1 NMatT0=    0 NMatD0=    1 NMtDS0=    0 NMtDT0=    0
 Petite list used in FoFCou.
 Keep R1 ints in memory in canonical form, NReq=3486400.
 Requested convergence on RMS density matrix=1.00D-08 within 128 cycles.
 Requested convergence on MAX density matrix=1.00D-06.
 Requested convergence on             energy=1.00D-06.
 No special actions if energy rises.
 Integral accuracy reduced to 1.0D-05 until final iterations.
 Initial convergence to 1.0D-05 achieved.  Increase integral accuracy.
 SCF Done:  E(RB3LYP) =  -40.5161316641     A.U. after    9 cycles
            NFock=  9  Conv=0.53D-08     -V/T= 2.0130

 **********************************************************************

            Population analysis using the SCF density.

 **********************************************************************

 Orbital symmetries:
       Occupied  (A) (A) (A) (A) (A)
       Virtual   (A) (A) (A) (A) (A) (A) (A) (A) (A) (A) (A) (A)
                 (A) (A) (A) (A) (A) (A)
 The electronic state is 1-A.
 Alpha  occ. eigenvalues --  -10.17326  -0.68626  -0.39516  -0.38415  -0.37961
 Alpha virt. eigenvalues --    0.11298   0.16752   0.17240   0.17485   0.53126
 Alpha virt. eigenvalues --    0.53321   0.55117   0.87206   0.88721   0.89152
 Alpha virt. eigenvalues --    0.93602   1.09654   1.65764   1.66294   2.18246
 Alpha virt. eigenvalues --    2.23423   2.24796   4.16735
          Condensed to atoms (all electrons):
               1          2          3          4          5
     1  C    5.099521   0.379823   0.380852   0.381818   0.380640
     2  H    0.379823   0.550178  -0.029520  -0.028172  -0.028704
     3  H    0.380852  -0.029520   0.546005  -0.025752  -0.028901
     4  H    0.381818  -0.028172  -0.025752   0.536004  -0.019120
     5  H    0.380640  -0.028704  -0.028901  -0.019120   0.542359
 Mulliken charges:
               1
     1  C   -0.622655
     2  H    0.156394
     3  H    0.157315
     4  H    0.155221
     5  H    0.153725
 Sum of Mulliken charges =  -0.00000
 Mulliken charges with hydrogens summed into heavy atoms:
               1
     1  C   -0.000000
 Electronic spatial extent (au):  <R**2>=             36.0449
 Charge=             -0.0000 electrons
 Dipole moment (field-independent basis, Debye):
    X=              0.0172    Y=              0.0474    Z=              0.0519  Tot=              0.0723
 Quadrupole moment (field-independent basis, Debye-Ang):
   XX=             -8.0537   YY=             -8.3900   ZZ=             -8.4364
   XY=              0.0105   XZ=              0.0040   YZ=             -0.0063
 Traceless Quadrupole moment (field-independent basis, Debye-Ang):
   XX=              0.2397   YY=             -0.0967   ZZ=             -0.1430
   XY=              0.0105   XZ=              0.0040   YZ=             -0.0063
 Octapole moment (field-independent basis, Debye-Ang**2):
  XXX=             -0.2293  YYY=              0.6881  ZZZ=              0.8385  XYY=              0.2486
  XXY=             -0.5319  XXZ=             -0.4260  XZZ=              0.0159  YZZ=             -0.0026
  YYZ=             -0.2611  XYZ=              0.0060
 Hexadecapole moment (field-independent basis, Debye-Ang**3):
 XXXX=            -15.6578 YYYY=            -15.1975 ZZZZ=            -14.9915 XXXY=             -0.0181
 XXXZ=              0.1308 YYYX=              0.0637 YYYZ=             -0.2674 ZZZX=              0.0118
 ZZZY=             -0.0482 XXYY=             -5.2154 XXZZ=             -5.4073 YYZZ=             -5.3451
 XXYZ=              0.2978 YYXZ=             -0.1192 ZZXY=             -0.0024
 N-N= 1.321474421944D+01 E-N=-1.194129608483D+02  KE= 3.999551300732D+01
 1\1\GINC-NODE61\SP\RB3LYP\6-31G(d)\C1H4\YANZ\22-Sep-2023\0\\# b3lyp/6-
 31g(d)\\tmpdir/M1_conf_0_8.gjf\\0,1\C,0,2.690893,1.614241,0.57995\H,0,
 2.904885,2.688412,0.512625\H,0,2.246247,1.445135,1.568287\H,0,3.658567
 16,1.05851082,0.4875655\H,0,1.90832011,1.38094774,-0.18670318\\Version
 =ES64L-G16RevA.03\State=1-A\HF=-40.5161317\RMSD=5.326e-09\Dipole=-0.00
 66565,0.0226938,0.0158312\Quadrupole=0.1572567,-0.096015,-0.0612417,-0
 .0529507,0.0486648,-0.013567\PG=C01 [X(C1H4)]\\@


 Cherishing children is the mark of a civilized society.
 -- Joan Ganz Cooney
 Job cpu time:       0 days  0 hours  0 minutes  4.9 seconds.
 Elapsed time:       0 days  0 hours  0 minutes  1.4 seconds.
 File lengths (MBytes):  RWF=      6 Int=      0 D2E=      0 Chk=      1 Scr=      1
 Normal termination of Gaussian 16 at Fri Sep 22 17:00:22 2023.
