 Entering Gaussian System, Link 0=g16
 Initial command:
 /share/apps/gaussian/g16/l1.exe "/tmp/55620.mgr/Gau-61761.inp" -scrdir="/tmp/55620.mgr/"
 Entering Link 1 = /share/apps/gaussian/g16/l1.exe PID=     61765.
  
 Copyright (c) 1988,1990,1992,1993,1995,1998,2003,2009,2016,
            Gaussian, Inc.  All Rights Reserved.
  
 This is part of the Gaussian(R) 16 program.  It is based on
 the Gaussian(R) 09 system (copyright 2009, Gaussian, Inc.),
 the Gaussian(R) 03 system (copyright 2003, Gaussian, Inc.),
 the Gaussian(R) 98 system (copyright 1998, Gaussian, Inc.),
 the Gaussian(R) 94 system (copyright 1995, Gaussian, Inc.),
 the Gaussian 92(TM) system (copyright 1992, Gaussian, Inc.),
 the Gaussian 90(TM) system (copyright 1990, Gaussian, Inc.),
 the Gaussian 88(TM) system (copyright 1988, Gaussian, Inc.),
 the Gaussian 86(TM) system (copyright 1986, Carnegie Mellon
 University), and the Gaussian 82(TM) system (copyright 1983,
 Carnegie Mellon University). Gaussian is a federally registered
 trademark of Gaussian, Inc.
  
 This software contains proprietary and confidential information,
 including trade secrets, belonging to Gaussian, Inc.
  
 This software is provided under written license and may be
 used, copied, transmitted, or stored only in accord with that
 written license.
  
 The following legend is applicable only to US Government
 contracts under FAR:
  
                    RESTRICTED RIGHTS LEGEND
  
 Use, reproduction and disclosure by the US Government is
 subject to restrictions as set forth in subparagraphs (a)
 and (c) of the Commercial Computer Software - Restricted
 Rights clause in FAR 52.227-19.
  
 Gaussian, Inc.
 340 Quinnipiac St., Bldg. 40, Wallingford CT 06492
  
  
 ---------------------------------------------------------------
 Warning -- This program may not be used in any manner that
 competes with the business of Gaussian, Inc. or will provide
 assistance to any competitor of Gaussian, Inc.  The licensee
 of this program is prohibited from giving any competitor of
 Gaussian, Inc. access to this program.  By using this program,
 the user acknowledges that Gaussian, Inc. is engaged in the
 business of creating and licensing software in the field of
 computational chemistry and represents and warrants to the
 licensee that it is not a competitor of Gaussian, Inc. and that
 it will not use this program in any manner prohibited above.
 ---------------------------------------------------------------
  

 Cite this work as:
 Gaussian 16, Revision A.03,
 M. J. Frisch, G. W. Trucks, H. B. Schlegel, G. E. Scuseria, 
 M. A. Robb, J. R. Cheeseman, G. Scalmani, V. Barone, 
 G. A. Petersson, H. Nakatsuji, X. Li, M. Caricato, A. V. Marenich, 
 J. Bloino, B. G. Janesko, R. Gomperts, B. Mennucci, H. P. Hratchian, 
 J. V. Ortiz, A. F. Izmaylov, J. L. Sonnenberg, D. Williams-Young, 
 F. Ding, F. Lipparini, F. Egidi, J. Goings, B. Peng, A. Petrone, 
 T. Henderson, D. Ranasinghe, V. G. Zakrzewski, J. Gao, N. Rega, 
 G. Zheng, W. Liang, M. Hada, M. Ehara, K. Toyota, R. Fukuda, 
 J. Hasegawa, M. Ishida, T. Nakajima, Y. Honda, O. Kitao, H. Nakai, 
 T. Vreven, K. Throssell, J. A. Montgomery, Jr., J. E. Peralta, 
 F. Ogliaro, M. J. Bearpark, J. J. Heyd, E. N. Brothers, K. N. Kudin, 
 V. N. Staroverov, T. A. Keith, R. Kobayashi, J. Normand, 
 K. Raghavachari, A. P. Rendell, J. C. Burant, S. S. Iyengar, 
 J. Tomasi, M. Cossi, J. M. Millam, M. Klene, C. Adamo, R. Cammi, 
 J. W. Ochterski, R. L. Martin, K. Morokuma, O. Farkas, 
 J. B. Foresman, and D. J. Fox, Gaussian, Inc., Wallingford CT, 2016.
 
 ******************************************
 Gaussian 16:  ES64L-G16RevA.03 25-Dec-2016
                22-Sep-2023 
 ******************************************
 %nprocshared=4
 Will use up to    4 processors via shared memory.
 %mem=4GB
 ----------------
 # b3lyp/6-31g(d)
 ----------------
 1/38=1,172=1/1;
 2/12=2,17=6,18=5,40=1/2;
 3/5=1,6=6,7=1,11=2,25=1,30=1,74=-5/1,2,3;
 4//1;
 5/5=2,38=5/2;
 6/7=2,8=2,9=2,10=2,28=1/1;
 99/5=1,9=1/99;
 -------------------
 tmpdir/M1_ref_1.gjf
 -------------------
 Symbolic Z-matrix:
 Charge =  0 Multiplicity = 1
 C                     1.15615  -0.81771   31.04648 
 H                     1.14246  -1.85736   31.38093 
 H                     1.45905  -0.19669   31.89954 
 H                     1.99543  -0.79709   30.2269 
 H                     0.17229  -0.50936   30.6772 
 
                          Input orientation:                          
 ---------------------------------------------------------------------
 Center     Atomic      Atomic             Coordinates (Angstroms)
 Number     Number       Type             X           Y           Z
 ---------------------------------------------------------------------
      1          6           0        1.156149   -0.817712   31.046479
      2          1           0        1.142456   -1.857358   31.380926
      3          1           0        1.459053   -0.196692   31.899535
      4          1           0        1.995427   -0.797087   30.226904
      5          1           0        0.172292   -0.509364   30.677204
 ---------------------------------------------------------------------
                    Distance matrix (angstroms):
                    1          2          3          4          5
     1  C    0.000000
     2  H    1.092202   0.000000
     3  H    1.097780   1.768333   0.000000
     4  H    1.173251   1.784237   1.856305   0.000000
     5  H    1.095179   1.803755   1.802113   1.899836   0.000000
 Stoichiometry    CH4
 Framework group  C1[X(CH4)]
 Deg. of freedom     9
 Full point group                 C1      NOp   1
 Largest Abelian subgroup         C1      NOp   1
 Largest concise Abelian subgroup C1      NOp   1
                         Standard orientation:                         
 ---------------------------------------------------------------------
 Center     Atomic      Atomic             Coordinates (Angstroms)
 Number     Number       Type             X           Y           Z
 ---------------------------------------------------------------------
      1          6           0       -0.015266   -0.005861   -0.004710
      2          1           0        0.183805    0.173515    1.054110
      3          1           0       -0.328394    0.946760   -0.451460
      4          1           0        1.029032   -0.319366   -0.437922
      5          1           0       -0.792848   -0.765745   -0.136466
 ---------------------------------------------------------------------
 Rotational constants (GHZ):         159.6617315         149.3765745         145.4942729
 Standard basis: 6-31G(d) (6D, 7F)
 There are    23 symmetry adapted cartesian basis functions of A   symmetry.
 There are    23 symmetry adapted basis functions of A   symmetry.
    23 basis functions,    44 primitive gaussians,    23 cartesian basis functions
     5 alpha electrons        5 beta electrons
       nuclear repulsion energy        13.1510863026 Hartrees.
 NAtoms=    5 NActive=    5 NUniq=    5 SFac= 1.00D+00 NAtFMM=   60 NAOKFM=F Big=F
 Integral buffers will be    131072 words long.
 Raffenetti 2 integral format.
 Two-electron integral symmetry is turned on.
 One-electron integrals computed using PRISM.
 NBasis=    23 RedAO= T EigKep=  1.91D-02  NBF=    23
 NBsUse=    23 1.00D-06 EigRej= -1.00D+00 NBFU=    23
 ExpMin= 1.61D-01 ExpMax= 3.05D+03 ExpMxC= 4.57D+02 IAcc=3 IRadAn=         5 AccDes= 0.00D+00
 Harris functional with IExCor=  402 and IRadAn=       5 diagonalized for initial guess.
 HarFok:  IExCor=  402 AccDes= 0.00D+00 IRadAn=         5 IDoV= 1 UseB2=F ITyADJ=14
 ICtDFT=  3500011 ScaDFX=  1.000000  1.000000  1.000000  1.000000
 FoFCou: FMM=F IPFlag=           0 FMFlag=      100000 FMFlg1=           0
         NFxFlg=           0 DoJE=T BraDBF=F KetDBF=T FulRan=T
         wScrn=  0.000000 ICntrl=       500 IOpCl=  0 I1Cent=   200000004 NGrid=           0
         NMat0=    1 NMatS0=      1 NMatT0=    0 NMatD0=    1 NMtDS0=    0 NMtDT0=    0
 Petite list used in FoFCou.
 Keep R1 ints in memory in canonical form, NReq=3486400.
 Requested convergence on RMS density matrix=1.00D-08 within 128 cycles.
 Requested convergence on MAX density matrix=1.00D-06.
 Requested convergence on             energy=1.00D-06.
 No special actions if energy rises.
 Integral accuracy reduced to 1.0D-05 until final iterations.
 Initial convergence to 1.0D-05 achieved.  Increase integral accuracy.
 SCF Done:  E(RB3LYP) =  -40.5138759486     A.U. after    9 cycles
            NFock=  9  Conv=0.76D-08     -V/T= 2.0135

 **********************************************************************

            Population analysis using the SCF density.

 **********************************************************************

 Orbital symmetries:
       Occupied  (A) (A) (A) (A) (A)
       Virtual   (A) (A) (A) (A) (A) (A) (A) (A) (A) (A) (A) (A)
                 (A) (A) (A) (A) (A) (A)
 The electronic state is 1-A.
 Alpha  occ. eigenvalues --  -10.17573  -0.68490  -0.39666  -0.38793  -0.37196
 Alpha virt. eigenvalues --    0.11024   0.15794   0.17457   0.17759   0.53065
 Alpha virt. eigenvalues --    0.53404   0.55549   0.84738   0.89231   0.89862
 Alpha virt. eigenvalues --    0.93060   1.09383   1.66110   1.66224   2.16233
 Alpha virt. eigenvalues --    2.23380   2.24806   4.16399
          Condensed to atoms (all electrons):
               1          2          3          4          5
     1  C    5.099777   0.379831   0.381466   0.373136   0.384192
     2  H    0.379831   0.547376  -0.029192  -0.031368  -0.025987
     3  H    0.381466  -0.029192   0.540400  -0.024198  -0.027397
     4  H    0.373136  -0.031368  -0.024198   0.564774  -0.020638
     5  H    0.384192  -0.025987  -0.027397  -0.020638   0.527983
 Mulliken charges:
               1
     1  C   -0.618401
     2  H    0.159340
     3  H    0.158921
     4  H    0.138294
     5  H    0.161847
 Sum of Mulliken charges =   0.00000
 Mulliken charges with hydrogens summed into heavy atoms:
               1
     1  C    0.000000
 Electronic spatial extent (au):  <R**2>=             36.2850
 Charge=              0.0000 electrons
 Dipole moment (field-independent basis, Debye):
    X=             -0.0241    Y=              0.0430    Z=              0.0602  Tot=              0.0778
 Quadrupole moment (field-independent basis, Debye-Ang):
   XX=             -8.1463   YY=             -8.3071   ZZ=             -8.4741
   XY=              0.0701   XZ=              0.0782   YZ=             -0.0200
 Traceless Quadrupole moment (field-independent basis, Debye-Ang):
   XX=              0.1629   YY=              0.0021   ZZ=             -0.1649
   XY=              0.0701   XZ=              0.0782   YZ=             -0.0200
 Octapole moment (field-independent basis, Debye-Ang**2):
  XXX=              0.1657  YYY=              0.3686  ZZZ=              0.7917  XYY=             -0.5419
  XXY=             -0.4695  XXZ=             -0.3012  XZZ=              0.1415  YZZ=              0.2465
  YYZ=             -0.2678  XYZ=              0.1426
 Hexadecapole moment (field-independent basis, Debye-Ang**3):
 XXXX=            -16.2400 YYYY=            -15.4062 ZZZZ=            -15.1438 XXXY=              0.1525
 XXXZ=             -0.2385 YYYX=              0.1908 YYYZ=             -0.3616 ZZZX=              0.3402
 ZZZY=              0.1087 XXYY=             -5.1479 XXZZ=             -5.4467 YYZZ=             -5.2661
 XXYZ=              0.1647 YYXZ=              0.2184 ZZXY=             -0.0307
 N-N= 1.315108630255D+01 E-N=-1.192652025533D+02  KE= 3.997301079209D+01
 1\1\GINC-NODE61\SP\RB3LYP\6-31G(d)\C1H4\YANZ\22-Sep-2023\0\\# b3lyp/6-
 31g(d)\\tmpdir/M1_ref_1.gjf\\0,1\C,0,1.156149,-0.817712,31.046479\H,0,
 1.142456,-1.857358,31.380926\H,0,1.459053,-0.196692,31.899535\H,0,1.99
 542718,-0.79708707,30.22690376\H,0,0.17229165,-0.50936407,30.67720376\
 \Version=ES64L-G16RevA.03\State=1-A\HF=-40.5138759\RMSD=7.628e-09\Dipo
 le=-0.0059015,-0.0172226,0.0245945\Quadrupole=0.0991859,-0.05753,-0.04
 16559,-0.1010354,0.0130598,0.057862\PG=C01 [X(C1H4)]\\@


 I FIND THAT THE THREE TRULY GREAT TIMES FOR THINKING THOUGHTS
 ARE WHEN I AM STANDING IN THE SHOWER, SITTING ON THE JOHN, OR WALKING.

                                    -- COLIN FLETCHER
 Job cpu time:       0 days  0 hours  0 minutes  5.2 seconds.
 Elapsed time:       0 days  0 hours  0 minutes  1.4 seconds.
 File lengths (MBytes):  RWF=      6 Int=      0 D2E=      0 Chk=      1 Scr=      1
 Normal termination of Gaussian 16 at Fri Sep 22 17:00:11 2023.
