 Entering Gaussian System, Link 0=g16
 Initial command:
 /share/apps/gaussian/g16/l1.exe "/tmp/55621.mgr/Gau-119936.inp" -scrdir="/tmp/55621.mgr/"
 Entering Link 1 = /share/apps/gaussian/g16/l1.exe PID=    119937.
  
 Copyright (c) 1988,1990,1992,1993,1995,1998,2003,2009,2016,
            Gaussian, Inc.  All Rights Reserved.
  
 This is part of the Gaussian(R) 16 program.  It is based on
 the Gaussian(R) 09 system (copyright 2009, Gaussian, Inc.),
 the Gaussian(R) 03 system (copyright 2003, Gaussian, Inc.),
 the Gaussian(R) 98 system (copyright 1998, Gaussian, Inc.),
 the Gaussian(R) 94 system (copyright 1995, Gaussian, Inc.),
 the Gaussian 92(TM) system (copyright 1992, Gaussian, Inc.),
 the Gaussian 90(TM) system (copyright 1990, Gaussian, Inc.),
 the Gaussian 88(TM) system (copyright 1988, Gaussian, Inc.),
 the Gaussian 86(TM) system (copyright 1986, Carnegie Mellon
 University), and the Gaussian 82(TM) system (copyright 1983,
 Carnegie Mellon University). Gaussian is a federally registered
 trademark of Gaussian, Inc.
  
 This software contains proprietary and confidential information,
 including trade secrets, belonging to Gaussian, Inc.
  
 This software is provided under written license and may be
 used, copied, transmitted, or stored only in accord with that
 written license.
  
 The following legend is applicable only to US Government
 contracts under FAR:
  
                    RESTRICTED RIGHTS LEGEND
  
 Use, reproduction and disclosure by the US Government is
 subject to restrictions as set forth in subparagraphs (a)
 and (c) of the Commercial Computer Software - Restricted
 Rights clause in FAR 52.227-19.
  
 Gaussian, Inc.
 340 Quinnipiac St., Bldg. 40, Wallingford CT 06492
  
  
 ---------------------------------------------------------------
 Warning -- This program may not be used in any manner that
 competes with the business of Gaussian, Inc. or will provide
 assistance to any competitor of Gaussian, Inc.  The licensee
 of this program is prohibited from giving any competitor of
 Gaussian, Inc. access to this program.  By using this program,
 the user acknowledges that Gaussian, Inc. is engaged in the
 business of creating and licensing software in the field of
 computational chemistry and represents and warrants to the
 licensee that it is not a competitor of Gaussian, Inc. and that
 it will not use this program in any manner prohibited above.
 ---------------------------------------------------------------
  

 Cite this work as:
 Gaussian 16, Revision A.03,
 M. J. Frisch, G. W. Trucks, H. B. Schlegel, G. E. Scuseria, 
 M. A. Robb, J. R. Cheeseman, G. Scalmani, V. Barone, 
 G. A. Petersson, H. Nakatsuji, X. Li, M. Caricato, A. V. Marenich, 
 J. Bloino, B. G. Janesko, R. Gomperts, B. Mennucci, H. P. Hratchian, 
 J. V. Ortiz, A. F. Izmaylov, J. L. Sonnenberg, D. Williams-Young, 
 F. Ding, F. Lipparini, F. Egidi, J. Goings, B. Peng, A. Petrone, 
 T. Henderson, D. Ranasinghe, V. G. Zakrzewski, J. Gao, N. Rega, 
 G. Zheng, W. Liang, M. Hada, M. Ehara, K. Toyota, R. Fukuda, 
 J. Hasegawa, M. Ishida, T. Nakajima, Y. Honda, O. Kitao, H. Nakai, 
 T. Vreven, K. Throssell, J. A. Montgomery, Jr., J. E. Peralta, 
 F. Ogliaro, M. J. Bearpark, J. J. Heyd, E. N. Brothers, K. N. Kudin, 
 V. N. Staroverov, T. A. Keith, R. Kobayashi, J. Normand, 
 K. Raghavachari, A. P. Rendell, J. C. Burant, S. S. Iyengar, 
 J. Tomasi, M. Cossi, J. M. Millam, M. Klene, C. Adamo, R. Cammi, 
 J. W. Ochterski, R. L. Martin, K. Morokuma, O. Farkas, 
 J. B. Foresman, and D. J. Fox, Gaussian, Inc., Wallingford CT, 2016.
 
 ******************************************
 Gaussian 16:  ES64L-G16RevA.03 25-Dec-2016
                22-Sep-2023 
 ******************************************
 %nprocshared=2
 Will use up to    2 processors via shared memory.
 %mem=2GB
 ----------------
 # b3lyp/6-31g(d)
 ----------------
 1/38=1,172=1/1;
 2/12=2,17=6,18=5,40=1/2;
 3/5=1,6=6,7=1,11=2,25=1,30=1,74=-5/1,2,3;
 4//1;
 5/5=2,38=5/2;
 6/7=2,8=2,9=2,10=2,28=1/1;
 99/5=1,9=1/99;
 -----------------------
 tmpdir/M2_conf_0_64.gjf
 -----------------------
 Symbolic Z-matrix:
 Charge =  0 Multiplicity = 1
 C                     0.        0.        0. 
 H                     1.098     0.        0. 
 H                    -0.39359   0.       -1.10532 
 H                    -0.33206  -0.96219   0.396 
 H                    -0.38408   0.82871   0.6043 
 
                          Input orientation:                          
 ---------------------------------------------------------------------
 Center     Atomic      Atomic             Coordinates (Angstroms)
 Number     Number       Type             X           Y           Z
 ---------------------------------------------------------------------
      1          6           0        0.000000    0.000000    0.000000
      2          1           0        1.098000    0.000000    0.000000
      3          1           0       -0.393590    0.000000   -1.105320
      4          1           0       -0.332060   -0.962190    0.396000
      5          1           0       -0.384080    0.828710    0.604300
 ---------------------------------------------------------------------
                    Distance matrix (angstroms):
                    1          2          3          4          5
     1  C    0.000000
     2  H    1.098000   0.000000
     3  H    1.173305   1.856495   0.000000
     4  H    1.092195   1.768530   1.784253   0.000000
     5  H    1.095197   1.802360   1.899908   1.803723   0.000000
 Stoichiometry    CH4
 Framework group  C1[X(CH4)]
 Deg. of freedom     9
 Full point group                 C1      NOp   1
 Largest Abelian subgroup         C1      NOp   1
 Largest concise Abelian subgroup C1      NOp   1
                         Standard orientation:                         
 ---------------------------------------------------------------------
 Center     Atomic      Atomic             Coordinates (Angstroms)
 Number     Number       Type             X           Y           Z
 ---------------------------------------------------------------------
      1          6           0       -0.015269   -0.005865   -0.004722
      2          1           0       -0.328717    0.948135   -0.448837
      3          1           0        1.029229   -0.317745   -0.438772
      4          1           0        0.183674    0.170475    1.054625
      5          1           0       -0.792572   -0.765675   -0.138684
 ---------------------------------------------------------------------
 Rotational constants (GHZ):         159.6363308         149.3671816         145.4709817
 Standard basis: 6-31G(d) (6D, 7F)
 There are    23 symmetry adapted cartesian basis functions of A   symmetry.
 There are    23 symmetry adapted basis functions of A   symmetry.
    23 basis functions,    44 primitive gaussians,    23 cartesian basis functions
     5 alpha electrons        5 beta electrons
       nuclear repulsion energy        13.1502441439 Hartrees.
 NAtoms=    5 NActive=    5 NUniq=    5 SFac= 1.00D+00 NAtFMM=   60 NAOKFM=F Big=F
 Integral buffers will be    131072 words long.
 Raffenetti 2 integral format.
 Two-electron integral symmetry is turned on.
 One-electron integrals computed using PRISM.
 NBasis=    23 RedAO= T EigKep=  1.91D-02  NBF=    23
 NBsUse=    23 1.00D-06 EigRej= -1.00D+00 NBFU=    23
 ExpMin= 1.61D-01 ExpMax= 3.05D+03 ExpMxC= 4.57D+02 IAcc=3 IRadAn=         5 AccDes= 0.00D+00
 Harris functional with IExCor=  402 and IRadAn=       5 diagonalized for initial guess.
 HarFok:  IExCor=  402 AccDes= 0.00D+00 IRadAn=         5 IDoV= 1 UseB2=F ITyADJ=14
 ICtDFT=  3500011 ScaDFX=  1.000000  1.000000  1.000000  1.000000
 FoFCou: FMM=F IPFlag=           0 FMFlag=      100000 FMFlg1=           0
         NFxFlg=           0 DoJE=T BraDBF=F KetDBF=T FulRan=T
         wScrn=  0.000000 ICntrl=       500 IOpCl=  0 I1Cent=   200000004 NGrid=           0
         NMat0=    1 NMatS0=      1 NMatT0=    0 NMatD0=    1 NMtDS0=    0 NMtDT0=    0
 Petite list used in FoFCou.
 Keep R1 ints in memory in canonical form, NReq=1762518.
 Requested convergence on RMS density matrix=1.00D-08 within 128 cycles.
 Requested convergence on MAX density matrix=1.00D-06.
 Requested convergence on             energy=1.00D-06.
 No special actions if energy rises.
 Integral accuracy reduced to 1.0D-05 until final iterations.
 Initial convergence to 1.0D-05 achieved.  Increase integral accuracy.
 SCF Done:  E(RB3LYP) =  -40.5138699475     A.U. after    9 cycles
            NFock=  9  Conv=0.77D-08     -V/T= 2.0135

 **********************************************************************

            Population analysis using the SCF density.

 **********************************************************************

 Orbital symmetries:
       Occupied  (A) (A) (A) (A) (A)
       Virtual   (A) (A) (A) (A) (A) (A) (A) (A) (A) (A) (A) (A)
                 (A) (A) (A) (A) (A) (A)
 The electronic state is 1-A.
 Alpha  occ. eigenvalues --  -10.17576  -0.68487  -0.39666  -0.38790  -0.37195
 Alpha virt. eigenvalues --    0.11022   0.15792   0.17453   0.17759   0.53067
 Alpha virt. eigenvalues --    0.53407   0.55550   0.84735   0.89221   0.89860
 Alpha virt. eigenvalues --    0.93051   1.09381   1.66111   1.66225   2.16226
 Alpha virt. eigenvalues --    2.23367   2.24797   4.16393
          Condensed to atoms (all electrons):
               1          2          3          4          5
     1  C    5.099797   0.381440   0.373123   0.379823   0.384185
     2  H    0.381440   0.540451  -0.024195  -0.029184  -0.027387
     3  H    0.373123  -0.024195   0.564794  -0.031371  -0.020637
     4  H    0.379823  -0.029184  -0.031371   0.547374  -0.025995
     5  H    0.384185  -0.027387  -0.020637  -0.025995   0.527981
 Mulliken charges:
               1
     1  C   -0.618368
     2  H    0.158875
     3  H    0.138287
     4  H    0.159352
     5  H    0.161854
 Sum of Mulliken charges =   0.00000
 Mulliken charges with hydrogens summed into heavy atoms:
               1
     1  C    0.000000
 Electronic spatial extent (au):  <R**2>=             36.2876
 Charge=              0.0000 electrons
 Dipole moment (field-independent basis, Debye):
    X=             -0.0241    Y=              0.0427    Z=              0.0604  Tot=              0.0778
 Quadrupole moment (field-independent basis, Debye-Ang):
   XX=             -8.1466   YY=             -8.3070   ZZ=             -8.4744
   XY=              0.0700   XZ=              0.0784   YZ=             -0.0197
 Traceless Quadrupole moment (field-independent basis, Debye-Ang):
   XX=              0.1628   YY=              0.0023   ZZ=             -0.1651
   XY=              0.0700   XZ=              0.0784   YZ=             -0.0197
 Octapole moment (field-independent basis, Debye-Ang**2):
  XXX=              0.1665  YYY=              0.3701  ZZZ=              0.7943  XYY=             -0.5433
  XXY=             -0.4685  XXZ=             -0.3025  XZZ=              0.1422  YZZ=              0.2426
  YYZ=             -0.2681  XYZ=              0.1406
 Hexadecapole moment (field-independent basis, Debye-Ang**3):
 XXXX=            -16.2414 YYYY=            -15.4043 ZZZZ=            -15.1434 XXXY=              0.1534
 XXXZ=             -0.2383 YYYX=              0.1893 YYYZ=             -0.3598 ZZZX=              0.3398
 ZZZY=              0.1076 XXYY=             -5.1496 XXZZ=             -5.4462 YYZZ=             -5.2694
 XXYZ=              0.1656 YYXZ=              0.2195 ZZXY=             -0.0304
 N-N= 1.315024414392D+01 E-N=-1.192632687989D+02  KE= 3.997266490285D+01
 1\1\GINC-NODE60\SP\RB3LYP\6-31G(d)\C1H4\YANZ\22-Sep-2023\0\\# b3lyp/6-
 31g(d)\\tmpdir/M2_conf_0_64.gjf\\0,1\C,0,0.,0.,0.\H,0,1.098,0.,0.\H,0,
 -0.39359,0.,-1.10532\H,0,-0.33206,-0.96219,0.396\H,0,-0.38408,0.82871,
 0.6043\\Version=ES64L-G16RevA.03\State=1-A\HF=-40.5138699\RMSD=7.662e-
 09\Dipole=0.007675,-0.0215807,0.0202959\Quadrupole=-0.0109596,0.010194
 ,0.0007655,-0.0054638,0.0219705,0.1433442\PG=C01 [X(C1H4)]\\@


 THE TEST OF A FIRST RATE INTELLIGENCE IS THE ABILITY TO HOLD TWO OPPOSED
 IDEAS IN THE MIND AT THE SAME TIME, AND STILL RETAIN THE ABILITY TO FUNCTION.
 ONE SHOULD, FOR EXAMPLE, BE ABLE TO SEE THAT THINGS ARE HOPELESS AND YET BE
 DETERMINED TO MAKE THEM OTHERWISE.

                                                       -- F. SCOTT FITZGERALD
 Job cpu time:       0 days  0 hours  0 minutes  3.5 seconds.
 Elapsed time:       0 days  0 hours  0 minutes  1.8 seconds.
 File lengths (MBytes):  RWF=      6 Int=      0 D2E=      0 Chk=      1 Scr=      1
 Normal termination of Gaussian 16 at Fri Sep 22 17:02:30 2023.
