 Entering Gaussian System, Link 0=g16
 Initial command:
 /share/apps/gaussian/g16/l1.exe "/tmp/55621.mgr/Gau-119805.inp" -scrdir="/tmp/55621.mgr/"
 Entering Link 1 = /share/apps/gaussian/g16/l1.exe PID=    119806.
  
 Copyright (c) 1988,1990,1992,1993,1995,1998,2003,2009,2016,
            Gaussian, Inc.  All Rights Reserved.
  
 This is part of the Gaussian(R) 16 program.  It is based on
 the Gaussian(R) 09 system (copyright 2009, Gaussian, Inc.),
 the Gaussian(R) 03 system (copyright 2003, Gaussian, Inc.),
 the Gaussian(R) 98 system (copyright 1998, Gaussian, Inc.),
 the Gaussian(R) 94 system (copyright 1995, Gaussian, Inc.),
 the Gaussian 92(TM) system (copyright 1992, Gaussian, Inc.),
 the Gaussian 90(TM) system (copyright 1990, Gaussian, Inc.),
 the Gaussian 88(TM) system (copyright 1988, Gaussian, Inc.),
 the Gaussian 86(TM) system (copyright 1986, Carnegie Mellon
 University), and the Gaussian 82(TM) system (copyright 1983,
 Carnegie Mellon University). Gaussian is a federally registered
 trademark of Gaussian, Inc.
  
 This software contains proprietary and confidential information,
 including trade secrets, belonging to Gaussian, Inc.
  
 This software is provided under written license and may be
 used, copied, transmitted, or stored only in accord with that
 written license.
  
 The following legend is applicable only to US Government
 contracts under FAR:
  
                    RESTRICTED RIGHTS LEGEND
  
 Use, reproduction and disclosure by the US Government is
 subject to restrictions as set forth in subparagraphs (a)
 and (c) of the Commercial Computer Software - Restricted
 Rights clause in FAR 52.227-19.
  
 Gaussian, Inc.
 340 Quinnipiac St., Bldg. 40, Wallingford CT 06492
  
  
 ---------------------------------------------------------------
 Warning -- This program may not be used in any manner that
 competes with the business of Gaussian, Inc. or will provide
 assistance to any competitor of Gaussian, Inc.  The licensee
 of this program is prohibited from giving any competitor of
 Gaussian, Inc. access to this program.  By using this program,
 the user acknowledges that Gaussian, Inc. is engaged in the
 business of creating and licensing software in the field of
 computational chemistry and represents and warrants to the
 licensee that it is not a competitor of Gaussian, Inc. and that
 it will not use this program in any manner prohibited above.
 ---------------------------------------------------------------
  

 Cite this work as:
 Gaussian 16, Revision A.03,
 M. J. Frisch, G. W. Trucks, H. B. Schlegel, G. E. Scuseria, 
 M. A. Robb, J. R. Cheeseman, G. Scalmani, V. Barone, 
 G. A. Petersson, H. Nakatsuji, X. Li, M. Caricato, A. V. Marenich, 
 J. Bloino, B. G. Janesko, R. Gomperts, B. Mennucci, H. P. Hratchian, 
 J. V. Ortiz, A. F. Izmaylov, J. L. Sonnenberg, D. Williams-Young, 
 F. Ding, F. Lipparini, F. Egidi, J. Goings, B. Peng, A. Petrone, 
 T. Henderson, D. Ranasinghe, V. G. Zakrzewski, J. Gao, N. Rega, 
 G. Zheng, W. Liang, M. Hada, M. Ehara, K. Toyota, R. Fukuda, 
 J. Hasegawa, M. Ishida, T. Nakajima, Y. Honda, O. Kitao, H. Nakai, 
 T. Vreven, K. Throssell, J. A. Montgomery, Jr., J. E. Peralta, 
 F. Ogliaro, M. J. Bearpark, J. J. Heyd, E. N. Brothers, K. N. Kudin, 
 V. N. Staroverov, T. A. Keith, R. Kobayashi, J. Normand, 
 K. Raghavachari, A. P. Rendell, J. C. Burant, S. S. Iyengar, 
 J. Tomasi, M. Cossi, J. M. Millam, M. Klene, C. Adamo, R. Cammi, 
 J. W. Ochterski, R. L. Martin, K. Morokuma, O. Farkas, 
 J. B. Foresman, and D. J. Fox, Gaussian, Inc., Wallingford CT, 2016.
 
 ******************************************
 Gaussian 16:  ES64L-G16RevA.03 25-Dec-2016
                22-Sep-2023 
 ******************************************
 %nprocshared=2
 Will use up to    2 processors via shared memory.
 %mem=2GB
 ----------------
 # b3lyp/6-31g(d)
 ----------------
 1/38=1,172=1/1;
 2/12=2,17=6,18=5,40=1/2;
 3/5=1,6=6,7=1,11=2,25=1,30=1,74=-5/1,2,3;
 4//1;
 5/5=2,38=5/2;
 6/7=2,8=2,9=2,10=2,28=1/1;
 99/5=1,9=1/99;
 -----------------------
 tmpdir/M2_conf_0_57.gjf
 -----------------------
 Symbolic Z-matrix:
 Charge =  0 Multiplicity = 1
 C                     0.        0.        0. 
 C                     1.4596    0.        0. 
 C                     2.53382   0.        0.55778 
 H                    -0.32759  -0.41228   0.99483 
 H                    -0.43262  -0.59188  -0.81645 
 H                    -0.37512   1.02567  -0.12194 
 H                     3.1977   -0.11283   1.37497 
 
                          Input orientation:                          
 ---------------------------------------------------------------------
 Center     Atomic      Atomic             Coordinates (Angstroms)
 Number     Number       Type             X           Y           Z
 ---------------------------------------------------------------------
      1          6           0        0.000000    0.000000    0.000000
      2          6           0        1.459600    0.000000    0.000000
      3          6           0        2.533820    0.000000    0.557780
      4          1           0       -0.327590   -0.412280    0.994830
      5          1           0       -0.432620   -0.591880   -0.816450
      6          1           0       -0.375120    1.025670   -0.121940
      7          1           0        3.197700   -0.112830    1.374970
 ---------------------------------------------------------------------
                    Distance matrix (angstroms):
                    1          2          3          4          5
     1  C    0.000000
     2  C    1.459600   0.000000
     3  C    2.594487   1.210400   0.000000
     4  H    1.125601   2.086554   2.923808   0.000000
     5  H    1.097302   2.144157   3.322438   1.823190   0.000000
     6  H    1.098901   2.105485   3.158473   1.821300   1.761283
     7  H    3.482608   2.219068   1.058899   3.558349   4.267439
                    6          7
     6  H    0.000000
     7  H    4.037569   0.000000
 Stoichiometry    C3H4
 Framework group  C1[X(C3H4)]
 Deg. of freedom    15
 Full point group                 C1      NOp   1
 Largest Abelian subgroup         C1      NOp   1
 Largest concise Abelian subgroup C1      NOp   1
                         Standard orientation:                         
 ---------------------------------------------------------------------
 Center     Atomic      Atomic             Coordinates (Angstroms)
 Number     Number       Type             X           Y           Z
 ---------------------------------------------------------------------
      1          6           0        1.199853    0.081748    0.003452
      2          6           0       -0.214514   -0.277384   -0.028548
      3          6           0       -1.393135   -0.005510    0.016214
      4          1           0        1.267975    1.169822   -0.276604
      5          1           0        1.815250   -0.523199   -0.674337
      6          1           0        1.602741   -0.070447    1.014442
      7          1           0       -2.239192    0.630694   -0.010211
 ---------------------------------------------------------------------
 Rotational constants (GHZ):         109.9099847           9.1629772           8.9313690
 Standard basis: 6-31G(d) (6D, 7F)
 There are    53 symmetry adapted cartesian basis functions of A   symmetry.
 There are    53 symmetry adapted basis functions of A   symmetry.
    53 basis functions,   100 primitive gaussians,    53 cartesian basis functions
    11 alpha electrons       11 beta electrons
       nuclear repulsion energy        58.9202221792 Hartrees.
 NAtoms=    7 NActive=    7 NUniq=    7 SFac= 1.00D+00 NAtFMM=   60 NAOKFM=F Big=F
 Integral buffers will be    131072 words long.
 Raffenetti 2 integral format.
 Two-electron integral symmetry is turned on.
 One-electron integrals computed using PRISM.
 NBasis=    53 RedAO= T EigKep=  1.51D-03  NBF=    53
 NBsUse=    53 1.00D-06 EigRej= -1.00D+00 NBFU=    53
 ExpMin= 1.61D-01 ExpMax= 3.05D+03 ExpMxC= 4.57D+02 IAcc=3 IRadAn=         5 AccDes= 0.00D+00
 Harris functional with IExCor=  402 and IRadAn=       5 diagonalized for initial guess.
 HarFok:  IExCor=  402 AccDes= 0.00D+00 IRadAn=         5 IDoV= 1 UseB2=F ITyADJ=14
 ICtDFT=  3500011 ScaDFX=  1.000000  1.000000  1.000000  1.000000
 FoFCou: FMM=F IPFlag=           0 FMFlag=      100000 FMFlg1=           0
         NFxFlg=           0 DoJE=T BraDBF=F KetDBF=T FulRan=T
         wScrn=  0.000000 ICntrl=       500 IOpCl=  0 I1Cent=   200000004 NGrid=           0
         NMat0=    1 NMatS0=      1 NMatT0=    0 NMatD0=    1 NMtDS0=    0 NMtDT0=    0
 Petite list used in FoFCou.
 Keep R1 ints in memory in canonical form, NReq=2776208.
 Requested convergence on RMS density matrix=1.00D-08 within 128 cycles.
 Requested convergence on MAX density matrix=1.00D-06.
 Requested convergence on             energy=1.00D-06.
 No special actions if energy rises.
 Integral accuracy reduced to 1.0D-05 until final iterations.
 Initial convergence to 1.0D-05 achieved.  Increase integral accuracy.
 SCF Done:  E(RB3LYP) =  -116.632650761     A.U. after   12 cycles
            NFock= 12  Conv=0.48D-08     -V/T= 2.0101

 **********************************************************************

            Population analysis using the SCF density.

 **********************************************************************

 Orbital symmetries:
       Occupied  (A) (A) (A) (A) (A) (A) (A) (A) (A) (A) (A)
       Virtual   (A) (A) (A) (A) (A) (A) (A) (A) (A) (A) (A) (A)
                 (A) (A) (A) (A) (A) (A) (A) (A) (A) (A) (A) (A)
                 (A) (A) (A) (A) (A) (A) (A) (A) (A) (A) (A) (A)
                 (A) (A) (A) (A) (A) (A)
 The electronic state is 1-A.
 Alpha  occ. eigenvalues --  -10.21000 -10.18371 -10.17102  -0.77641  -0.69004
 Alpha  occ. eigenvalues --   -0.52019  -0.44192  -0.42992  -0.42627  -0.25938
 Alpha  occ. eigenvalues --   -0.25700
 Alpha virt. eigenvalues --    0.00615   0.06199   0.11453   0.14715   0.17518
 Alpha virt. eigenvalues --    0.18308   0.26375   0.44340   0.45544   0.52611
 Alpha virt. eigenvalues --    0.54263   0.61614   0.63148   0.64567   0.70482
 Alpha virt. eigenvalues --    0.75177   0.79558   0.85375   0.87269   0.88106
 Alpha virt. eigenvalues --    0.93087   1.07734   1.23963   1.37644   1.42425
 Alpha virt. eigenvalues --    1.53794   1.56503   1.66511   1.82070   1.86467
 Alpha virt. eigenvalues --    1.98758   2.04364   2.16072   2.20535   2.28645
 Alpha virt. eigenvalues --    2.51782   2.67085   2.79510   3.25624   4.09847
 Alpha virt. eigenvalues --    4.20442   4.52228
          Condensed to atoms (all electrons):
               1          2          3          4          5          6
     1  C    5.101604   0.403403  -0.082481   0.380629   0.357562   0.364263
     2  C    0.403403   4.704193   0.908318  -0.034464  -0.030197  -0.031420
     3  C   -0.082481   0.908318   5.116198  -0.012156   0.003694  -0.000066
     4  H    0.380629  -0.034464  -0.012156   0.538916  -0.029363  -0.026822
     5  H    0.357562  -0.030197   0.003694  -0.029363   0.559084  -0.033222
     6  H    0.364263  -0.031420  -0.000066  -0.026822  -0.033222   0.546866
     7  H    0.002631  -0.018865   0.360549  -0.000108  -0.000038  -0.000013
               7
     1  C    0.002631
     2  C   -0.018865
     3  C    0.360549
     4  H   -0.000108
     5  H   -0.000038
     6  H   -0.000013
     7  H    0.469472
 Mulliken charges:
               1
     1  C   -0.527610
     2  C    0.099033
     3  C   -0.294055
     4  H    0.183368
     5  H    0.172479
     6  H    0.180414
     7  H    0.186372
 Sum of Mulliken charges =   0.00000
 Mulliken charges with hydrogens summed into heavy atoms:
               1
     1  C    0.008651
     2  C    0.099033
     3  C   -0.107684
 Electronic spatial extent (au):  <R**2>=            172.0271
 Charge=              0.0000 electrons
 Dipole moment (field-independent basis, Debye):
    X=              0.8078    Y=              0.8935    Z=              0.0125  Tot=              1.2045
 Quadrupole moment (field-independent basis, Debye-Ang):
   XX=            -15.3382   YY=            -18.4060   ZZ=            -19.1585
   XY=             -1.8143   XZ=              0.1068   YZ=             -0.0769
 Traceless Quadrupole moment (field-independent basis, Debye-Ang):
   XX=              2.2961   YY=             -0.7718   ZZ=             -1.5243
   XY=             -1.8143   XZ=              0.1068   YZ=             -0.0769
 Octapole moment (field-independent basis, Debye-Ang**2):
  XXX=             -4.4051  YYY=              2.5157  ZZZ=              0.5787  XYY=              1.0022
  XXY=              3.7558  XXZ=             -0.1228  XZZ=              2.3799  YZZ=              0.1597
  YYZ=             -0.4437  XYZ=              0.0386
 Hexadecapole moment (field-independent basis, Debye-Ang**3):
 XXXX=           -161.7366 YYYY=            -29.5042 ZZZZ=            -26.0607 XXXY=            -11.3797
 XXXZ=              0.2593 YYYX=             -1.6072 YYYZ=             -0.4028 ZZZX=              1.0091
 ZZZY=             -0.0170 XXYY=            -32.9026 XXZZ=            -34.2196 YYZZ=             -9.6000
 XXYZ=              0.2756 YYXZ=             -0.5996 ZZXY=             -1.1046
 N-N= 5.892022217915D+01 E-N=-3.875414265202D+02  KE= 1.154614473795D+02
 1\1\GINC-NODE60\SP\RB3LYP\6-31G(d)\C3H4\YANZ\22-Sep-2023\0\\# b3lyp/6-
 31g(d)\\tmpdir/M2_conf_0_57.gjf\\0,1\C,0,0.,0.,0.\C,0,1.4596,0.,0.\C,0
 ,2.53382,0.,0.55778\H,0,-0.32759,-0.41228,0.99483\H,0,-0.43262,-0.5918
 8,-0.81645\H,0,-0.37512,1.02567,-0.12194\H,0,3.1977,-0.11283,1.37497\\
 Version=ES64L-G16RevA.03\State=1-A\HF=-116.6326508\RMSD=4.849e-09\Dipo
 le=-0.3945516,-0.0358605,0.2600515\Quadrupole=0.9271565,-1.1058989,0.1
 787423,-0.2296165,1.71558,-0.199172\PG=C01 [X(C3H4)]\\@


 A CHEMICAL PHYSICIST MAKES PRECISE MEASUREMENTS ON IMPURE COMPOUNDS.
 A THEORETICAL PHYSICAL CHEMIST MAKES IMPRECISE
     MEASUREMENTS ON PURE COMPOUNDS.
 AN EXPERIMENTAL PHYSICAL CHEMIST MAKES IMPRECISE
     MEASUREMENTS ON IMPURE COMPOUNDS.
 Job cpu time:       0 days  0 hours  0 minutes  9.5 seconds.
 Elapsed time:       0 days  0 hours  0 minutes  4.9 seconds.
 File lengths (MBytes):  RWF=      6 Int=      0 D2E=      0 Chk=      1 Scr=      1
 Normal termination of Gaussian 16 at Fri Sep 22 17:02:29 2023.
