 Entering Gaussian System, Link 0=g16
 Initial command:
 /share/apps/gaussian/g16/l1.exe "/tmp/55621.mgr/Gau-119377.inp" -scrdir="/tmp/55621.mgr/"
 Entering Link 1 = /share/apps/gaussian/g16/l1.exe PID=    119380.
  
 Copyright (c) 1988,1990,1992,1993,1995,1998,2003,2009,2016,
            Gaussian, Inc.  All Rights Reserved.
  
 This is part of the Gaussian(R) 16 program.  It is based on
 the Gaussian(R) 09 system (copyright 2009, Gaussian, Inc.),
 the Gaussian(R) 03 system (copyright 2003, Gaussian, Inc.),
 the Gaussian(R) 98 system (copyright 1998, Gaussian, Inc.),
 the Gaussian(R) 94 system (copyright 1995, Gaussian, Inc.),
 the Gaussian 92(TM) system (copyright 1992, Gaussian, Inc.),
 the Gaussian 90(TM) system (copyright 1990, Gaussian, Inc.),
 the Gaussian 88(TM) system (copyright 1988, Gaussian, Inc.),
 the Gaussian 86(TM) system (copyright 1986, Carnegie Mellon
 University), and the Gaussian 82(TM) system (copyright 1983,
 Carnegie Mellon University). Gaussian is a federally registered
 trademark of Gaussian, Inc.
  
 This software contains proprietary and confidential information,
 including trade secrets, belonging to Gaussian, Inc.
  
 This software is provided under written license and may be
 used, copied, transmitted, or stored only in accord with that
 written license.
  
 The following legend is applicable only to US Government
 contracts under FAR:
  
                    RESTRICTED RIGHTS LEGEND
  
 Use, reproduction and disclosure by the US Government is
 subject to restrictions as set forth in subparagraphs (a)
 and (c) of the Commercial Computer Software - Restricted
 Rights clause in FAR 52.227-19.
  
 Gaussian, Inc.
 340 Quinnipiac St., Bldg. 40, Wallingford CT 06492
  
  
 ---------------------------------------------------------------
 Warning -- This program may not be used in any manner that
 competes with the business of Gaussian, Inc. or will provide
 assistance to any competitor of Gaussian, Inc.  The licensee
 of this program is prohibited from giving any competitor of
 Gaussian, Inc. access to this program.  By using this program,
 the user acknowledges that Gaussian, Inc. is engaged in the
 business of creating and licensing software in the field of
 computational chemistry and represents and warrants to the
 licensee that it is not a competitor of Gaussian, Inc. and that
 it will not use this program in any manner prohibited above.
 ---------------------------------------------------------------
  

 Cite this work as:
 Gaussian 16, Revision A.03,
 M. J. Frisch, G. W. Trucks, H. B. Schlegel, G. E. Scuseria, 
 M. A. Robb, J. R. Cheeseman, G. Scalmani, V. Barone, 
 G. A. Petersson, H. Nakatsuji, X. Li, M. Caricato, A. V. Marenich, 
 J. Bloino, B. G. Janesko, R. Gomperts, B. Mennucci, H. P. Hratchian, 
 J. V. Ortiz, A. F. Izmaylov, J. L. Sonnenberg, D. Williams-Young, 
 F. Ding, F. Lipparini, F. Egidi, J. Goings, B. Peng, A. Petrone, 
 T. Henderson, D. Ranasinghe, V. G. Zakrzewski, J. Gao, N. Rega, 
 G. Zheng, W. Liang, M. Hada, M. Ehara, K. Toyota, R. Fukuda, 
 J. Hasegawa, M. Ishida, T. Nakajima, Y. Honda, O. Kitao, H. Nakai, 
 T. Vreven, K. Throssell, J. A. Montgomery, Jr., J. E. Peralta, 
 F. Ogliaro, M. J. Bearpark, J. J. Heyd, E. N. Brothers, K. N. Kudin, 
 V. N. Staroverov, T. A. Keith, R. Kobayashi, J. Normand, 
 K. Raghavachari, A. P. Rendell, J. C. Burant, S. S. Iyengar, 
 J. Tomasi, M. Cossi, J. M. Millam, M. Klene, C. Adamo, R. Cammi, 
 J. W. Ochterski, R. L. Martin, K. Morokuma, O. Farkas, 
 J. B. Foresman, and D. J. Fox, Gaussian, Inc., Wallingford CT, 2016.
 
 ******************************************
 Gaussian 16:  ES64L-G16RevA.03 25-Dec-2016
                22-Sep-2023 
 ******************************************
 %nprocshared=2
 Will use up to    2 processors via shared memory.
 %mem=2GB
 ----------------
 # b3lyp/6-31g(d)
 ----------------
 1/38=1,172=1/1;
 2/12=2,17=6,18=5,40=1/2;
 3/5=1,6=6,7=1,11=2,25=1,30=1,74=-5/1,2,3;
 4//1;
 5/5=2,38=5/2;
 6/7=2,8=2,9=2,10=2,28=1/1;
 99/5=1,9=1/99;
 -----------------------
 tmpdir/M2_conf_0_13.gjf
 -----------------------
 Symbolic Z-matrix:
 Charge =  0 Multiplicity = 1
 C                     0.        0.        0. 
 C                     1.5643    0.        0. 
 C                     2.3029    0.        1.36373 
 H                    -0.5358    0.943    -0.29082 
 H                    -0.36769  -0.34206   0.97732 
 H                    -0.31985  -0.76926  -0.71384 
 H                     1.93378   0.83305  -0.61283 
 H                     1.8831   -0.91131  -0.52149 
 H                     2.49032   1.01431   1.81432 
 H                     1.73036  -0.60091   2.0821 
 H                     3.27416  -0.49905   1.24698 
 
                          Input orientation:                          
 ---------------------------------------------------------------------
 Center     Atomic      Atomic             Coordinates (Angstroms)
 Number     Number       Type             X           Y           Z
 ---------------------------------------------------------------------
      1          6           0        0.000000    0.000000    0.000000
      2          6           0        1.564300    0.000000    0.000000
      3          6           0        2.302900    0.000000    1.363730
      4          1           0       -0.535800    0.943000   -0.290820
      5          1           0       -0.367690   -0.342060    0.977320
      6          1           0       -0.319850   -0.769260   -0.713840
      7          1           0        1.933780    0.833050   -0.612830
      8          1           0        1.883100   -0.911310   -0.521490
      9          1           0        2.490320    1.014310    1.814320
     10          1           0        1.730360   -0.600910    2.082100
     11          1           0        3.274160   -0.499050    1.246980
 ---------------------------------------------------------------------
                    Distance matrix (angstroms):
                    1          2          3          4          5
     1  C    0.000000
     2  C    1.564300   0.000000
     3  C    2.676398   1.550900   0.000000
     4  H    1.122901   2.320398   3.418333   0.000000
     5  H    1.098797   2.191973   2.719994   1.813234   0.000000
     6  H    1.097102   2.156699   3.433202   1.776912   1.744939
     7  H    2.192952   1.098202   2.176468   2.492911   3.034176
     8  H    2.156039   1.097302   2.135596   3.056591   2.763428
     9  H    3.243806   2.275543   1.125603   3.687018   3.272389
    10  H    2.773153   2.173433   1.097702   3.626278   2.385237
    11  H    3.538945   2.174312   1.098193   4.354323   3.655193
                    6          7          8          9         10
     6  H    0.000000
     7  H    2.767029   0.000000
     8  H    2.215889   1.747485   0.000000
     9  H    4.179685   2.496728   3.087513   0.000000
    10  H    3.471165   3.059456   2.626473   1.805043   0.000000
    11  H    4.103016   2.651415   2.287464   1.796257   1.758158
                   11
    11  H    0.000000
 Stoichiometry    C3H8
 Framework group  C1[X(C3H8)]
 Deg. of freedom    27
 Full point group                 C1      NOp   1
 Largest Abelian subgroup         C1      NOp   1
 Largest concise Abelian subgroup C1      NOp   1
                         Standard orientation:                         
 ---------------------------------------------------------------------
 Center     Atomic      Atomic             Coordinates (Angstroms)
 Number     Number       Type             X           Y           Z
 ---------------------------------------------------------------------
      1          6           0       -1.340621   -0.247216    0.014387
      2          6           0        0.006963    0.547171    0.013277
      3          6           0        1.335769   -0.252551    0.010711
      4          1           0       -1.948583   -0.269654    0.958202
      5          1           0       -1.161537   -1.275542   -0.328875
      6          1           0       -1.979718    0.206018   -0.753576
      7          1           0        0.015190    1.261956    0.846982
      8          1           0        0.015523    1.159156   -0.897477
      9          1           0        1.727435   -0.546484    1.024212
     10          1           0        1.206527   -1.161589   -0.590868
     11          1           0        2.112499    0.341716   -0.488853
 ---------------------------------------------------------------------
 Rotational constants (GHZ):          30.8547415           7.6707228           6.9543218
 Standard basis: 6-31G(d) (6D, 7F)
 There are    61 symmetry adapted cartesian basis functions of A   symmetry.
 There are    61 symmetry adapted basis functions of A   symmetry.
    61 basis functions,   116 primitive gaussians,    61 cartesian basis functions
    13 alpha electrons       13 beta electrons
       nuclear repulsion energy        80.8950281367 Hartrees.
 NAtoms=   11 NActive=   11 NUniq=   11 SFac= 1.00D+00 NAtFMM=   60 NAOKFM=F Big=F
 Integral buffers will be    131072 words long.
 Raffenetti 2 integral format.
 Two-electron integral symmetry is turned on.
 One-electron integrals computed using PRISM.
 NBasis=    61 RedAO= T EigKep=  6.15D-03  NBF=    61
 NBsUse=    61 1.00D-06 EigRej= -1.00D+00 NBFU=    61
 ExpMin= 1.61D-01 ExpMax= 3.05D+03 ExpMxC= 4.57D+02 IAcc=3 IRadAn=         5 AccDes= 0.00D+00
 Harris functional with IExCor=  402 and IRadAn=       5 diagonalized for initial guess.
 HarFok:  IExCor=  402 AccDes= 0.00D+00 IRadAn=         5 IDoV= 1 UseB2=F ITyADJ=14
 ICtDFT=  3500011 ScaDFX=  1.000000  1.000000  1.000000  1.000000
 FoFCou: FMM=F IPFlag=           0 FMFlag=      100000 FMFlg1=           0
         NFxFlg=           0 DoJE=T BraDBF=F KetDBF=T FulRan=T
         wScrn=  0.000000 ICntrl=       500 IOpCl=  0 I1Cent=   200000004 NGrid=           0
         NMat0=    1 NMatS0=      1 NMatT0=    0 NMatD0=    1 NMtDS0=    0 NMtDT0=    0
 Petite list used in FoFCou.
 Keep R1 ints in memory in canonical form, NReq=3557582.
 Requested convergence on RMS density matrix=1.00D-08 within 128 cycles.
 Requested convergence on MAX density matrix=1.00D-06.
 Requested convergence on             energy=1.00D-06.
 No special actions if energy rises.
 Integral accuracy reduced to 1.0D-05 until final iterations.
 Initial convergence to 1.0D-05 achieved.  Increase integral accuracy.
 SCF Done:  E(RB3LYP) =  -119.133399199     A.U. after   11 cycles
            NFock= 11  Conv=0.35D-08     -V/T= 2.0117

 **********************************************************************

            Population analysis using the SCF density.

 **********************************************************************

 Orbital symmetries:
       Occupied  (A) (A) (A) (A) (A) (A) (A) (A) (A) (A) (A) (A)
                 (A)
       Virtual   (A) (A) (A) (A) (A) (A) (A) (A) (A) (A) (A) (A)
                 (A) (A) (A) (A) (A) (A) (A) (A) (A) (A) (A) (A)
                 (A) (A) (A) (A) (A) (A) (A) (A) (A) (A) (A) (A)
                 (A) (A) (A) (A) (A) (A) (A) (A) (A) (A) (A) (A)
 The electronic state is 1-A.
 Alpha  occ. eigenvalues --  -10.18132 -10.17481 -10.17467  -0.76559  -0.67493
 Alpha  occ. eigenvalues --   -0.57917  -0.44523  -0.42726  -0.39029  -0.37795
 Alpha  occ. eigenvalues --   -0.33551  -0.32631  -0.31861
 Alpha virt. eigenvalues --    0.09486   0.12230   0.13748   0.14207   0.17010
 Alpha virt. eigenvalues --    0.18229   0.18642   0.23422   0.24974   0.28305
 Alpha virt. eigenvalues --    0.50755   0.52558   0.53692   0.60232   0.62029
 Alpha virt. eigenvalues --    0.65109   0.70325   0.71519   0.78220   0.86037
 Alpha virt. eigenvalues --    0.87700   0.88152   0.90098   0.90985   0.94563
 Alpha virt. eigenvalues --    0.96898   0.98119   1.01972   1.28537   1.45396
 Alpha virt. eigenvalues --    1.47394   1.61589   1.72792   1.87949   1.90396
 Alpha virt. eigenvalues --    1.95689   2.04512   2.08961   2.18357   2.26570
 Alpha virt. eigenvalues --    2.31567   2.34400   2.42604   2.58976   2.64283
 Alpha virt. eigenvalues --    4.09779   4.27137   4.47302
          Condensed to atoms (all electrons):
               1          2          3          4          5          6
     1  C    5.075951   0.363643  -0.036621   0.376460   0.376339   0.376456
     2  C    0.363643   4.930885   0.375210  -0.024021  -0.039850  -0.033459
     3  C   -0.036621   0.375210   5.062078   0.001623  -0.008441   0.003389
     4  H    0.376460  -0.024021   0.001623   0.568052  -0.028329  -0.033219
     5  H    0.376339  -0.039850  -0.008441  -0.028329   0.575175  -0.032716
     6  H    0.376456  -0.033459   0.003389  -0.033219  -0.032716   0.583095
     7  H   -0.037810   0.379623  -0.038550  -0.007299   0.004189   0.002742
     8  H   -0.042943   0.389083  -0.043990   0.003862   0.002218  -0.011242
     9  H    0.000788  -0.029044   0.376461   0.000195   0.000253  -0.000084
    10  H   -0.008048  -0.039164   0.375145  -0.000050   0.007280   0.000307
    11  H    0.003893  -0.031563   0.375304  -0.000081   0.000147  -0.000227
               7          8          9         10         11
     1  C   -0.037810  -0.042943   0.000788  -0.008048   0.003893
     2  C    0.379623   0.389083  -0.029044  -0.039164  -0.031563
     3  C   -0.038550  -0.043990   0.376461   0.375145   0.375304
     4  H   -0.007299   0.003862   0.000195  -0.000050  -0.000081
     5  H    0.004189   0.002218   0.000253   0.007280   0.000147
     6  H    0.002742  -0.011242  -0.000084   0.000307  -0.000227
     7  H    0.598475  -0.037917  -0.006839   0.004962   0.000789
     8  H   -0.037917   0.608137   0.004615  -0.000185  -0.008086
     9  H   -0.006839   0.004615   0.575326  -0.029980  -0.031390
    10  H    0.004962  -0.000185  -0.029980   0.580031  -0.032347
    11  H    0.000789  -0.008086  -0.031390  -0.032347   0.579836
 Mulliken charges:
               1
     1  C   -0.448106
     2  C   -0.241343
     3  C   -0.441606
     4  H    0.142807
     5  H    0.143735
     6  H    0.144958
     7  H    0.137635
     8  H    0.136447
     9  H    0.139699
    10  H    0.142049
    11  H    0.143724
 Sum of Mulliken charges =  -0.00000
 Mulliken charges with hydrogens summed into heavy atoms:
               1
     1  C   -0.016606
     2  C    0.032740
     3  C   -0.016134
 Electronic spatial extent (au):  <R**2>=            238.0791
 Charge=             -0.0000 electrons
 Dipole moment (field-independent basis, Debye):
    X=             -0.0098    Y=              0.1012    Z=             -0.1075  Tot=              0.1480
 Quadrupole moment (field-independent basis, Debye-Ang):
   XX=            -21.7922   YY=            -21.6918   ZZ=            -21.1918
   XY=              0.0312   XZ=             -0.0620   YZ=             -0.0022
 Traceless Quadrupole moment (field-independent basis, Debye-Ang):
   XX=             -0.2336   YY=             -0.1332   ZZ=              0.3668
   XY=              0.0312   XZ=             -0.0620   YZ=             -0.0022
 Octapole moment (field-independent basis, Debye-Ang**2):
  XXX=             -0.2306  YYY=             -0.2100  ZZZ=              0.3978  XYY=              0.1426
  XXY=              0.8345  XXZ=              0.2725  XZZ=             -0.1612  YZZ=              0.4320
  YYZ=             -0.5756  XYZ=             -0.1149
 Hexadecapole moment (field-independent basis, Debye-Ang**3):
 XXXX=           -220.2169 YYYY=            -65.3572 ZZZZ=            -42.9017 XXXY=              0.6463
 XXXZ=             -1.2421 YYYX=              0.2774 YYYZ=              1.1504 ZZZX=              0.2709
 ZZZY=             -0.4809 XXYY=            -48.3096 XXZZ=            -41.4314 YYZZ=            -17.3517
 XXYZ=             -1.5046 YYXZ=              0.0230 ZZXY=             -0.5037
 N-N= 8.089502813668D+01 E-N=-4.362742828278D+02  KE= 1.177510811109D+02
 1\1\GINC-NODE60\SP\RB3LYP\6-31G(d)\C3H8\YANZ\22-Sep-2023\0\\# b3lyp/6-
 31g(d)\\tmpdir/M2_conf_0_13.gjf\\0,1\C,0,0.,0.,0.\C,0,1.5643,0.,0.\C,0
 ,2.3029,0.,1.36373\H,0,-0.5358,0.943,-0.29082\H,0,-0.36769,-0.34206,0.
 97732\H,0,-0.31985,-0.76926,-0.71384\H,0,1.93378,0.83305,-0.61283\H,0,
 1.8831,-0.91131,-0.52149\H,0,2.49032,1.01431,1.81432\H,0,1.73036,-0.60
 091,2.0821\H,0,3.27416,-0.49905,1.24698\\Version=ES64L-G16RevA.03\Stat
 e=1-A\HF=-119.1333992\RMSD=3.463e-09\Dipole=0.0169314,-0.0423341,-0.03
 61897\Quadrupole=-0.1340744,0.2725798,-0.1385054,-0.0408736,-0.0438357
 ,-0.0226234\PG=C01 [X(C3H8)]\\@


 TIME GOES, YOU SAY?  AH NO!
 ALAS, TIME STAYS, WE GO.
    -- A. DOBSON (1840-1921)
 Job cpu time:       0 days  0 hours  0 minutes 16.2 seconds.
 Elapsed time:       0 days  0 hours  0 minutes  8.2 seconds.
 File lengths (MBytes):  RWF=      6 Int=      0 D2E=      0 Chk=      1 Scr=      1
 Normal termination of Gaussian 16 at Fri Sep 22 17:02:22 2023.
