 Entering Gaussian System, Link 0=g16
 Initial command:
 /share/apps/gaussian/g16/l1.exe "/tmp/55621.mgr/Gau-120351.inp" -scrdir="/tmp/55621.mgr/"
 Entering Link 1 = /share/apps/gaussian/g16/l1.exe PID=    120352.
  
 Copyright (c) 1988,1990,1992,1993,1995,1998,2003,2009,2016,
            Gaussian, Inc.  All Rights Reserved.
  
 This is part of the Gaussian(R) 16 program.  It is based on
 the Gaussian(R) 09 system (copyright 2009, Gaussian, Inc.),
 the Gaussian(R) 03 system (copyright 2003, Gaussian, Inc.),
 the Gaussian(R) 98 system (copyright 1998, Gaussian, Inc.),
 the Gaussian(R) 94 system (copyright 1995, Gaussian, Inc.),
 the Gaussian 92(TM) system (copyright 1992, Gaussian, Inc.),
 the Gaussian 90(TM) system (copyright 1990, Gaussian, Inc.),
 the Gaussian 88(TM) system (copyright 1988, Gaussian, Inc.),
 the Gaussian 86(TM) system (copyright 1986, Carnegie Mellon
 University), and the Gaussian 82(TM) system (copyright 1983,
 Carnegie Mellon University). Gaussian is a federally registered
 trademark of Gaussian, Inc.
  
 This software contains proprietary and confidential information,
 including trade secrets, belonging to Gaussian, Inc.
  
 This software is provided under written license and may be
 used, copied, transmitted, or stored only in accord with that
 written license.
  
 The following legend is applicable only to US Government
 contracts under FAR:
  
                    RESTRICTED RIGHTS LEGEND
  
 Use, reproduction and disclosure by the US Government is
 subject to restrictions as set forth in subparagraphs (a)
 and (c) of the Commercial Computer Software - Restricted
 Rights clause in FAR 52.227-19.
  
 Gaussian, Inc.
 340 Quinnipiac St., Bldg. 40, Wallingford CT 06492
  
  
 ---------------------------------------------------------------
 Warning -- This program may not be used in any manner that
 competes with the business of Gaussian, Inc. or will provide
 assistance to any competitor of Gaussian, Inc.  The licensee
 of this program is prohibited from giving any competitor of
 Gaussian, Inc. access to this program.  By using this program,
 the user acknowledges that Gaussian, Inc. is engaged in the
 business of creating and licensing software in the field of
 computational chemistry and represents and warrants to the
 licensee that it is not a competitor of Gaussian, Inc. and that
 it will not use this program in any manner prohibited above.
 ---------------------------------------------------------------
  

 Cite this work as:
 Gaussian 16, Revision A.03,
 M. J. Frisch, G. W. Trucks, H. B. Schlegel, G. E. Scuseria, 
 M. A. Robb, J. R. Cheeseman, G. Scalmani, V. Barone, 
 G. A. Petersson, H. Nakatsuji, X. Li, M. Caricato, A. V. Marenich, 
 J. Bloino, B. G. Janesko, R. Gomperts, B. Mennucci, H. P. Hratchian, 
 J. V. Ortiz, A. F. Izmaylov, J. L. Sonnenberg, D. Williams-Young, 
 F. Ding, F. Lipparini, F. Egidi, J. Goings, B. Peng, A. Petrone, 
 T. Henderson, D. Ranasinghe, V. G. Zakrzewski, J. Gao, N. Rega, 
 G. Zheng, W. Liang, M. Hada, M. Ehara, K. Toyota, R. Fukuda, 
 J. Hasegawa, M. Ishida, T. Nakajima, Y. Honda, O. Kitao, H. Nakai, 
 T. Vreven, K. Throssell, J. A. Montgomery, Jr., J. E. Peralta, 
 F. Ogliaro, M. J. Bearpark, J. J. Heyd, E. N. Brothers, K. N. Kudin, 
 V. N. Staroverov, T. A. Keith, R. Kobayashi, J. Normand, 
 K. Raghavachari, A. P. Rendell, J. C. Burant, S. S. Iyengar, 
 J. Tomasi, M. Cossi, J. M. Millam, M. Klene, C. Adamo, R. Cammi, 
 J. W. Ochterski, R. L. Martin, K. Morokuma, O. Farkas, 
 J. B. Foresman, and D. J. Fox, Gaussian, Inc., Wallingford CT, 2016.
 
 ******************************************
 Gaussian 16:  ES64L-G16RevA.03 25-Dec-2016
                22-Sep-2023 
 ******************************************
 %nprocshared=2
 Will use up to    2 processors via shared memory.
 %mem=2GB
 ----------------
 # b3lyp/6-31g(d)
 ----------------
 1/38=1,172=1/1;
 2/12=2,17=6,18=5,40=1/2;
 3/5=1,6=6,7=1,11=2,25=1,30=1,74=-5/1,2,3;
 4//1;
 5/5=2,38=5/2;
 6/7=2,8=2,9=2,10=2,28=1/1;
 99/5=1,9=1/99;
 -----------------------
 tmpdir/M2_conf_0_94.gjf
 -----------------------
 Symbolic Z-matrix:
 Charge =  0 Multiplicity = 1
 C                     0.        0.        0. 
 C                     1.3967    0.        0. 
 C                     2.09273   0.        1.20849 
 O                    -0.62822  -0.00259   1.06142 
 H                    -0.54033  -0.00231  -0.94423 
 H                     1.93704  -0.00016  -0.94273 
 H                     1.58266  -0.00031   2.08243 
 H                     3.17933  -0.00082   1.21209 
 
                          Input orientation:                          
 ---------------------------------------------------------------------
 Center     Atomic      Atomic             Coordinates (Angstroms)
 Number     Number       Type             X           Y           Z
 ---------------------------------------------------------------------
      1          6           0        0.000000    0.000000    0.000000
      2          6           0        1.396700    0.000000    0.000000
      3          6           0        2.092730    0.000000    1.208490
      4          8           0       -0.628220   -0.002590    1.061420
      5          1           0       -0.540330   -0.002310   -0.944230
      6          1           0        1.937040   -0.000160   -0.942730
      7          1           0        1.582660   -0.000310    2.082430
      8          1           0        3.179330   -0.000820    1.212090
 ---------------------------------------------------------------------
                    Distance matrix (angstroms):
                    1          2          3          4          5
     1  C    0.000000
     2  C    1.396700   0.000000
     3  C    2.416602   1.394599   0.000000
     4  O    1.233402   2.286246   2.724923   0.000000
     5  H    1.087903   2.154916   3.401061   2.007575   0.000000
     6  H    2.154266   1.086604   2.156847   3.255331   2.477371
     7  H    2.615593   2.090717   1.011901   2.435253   3.696994
     8  H    3.402543   2.155675   1.086606   3.810530   4.299487
                    6          7          8
     6  H    0.000000
     7  H    3.045846   0.000000
     8  H    2.487274   1.818474   0.000000
 Stoichiometry    C3H4O
 Framework group  C1[X(C3H4O)]
 Deg. of freedom    18
 Full point group                 C1      NOp   1
 Largest Abelian subgroup         C1      NOp   1
 Largest concise Abelian subgroup C1      NOp   1
                         Standard orientation:                         
 ---------------------------------------------------------------------
 Center     Atomic      Atomic             Coordinates (Angstroms)
 Number     Number       Type             X           Y           Z
 ---------------------------------------------------------------------
      1          6           0        0.796613    0.483102   -0.000998
      2          6           0       -0.590787    0.644015    0.000031
      3          6           0       -1.421412   -0.476238   -0.000205
      4          8           0        1.298365   -0.643629    0.000470
      5          1           0        1.442131    1.358791    0.001499
      6          1           0       -1.018916    1.642720    0.001175
      7          1           0       -1.015425   -1.403124   -0.000813
      8          1           0       -2.501190   -0.354628    0.001414
 ---------------------------------------------------------------------
 Rotational constants (GHZ):          21.3571151           6.8799073           5.2036307
 Standard basis: 6-31G(d) (6D, 7F)
 There are    68 symmetry adapted cartesian basis functions of A   symmetry.
 There are    68 symmetry adapted basis functions of A   symmetry.
    68 basis functions,   128 primitive gaussians,    68 cartesian basis functions
    15 alpha electrons       15 beta electrons
       nuclear repulsion energy       106.0159318012 Hartrees.
 NAtoms=    8 NActive=    8 NUniq=    8 SFac= 1.00D+00 NAtFMM=   60 NAOKFM=F Big=F
 Integral buffers will be    131072 words long.
 Raffenetti 2 integral format.
 Two-electron integral symmetry is turned on.
 One-electron integrals computed using PRISM.
 NBasis=    68 RedAO= T EigKep=  2.87D-03  NBF=    68
 NBsUse=    68 1.00D-06 EigRej= -1.00D+00 NBFU=    68
 ExpMin= 1.61D-01 ExpMax= 5.48D+03 ExpMxC= 8.25D+02 IAcc=3 IRadAn=         5 AccDes= 0.00D+00
 Harris functional with IExCor=  402 and IRadAn=       5 diagonalized for initial guess.
 HarFok:  IExCor=  402 AccDes= 0.00D+00 IRadAn=         5 IDoV= 1 UseB2=F ITyADJ=14
 ICtDFT=  3500011 ScaDFX=  1.000000  1.000000  1.000000  1.000000
 FoFCou: FMM=F IPFlag=           0 FMFlag=      100000 FMFlg1=           0
         NFxFlg=           0 DoJE=T BraDBF=F KetDBF=T FulRan=T
         wScrn=  0.000000 ICntrl=       500 IOpCl=  0 I1Cent=   200000004 NGrid=           0
         NMat0=    1 NMatS0=      1 NMatT0=    0 NMatD0=    1 NMtDS0=    0 NMtDT0=    0
 Petite list used in FoFCou.
 Keep R1 ints in memory in canonical form, NReq=4537793.
 Requested convergence on RMS density matrix=1.00D-08 within 128 cycles.
 Requested convergence on MAX density matrix=1.00D-06.
 Requested convergence on             energy=1.00D-06.
 No special actions if energy rises.
 Integral accuracy reduced to 1.0D-05 until final iterations.
 Initial convergence to 1.0D-05 achieved.  Increase integral accuracy.
 SCF Done:  E(RB3LYP) =  -191.896057131     A.U. after   14 cycles
            NFock= 14  Conv=0.69D-08     -V/T= 2.0085

 **********************************************************************

            Population analysis using the SCF density.

 **********************************************************************

 Orbital symmetries:
       Occupied  (A) (A) (A) (A) (A) (A) (A) (A) (A) (A) (A) (A)
                 (A) (A) (A)
       Virtual   (A) (A) (A) (A) (A) (A) (A) (A) (A) (A) (A) (A)
                 (A) (A) (A) (A) (A) (A) (A) (A) (A) (A) (A) (A)
                 (A) (A) (A) (A) (A) (A) (A) (A) (A) (A) (A) (A)
                 (A) (A) (A) (A) (A) (A) (A) (A) (A) (A) (A) (A)
                 (A) (A) (A) (A) (A)
 The electronic state is 1-A.
 Alpha  occ. eigenvalues --  -19.13643 -10.26588 -10.21713 -10.20716  -1.02882
 Alpha  occ. eigenvalues --   -0.79309  -0.67352  -0.55034  -0.51763  -0.44552
 Alpha  occ. eigenvalues --   -0.42005  -0.39322  -0.39062  -0.27542  -0.25322
 Alpha virt. eigenvalues --   -0.08018   0.07025   0.10497   0.14030   0.16646
 Alpha virt. eigenvalues --    0.19965   0.25305   0.31206   0.35999   0.51428
 Alpha virt. eigenvalues --    0.52684   0.57444   0.57963   0.59602   0.63377
 Alpha virt. eigenvalues --    0.63981   0.68161   0.81059   0.84680   0.85971
 Alpha virt. eigenvalues --    0.87151   0.92030   0.97602   0.99435   1.09845
 Alpha virt. eigenvalues --    1.10448   1.13925   1.28162   1.32955   1.41776
 Alpha virt. eigenvalues --    1.54096   1.54718   1.65065   1.76359   1.83694
 Alpha virt. eigenvalues --    1.84316   1.94247   1.95124   2.07017   2.20768
 Alpha virt. eigenvalues --    2.21906   2.29619   2.31403   2.53459   2.53947
 Alpha virt. eigenvalues --    2.61850   2.76725   2.90271   3.07973   3.84663
 Alpha virt. eigenvalues --    4.08261   4.15096   4.38452
          Condensed to atoms (all electrons):
               1          2          3          4          5          6
     1  C    4.587395   0.331498  -0.019529   0.556945   0.358020  -0.028740
     2  C    0.331498   5.175086   0.581455  -0.100009  -0.123344   0.340017
     3  C   -0.019529   0.581455   5.022079  -0.006269   0.009029  -0.044496
     4  O    0.556945  -0.100009  -0.006269   8.006092  -0.059519   0.003964
     5  H    0.358020  -0.123344   0.009029  -0.059519   0.699926   0.002248
     6  H   -0.028740   0.340017  -0.044496   0.003964   0.002248   0.585422
     7  H   -0.011738  -0.037071   0.373558   0.018380   0.000763   0.005371
     8  H    0.004716  -0.028923   0.357120   0.000677  -0.000064  -0.004401
               7          8
     1  C   -0.011738   0.004716
     2  C   -0.037071  -0.028923
     3  C    0.373558   0.357120
     4  O    0.018380   0.000677
     5  H    0.000763  -0.000064
     6  H    0.005371  -0.004401
     7  H    0.491516  -0.035610
     8  H   -0.035610   0.544391
 Mulliken charges:
               1
     1  C    0.221433
     2  C   -0.138710
     3  C   -0.272946
     4  O   -0.420261
     5  H    0.112942
     6  H    0.140616
     7  H    0.194832
     8  H    0.162094
 Sum of Mulliken charges =  -0.00000
 Mulliken charges with hydrogens summed into heavy atoms:
               1
     1  C    0.334375
     2  C    0.001906
     3  C    0.083980
     4  O   -0.420261
 Electronic spatial extent (au):  <R**2>=            255.6684
 Charge=             -0.0000 electrons
 Dipole moment (field-independent basis, Debye):
    X=             -2.1730    Y=              1.6637    Z=             -0.0005  Tot=              2.7367
 Quadrupole moment (field-independent basis, Debye-Ang):
   XX=            -23.3438   YY=            -21.9930   ZZ=            -24.1951
   XY=              3.0174   XZ=             -0.0045   YZ=              0.0027
 Traceless Quadrupole moment (field-independent basis, Debye-Ang):
   XX=             -0.1665   YY=              1.1842   ZZ=             -1.0178
   XY=              3.0174   XZ=             -0.0045   YZ=              0.0027
 Octapole moment (field-independent basis, Debye-Ang**2):
  XXX=             -5.1584  YYY=             -1.2041  ZZZ=              0.0025  XYY=             -0.4774
  XXY=              1.9464  XXZ=              0.0077  XZZ=              3.1693  YZZ=             -1.1557
  YYZ=              0.0038  XYZ=              0.0002
 Hexadecapole moment (field-independent basis, Debye-Ang**3):
 XXXX=           -202.5306 YYYY=            -84.5942 ZZZZ=            -22.4719 XXXY=              4.0268
 XXXZ=             -0.0197 YYYX=             -1.7200 YYYZ=              0.0076 ZZZX=              0.0004
 ZZZY=             -0.0011 XXYY=            -49.4148 XXZZ=            -40.5537 YYZZ=            -19.1105
 XXYZ=              0.0049 YYXZ=              0.0007 ZZXY=             -0.7391
 N-N= 1.060159318012D+02 E-N=-6.596531587241D+02  KE= 1.902720314649D+02
 1\1\GINC-NODE60\SP\RB3LYP\6-31G(d)\C3H4O1\YANZ\22-Sep-2023\0\\# b3lyp/
 6-31g(d)\\tmpdir/M2_conf_0_94.gjf\\0,1\C,0,0.,0.,0.\C,0,1.3967,0.,0.\C
 ,0,2.09273,0.,1.20849\O,0,-0.62822,-0.00259,1.06142\H,0,-0.54033,-0.00
 231,-0.94423\H,0,1.93704,-0.00016,-0.94273\H,0,1.58266,-0.00031,2.0824
 3\H,0,3.17933,-0.00082,1.21209\\Version=ES64L-G16RevA.03\State=1-A\HF=
 -191.8960571\RMSD=6.936e-09\Dipole=0.9246256,0.0012212,-0.5517043\Quad
 rupole=-0.6238988,-0.7567042,1.380603,-0.0047058,2.0688764,0.0018214\P
 G=C01 [X(C3H4O1)]\\@


 A MAN SHOULD NEVER BE ASHAMED TO OWN HE HAS BEEN IN THE WRONG
 WHICH IS BUT SAYING IN OTHER WORDS,
 THAT HE IS WISER TODAY THAN HE WAS YESTERDAY.

                          -- JONATHAN SWIFT
 Job cpu time:       0 days  0 hours  0 minutes 15.6 seconds.
 Elapsed time:       0 days  0 hours  0 minutes  7.9 seconds.
 File lengths (MBytes):  RWF=      6 Int=      0 D2E=      0 Chk=      1 Scr=      1
 Normal termination of Gaussian 16 at Fri Sep 22 17:02:48 2023.
