 Entering Gaussian System, Link 0=g16
 Initial command:
 /share/apps/gaussian/g16/l1.exe "/tmp/55621.mgr/Gau-119476.inp" -scrdir="/tmp/55621.mgr/"
 Entering Link 1 = /share/apps/gaussian/g16/l1.exe PID=    119477.
  
 Copyright (c) 1988,1990,1992,1993,1995,1998,2003,2009,2016,
            Gaussian, Inc.  All Rights Reserved.
  
 This is part of the Gaussian(R) 16 program.  It is based on
 the Gaussian(R) 09 system (copyright 2009, Gaussian, Inc.),
 the Gaussian(R) 03 system (copyright 2003, Gaussian, Inc.),
 the Gaussian(R) 98 system (copyright 1998, Gaussian, Inc.),
 the Gaussian(R) 94 system (copyright 1995, Gaussian, Inc.),
 the Gaussian 92(TM) system (copyright 1992, Gaussian, Inc.),
 the Gaussian 90(TM) system (copyright 1990, Gaussian, Inc.),
 the Gaussian 88(TM) system (copyright 1988, Gaussian, Inc.),
 the Gaussian 86(TM) system (copyright 1986, Carnegie Mellon
 University), and the Gaussian 82(TM) system (copyright 1983,
 Carnegie Mellon University). Gaussian is a federally registered
 trademark of Gaussian, Inc.
  
 This software contains proprietary and confidential information,
 including trade secrets, belonging to Gaussian, Inc.
  
 This software is provided under written license and may be
 used, copied, transmitted, or stored only in accord with that
 written license.
  
 The following legend is applicable only to US Government
 contracts under FAR:
  
                    RESTRICTED RIGHTS LEGEND
  
 Use, reproduction and disclosure by the US Government is
 subject to restrictions as set forth in subparagraphs (a)
 and (c) of the Commercial Computer Software - Restricted
 Rights clause in FAR 52.227-19.
  
 Gaussian, Inc.
 340 Quinnipiac St., Bldg. 40, Wallingford CT 06492
  
  
 ---------------------------------------------------------------
 Warning -- This program may not be used in any manner that
 competes with the business of Gaussian, Inc. or will provide
 assistance to any competitor of Gaussian, Inc.  The licensee
 of this program is prohibited from giving any competitor of
 Gaussian, Inc. access to this program.  By using this program,
 the user acknowledges that Gaussian, Inc. is engaged in the
 business of creating and licensing software in the field of
 computational chemistry and represents and warrants to the
 licensee that it is not a competitor of Gaussian, Inc. and that
 it will not use this program in any manner prohibited above.
 ---------------------------------------------------------------
  

 Cite this work as:
 Gaussian 16, Revision A.03,
 M. J. Frisch, G. W. Trucks, H. B. Schlegel, G. E. Scuseria, 
 M. A. Robb, J. R. Cheeseman, G. Scalmani, V. Barone, 
 G. A. Petersson, H. Nakatsuji, X. Li, M. Caricato, A. V. Marenich, 
 J. Bloino, B. G. Janesko, R. Gomperts, B. Mennucci, H. P. Hratchian, 
 J. V. Ortiz, A. F. Izmaylov, J. L. Sonnenberg, D. Williams-Young, 
 F. Ding, F. Lipparini, F. Egidi, J. Goings, B. Peng, A. Petrone, 
 T. Henderson, D. Ranasinghe, V. G. Zakrzewski, J. Gao, N. Rega, 
 G. Zheng, W. Liang, M. Hada, M. Ehara, K. Toyota, R. Fukuda, 
 J. Hasegawa, M. Ishida, T. Nakajima, Y. Honda, O. Kitao, H. Nakai, 
 T. Vreven, K. Throssell, J. A. Montgomery, Jr., J. E. Peralta, 
 F. Ogliaro, M. J. Bearpark, J. J. Heyd, E. N. Brothers, K. N. Kudin, 
 V. N. Staroverov, T. A. Keith, R. Kobayashi, J. Normand, 
 K. Raghavachari, A. P. Rendell, J. C. Burant, S. S. Iyengar, 
 J. Tomasi, M. Cossi, J. M. Millam, M. Klene, C. Adamo, R. Cammi, 
 J. W. Ochterski, R. L. Martin, K. Morokuma, O. Farkas, 
 J. B. Foresman, and D. J. Fox, Gaussian, Inc., Wallingford CT, 2016.
 
 ******************************************
 Gaussian 16:  ES64L-G16RevA.03 25-Dec-2016
                22-Sep-2023 
 ******************************************
 %nprocshared=2
 Will use up to    2 processors via shared memory.
 %mem=2GB
 ----------------
 # b3lyp/6-31g(d)
 ----------------
 1/38=1,172=1/1;
 2/12=2,17=6,18=5,40=1/2;
 3/5=1,6=6,7=1,11=2,25=1,30=1,74=-5/1,2,3;
 4//1;
 5/5=2,38=5/2;
 6/7=2,8=2,9=2,10=2,28=1/1;
 99/5=1,9=1/99;
 -----------------------
 tmpdir/M2_conf_0_16.gjf
 -----------------------
 Symbolic Z-matrix:
 Charge =  0 Multiplicity = 1
 C                     0.        0.        0. 
 C                     1.5509    0.        0. 
 H                     1.91929   0.        1.03457 
 H                    -0.48547   0.64322   0.78586 
 H                    -0.35901   0.32245  -0.98595 
 H                    -0.35989  -1.0281    0.13974 
 H                     2.08898   0.80106  -0.59254 
 H                     1.85832  -0.96665  -0.41851 
 
                          Input orientation:                          
 ---------------------------------------------------------------------
 Center     Atomic      Atomic             Coordinates (Angstroms)
 Number     Number       Type             X           Y           Z
 ---------------------------------------------------------------------
      1          6           0        0.000000    0.000000    0.000000
      2          6           0        1.550900    0.000000    0.000000
      3          1           0        1.919290    0.000000    1.034570
      4          1           0       -0.485470    0.643220    0.785860
      5          1           0       -0.359010    0.322450   -0.985950
      6          1           0       -0.359890   -1.028100    0.139740
      7          1           0        2.088980    0.801060   -0.592540
      8          1           0        1.858320   -0.966650   -0.418510
 ---------------------------------------------------------------------
                    Distance matrix (angstroms):
                    1          2          3          4          5
     1  C    0.000000
     2  C    1.550900   0.000000
     3  H    2.180369   1.098201   0.000000
     4  H    1.125606   2.275546   2.501691   0.000000
     5  H    1.097707   2.173437   3.062209   1.805047   0.000000
     6  H    1.098197   2.174313   2.655630   1.796261   1.758171
     7  H    2.314441   1.132400   1.821532   2.924499   2.525172
     8  H    2.136098   1.097301   1.746302   3.087967   2.626846
                    6          7          8
     6  H    0.000000
     7  H    3.143092   0.000000
     8  H    2.288203   1.791170   0.000000
 Stoichiometry    C2H6
 Framework group  C1[X(C2H6)]
 Deg. of freedom    18
 Full point group                 C1      NOp   1
 Largest Abelian subgroup         C1      NOp   1
 Largest concise Abelian subgroup C1      NOp   1
                         Standard orientation:                         
 ---------------------------------------------------------------------
 Center     Atomic      Atomic             Coordinates (Angstroms)
 Number     Number       Type             X           Y           Z
 ---------------------------------------------------------------------
      1          6           0        0.775980    0.007264   -0.010495
      2          6           0       -0.774888   -0.001782   -0.014575
      3          1           0       -1.136659   -0.966525   -0.394625
      4          1           0        1.266662   -0.485401   -0.895651
      5          1           0        1.128782    1.044869    0.051692
      6          1           0        1.136437   -0.497375    0.895843
      7          1           0       -1.316495    0.839924   -0.544220
      8          1           0       -1.085277    0.031616    1.037382
 ---------------------------------------------------------------------
 Rotational constants (GHZ):          78.9135945          19.4130567          19.3550739
 Standard basis: 6-31G(d) (6D, 7F)
 There are    42 symmetry adapted cartesian basis functions of A   symmetry.
 There are    42 symmetry adapted basis functions of A   symmetry.
    42 basis functions,    80 primitive gaussians,    42 cartesian basis functions
     9 alpha electrons        9 beta electrons
       nuclear repulsion energy        41.6314272489 Hartrees.
 NAtoms=    8 NActive=    8 NUniq=    8 SFac= 1.00D+00 NAtFMM=   60 NAOKFM=F Big=F
 Integral buffers will be    131072 words long.
 Raffenetti 2 integral format.
 Two-electron integral symmetry is turned on.
 One-electron integrals computed using PRISM.
 NBasis=    42 RedAO= T EigKep=  8.82D-03  NBF=    42
 NBsUse=    42 1.00D-06 EigRej= -1.00D+00 NBFU=    42
 ExpMin= 1.61D-01 ExpMax= 3.05D+03 ExpMxC= 4.57D+02 IAcc=3 IRadAn=         5 AccDes= 0.00D+00
 Harris functional with IExCor=  402 and IRadAn=       5 diagonalized for initial guess.
 HarFok:  IExCor=  402 AccDes= 0.00D+00 IRadAn=         5 IDoV= 1 UseB2=F ITyADJ=14
 ICtDFT=  3500011 ScaDFX=  1.000000  1.000000  1.000000  1.000000
 FoFCou: FMM=F IPFlag=           0 FMFlag=      100000 FMFlg1=           0
         NFxFlg=           0 DoJE=T BraDBF=F KetDBF=T FulRan=T
         wScrn=  0.000000 ICntrl=       500 IOpCl=  0 I1Cent=   200000004 NGrid=           0
         NMat0=    1 NMatS0=      1 NMatT0=    0 NMatD0=    1 NMtDS0=    0 NMtDT0=    0
 Petite list used in FoFCou.
 Keep R1 ints in memory in canonical form, NReq=2135132.
 Requested convergence on RMS density matrix=1.00D-08 within 128 cycles.
 Requested convergence on MAX density matrix=1.00D-06.
 Requested convergence on             energy=1.00D-06.
 No special actions if energy rises.
 Integral accuracy reduced to 1.0D-05 until final iterations.
 Initial convergence to 1.0D-05 achieved.  Increase integral accuracy.
 SCF Done:  E(RB3LYP) =  -79.8245840641     A.U. after   10 cycles
            NFock= 10  Conv=0.30D-08     -V/T= 2.0122

 **********************************************************************

            Population analysis using the SCF density.

 **********************************************************************

 Orbital symmetries:
       Occupied  (A) (A) (A) (A) (A) (A) (A) (A) (A)
       Virtual   (A) (A) (A) (A) (A) (A) (A) (A) (A) (A) (A) (A)
                 (A) (A) (A) (A) (A) (A) (A) (A) (A) (A) (A) (A)
                 (A) (A) (A) (A) (A) (A) (A) (A) (A)
 The electronic state is 1-A.
 Alpha  occ. eigenvalues --  -10.17766 -10.17744  -0.74251  -0.60954  -0.42749
 Alpha  occ. eigenvalues --   -0.42597  -0.36226  -0.33843  -0.33563
 Alpha virt. eigenvalues --    0.10227   0.13761   0.14366   0.15764   0.20309
 Alpha virt. eigenvalues --    0.21305   0.23586   0.51806   0.54129   0.54413
 Alpha virt. eigenvalues --    0.64939   0.65811   0.66827   0.86586   0.86918
 Alpha virt. eigenvalues --    0.89376   0.90322   0.91465   0.97071   1.05488
 Alpha virt. eigenvalues --    1.42851   1.51078   1.52661   1.90129   1.96922
 Alpha virt. eigenvalues --    2.01287   2.18278   2.22820   2.34292   2.36001
 Alpha virt. eigenvalues --    2.57715   4.12473   4.36486
          Condensed to atoms (all electrons):
               1          2          3          4          5          6
     1  C    5.027875   0.363573  -0.036645   0.380105   0.380240   0.383723
     2  C    0.363573   5.028916   0.381138  -0.029438  -0.036770  -0.035435
     3  H   -0.036645   0.381138   0.573870  -0.006430   0.004491   0.000196
     4  H    0.380105  -0.029438  -0.006430   0.573075  -0.029688  -0.032421
     5  H    0.380240  -0.036770   0.004491  -0.029688   0.573886  -0.032929
     6  H    0.383723  -0.035435   0.000196  -0.032421  -0.032929   0.575697
     7  H   -0.025944   0.379654  -0.029282   0.000076  -0.006077   0.003716
     8  H   -0.039548   0.381923  -0.033779   0.004289   0.000089  -0.009329
               7          8
     1  C   -0.025944  -0.039548
     2  C    0.379654   0.381923
     3  H   -0.029282  -0.033779
     4  H    0.000076   0.004289
     5  H   -0.006077   0.000089
     6  H    0.003716  -0.009329
     7  H    0.569745  -0.032661
     8  H   -0.032661   0.583268
 Mulliken charges:
               1
     1  C   -0.433378
     2  C   -0.433560
     3  H    0.146441
     4  H    0.140434
     5  H    0.146758
     6  H    0.146782
     7  H    0.140773
     8  H    0.145750
 Sum of Mulliken charges =   0.00000
 Mulliken charges with hydrogens summed into heavy atoms:
               1
     1  C    0.000596
     2  C   -0.000596
 Electronic spatial extent (au):  <R**2>=            111.6579
 Charge=              0.0000 electrons
 Dipole moment (field-independent basis, Debye):
    X=              0.0021    Y=             -0.0199    Z=              0.1032  Tot=              0.1051
 Quadrupole moment (field-independent basis, Debye-Ang):
   XX=            -15.2426   YY=            -14.7201   ZZ=            -14.8302
   XY=             -0.1290   XZ=              0.0322   YZ=             -0.0035
 Traceless Quadrupole moment (field-independent basis, Debye-Ang):
   XX=             -0.3117   YY=              0.2108   ZZ=              0.1008
   XY=             -0.1290   XZ=              0.0322   YZ=             -0.0035
 Octapole moment (field-independent basis, Debye-Ang**2):
  XXX=             -0.0559  YYY=              0.2999  ZZZ=              0.7377  XYY=             -0.1501
  XXY=              0.1077  XXZ=             -0.2368  XZZ=              0.1992  YZZ=             -0.4151
  YYZ=             -0.3353  XYZ=              0.1954
 Hexadecapole moment (field-independent basis, Debye-Ang**3):
 XXXX=            -95.1027 YYYY=            -29.0121 ZZZZ=            -28.9076 XXXY=             -0.7163
 XXXZ=              0.1539 YYYX=              0.7547 YYYZ=              0.0817 ZZZX=             -0.5921
 ZZZY=             -0.0521 XXYY=            -19.4955 XXZZ=            -19.7096 YYZZ=             -9.7758
 XXYZ=             -0.0716 YYXZ=              0.6500 ZZXY=             -0.7617
 N-N= 4.163142724894D+01 E-N=-2.669809218231D+02  KE= 7.886049324116D+01
 1\1\GINC-NODE60\SP\RB3LYP\6-31G(d)\C2H6\YANZ\22-Sep-2023\0\\# b3lyp/6-
 31g(d)\\tmpdir/M2_conf_0_16.gjf\\0,1\C,0,0.,0.,0.\C,0,1.5509,0.,0.\H,0
 ,1.91929,0.,1.03457\H,0,-0.48547,0.64322,0.78586\H,0,-0.35901,0.32245,
 -0.98595\H,0,-0.35989,-1.0281,0.13974\H,0,2.08898,0.80106,-0.59254\H,0
 ,1.85832,-0.96665,-0.41851\\Version=ES64L-G16RevA.03\State=1-A\HF=-79.
 8245841\RMSD=3.025e-09\Dipole=-0.0009037,-0.0406426,-0.0075772\Quadrup
 ole=-0.2326858,0.0876991,0.1449867,0.057338,-0.0780758,-0.0301585\PG=C
 01 [X(C2H6)]\\@


 OLD HORSE! OLD HORSE! WHAT BROUGHT YOU HERE?
 FROM SACARAP' TO PORTLAND PIER
 I'VE CARTED STONE THIS MANY A YEAR;
 TILL, KILLED BY BLOWS AND SORE ABUSE,
 THEY SALTED ME DOWN FOR SAILORS' USE.
 THE SAILORS THEY DO ME DESPISE;
 THEY TURN ME OVER AND DAMN MY EYES;
 CUT OFF MY MEAT, AND SCRAPE MY BONES,
 AND PITCH ME OVER TO DAVY JONES.

    SAILORS' COMPLAINT ABOUT THE BEEF
    SERVED ON SHIPBOARD, CIRCA 1835.
 Job cpu time:       0 days  0 hours  0 minutes  8.1 seconds.
 Elapsed time:       0 days  0 hours  0 minutes  4.2 seconds.
 File lengths (MBytes):  RWF=      6 Int=      0 D2E=      0 Chk=      1 Scr=      1
 Normal termination of Gaussian 16 at Fri Sep 22 17:02:20 2023.
