 Entering Gaussian System, Link 0=g16
 Initial command:
 /share/apps/gaussian/g16/l1.exe "/tmp/55621.mgr/Gau-120638.inp" -scrdir="/tmp/55621.mgr/"
 Entering Link 1 = /share/apps/gaussian/g16/l1.exe PID=    120639.
  
 Copyright (c) 1988,1990,1992,1993,1995,1998,2003,2009,2016,
            Gaussian, Inc.  All Rights Reserved.
  
 This is part of the Gaussian(R) 16 program.  It is based on
 the Gaussian(R) 09 system (copyright 2009, Gaussian, Inc.),
 the Gaussian(R) 03 system (copyright 2003, Gaussian, Inc.),
 the Gaussian(R) 98 system (copyright 1998, Gaussian, Inc.),
 the Gaussian(R) 94 system (copyright 1995, Gaussian, Inc.),
 the Gaussian 92(TM) system (copyright 1992, Gaussian, Inc.),
 the Gaussian 90(TM) system (copyright 1990, Gaussian, Inc.),
 the Gaussian 88(TM) system (copyright 1988, Gaussian, Inc.),
 the Gaussian 86(TM) system (copyright 1986, Carnegie Mellon
 University), and the Gaussian 82(TM) system (copyright 1983,
 Carnegie Mellon University). Gaussian is a federally registered
 trademark of Gaussian, Inc.
  
 This software contains proprietary and confidential information,
 including trade secrets, belonging to Gaussian, Inc.
  
 This software is provided under written license and may be
 used, copied, transmitted, or stored only in accord with that
 written license.
  
 The following legend is applicable only to US Government
 contracts under FAR:
  
                    RESTRICTED RIGHTS LEGEND
  
 Use, reproduction and disclosure by the US Government is
 subject to restrictions as set forth in subparagraphs (a)
 and (c) of the Commercial Computer Software - Restricted
 Rights clause in FAR 52.227-19.
  
 Gaussian, Inc.
 340 Quinnipiac St., Bldg. 40, Wallingford CT 06492
  
  
 ---------------------------------------------------------------
 Warning -- This program may not be used in any manner that
 competes with the business of Gaussian, Inc. or will provide
 assistance to any competitor of Gaussian, Inc.  The licensee
 of this program is prohibited from giving any competitor of
 Gaussian, Inc. access to this program.  By using this program,
 the user acknowledges that Gaussian, Inc. is engaged in the
 business of creating and licensing software in the field of
 computational chemistry and represents and warrants to the
 licensee that it is not a competitor of Gaussian, Inc. and that
 it will not use this program in any manner prohibited above.
 ---------------------------------------------------------------
  

 Cite this work as:
 Gaussian 16, Revision A.03,
 M. J. Frisch, G. W. Trucks, H. B. Schlegel, G. E. Scuseria, 
 M. A. Robb, J. R. Cheeseman, G. Scalmani, V. Barone, 
 G. A. Petersson, H. Nakatsuji, X. Li, M. Caricato, A. V. Marenich, 
 J. Bloino, B. G. Janesko, R. Gomperts, B. Mennucci, H. P. Hratchian, 
 J. V. Ortiz, A. F. Izmaylov, J. L. Sonnenberg, D. Williams-Young, 
 F. Ding, F. Lipparini, F. Egidi, J. Goings, B. Peng, A. Petrone, 
 T. Henderson, D. Ranasinghe, V. G. Zakrzewski, J. Gao, N. Rega, 
 G. Zheng, W. Liang, M. Hada, M. Ehara, K. Toyota, R. Fukuda, 
 J. Hasegawa, M. Ishida, T. Nakajima, Y. Honda, O. Kitao, H. Nakai, 
 T. Vreven, K. Throssell, J. A. Montgomery, Jr., J. E. Peralta, 
 F. Ogliaro, M. J. Bearpark, J. J. Heyd, E. N. Brothers, K. N. Kudin, 
 V. N. Staroverov, T. A. Keith, R. Kobayashi, J. Normand, 
 K. Raghavachari, A. P. Rendell, J. C. Burant, S. S. Iyengar, 
 J. Tomasi, M. Cossi, J. M. Millam, M. Klene, C. Adamo, R. Cammi, 
 J. W. Ochterski, R. L. Martin, K. Morokuma, O. Farkas, 
 J. B. Foresman, and D. J. Fox, Gaussian, Inc., Wallingford CT, 2016.
 
 ******************************************
 Gaussian 16:  ES64L-G16RevA.03 25-Dec-2016
                22-Sep-2023 
 ******************************************
 %nprocshared=2
 Will use up to    2 processors via shared memory.
 %mem=2GB
 ----------------
 # b3lyp/6-31g(d)
 ----------------
 1/38=1,172=1/1;
 2/12=2,17=6,18=5,40=1/2;
 3/5=1,6=6,7=1,11=2,25=1,30=1,74=-5/1,2,3;
 4//1;
 5/5=2,38=5/2;
 6/7=2,8=2,9=2,10=2,28=1/1;
 99/5=1,9=1/99;
 ------------------------
 tmpdir/M2_conf_0_101.gjf
 ------------------------
 Symbolic Z-matrix:
 Charge =  0 Multiplicity = 1
 O                     0.        0.        0. 
 C                     1.4159    0.        0. 
 H                    -0.40032   0.       -0.89242 
 H                     1.72858   0.11568   1.04112 
 H                     1.84274  -0.93538  -0.39128 
 H                     1.82115   0.83961  -0.58812 
 
                          Input orientation:                          
 ---------------------------------------------------------------------
 Center     Atomic      Atomic             Coordinates (Angstroms)
 Number     Number       Type             X           Y           Z
 ---------------------------------------------------------------------
      1          8           0        0.000000    0.000000    0.000000
      2          6           0        1.415900    0.000000    0.000000
      3          1           0       -0.400320    0.000000   -0.892420
      4          1           0        1.728580    0.115680    1.041120
      5          1           0        1.842740   -0.935380   -0.391280
      6          1           0        1.821150    0.839610   -0.588120
 ---------------------------------------------------------------------
                    Distance matrix (angstroms):
                    1          2          3          4          5
     1  O    0.000000
     2  C    1.415900   0.000000
     3  H    0.978095   2.023628   0.000000
     4  H    2.021213   1.093198   2.878224   0.000000
     5  H    2.103266   1.100104   2.481410   1.780317   0.000000
     6  H    2.089837   1.102297   2.394258   1.785236   1.786002
                    6
     6  H    0.000000
 Stoichiometry    CH4O
 Framework group  C1[X(CH4O)]
 Deg. of freedom    12
 Full point group                 C1      NOp   1
 Largest Abelian subgroup         C1      NOp   1
 Largest concise Abelian subgroup C1      NOp   1
                         Standard orientation:                         
 ---------------------------------------------------------------------
 Center     Atomic      Atomic             Coordinates (Angstroms)
 Number     Number       Type             X           Y           Z
 ---------------------------------------------------------------------
      1          8           0       -0.740581    0.123018    0.000805
      2          6           0        0.667803   -0.022681    0.000636
      3          1           0       -1.230603   -0.723440    0.008398
      4          1           0        1.085837    0.979729   -0.123879
      5          1           0        1.053040   -0.447938    0.939240
      6          1           0        1.009556   -0.656409   -0.834020
 ---------------------------------------------------------------------
 Rotational constants (GHZ):         128.6627023          24.6387226          23.8069637
 Standard basis: 6-31G(d) (6D, 7F)
 There are    38 symmetry adapted cartesian basis functions of A   symmetry.
 There are    38 symmetry adapted basis functions of A   symmetry.
    38 basis functions,    72 primitive gaussians,    38 cartesian basis functions
     9 alpha electrons        9 beta electrons
       nuclear repulsion energy        40.1487123318 Hartrees.
 NAtoms=    6 NActive=    6 NUniq=    6 SFac= 1.00D+00 NAtFMM=   60 NAOKFM=F Big=F
 Integral buffers will be    131072 words long.
 Raffenetti 2 integral format.
 Two-electron integral symmetry is turned on.
 One-electron integrals computed using PRISM.
 NBasis=    38 RedAO= T EigKep=  9.77D-03  NBF=    38
 NBsUse=    38 1.00D-06 EigRej= -1.00D+00 NBFU=    38
 ExpMin= 1.61D-01 ExpMax= 5.48D+03 ExpMxC= 8.25D+02 IAcc=3 IRadAn=         5 AccDes= 0.00D+00
 Harris functional with IExCor=  402 and IRadAn=       5 diagonalized for initial guess.
 HarFok:  IExCor=  402 AccDes= 0.00D+00 IRadAn=         5 IDoV= 1 UseB2=F ITyADJ=14
 ICtDFT=  3500011 ScaDFX=  1.000000  1.000000  1.000000  1.000000
 FoFCou: FMM=F IPFlag=           0 FMFlag=      100000 FMFlg1=           0
         NFxFlg=           0 DoJE=T BraDBF=F KetDBF=T FulRan=T
         wScrn=  0.000000 ICntrl=       500 IOpCl=  0 I1Cent=   200000004 NGrid=           0
         NMat0=    1 NMatS0=      1 NMatT0=    0 NMatD0=    1 NMtDS0=    0 NMtDT0=    0
 Petite list used in FoFCou.
 Keep R1 ints in memory in canonical form, NReq=2001161.
 Requested convergence on RMS density matrix=1.00D-08 within 128 cycles.
 Requested convergence on MAX density matrix=1.00D-06.
 Requested convergence on             energy=1.00D-06.
 No special actions if energy rises.
 Integral accuracy reduced to 1.0D-05 until final iterations.
 Initial convergence to 1.0D-05 achieved.  Increase integral accuracy.
 SCF Done:  E(RB3LYP) =  -115.713016028     A.U. after   11 cycles
            NFock= 11  Conv=0.56D-08     -V/T= 2.0091

 **********************************************************************

            Population analysis using the SCF density.

 **********************************************************************

 Orbital symmetries:
       Occupied  (A) (A) (A) (A) (A) (A) (A) (A) (A)
       Virtual   (A) (A) (A) (A) (A) (A) (A) (A) (A) (A) (A) (A)
                 (A) (A) (A) (A) (A) (A) (A) (A) (A) (A) (A) (A)
                 (A) (A) (A) (A) (A)
 The electronic state is 1-A.
 Alpha  occ. eigenvalues --  -19.13666 -10.22488  -1.00388  -0.67945  -0.50197
 Alpha  occ. eigenvalues --   -0.43255  -0.42169  -0.32002  -0.26168
 Alpha virt. eigenvalues --    0.07360   0.12924   0.16849   0.17607   0.20836
 Alpha virt. eigenvalues --    0.53650   0.56268   0.57785   0.78435   0.84993
 Alpha virt. eigenvalues --    0.86940   0.90217   0.95772   0.97684   1.01583
 Alpha virt. eigenvalues --    1.12317   1.46178   1.50260   1.60955   1.74972
 Alpha virt. eigenvalues --    2.03094   2.09510   2.14121   2.32610   2.40033
 Alpha virt. eigenvalues --    2.47846   2.78559   3.70480   4.21666
          Condensed to atoms (all electrons):
               1          2          3          4          5          6
     1  O    8.227123   0.268149   0.235715  -0.038759  -0.038403  -0.036912
     2  C    0.268149   4.827133  -0.026988   0.389366   0.366493   0.368181
     3  H    0.235715  -0.026988   0.403166   0.006320  -0.003414  -0.005725
     4  H   -0.038759   0.389366   0.006320   0.555594  -0.039306  -0.034856
     5  H   -0.038403   0.366493  -0.003414  -0.039306   0.635153  -0.049785
     6  H   -0.036912   0.368181  -0.005725  -0.034856  -0.049785   0.631678
 Mulliken charges:
               1
     1  O   -0.616914
     2  C   -0.192334
     3  H    0.390926
     4  H    0.161641
     5  H    0.129262
     6  H    0.127419
 Sum of Mulliken charges =   0.00000
 Mulliken charges with hydrogens summed into heavy atoms:
               1
     1  O   -0.225989
     2  C    0.225989
 Electronic spatial extent (au):  <R**2>=             84.2729
 Charge=              0.0000 electrons
 Dipole moment (field-independent basis, Debye):
    X=              0.6024    Y=             -1.4919    Z=             -0.0068  Tot=              1.6089
 Quadrupole moment (field-independent basis, Debye-Ang):
   XX=            -12.1309   YY=            -12.1401   ZZ=            -13.5866
   XY=              2.3278   XZ=             -0.0288   YZ=             -0.0282
 Traceless Quadrupole moment (field-independent basis, Debye-Ang):
   XX=              0.4883   YY=              0.4791   ZZ=             -0.9674
   XY=              2.3278   XZ=             -0.0288   YZ=             -0.0282
 Octapole moment (field-independent basis, Debye-Ang**2):
  XXX=             -5.5513  YYY=             -0.3886  ZZZ=              0.0955  XYY=             -1.8266
  XXY=             -2.3743  XXZ=              0.0163  XZZ=             -0.6668  YZZ=             -0.4651
  YYZ=             -0.1539  XYZ=             -0.0182
 Hexadecapole moment (field-independent basis, Debye-Ang**3):
 XXXX=            -58.9063 YYYY=            -19.4801 ZZZZ=            -19.0985 XXXY=              4.2070
 XXXZ=             -0.0420 YYYX=              2.6845 YYYZ=             -0.0514 ZZZX=              0.1084
 ZZZY=             -0.0116 XXYY=            -12.1172 XXZZ=            -13.8314 YYZZ=             -6.5414
 XXYZ=             -0.0876 YYXZ=             -0.1960 ZZXY=              0.0219
 N-N= 4.014871233185D+01 E-N=-3.514219507796D+02  KE= 1.146742394513D+02
 1\1\GINC-NODE60\SP\RB3LYP\6-31G(d)\C1H4O1\YANZ\22-Sep-2023\0\\# b3lyp/
 6-31g(d)\\tmpdir/M2_conf_0_101.gjf\\0,1\O,0,0.,0.,0.\C,0,1.4159,0.,0.\
 H,0,-0.40032,0.,-0.89242\H,0,1.72858,0.11568,1.04112\H,0,1.84274,-0.93
 538,-0.39128\H,0,1.82115,0.83961,-0.58812\\Version=ES64L-G16RevA.03\St
 ate=1-A\HF=-115.713016\RMSD=5.601e-09\Dipole=0.2961516,0.0073857,-0.55
 93927\Quadrupole=0.0086706,-0.7195278,0.7108572,0.0047589,1.6948447,0.
 0107912\PG=C01 [X(C1H4O1)]\\@


 SOME PEOPLE TRY TO PULL THE WOOL OVER YOUR EYES
 USING THE WRONG YARN.
 Job cpu time:       0 days  0 hours  0 minutes  6.3 seconds.
 Elapsed time:       0 days  0 hours  0 minutes  3.2 seconds.
 File lengths (MBytes):  RWF=      6 Int=      0 D2E=      0 Chk=      1 Scr=      1
 Normal termination of Gaussian 16 at Fri Sep 22 17:02:52 2023.
