 Entering Gaussian System, Link 0=g16
 Initial command:
 /share/apps/gaussian/g16/l1.exe "/tmp/55621.mgr/Gau-120470.inp" -scrdir="/tmp/55621.mgr/"
 Entering Link 1 = /share/apps/gaussian/g16/l1.exe PID=    120471.
  
 Copyright (c) 1988,1990,1992,1993,1995,1998,2003,2009,2016,
            Gaussian, Inc.  All Rights Reserved.
  
 This is part of the Gaussian(R) 16 program.  It is based on
 the Gaussian(R) 09 system (copyright 2009, Gaussian, Inc.),
 the Gaussian(R) 03 system (copyright 2003, Gaussian, Inc.),
 the Gaussian(R) 98 system (copyright 1998, Gaussian, Inc.),
 the Gaussian(R) 94 system (copyright 1995, Gaussian, Inc.),
 the Gaussian 92(TM) system (copyright 1992, Gaussian, Inc.),
 the Gaussian 90(TM) system (copyright 1990, Gaussian, Inc.),
 the Gaussian 88(TM) system (copyright 1988, Gaussian, Inc.),
 the Gaussian 86(TM) system (copyright 1986, Carnegie Mellon
 University), and the Gaussian 82(TM) system (copyright 1983,
 Carnegie Mellon University). Gaussian is a federally registered
 trademark of Gaussian, Inc.
  
 This software contains proprietary and confidential information,
 including trade secrets, belonging to Gaussian, Inc.
  
 This software is provided under written license and may be
 used, copied, transmitted, or stored only in accord with that
 written license.
  
 The following legend is applicable only to US Government
 contracts under FAR:
  
                    RESTRICTED RIGHTS LEGEND
  
 Use, reproduction and disclosure by the US Government is
 subject to restrictions as set forth in subparagraphs (a)
 and (c) of the Commercial Computer Software - Restricted
 Rights clause in FAR 52.227-19.
  
 Gaussian, Inc.
 340 Quinnipiac St., Bldg. 40, Wallingford CT 06492
  
  
 ---------------------------------------------------------------
 Warning -- This program may not be used in any manner that
 competes with the business of Gaussian, Inc. or will provide
 assistance to any competitor of Gaussian, Inc.  The licensee
 of this program is prohibited from giving any competitor of
 Gaussian, Inc. access to this program.  By using this program,
 the user acknowledges that Gaussian, Inc. is engaged in the
 business of creating and licensing software in the field of
 computational chemistry and represents and warrants to the
 licensee that it is not a competitor of Gaussian, Inc. and that
 it will not use this program in any manner prohibited above.
 ---------------------------------------------------------------
  

 Cite this work as:
 Gaussian 16, Revision A.03,
 M. J. Frisch, G. W. Trucks, H. B. Schlegel, G. E. Scuseria, 
 M. A. Robb, J. R. Cheeseman, G. Scalmani, V. Barone, 
 G. A. Petersson, H. Nakatsuji, X. Li, M. Caricato, A. V. Marenich, 
 J. Bloino, B. G. Janesko, R. Gomperts, B. Mennucci, H. P. Hratchian, 
 J. V. Ortiz, A. F. Izmaylov, J. L. Sonnenberg, D. Williams-Young, 
 F. Ding, F. Lipparini, F. Egidi, J. Goings, B. Peng, A. Petrone, 
 T. Henderson, D. Ranasinghe, V. G. Zakrzewski, J. Gao, N. Rega, 
 G. Zheng, W. Liang, M. Hada, M. Ehara, K. Toyota, R. Fukuda, 
 J. Hasegawa, M. Ishida, T. Nakajima, Y. Honda, O. Kitao, H. Nakai, 
 T. Vreven, K. Throssell, J. A. Montgomery, Jr., J. E. Peralta, 
 F. Ogliaro, M. J. Bearpark, J. J. Heyd, E. N. Brothers, K. N. Kudin, 
 V. N. Staroverov, T. A. Keith, R. Kobayashi, J. Normand, 
 K. Raghavachari, A. P. Rendell, J. C. Burant, S. S. Iyengar, 
 J. Tomasi, M. Cossi, J. M. Millam, M. Klene, C. Adamo, R. Cammi, 
 J. W. Ochterski, R. L. Martin, K. Morokuma, O. Farkas, 
 J. B. Foresman, and D. J. Fox, Gaussian, Inc., Wallingford CT, 2016.
 
 ******************************************
 Gaussian 16:  ES64L-G16RevA.03 25-Dec-2016
                22-Sep-2023 
 ******************************************
 %nprocshared=2
 Will use up to    2 processors via shared memory.
 %mem=2GB
 ----------------
 # b3lyp/6-31g(d)
 ----------------
 1/38=1,172=1/1;
 2/12=2,17=6,18=5,40=1/2;
 3/5=1,6=6,7=1,11=2,25=1,30=1,74=-5/1,2,3;
 4//1;
 5/5=2,38=5/2;
 6/7=2,8=2,9=2,10=2,28=1/1;
 99/5=1,9=1/99;
 -----------------------
 tmpdir/M2_conf_0_89.gjf
 -----------------------
 Symbolic Z-matrix:
 Charge =  0 Multiplicity = 1
 C                     0.        0.        0. 
 C                     1.3934    0.        0. 
 C                     2.09947   0.        1.20636 
 H                    -0.51536   0.00015   0.8742 
 H                    -0.54436  -0.00542  -0.94132 
 H                     1.93396   0.00263  -0.94271 
 O                     1.48714  -0.00093   2.27253 
 H                     3.18606   0.00197   1.20124 
 
                          Input orientation:                          
 ---------------------------------------------------------------------
 Center     Atomic      Atomic             Coordinates (Angstroms)
 Number     Number       Type             X           Y           Z
 ---------------------------------------------------------------------
      1          6           0        0.000000    0.000000    0.000000
      2          6           0        1.393400    0.000000    0.000000
      3          6           0        2.099470    0.000000    1.206360
      4          1           0       -0.515360    0.000150    0.874200
      5          1           0       -0.544360   -0.005420   -0.941320
      6          1           0        1.933960    0.002630   -0.942710
      7          8           0        1.487140   -0.000930    2.272530
      8          1           0        3.186060    0.001970    1.201240
 ---------------------------------------------------------------------
                    Distance matrix (angstroms):
                    1          2          3          4          5
     1  C    0.000000
     2  C    1.393400   0.000000
     3  C    2.421380   1.397798   0.000000
     4  H    1.014801   2.099426   2.635843   0.000000
     5  H    1.087401   2.154304   3.406229   1.815760   0.000000
     6  H    2.151490   1.086699   2.155436   3.049645   2.478333
     7  O    2.715875   2.274463   1.229499   2.442403   3.802084
     8  H    3.404990   2.157918   1.086604   3.715840   4.301936
                    6          7          8
     6  H    0.000000
     7  O    3.246141   0.000000
     8  H    2.482796   2.008482   0.000000
 Stoichiometry    C3H4O
 Framework group  C1[X(C3H4O)]
 Deg. of freedom    18
 Full point group                 C1      NOp   1
 Largest Abelian subgroup         C1      NOp   1
 Largest concise Abelian subgroup C1      NOp   1
                         Standard orientation:                         
 ---------------------------------------------------------------------
 Center     Atomic      Atomic             Coordinates (Angstroms)
 Number     Number       Type             X           Y           Z
 ---------------------------------------------------------------------
      1          6           0        1.422160   -0.469358   -0.000822
      2          6           0        0.583898    0.643692    0.000243
      3          6           0       -0.804512    0.481962    0.000233
      4          1           0        1.033885   -1.406942   -0.001764
      5          1           0        2.501572   -0.337906    0.004610
      6          1           0        1.011739    1.642623   -0.001545
      7          8           0       -1.287796   -0.648570    0.000210
      8          1           0       -1.454109    1.353014   -0.000904
 ---------------------------------------------------------------------
 Rotational constants (GHZ):          21.3687441           6.9076604           5.2201877
 Standard basis: 6-31G(d) (6D, 7F)
 There are    68 symmetry adapted cartesian basis functions of A   symmetry.
 There are    68 symmetry adapted basis functions of A   symmetry.
    68 basis functions,   128 primitive gaussians,    68 cartesian basis functions
    15 alpha electrons       15 beta electrons
       nuclear repulsion energy       106.1313979094 Hartrees.
 NAtoms=    8 NActive=    8 NUniq=    8 SFac= 1.00D+00 NAtFMM=   60 NAOKFM=F Big=F
 Integral buffers will be    131072 words long.
 Raffenetti 2 integral format.
 Two-electron integral symmetry is turned on.
 One-electron integrals computed using PRISM.
 NBasis=    68 RedAO= T EigKep=  2.86D-03  NBF=    68
 NBsUse=    68 1.00D-06 EigRej= -1.00D+00 NBFU=    68
 ExpMin= 1.61D-01 ExpMax= 5.48D+03 ExpMxC= 8.25D+02 IAcc=3 IRadAn=         5 AccDes= 0.00D+00
 Harris functional with IExCor=  402 and IRadAn=       5 diagonalized for initial guess.
 HarFok:  IExCor=  402 AccDes= 0.00D+00 IRadAn=         5 IDoV= 1 UseB2=F ITyADJ=14
 ICtDFT=  3500011 ScaDFX=  1.000000  1.000000  1.000000  1.000000
 FoFCou: FMM=F IPFlag=           0 FMFlag=      100000 FMFlg1=           0
         NFxFlg=           0 DoJE=T BraDBF=F KetDBF=T FulRan=T
         wScrn=  0.000000 ICntrl=       500 IOpCl=  0 I1Cent=   200000004 NGrid=           0
         NMat0=    1 NMatS0=      1 NMatT0=    0 NMatD0=    1 NMtDS0=    0 NMtDT0=    0
 Petite list used in FoFCou.
 Keep R1 ints in memory in canonical form, NReq=4537793.
 Requested convergence on RMS density matrix=1.00D-08 within 128 cycles.
 Requested convergence on MAX density matrix=1.00D-06.
 Requested convergence on             energy=1.00D-06.
 No special actions if energy rises.
 Integral accuracy reduced to 1.0D-05 until final iterations.
 Initial convergence to 1.0D-05 achieved.  Increase integral accuracy.
 SCF Done:  E(RB3LYP) =  -191.896229511     A.U. after   14 cycles
            NFock= 14  Conv=0.69D-08     -V/T= 2.0085

 **********************************************************************

            Population analysis using the SCF density.

 **********************************************************************

 Orbital symmetries:
       Occupied  (A) (A) (A) (A) (A) (A) (A) (A) (A) (A) (A) (A)
                 (A) (A) (A)
       Virtual   (A) (A) (A) (A) (A) (A) (A) (A) (A) (A) (A) (A)
                 (A) (A) (A) (A) (A) (A) (A) (A) (A) (A) (A) (A)
                 (A) (A) (A) (A) (A) (A) (A) (A) (A) (A) (A) (A)
                 (A) (A) (A) (A) (A) (A) (A) (A) (A) (A) (A) (A)
                 (A) (A) (A) (A) (A)
 The electronic state is 1-A.
 Alpha  occ. eigenvalues --  -19.13644 -10.26577 -10.21659 -10.20646  -1.03127
 Alpha  occ. eigenvalues --   -0.79196  -0.67290  -0.55085  -0.51715  -0.44564
 Alpha  occ. eigenvalues --   -0.42000  -0.39434  -0.39004  -0.27507  -0.25336
 Alpha virt. eigenvalues --   -0.07937   0.07070   0.10547   0.14028   0.16618
 Alpha virt. eigenvalues --    0.19962   0.25326   0.31260   0.36082   0.51428
 Alpha virt. eigenvalues --    0.52724   0.57393   0.57945   0.59756   0.63390
 Alpha virt. eigenvalues --    0.64038   0.68442   0.81056   0.84701   0.85879
 Alpha virt. eigenvalues --    0.87185   0.92033   0.97510   0.99376   1.09649
 Alpha virt. eigenvalues --    1.10207   1.14031   1.28384   1.32921   1.41892
 Alpha virt. eigenvalues --    1.53580   1.54805   1.65176   1.76558   1.83703
 Alpha virt. eigenvalues --    1.84186   1.94871   1.95110   2.07110   2.20283
 Alpha virt. eigenvalues --    2.21742   2.30001   2.32052   2.53332   2.54350
 Alpha virt. eigenvalues --    2.61891   2.76847   2.90678   3.08290   3.84696
 Alpha virt. eigenvalues --    4.08349   4.15010   4.38410
          Condensed to atoms (all electrons):
               1          2          3          4          5          6
     1  C    5.021302   0.583077  -0.019948   0.373493   0.356845  -0.044662
     2  C    0.583077   5.175105   0.333756  -0.035875  -0.028844   0.338518
     3  C   -0.019948   0.333756   4.582248  -0.011607   0.004703  -0.028821
     4  H    0.373493  -0.035875  -0.011607   0.492521  -0.036263   0.005368
     5  H    0.356845  -0.028844   0.004703  -0.036263   0.546307  -0.004509
     6  H   -0.044662   0.338518  -0.028821   0.005368  -0.004509   0.588144
     7  O   -0.005852  -0.102788   0.560041   0.017574   0.000702   0.004127
     8  H    0.008944  -0.123361   0.357206   0.000698  -0.000058   0.002564
               7          8
     1  C   -0.005852   0.008944
     2  C   -0.102788  -0.123361
     3  C    0.560041   0.357206
     4  H    0.017574   0.000698
     5  H    0.000702  -0.000058
     6  H    0.004127   0.002564
     7  O    8.002708  -0.058986
     8  H   -0.058986   0.699583
 Mulliken charges:
               1
     1  C   -0.273199
     2  C   -0.139588
     3  C    0.222421
     4  H    0.194091
     5  H    0.161117
     6  H    0.139272
     7  O   -0.417526
     8  H    0.113411
 Sum of Mulliken charges =  -0.00000
 Mulliken charges with hydrogens summed into heavy atoms:
               1
     1  C    0.082010
     2  C   -0.000316
     3  C    0.335832
     7  O   -0.417526
 Electronic spatial extent (au):  <R**2>=            255.1562
 Charge=             -0.0000 electrons
 Dipole moment (field-independent basis, Debye):
    X=              2.1099    Y=              1.6698    Z=              0.0005  Tot=              2.6907
 Quadrupole moment (field-independent basis, Debye-Ang):
   XX=            -23.2754   YY=            -22.0141   ZZ=            -24.1902
   XY=             -3.0528   XZ=              0.0070   YZ=             -0.0011
 Traceless Quadrupole moment (field-independent basis, Debye-Ang):
   XX=             -0.1155   YY=              1.1458   ZZ=             -1.0303
   XY=             -3.0528   XZ=              0.0070   YZ=             -0.0011
 Octapole moment (field-independent basis, Debye-Ang**2):
  XXX=              4.8916  YYY=             -1.2858  ZZZ=              0.0024  XYY=              0.4691
  XXY=              1.9657  XXZ=              0.0230  XZZ=             -3.1872  YZZ=             -1.1621
  YYZ=             -0.0078  XYZ=             -0.0037
 Hexadecapole moment (field-independent basis, Debye-Ang**3):
 XXXX=           -202.1064 YYYY=            -84.5072 ZZZZ=            -22.4639 XXXY=             -4.0188
 XXXZ=              0.0723 YYYX=              1.5330 YYYZ=             -0.0063 ZZZX=              0.0038
 ZZZY=             -0.0014 XXYY=            -49.3272 XXZZ=            -40.4845 YYZZ=            -19.0910
 XXYZ=             -0.0105 YYXZ=             -0.0035 ZZXY=              0.7303
 N-N= 1.061313979094D+02 E-N=-6.598944440627D+02  KE= 1.902828546539D+02
 1\1\GINC-NODE60\SP\RB3LYP\6-31G(d)\C3H4O1\YANZ\22-Sep-2023\0\\# b3lyp/
 6-31g(d)\\tmpdir/M2_conf_0_89.gjf\\0,1\C,0,0.,0.,0.\C,0,1.3934,0.,0.\C
 ,0,2.09947,0.,1.20636\H,0,-0.51536,0.00015,0.8742\H,0,-0.54436,-0.0054
 2,-0.94132\H,0,1.93396,0.00263,-0.94271\O,0,1.48714,-0.00093,2.27253\H
 ,0,3.18606,0.00197,1.20124\\Version=ES64L-G16RevA.03\State=1-A\HF=-191
 .8962295\RMSD=6.859e-09\Dipole=0.0253809,0.0002859,-1.0582937\Quadrupo
 le=2.6938693,-0.765987,-1.9278823,0.0063737,0.1761535,0.0043537\PG=C01
  [X(C3H4O1)]\\@


 SOME PEOPLE TRY TO PULL THE WOOL OVER YOUR EYES
 USING THE WRONG YARN.
 Job cpu time:       0 days  0 hours  0 minutes 15.6 seconds.
 Elapsed time:       0 days  0 hours  0 minutes  7.9 seconds.
 File lengths (MBytes):  RWF=      6 Int=      0 D2E=      0 Chk=      1 Scr=      1
 Normal termination of Gaussian 16 at Fri Sep 22 17:02:52 2023.
