 Entering Gaussian System, Link 0=g16
 Initial command:
 /share/apps/gaussian/g16/l1.exe "/tmp/55621.mgr/Gau-119835.inp" -scrdir="/tmp/55621.mgr/"
 Entering Link 1 = /share/apps/gaussian/g16/l1.exe PID=    119836.
  
 Copyright (c) 1988,1990,1992,1993,1995,1998,2003,2009,2016,
            Gaussian, Inc.  All Rights Reserved.
  
 This is part of the Gaussian(R) 16 program.  It is based on
 the Gaussian(R) 09 system (copyright 2009, Gaussian, Inc.),
 the Gaussian(R) 03 system (copyright 2003, Gaussian, Inc.),
 the Gaussian(R) 98 system (copyright 1998, Gaussian, Inc.),
 the Gaussian(R) 94 system (copyright 1995, Gaussian, Inc.),
 the Gaussian 92(TM) system (copyright 1992, Gaussian, Inc.),
 the Gaussian 90(TM) system (copyright 1990, Gaussian, Inc.),
 the Gaussian 88(TM) system (copyright 1988, Gaussian, Inc.),
 the Gaussian 86(TM) system (copyright 1986, Carnegie Mellon
 University), and the Gaussian 82(TM) system (copyright 1983,
 Carnegie Mellon University). Gaussian is a federally registered
 trademark of Gaussian, Inc.
  
 This software contains proprietary and confidential information,
 including trade secrets, belonging to Gaussian, Inc.
  
 This software is provided under written license and may be
 used, copied, transmitted, or stored only in accord with that
 written license.
  
 The following legend is applicable only to US Government
 contracts under FAR:
  
                    RESTRICTED RIGHTS LEGEND
  
 Use, reproduction and disclosure by the US Government is
 subject to restrictions as set forth in subparagraphs (a)
 and (c) of the Commercial Computer Software - Restricted
 Rights clause in FAR 52.227-19.
  
 Gaussian, Inc.
 340 Quinnipiac St., Bldg. 40, Wallingford CT 06492
  
  
 ---------------------------------------------------------------
 Warning -- This program may not be used in any manner that
 competes with the business of Gaussian, Inc. or will provide
 assistance to any competitor of Gaussian, Inc.  The licensee
 of this program is prohibited from giving any competitor of
 Gaussian, Inc. access to this program.  By using this program,
 the user acknowledges that Gaussian, Inc. is engaged in the
 business of creating and licensing software in the field of
 computational chemistry and represents and warrants to the
 licensee that it is not a competitor of Gaussian, Inc. and that
 it will not use this program in any manner prohibited above.
 ---------------------------------------------------------------
  

 Cite this work as:
 Gaussian 16, Revision A.03,
 M. J. Frisch, G. W. Trucks, H. B. Schlegel, G. E. Scuseria, 
 M. A. Robb, J. R. Cheeseman, G. Scalmani, V. Barone, 
 G. A. Petersson, H. Nakatsuji, X. Li, M. Caricato, A. V. Marenich, 
 J. Bloino, B. G. Janesko, R. Gomperts, B. Mennucci, H. P. Hratchian, 
 J. V. Ortiz, A. F. Izmaylov, J. L. Sonnenberg, D. Williams-Young, 
 F. Ding, F. Lipparini, F. Egidi, J. Goings, B. Peng, A. Petrone, 
 T. Henderson, D. Ranasinghe, V. G. Zakrzewski, J. Gao, N. Rega, 
 G. Zheng, W. Liang, M. Hada, M. Ehara, K. Toyota, R. Fukuda, 
 J. Hasegawa, M. Ishida, T. Nakajima, Y. Honda, O. Kitao, H. Nakai, 
 T. Vreven, K. Throssell, J. A. Montgomery, Jr., J. E. Peralta, 
 F. Ogliaro, M. J. Bearpark, J. J. Heyd, E. N. Brothers, K. N. Kudin, 
 V. N. Staroverov, T. A. Keith, R. Kobayashi, J. Normand, 
 K. Raghavachari, A. P. Rendell, J. C. Burant, S. S. Iyengar, 
 J. Tomasi, M. Cossi, J. M. Millam, M. Klene, C. Adamo, R. Cammi, 
 J. W. Ochterski, R. L. Martin, K. Morokuma, O. Farkas, 
 J. B. Foresman, and D. J. Fox, Gaussian, Inc., Wallingford CT, 2016.
 
 ******************************************
 Gaussian 16:  ES64L-G16RevA.03 25-Dec-2016
                22-Sep-2023 
 ******************************************
 %nprocshared=2
 Will use up to    2 processors via shared memory.
 %mem=2GB
 ----------------
 # b3lyp/6-31g(d)
 ----------------
 1/38=1,172=1/1;
 2/12=2,17=6,18=5,40=1/2;
 3/5=1,6=6,7=1,11=2,25=1,30=1,74=-5/1,2,3;
 4//1;
 5/5=2,38=5/2;
 6/7=2,8=2,9=2,10=2,28=1/1;
 99/5=1,9=1/99;
 -----------------------
 tmpdir/M2_conf_0_38.gjf
 -----------------------
 Symbolic Z-matrix:
 Charge =  0 Multiplicity = 1
 C                     0.        0.        0. 
 H                     1.0973    0.        0. 
 H                    -0.36057   0.       -1.06343 
 H                    -0.3482    0.8611    0.63579 
 H                    -0.31701  -0.91993   0.50616 
 
                          Input orientation:                          
 ---------------------------------------------------------------------
 Center     Atomic      Atomic             Coordinates (Angstroms)
 Number     Number       Type             X           Y           Z
 ---------------------------------------------------------------------
      1          6           0        0.000000    0.000000    0.000000
      2          1           0        1.097300    0.000000    0.000000
      3          1           0       -0.360570    0.000000   -1.063430
      4          1           0       -0.348200    0.861100    0.635790
      5          1           0       -0.317010   -0.919930    0.506160
 ---------------------------------------------------------------------
                    Distance matrix (angstroms):
                    1          2          3          4          5
     1  C    0.000000
     2  H    1.097300   0.000000
     3  H    1.122895   1.804513   0.000000
     4  H    1.125596   1.798664   1.904992   0.000000
     5  H    1.096797   1.761460   1.819830   1.786014   0.000000
 Stoichiometry    CH4
 Framework group  C1[X(CH4)]
 Deg. of freedom     9
 Full point group                 C1      NOp   1
 Largest Abelian subgroup         C1      NOp   1
 Largest concise Abelian subgroup C1      NOp   1
                         Standard orientation:                         
 ---------------------------------------------------------------------
 Center     Atomic      Atomic             Coordinates (Angstroms)
 Number     Number       Type             X           Y           Z
 ---------------------------------------------------------------------
      1          6           0        0.005392   -0.010873    0.000344
      2          1           0        0.012116    0.687447   -0.846043
      3          1           0        1.005529   -0.518211    0.057167
      4          1           0       -0.883603   -0.691284   -0.116672
      5          1           0       -0.166395    0.587286    0.903483
 ---------------------------------------------------------------------
 Rotational constants (GHZ):         161.0322400         148.8477407         148.1398525
 Standard basis: 6-31G(d) (6D, 7F)
 There are    23 symmetry adapted cartesian basis functions of A   symmetry.
 There are    23 symmetry adapted basis functions of A   symmetry.
    23 basis functions,    44 primitive gaussians,    23 cartesian basis functions
     5 alpha electrons        5 beta electrons
       nuclear repulsion energy        13.1894614281 Hartrees.
 NAtoms=    5 NActive=    5 NUniq=    5 SFac= 1.00D+00 NAtFMM=   60 NAOKFM=F Big=F
 Integral buffers will be    131072 words long.
 Raffenetti 2 integral format.
 Two-electron integral symmetry is turned on.
 One-electron integrals computed using PRISM.
 NBasis=    23 RedAO= T EigKep=  1.89D-02  NBF=    23
 NBsUse=    23 1.00D-06 EigRej= -1.00D+00 NBFU=    23
 ExpMin= 1.61D-01 ExpMax= 3.05D+03 ExpMxC= 4.57D+02 IAcc=3 IRadAn=         5 AccDes= 0.00D+00
 Harris functional with IExCor=  402 and IRadAn=       5 diagonalized for initial guess.
 HarFok:  IExCor=  402 AccDes= 0.00D+00 IRadAn=         5 IDoV= 1 UseB2=F ITyADJ=14
 ICtDFT=  3500011 ScaDFX=  1.000000  1.000000  1.000000  1.000000
 FoFCou: FMM=F IPFlag=           0 FMFlag=      100000 FMFlg1=           0
         NFxFlg=           0 DoJE=T BraDBF=F KetDBF=T FulRan=T
         wScrn=  0.000000 ICntrl=       500 IOpCl=  0 I1Cent=   200000004 NGrid=           0
         NMat0=    1 NMatS0=      1 NMatT0=    0 NMatD0=    1 NMtDS0=    0 NMtDT0=    0
 Petite list used in FoFCou.
 Keep R1 ints in memory in canonical form, NReq=1762518.
 Requested convergence on RMS density matrix=1.00D-08 within 128 cycles.
 Requested convergence on MAX density matrix=1.00D-06.
 Requested convergence on             energy=1.00D-06.
 No special actions if energy rises.
 Integral accuracy reduced to 1.0D-05 until final iterations.
 Initial convergence to 1.0D-05 achieved.  Increase integral accuracy.
 SCF Done:  E(RB3LYP) =  -40.5160131965     A.U. after    9 cycles
            NFock=  9  Conv=0.50D-08     -V/T= 2.0133

 **********************************************************************

            Population analysis using the SCF density.

 **********************************************************************

 Orbital symmetries:
       Occupied  (A) (A) (A) (A) (A)
       Virtual   (A) (A) (A) (A) (A) (A) (A) (A) (A) (A) (A) (A)
                 (A) (A) (A) (A) (A) (A)
 The electronic state is 1-A.
 Alpha  occ. eigenvalues --  -10.17413  -0.68561  -0.39382  -0.38419  -0.37993
 Alpha virt. eigenvalues --    0.11239   0.16720   0.17096   0.17481   0.53144
 Alpha virt. eigenvalues --    0.53405   0.55186   0.87052   0.88387   0.89124
 Alpha virt. eigenvalues --    0.93373   1.09553   1.65830   1.66286   2.17960
 Alpha virt. eigenvalues --    2.23028   2.24719   4.16593
          Condensed to atoms (all electrons):
               1          2          3          4          5
     1  C    5.099794   0.380217   0.381261   0.379757   0.380375
     2  H    0.380217   0.547597  -0.027654  -0.027845  -0.029467
     3  H    0.381261  -0.027654   0.537169  -0.019401  -0.025889
     4  H    0.379757  -0.027845  -0.019401   0.544587  -0.029411
     5  H    0.380375  -0.029467  -0.025889  -0.029411   0.546969
 Mulliken charges:
               1
     1  C   -0.621403
     2  H    0.157151
     3  H    0.154515
     4  H    0.152314
     5  H    0.157424
 Sum of Mulliken charges =  -0.00000
 Mulliken charges with hydrogens summed into heavy atoms:
               1
     1  C   -0.000000
 Electronic spatial extent (au):  <R**2>=             36.1268
 Charge=             -0.0000 electrons
 Dipole moment (field-independent basis, Debye):
    X=             -0.0169    Y=              0.0688    Z=              0.0012  Tot=              0.0709
 Quadrupole moment (field-independent basis, Debye-Ang):
   XX=             -8.0720   YY=             -8.4108   ZZ=             -8.4128
   XY=             -0.0145   XZ=             -0.0061   YZ=             -0.0014
 Traceless Quadrupole moment (field-independent basis, Debye-Ang):
   XX=              0.2265   YY=             -0.1123   ZZ=             -0.1143
   XY=             -0.0145   XZ=             -0.0061   YZ=             -0.0014
 Octapole moment (field-independent basis, Debye-Ang**2):
  XXX=              0.2195  YYY=              0.2436  ZZZ=              0.0874  XYY=             -0.1440
  XXY=             -0.6843  XXZ=             -0.0027  XZZ=             -0.1056  YZZ=              0.6660
  YYZ=             -0.0771  XYZ=             -0.1314
 Hexadecapole moment (field-independent basis, Debye-Ang**3):
 XXXX=            -15.7534 YYYY=            -15.9787 ZZZZ=            -15.2664 XXXY=             -0.0801
 XXXZ=              0.1295 YYYX=              0.0962 YYYZ=             -0.0687 ZZZX=             -0.1487
 ZZZY=              0.0149 XXYY=             -5.0135 XXZZ=             -5.6300 YYZZ=             -4.8661
 XXYZ=              0.0496 YYXZ=              0.0017 ZZXY=             -0.0814
 N-N= 1.318946142814D+01 E-N=-1.193551880743D+02  KE= 3.998541845695D+01
 1\1\GINC-NODE60\SP\RB3LYP\6-31G(d)\C1H4\YANZ\22-Sep-2023\0\\# b3lyp/6-
 31g(d)\\tmpdir/M2_conf_0_38.gjf\\0,1\C,0,0.,0.,0.\H,0,1.0973,0.,0.\H,0
 ,-0.36057,0.,-1.06343\H,0,-0.3482,0.8611,0.63579\H,0,-0.31701,-0.91993
 ,0.50616\\Version=ES64L-G16RevA.03\State=1-A\HF=-40.5160132\RMSD=5.044
 e-09\Dipole=0.0168445,-0.0177134,0.0134366\Quadrupole=-0.0833519,-0.06
 3874,0.147226,-0.0001962,0.0020485,0.0711155\PG=C01 [X(C1H4)]\\@


 STEINBACH'S GUIDELINES FOR SYSTEMS PROGRAMMING:
 NEVER TEST FOR AN ERROR CONDITION YOU DON'T KNOW HOW
 TO HANDLE.
 Job cpu time:       0 days  0 hours  0 minutes  3.5 seconds.
 Elapsed time:       0 days  0 hours  0 minutes  1.8 seconds.
 File lengths (MBytes):  RWF=      6 Int=      0 D2E=      0 Chk=      1 Scr=      1
 Normal termination of Gaussian 16 at Fri Sep 22 17:02:28 2023.
