 Entering Gaussian System, Link 0=g16
 Initial command:
 /share/apps/gaussian/g16/l1.exe "/tmp/55621.mgr/Gau-120259.inp" -scrdir="/tmp/55621.mgr/"
 Entering Link 1 = /share/apps/gaussian/g16/l1.exe PID=    120260.
  
 Copyright (c) 1988,1990,1992,1993,1995,1998,2003,2009,2016,
            Gaussian, Inc.  All Rights Reserved.
  
 This is part of the Gaussian(R) 16 program.  It is based on
 the Gaussian(R) 09 system (copyright 2009, Gaussian, Inc.),
 the Gaussian(R) 03 system (copyright 2003, Gaussian, Inc.),
 the Gaussian(R) 98 system (copyright 1998, Gaussian, Inc.),
 the Gaussian(R) 94 system (copyright 1995, Gaussian, Inc.),
 the Gaussian 92(TM) system (copyright 1992, Gaussian, Inc.),
 the Gaussian 90(TM) system (copyright 1990, Gaussian, Inc.),
 the Gaussian 88(TM) system (copyright 1988, Gaussian, Inc.),
 the Gaussian 86(TM) system (copyright 1986, Carnegie Mellon
 University), and the Gaussian 82(TM) system (copyright 1983,
 Carnegie Mellon University). Gaussian is a federally registered
 trademark of Gaussian, Inc.
  
 This software contains proprietary and confidential information,
 including trade secrets, belonging to Gaussian, Inc.
  
 This software is provided under written license and may be
 used, copied, transmitted, or stored only in accord with that
 written license.
  
 The following legend is applicable only to US Government
 contracts under FAR:
  
                    RESTRICTED RIGHTS LEGEND
  
 Use, reproduction and disclosure by the US Government is
 subject to restrictions as set forth in subparagraphs (a)
 and (c) of the Commercial Computer Software - Restricted
 Rights clause in FAR 52.227-19.
  
 Gaussian, Inc.
 340 Quinnipiac St., Bldg. 40, Wallingford CT 06492
  
  
 ---------------------------------------------------------------
 Warning -- This program may not be used in any manner that
 competes with the business of Gaussian, Inc. or will provide
 assistance to any competitor of Gaussian, Inc.  The licensee
 of this program is prohibited from giving any competitor of
 Gaussian, Inc. access to this program.  By using this program,
 the user acknowledges that Gaussian, Inc. is engaged in the
 business of creating and licensing software in the field of
 computational chemistry and represents and warrants to the
 licensee that it is not a competitor of Gaussian, Inc. and that
 it will not use this program in any manner prohibited above.
 ---------------------------------------------------------------
  

 Cite this work as:
 Gaussian 16, Revision A.03,
 M. J. Frisch, G. W. Trucks, H. B. Schlegel, G. E. Scuseria, 
 M. A. Robb, J. R. Cheeseman, G. Scalmani, V. Barone, 
 G. A. Petersson, H. Nakatsuji, X. Li, M. Caricato, A. V. Marenich, 
 J. Bloino, B. G. Janesko, R. Gomperts, B. Mennucci, H. P. Hratchian, 
 J. V. Ortiz, A. F. Izmaylov, J. L. Sonnenberg, D. Williams-Young, 
 F. Ding, F. Lipparini, F. Egidi, J. Goings, B. Peng, A. Petrone, 
 T. Henderson, D. Ranasinghe, V. G. Zakrzewski, J. Gao, N. Rega, 
 G. Zheng, W. Liang, M. Hada, M. Ehara, K. Toyota, R. Fukuda, 
 J. Hasegawa, M. Ishida, T. Nakajima, Y. Honda, O. Kitao, H. Nakai, 
 T. Vreven, K. Throssell, J. A. Montgomery, Jr., J. E. Peralta, 
 F. Ogliaro, M. J. Bearpark, J. J. Heyd, E. N. Brothers, K. N. Kudin, 
 V. N. Staroverov, T. A. Keith, R. Kobayashi, J. Normand, 
 K. Raghavachari, A. P. Rendell, J. C. Burant, S. S. Iyengar, 
 J. Tomasi, M. Cossi, J. M. Millam, M. Klene, C. Adamo, R. Cammi, 
 J. W. Ochterski, R. L. Martin, K. Morokuma, O. Farkas, 
 J. B. Foresman, and D. J. Fox, Gaussian, Inc., Wallingford CT, 2016.
 
 ******************************************
 Gaussian 16:  ES64L-G16RevA.03 25-Dec-2016
                22-Sep-2023 
 ******************************************
 %nprocshared=2
 Will use up to    2 processors via shared memory.
 %mem=2GB
 ----------------
 # b3lyp/6-31g(d)
 ----------------
 1/38=1,172=1/1;
 2/12=2,17=6,18=5,40=1/2;
 3/5=1,6=6,7=1,11=2,25=1,30=1,74=-5/1,2,3;
 4//1;
 5/5=2,38=5/2;
 6/7=2,8=2,9=2,10=2,28=1/1;
 99/5=1,9=1/99;
 -----------------------
 tmpdir/M2_conf_0_82.gjf
 -----------------------
 Symbolic Z-matrix:
 Charge =  0 Multiplicity = 1
 C                     0.        0.        0. 
 C                     1.3969    0.        0. 
 C                    -0.71262   0.       -1.20402 
 H                    -0.54033   0.00461   0.94422 
 C                     2.09399  -0.00295  -1.20788 
 H                     1.93724   0.00247   0.94272 
 
                          Input orientation:                          
 ---------------------------------------------------------------------
 Center     Atomic      Atomic             Coordinates (Angstroms)
 Number     Number       Type             X           Y           Z
 ---------------------------------------------------------------------
      1          6           0        0.000000    0.000000    0.000000
      2          6           0        1.396900    0.000000    0.000000
      3          6           0       -0.712620    0.000000   -1.204020
      4          1           0       -0.540330    0.004610    0.944220
      5          6           0        2.093990   -0.002950   -1.207880
      6          1           0        1.937240    0.002470    0.942720
 ---------------------------------------------------------------------
                    Distance matrix (angstroms):
                    1          2          3          4          5
     1  C    0.000000
     2  C    1.396900   0.000000
     3  C    1.399104   2.428938   0.000000
     4  H    1.087901   2.155095   2.155143   0.000000
     5  C    2.417391   1.394603   2.806614   3.401652   0.000000
     6  H    2.154443   1.086598   3.410316   2.477571   2.156312
                    6
     6  H    0.000000
 Stoichiometry    C4H2
 Framework group  C1[X(C4H2)]
 Deg. of freedom    12
 Full point group                 C1      NOp   1
 Largest Abelian subgroup         C1      NOp   1
 Largest concise Abelian subgroup C1      NOp   1
                         Standard orientation:                         
 ---------------------------------------------------------------------
 Center     Atomic      Atomic             Coordinates (Angstroms)
 Number     Number       Type             X           Y           Z
 ---------------------------------------------------------------------
      1          6           0        0.694045    0.485194   -0.001023
      2          6           0       -0.702852    0.482828    0.000155
      3          6           0        1.408705   -0.717616    0.000479
      4          1           0        1.232778    1.430334    0.001483
      5          6           0       -1.397896   -0.726234   -0.000098
      6          1           0       -1.244787    1.424635    0.001434
 ---------------------------------------------------------------------
 Rotational constants (GHZ):          22.8906022           8.1428129           6.0062347
 Standard basis: 6-31G(d) (6D, 7F)
 There are    64 symmetry adapted cartesian basis functions of A   symmetry.
 There are    64 symmetry adapted basis functions of A   symmetry.
    64 basis functions,   120 primitive gaussians,    64 cartesian basis functions
    13 alpha electrons       13 beta electrons
       nuclear repulsion energy        77.2363841532 Hartrees.
 NAtoms=    6 NActive=    6 NUniq=    6 SFac= 1.00D+00 NAtFMM=   60 NAOKFM=F Big=F
 Integral buffers will be    131072 words long.
 Raffenetti 2 integral format.
 Two-electron integral symmetry is turned on.
 One-electron integrals computed using PRISM.
 NBasis=    64 RedAO= T EigKep=  3.13D-03  NBF=    64
 NBsUse=    64 1.00D-06 EigRej= -1.00D+00 NBFU=    64
 ExpMin= 1.61D-01 ExpMax= 3.05D+03 ExpMxC= 4.57D+02 IAcc=3 IRadAn=         5 AccDes= 0.00D+00
 Harris functional with IExCor=  402 and IRadAn=       5 diagonalized for initial guess.
 HarFok:  IExCor=  402 AccDes= 0.00D+00 IRadAn=         5 IDoV= 1 UseB2=F ITyADJ=14
 ICtDFT=  3500011 ScaDFX=  1.000000  1.000000  1.000000  1.000000
 FoFCou: FMM=F IPFlag=           0 FMFlag=      100000 FMFlg1=           0
         NFxFlg=           0 DoJE=T BraDBF=F KetDBF=T FulRan=T
         wScrn=  0.000000 ICntrl=       500 IOpCl=  0 I1Cent=   200000004 NGrid=           0
         NMat0=    1 NMatS0=      1 NMatT0=    0 NMatD0=    1 NMtDS0=    0 NMtDT0=    0
 Petite list used in FoFCou.
 Keep R1 ints in memory in canonical form, NReq=3940480.
 Requested convergence on RMS density matrix=1.00D-08 within 128 cycles.
 Requested convergence on MAX density matrix=1.00D-06.
 Requested convergence on             energy=1.00D-06.
 No special actions if energy rises.
 Integral accuracy reduced to 1.0D-05 until final iterations.
 Initial convergence to 1.0D-05 achieved.  Increase integral accuracy.
 SCF Done:  E(RB3LYP) =  -153.299976672     A.U. after   13 cycles
            NFock= 13  Conv=0.97D-08     -V/T= 2.0101

 **********************************************************************

            Population analysis using the SCF density.

 **********************************************************************

 Orbital symmetries:
       Occupied  (A) (A) (A) (A) (A) (A) (A) (A) (A) (A) (A) (A)
                 (A)
       Virtual   (A) (A) (A) (A) (A) (A) (A) (A) (A) (A) (A) (A)
                 (A) (A) (A) (A) (A) (A) (A) (A) (A) (A) (A) (A)
                 (A) (A) (A) (A) (A) (A) (A) (A) (A) (A) (A) (A)
                 (A) (A) (A) (A) (A) (A) (A) (A) (A) (A) (A) (A)
                 (A) (A) (A)
 The electronic state is 1-A.
 Alpha  occ. eigenvalues --  -10.27329 -10.27305 -10.23011 -10.22944  -0.84743
 Alpha  occ. eigenvalues --   -0.72014  -0.60729  -0.49718  -0.48912  -0.35878
 Alpha  occ. eigenvalues --   -0.31669  -0.29672  -0.23996
 Alpha virt. eigenvalues --   -0.13123  -0.09987  -0.06247   0.06752   0.10653
 Alpha virt. eigenvalues --    0.14709   0.25589   0.35483   0.37767   0.48209
 Alpha virt. eigenvalues --    0.50287   0.52701   0.55248   0.55904   0.58366
 Alpha virt. eigenvalues --    0.58748   0.60191   0.61086   0.66355   0.69278
 Alpha virt. eigenvalues --    0.72260   0.81633   0.85399   0.93538   0.95514
 Alpha virt. eigenvalues --    1.12275   1.23290   1.30629   1.40530   1.48953
 Alpha virt. eigenvalues --    1.64311   1.66852   1.72857   1.73308   1.74418
 Alpha virt. eigenvalues --    1.86024   1.86645   1.97124   2.13873   2.19599
 Alpha virt. eigenvalues --    2.20437   2.26688   2.46770   2.51326   2.55689
 Alpha virt. eigenvalues --    2.76579   2.93887   3.92475   3.99671   4.11353
 Alpha virt. eigenvalues --    4.39066
          Condensed to atoms (all electrons):
               1          2          3          4          5          6
     1  C    5.047419   0.410155   0.486104   0.333929  -0.045243  -0.017499
     2  C    0.410155   5.040354  -0.045365  -0.017506   0.488938   0.333884
     3  C    0.486104  -0.045365   5.567476  -0.020121   0.001197   0.004276
     4  H    0.333929  -0.017506  -0.020121   0.503592   0.004267  -0.010725
     5  C   -0.045243   0.488938   0.001197   0.004267   5.565504  -0.020540
     6  H   -0.017499   0.333884   0.004276  -0.010725  -0.020540   0.504147
 Mulliken charges:
               1
     1  C   -0.214866
     2  C   -0.210461
     3  C    0.006433
     4  H    0.206563
     5  C    0.005876
     6  H    0.206456
 Sum of Mulliken charges =  -0.00000
 Mulliken charges with hydrogens summed into heavy atoms:
               1
     1  C   -0.008303
     2  C   -0.004006
     3  C    0.006433
     5  C    0.005876
 Electronic spatial extent (au):  <R**2>=            217.4803
 Charge=             -0.0000 electrons
 Dipole moment (field-independent basis, Debye):
    X=             -0.0362    Y=              3.4726    Z=              0.0028  Tot=              3.4728
 Quadrupole moment (field-independent basis, Debye-Ang):
   XX=            -24.3741   YY=            -23.3625   ZZ=            -25.2956
   XY=              0.0064   XZ=             -0.0019   YZ=              0.0070
 Traceless Quadrupole moment (field-independent basis, Debye-Ang):
   XX=             -0.0300   YY=              0.9816   ZZ=             -0.9515
   XY=              0.0064   XZ=             -0.0019   YZ=              0.0070
 Octapole moment (field-independent basis, Debye-Ang**2):
  XXX=             -0.3729  YYY=             14.2012  ZZZ=              0.0033  XYY=              0.0179
  XXY=             13.4707  XXZ=              0.0118  XZZ=             -0.0357  YZZ=              1.7202
  YYZ=              0.0058  XYZ=              0.0041
 Hexadecapole moment (field-independent basis, Debye-Ang**3):
 XXXX=           -200.3349 YYYY=            -92.3668 ZZZZ=            -26.9540 XXXY=              0.3155
 XXXZ=             -0.0148 YYYX=             -0.1539 YYYZ=              0.0195 ZZZX=             -0.0010
 ZZZY=              0.0062 XXYY=            -58.0282 XXZZ=            -41.4069 YYZZ=            -20.8643
 XXYZ=              0.0116 YYXZ=             -0.0014 ZZXY=             -0.0021
 N-N= 7.723638415324D+01 E-N=-5.091887695971D+02  KE= 1.517673080689D+02
 1\1\GINC-NODE60\SP\RB3LYP\6-31G(d)\C4H2\YANZ\22-Sep-2023\0\\# b3lyp/6-
 31g(d)\\tmpdir/M2_conf_0_82.gjf\\0,1\C,0,0.,0.,0.\C,0,1.3969,0.,0.\C,0
 ,-0.71262,0.,-1.20402\H,0,-0.54033,0.00461,0.94422\C,0,2.09399,-0.0029
 5,-1.20788\H,0,1.93724,0.00247,0.94272\\Version=ES64L-G16RevA.03\State
 =1-A\HF=-153.2999767\RMSD=9.692e-09\Dipole=0.0119387,0.0034969,1.36625
 94\Quadrupole=-0.0223146,-0.7074231,0.7297377,0.0008068,-0.0060567,0.0
 077301\PG=C01 [X(C4H2)]\\@


 THE MORE POWERFUL THE METHOD, THE MORE CATASTROPHIC THE ERRORS.
     -- M.D. KAMEN
 Job cpu time:       0 days  0 hours  0 minutes 10.3 seconds.
 Elapsed time:       0 days  0 hours  0 minutes  5.2 seconds.
 File lengths (MBytes):  RWF=      6 Int=      0 D2E=      0 Chk=      1 Scr=      1
 Normal termination of Gaussian 16 at Fri Sep 22 17:02:42 2023.
