 Entering Gaussian System, Link 0=g16
 Initial command:
 /share/apps/gaussian/g16/l1.exe "/tmp/55621.mgr/Gau-120337.inp" -scrdir="/tmp/55621.mgr/"
 Entering Link 1 = /share/apps/gaussian/g16/l1.exe PID=    120338.
  
 Copyright (c) 1988,1990,1992,1993,1995,1998,2003,2009,2016,
            Gaussian, Inc.  All Rights Reserved.
  
 This is part of the Gaussian(R) 16 program.  It is based on
 the Gaussian(R) 09 system (copyright 2009, Gaussian, Inc.),
 the Gaussian(R) 03 system (copyright 2003, Gaussian, Inc.),
 the Gaussian(R) 98 system (copyright 1998, Gaussian, Inc.),
 the Gaussian(R) 94 system (copyright 1995, Gaussian, Inc.),
 the Gaussian 92(TM) system (copyright 1992, Gaussian, Inc.),
 the Gaussian 90(TM) system (copyright 1990, Gaussian, Inc.),
 the Gaussian 88(TM) system (copyright 1988, Gaussian, Inc.),
 the Gaussian 86(TM) system (copyright 1986, Carnegie Mellon
 University), and the Gaussian 82(TM) system (copyright 1983,
 Carnegie Mellon University). Gaussian is a federally registered
 trademark of Gaussian, Inc.
  
 This software contains proprietary and confidential information,
 including trade secrets, belonging to Gaussian, Inc.
  
 This software is provided under written license and may be
 used, copied, transmitted, or stored only in accord with that
 written license.
  
 The following legend is applicable only to US Government
 contracts under FAR:
  
                    RESTRICTED RIGHTS LEGEND
  
 Use, reproduction and disclosure by the US Government is
 subject to restrictions as set forth in subparagraphs (a)
 and (c) of the Commercial Computer Software - Restricted
 Rights clause in FAR 52.227-19.
  
 Gaussian, Inc.
 340 Quinnipiac St., Bldg. 40, Wallingford CT 06492
  
  
 ---------------------------------------------------------------
 Warning -- This program may not be used in any manner that
 competes with the business of Gaussian, Inc. or will provide
 assistance to any competitor of Gaussian, Inc.  The licensee
 of this program is prohibited from giving any competitor of
 Gaussian, Inc. access to this program.  By using this program,
 the user acknowledges that Gaussian, Inc. is engaged in the
 business of creating and licensing software in the field of
 computational chemistry and represents and warrants to the
 licensee that it is not a competitor of Gaussian, Inc. and that
 it will not use this program in any manner prohibited above.
 ---------------------------------------------------------------
  

 Cite this work as:
 Gaussian 16, Revision A.03,
 M. J. Frisch, G. W. Trucks, H. B. Schlegel, G. E. Scuseria, 
 M. A. Robb, J. R. Cheeseman, G. Scalmani, V. Barone, 
 G. A. Petersson, H. Nakatsuji, X. Li, M. Caricato, A. V. Marenich, 
 J. Bloino, B. G. Janesko, R. Gomperts, B. Mennucci, H. P. Hratchian, 
 J. V. Ortiz, A. F. Izmaylov, J. L. Sonnenberg, D. Williams-Young, 
 F. Ding, F. Lipparini, F. Egidi, J. Goings, B. Peng, A. Petrone, 
 T. Henderson, D. Ranasinghe, V. G. Zakrzewski, J. Gao, N. Rega, 
 G. Zheng, W. Liang, M. Hada, M. Ehara, K. Toyota, R. Fukuda, 
 J. Hasegawa, M. Ishida, T. Nakajima, Y. Honda, O. Kitao, H. Nakai, 
 T. Vreven, K. Throssell, J. A. Montgomery, Jr., J. E. Peralta, 
 F. Ogliaro, M. J. Bearpark, J. J. Heyd, E. N. Brothers, K. N. Kudin, 
 V. N. Staroverov, T. A. Keith, R. Kobayashi, J. Normand, 
 K. Raghavachari, A. P. Rendell, J. C. Burant, S. S. Iyengar, 
 J. Tomasi, M. Cossi, J. M. Millam, M. Klene, C. Adamo, R. Cammi, 
 J. W. Ochterski, R. L. Martin, K. Morokuma, O. Farkas, 
 J. B. Foresman, and D. J. Fox, Gaussian, Inc., Wallingford CT, 2016.
 
 ******************************************
 Gaussian 16:  ES64L-G16RevA.03 25-Dec-2016
                22-Sep-2023 
 ******************************************
 %nprocshared=2
 Will use up to    2 processors via shared memory.
 %mem=2GB
 ----------------
 # b3lyp/6-31g(d)
 ----------------
 1/38=1,172=1/1;
 2/12=2,17=6,18=5,40=1/2;
 3/5=1,6=6,7=1,11=2,25=1,30=1,74=-5/1,2,3;
 4//1;
 5/5=2,38=5/2;
 6/7=2,8=2,9=2,10=2,28=1/1;
 99/5=1,9=1/99;
 -----------------------
 tmpdir/M2_conf_0_99.gjf
 -----------------------
 Symbolic Z-matrix:
 Charge =  0 Multiplicity = 1
 C                     0.        0.        0. 
 C                     1.3978    0.        0. 
 H                     1.94373   0.        0.9395 
 O                    -0.61606  -0.00223  -1.06275 
 H                    -0.5445   -0.00066   0.94045 
 O                     2.00864  -0.0013   -1.06702 
 
                          Input orientation:                          
 ---------------------------------------------------------------------
 Center     Atomic      Atomic             Coordinates (Angstroms)
 Number     Number       Type             X           Y           Z
 ---------------------------------------------------------------------
      1          6           0        0.000000    0.000000    0.000000
      2          6           0        1.397800    0.000000    0.000000
      3          1           0        1.943730    0.000000    0.939500
      4          8           0       -0.616060   -0.002230   -1.062750
      5          1           0       -0.544500   -0.000660    0.940450
      6          8           0        2.008640   -0.001300   -1.067020
 ---------------------------------------------------------------------
                    Distance matrix (angstroms):
                    1          2          3          4          5
     1  C    0.000000
     2  C    1.397800   0.000000
     3  H    2.158876   1.086600   0.000000
     4  O    1.228402   2.277076   3.249852   0.000000
     5  H    1.086705   2.158003   2.488230   2.004478   0.000000
     6  O    2.274460   1.229495   2.007570   2.624704   3.247839
                    6
     6  O    0.000000
 Stoichiometry    C2H2O2
 Framework group  C1[X(C2H2O2)]
 Deg. of freedom    12
 Full point group                 C1      NOp   1
 Largest Abelian subgroup         C1      NOp   1
 Largest concise Abelian subgroup C1      NOp   1
                         Standard orientation:                         
 ---------------------------------------------------------------------
 Center     Atomic      Atomic             Coordinates (Angstroms)
 Number     Number       Type             X           Y           Z
 ---------------------------------------------------------------------
      1          6           0       -0.697984    0.504683   -0.000555
      2          6           0        0.699816    0.505868   -0.000147
      3          1           0        1.244949    1.445829    0.001150
      4          8           0       -1.313143   -0.558591    0.000209
      5          1           0       -1.243281    1.444670    0.001086
      6          8           0        1.311560   -0.560635    0.000038
 ---------------------------------------------------------------------
 Rotational constants (GHZ):          25.0009155           7.2261026           5.6058307
 Standard basis: 6-31G(d) (6D, 7F)
 There are    64 symmetry adapted cartesian basis functions of A   symmetry.
 There are    64 symmetry adapted basis functions of A   symmetry.
    64 basis functions,   120 primitive gaussians,    64 cartesian basis functions
    15 alpha electrons       15 beta electrons
       nuclear repulsion energy       106.0169247839 Hartrees.
 NAtoms=    6 NActive=    6 NUniq=    6 SFac= 1.00D+00 NAtFMM=   60 NAOKFM=F Big=F
 Integral buffers will be    131072 words long.
 Raffenetti 2 integral format.
 Two-electron integral symmetry is turned on.
 One-electron integrals computed using PRISM.
 NBasis=    64 RedAO= T EigKep=  2.74D-03  NBF=    64
 NBsUse=    64 1.00D-06 EigRej= -1.00D+00 NBFU=    64
 ExpMin= 1.61D-01 ExpMax= 5.48D+03 ExpMxC= 8.25D+02 IAcc=3 IRadAn=         5 AccDes= 0.00D+00
 Harris functional with IExCor=  402 and IRadAn=       5 diagonalized for initial guess.
 HarFok:  IExCor=  402 AccDes= 0.00D+00 IRadAn=         5 IDoV= 1 UseB2=F ITyADJ=14
 ICtDFT=  3500011 ScaDFX=  1.000000  1.000000  1.000000  1.000000
 FoFCou: FMM=F IPFlag=           0 FMFlag=      100000 FMFlg1=           0
         NFxFlg=           0 DoJE=T BraDBF=F KetDBF=T FulRan=T
         wScrn=  0.000000 ICntrl=       500 IOpCl=  0 I1Cent=   200000004 NGrid=           0
         NMat0=    1 NMatS0=      1 NMatT0=    0 NMatD0=    1 NMtDS0=    0 NMtDT0=    0
 Petite list used in FoFCou.
 Keep R1 ints in memory in canonical form, NReq=3940480.
 Requested convergence on RMS density matrix=1.00D-08 within 128 cycles.
 Requested convergence on MAX density matrix=1.00D-06.
 Requested convergence on             energy=1.00D-06.
 No special actions if energy rises.
 Integral accuracy reduced to 1.0D-05 until final iterations.
 Initial convergence to 1.0D-05 achieved.  Increase integral accuracy.
 SCF Done:  E(RB3LYP) =  -227.799081872     A.U. after   13 cycles
            NFock= 13  Conv=0.49D-08     -V/T= 2.0079

 **********************************************************************

            Population analysis using the SCF density.

 **********************************************************************

 Orbital symmetries:
       Occupied  (A) (A) (A) (A) (A) (A) (A) (A) (A) (A) (A) (A)
                 (A) (A) (A)
       Virtual   (A) (A) (A) (A) (A) (A) (A) (A) (A) (A) (A) (A)
                 (A) (A) (A) (A) (A) (A) (A) (A) (A) (A) (A) (A)
                 (A) (A) (A) (A) (A) (A) (A) (A) (A) (A) (A) (A)
                 (A) (A) (A) (A) (A) (A) (A) (A) (A) (A) (A) (A)
                 (A)
 The electronic state is 1-A.
 Alpha  occ. eigenvalues --  -19.18676 -19.18654 -10.29762 -10.29704  -1.08919
 Alpha  occ. eigenvalues --   -1.05063  -0.75342  -0.57655  -0.55474  -0.47074
 Alpha  occ. eigenvalues --   -0.45251  -0.44480  -0.37705  -0.30480  -0.27947
 Alpha virt. eigenvalues --   -0.13126   0.03674   0.10847   0.13687   0.17749
 Alpha virt. eigenvalues --    0.31614   0.38050   0.48323   0.51205   0.56522
 Alpha virt. eigenvalues --    0.58781   0.66016   0.66652   0.74372   0.81926
 Alpha virt. eigenvalues --    0.82980   0.84191   0.92330   0.96307   0.99293
 Alpha virt. eigenvalues --    1.00219   1.11759   1.13316   1.28795   1.29762
 Alpha virt. eigenvalues --    1.41281   1.54628   1.60148   1.66464   1.72556
 Alpha virt. eigenvalues --    1.75999   1.85354   1.86458   2.01735   2.02356
 Alpha virt. eigenvalues --    2.06081   2.25263   2.33966   2.40643   2.49470
 Alpha virt. eigenvalues --    2.65192   2.66126   2.84732   2.90242   3.12783
 Alpha virt. eigenvalues --    3.61704   4.00872   4.02953   4.33106
          Condensed to atoms (all electrons):
               1          2          3          4          5          6
     1  C    4.885667   0.211123  -0.096372   0.535787   0.332724  -0.071575
     2  C    0.211123   4.889131   0.332660  -0.071534  -0.097042   0.533685
     3  H   -0.096372   0.332660   0.666549   0.003966   0.012154  -0.052122
     4  O    0.535787  -0.071534   0.003966   7.923629  -0.052792  -0.004242
     5  H    0.332724  -0.097042   0.012154  -0.052792   0.668949   0.004049
     6  O   -0.071575   0.533685  -0.052122  -0.004242   0.004049   7.925137
 Mulliken charges:
               1
     1  C    0.202646
     2  C    0.201977
     3  H    0.133165
     4  O   -0.334815
     5  H    0.131957
     6  O   -0.334931
 Sum of Mulliken charges =  -0.00000
 Mulliken charges with hydrogens summed into heavy atoms:
               1
     1  C    0.334604
     2  C    0.335143
     4  O   -0.334815
     6  O   -0.334931
 Electronic spatial extent (au):  <R**2>=            224.3113
 Charge=              0.0000 electrons
 Dipole moment (field-independent basis, Debye):
    X=              0.0102    Y=              3.4795    Z=             -0.0006  Tot=              3.4795
 Quadrupole moment (field-independent basis, Debye-Ang):
   XX=            -25.3622   YY=            -21.3597   ZZ=            -20.7548
   XY=              0.0160   XZ=              0.0004   YZ=              0.0005
 Traceless Quadrupole moment (field-independent basis, Debye-Ang):
   XX=             -2.8700   YY=              1.1325   ZZ=              1.7374
   XY=              0.0160   XZ=              0.0004   YZ=              0.0005
 Octapole moment (field-independent basis, Debye-Ang**2):
  XXX=              0.0151  YYY=             -1.2517  ZZZ=              0.0006  XYY=              0.0194
  XXY=              3.7620  XXZ=             -0.0016  XZZ=             -0.0020  YZZ=             -1.4298
  YYZ=              0.0028  XYZ=             -0.0004
 Hexadecapole moment (field-independent basis, Debye-Ang**3):
 XXXX=           -181.9996 YYYY=            -70.5363 ZZZZ=            -16.5229 XXXY=              0.0370
 XXXZ=             -0.0010 YYYX=              0.0388 YYYZ=              0.0020 ZZZX=             -0.0012
 ZZZY=             -0.0016 XXYY=            -38.9838 XXZZ=            -30.2540 YYZZ=            -14.6426
 XXYZ=              0.0038 YYXZ=             -0.0006 ZZXY=              0.0012
 N-N= 1.060169247839D+02 E-N=-7.463195650199D+02  KE= 2.260206075021D+02
 1\1\GINC-NODE60\SP\RB3LYP\6-31G(d)\C2H2O2\YANZ\22-Sep-2023\0\\# b3lyp/
 6-31g(d)\\tmpdir/M2_conf_0_99.gjf\\0,1\C,0,0.,0.,0.\C,0,1.3978,0.,0.\H
 ,0,1.94373,0.,0.9395\O,0,-0.61606,-0.00223,-1.06275\H,0,-0.5445,-0.000
 66,0.94045\O,0,2.00864,-0.0013,-1.06702\\Version=ES64L-G16RevA.03\Stat
 e=1-A\HF=-227.7990819\RMSD=4.852e-09\Dipole=0.0051546,0.0018934,1.3689
 179\Quadrupole=-2.1337258,1.2917293,0.8419966,-0.0013094,0.014445,-0.0
 009237\PG=C01 [X(C2H2O2)]\\@


 A MATHEMATICIAN IS A MACHINE FOR TURNING COFFEE INTO THEOREMS.
     -- QUOTED BY PAUL ERDOS
 Job cpu time:       0 days  0 hours  0 minutes 11.1 seconds.
 Elapsed time:       0 days  0 hours  0 minutes  5.7 seconds.
 File lengths (MBytes):  RWF=      6 Int=      0 D2E=      0 Chk=      1 Scr=      1
 Normal termination of Gaussian 16 at Fri Sep 22 17:02:45 2023.
