 Entering Gaussian System, Link 0=g16
 Initial command:
 /share/apps/gaussian/g16/l1.exe "/tmp/55621.mgr/Gau-119993.inp" -scrdir="/tmp/55621.mgr/"
 Entering Link 1 = /share/apps/gaussian/g16/l1.exe PID=    119994.
  
 Copyright (c) 1988,1990,1992,1993,1995,1998,2003,2009,2016,
            Gaussian, Inc.  All Rights Reserved.
  
 This is part of the Gaussian(R) 16 program.  It is based on
 the Gaussian(R) 09 system (copyright 2009, Gaussian, Inc.),
 the Gaussian(R) 03 system (copyright 2003, Gaussian, Inc.),
 the Gaussian(R) 98 system (copyright 1998, Gaussian, Inc.),
 the Gaussian(R) 94 system (copyright 1995, Gaussian, Inc.),
 the Gaussian 92(TM) system (copyright 1992, Gaussian, Inc.),
 the Gaussian 90(TM) system (copyright 1990, Gaussian, Inc.),
 the Gaussian 88(TM) system (copyright 1988, Gaussian, Inc.),
 the Gaussian 86(TM) system (copyright 1986, Carnegie Mellon
 University), and the Gaussian 82(TM) system (copyright 1983,
 Carnegie Mellon University). Gaussian is a federally registered
 trademark of Gaussian, Inc.
  
 This software contains proprietary and confidential information,
 including trade secrets, belonging to Gaussian, Inc.
  
 This software is provided under written license and may be
 used, copied, transmitted, or stored only in accord with that
 written license.
  
 The following legend is applicable only to US Government
 contracts under FAR:
  
                    RESTRICTED RIGHTS LEGEND
  
 Use, reproduction and disclosure by the US Government is
 subject to restrictions as set forth in subparagraphs (a)
 and (c) of the Commercial Computer Software - Restricted
 Rights clause in FAR 52.227-19.
  
 Gaussian, Inc.
 340 Quinnipiac St., Bldg. 40, Wallingford CT 06492
  
  
 ---------------------------------------------------------------
 Warning -- This program may not be used in any manner that
 competes with the business of Gaussian, Inc. or will provide
 assistance to any competitor of Gaussian, Inc.  The licensee
 of this program is prohibited from giving any competitor of
 Gaussian, Inc. access to this program.  By using this program,
 the user acknowledges that Gaussian, Inc. is engaged in the
 business of creating and licensing software in the field of
 computational chemistry and represents and warrants to the
 licensee that it is not a competitor of Gaussian, Inc. and that
 it will not use this program in any manner prohibited above.
 ---------------------------------------------------------------
  

 Cite this work as:
 Gaussian 16, Revision A.03,
 M. J. Frisch, G. W. Trucks, H. B. Schlegel, G. E. Scuseria, 
 M. A. Robb, J. R. Cheeseman, G. Scalmani, V. Barone, 
 G. A. Petersson, H. Nakatsuji, X. Li, M. Caricato, A. V. Marenich, 
 J. Bloino, B. G. Janesko, R. Gomperts, B. Mennucci, H. P. Hratchian, 
 J. V. Ortiz, A. F. Izmaylov, J. L. Sonnenberg, D. Williams-Young, 
 F. Ding, F. Lipparini, F. Egidi, J. Goings, B. Peng, A. Petrone, 
 T. Henderson, D. Ranasinghe, V. G. Zakrzewski, J. Gao, N. Rega, 
 G. Zheng, W. Liang, M. Hada, M. Ehara, K. Toyota, R. Fukuda, 
 J. Hasegawa, M. Ishida, T. Nakajima, Y. Honda, O. Kitao, H. Nakai, 
 T. Vreven, K. Throssell, J. A. Montgomery, Jr., J. E. Peralta, 
 F. Ogliaro, M. J. Bearpark, J. J. Heyd, E. N. Brothers, K. N. Kudin, 
 V. N. Staroverov, T. A. Keith, R. Kobayashi, J. Normand, 
 K. Raghavachari, A. P. Rendell, J. C. Burant, S. S. Iyengar, 
 J. Tomasi, M. Cossi, J. M. Millam, M. Klene, C. Adamo, R. Cammi, 
 J. W. Ochterski, R. L. Martin, K. Morokuma, O. Farkas, 
 J. B. Foresman, and D. J. Fox, Gaussian, Inc., Wallingford CT, 2016.
 
 ******************************************
 Gaussian 16:  ES64L-G16RevA.03 25-Dec-2016
                22-Sep-2023 
 ******************************************
 %nprocshared=2
 Will use up to    2 processors via shared memory.
 %mem=2GB
 ----------------
 # b3lyp/6-31g(d)
 ----------------
 1/38=1,172=1/1;
 2/12=2,17=6,18=5,40=1/2;
 3/5=1,6=6,7=1,11=2,25=1,30=1,74=-5/1,2,3;
 4//1;
 5/5=2,38=5/2;
 6/7=2,8=2,9=2,10=2,28=1/1;
 99/5=1,9=1/99;
 -----------------------
 tmpdir/M2_conf_0_67.gjf
 -----------------------
 Symbolic Z-matrix:
 Charge = -1 Multiplicity = 1
 N                     0.        0.        0. 
 C                     1.4927    0.        0. 
 H                     1.85699   0.        1.0356 
 H                    -0.40584  -0.75195   0.40709 
 H                     1.75434   0.96222  -0.44563 
 H                     1.93309  -0.82877  -0.5645 
 
                          Input orientation:                          
 ---------------------------------------------------------------------
 Center     Atomic      Atomic             Coordinates (Angstroms)
 Number     Number       Type             X           Y           Z
 ---------------------------------------------------------------------
      1          7           0        0.000000    0.000000    0.000000
      2          6           0        1.492700    0.000000    0.000000
      3          1           0        1.856990    0.000000    1.035600
      4          1           0       -0.405840   -0.751950    0.407090
      5          1           0        1.754340    0.962220   -0.445630
      6          1           0        1.933090   -0.828770   -0.564500
 ---------------------------------------------------------------------
                    Distance matrix (angstroms):
                    1          2          3          4          5
     1  N    0.000000
     2  C    1.492700   0.000000
     3  H    2.126236   1.097804   0.000000
     4  H    0.946497   2.082212   2.465939   0.000000
     5  H    2.049918   1.092204   1.769307   2.886501   0.000000
     6  H    2.177695   1.095200   1.803599   2.533867   1.803809
                    6
     6  H    0.000000
 Stoichiometry    CH4N(1-)
 Framework group  C1[X(CH4N)]
 Deg. of freedom    12
 Full point group                 C1      NOp   1
 Largest Abelian subgroup         C1      NOp   1
 Largest concise Abelian subgroup C1      NOp   1
                         Standard orientation:                         
 ---------------------------------------------------------------------
 Center     Atomic      Atomic             Coordinates (Angstroms)
 Number     Number       Type             X           Y           Z
 ---------------------------------------------------------------------
      1          7           0       -0.820274    0.128070   -0.011556
      2          6           0        0.664622   -0.024211   -0.004667
      3          1           0        0.978144   -0.495359    0.936024
      4          1           0       -1.311303   -0.679539    0.038603
      5          1           0        1.033066    1.003967   -0.001768
      6          1           0        1.054285   -0.580297   -0.863965
 ---------------------------------------------------------------------
 Rotational constants (GHZ):         129.9488836          23.8516416          23.1817445
 Standard basis: 6-31G(d) (6D, 7F)
 There are    38 symmetry adapted cartesian basis functions of A   symmetry.
 There are    38 symmetry adapted basis functions of A   symmetry.
    38 basis functions,    72 primitive gaussians,    38 cartesian basis functions
     9 alpha electrons        9 beta electrons
       nuclear repulsion energy        35.7689835722 Hartrees.
 NAtoms=    6 NActive=    6 NUniq=    6 SFac= 1.00D+00 NAtFMM=   60 NAOKFM=F Big=F
 Integral buffers will be    131072 words long.
 Raffenetti 2 integral format.
 Two-electron integral symmetry is turned on.
 One-electron integrals computed using PRISM.
 NBasis=    38 RedAO= T EigKep=  9.97D-03  NBF=    38
 NBsUse=    38 1.00D-06 EigRej= -1.00D+00 NBFU=    38
 ExpMin= 1.61D-01 ExpMax= 4.17D+03 ExpMxC= 6.27D+02 IAcc=3 IRadAn=         5 AccDes= 0.00D+00
 Harris functional with IExCor=  402 and IRadAn=       5 diagonalized for initial guess.
 HarFok:  IExCor=  402 AccDes= 0.00D+00 IRadAn=         5 IDoV= 1 UseB2=F ITyADJ=14
 ICtDFT=  3500011 ScaDFX=  1.000000  1.000000  1.000000  1.000000
 FoFCou: FMM=F IPFlag=           0 FMFlag=      100000 FMFlg1=           0
         NFxFlg=           0 DoJE=T BraDBF=F KetDBF=T FulRan=T
         wScrn=  0.000000 ICntrl=       500 IOpCl=  0 I1Cent=   200000004 NGrid=           0
         NMat0=    1 NMatS0=      1 NMatT0=    0 NMatD0=    1 NMtDS0=    0 NMtDT0=    0
 Petite list used in FoFCou.
 Keep R1 ints in memory in canonical form, NReq=2001161.
 Requested convergence on RMS density matrix=1.00D-08 within 128 cycles.
 Requested convergence on MAX density matrix=1.00D-06.
 Requested convergence on             energy=1.00D-06.
 No special actions if energy rises.
 Integral accuracy reduced to 1.0D-05 until final iterations.
 Initial convergence to 1.0D-05 achieved.  Increase integral accuracy.
 SCF Done:  E(RB3LYP) =  -95.1448963499     A.U. after   13 cycles
            NFock= 13  Conv=0.87D-08     -V/T= 2.0060

 **********************************************************************

            Population analysis using the SCF density.

 **********************************************************************

 Orbital symmetries:
       Occupied  (A) (A) (A) (A) (A) (A) (A) (A) (A)
       Virtual   (A) (A) (A) (A) (A) (A) (A) (A) (A) (A) (A) (A)
                 (A) (A) (A) (A) (A) (A) (A) (A) (A) (A) (A) (A)
                 (A) (A) (A) (A) (A)
 The electronic state is 1-A.
 Alpha  occ. eigenvalues --  -13.92033  -9.94164  -0.50765  -0.36217  -0.16905
 Alpha  occ. eigenvalues --   -0.15711  -0.09575   0.08865   0.14845
 Alpha virt. eigenvalues --    0.33306   0.39252   0.40190   0.40570   0.50437
 Alpha virt. eigenvalues --    0.81213   0.81753   0.84918   1.05044   1.07159
 Alpha virt. eigenvalues --    1.08289   1.12754   1.14006   1.19122   1.25349
 Alpha virt. eigenvalues --    1.33070   1.60767   1.79616   1.88180   2.08056
 Alpha virt. eigenvalues --    2.27482   2.35369   2.41880   2.55598   2.62441
 Alpha virt. eigenvalues --    2.79102   2.97490   4.01245   4.50838
          Condensed to atoms (all electrons):
               1          2          3          4          5          6
     1  N    7.512554   0.418252  -0.069987   0.193553  -0.070078  -0.063298
     2  C    0.418252   4.948864   0.288302  -0.056409   0.380177   0.263092
     3  H   -0.069987   0.288302   0.957542  -0.010486  -0.061563  -0.096065
     4  H    0.193553  -0.056409  -0.010486   0.730378   0.012788  -0.010144
     5  H   -0.070078   0.380177  -0.061563   0.012788   0.758895  -0.064236
     6  H   -0.063298   0.263092  -0.096065  -0.010144  -0.064236   0.983971
 Mulliken charges:
               1
     1  N   -0.920996
     2  C   -0.242278
     3  H   -0.007743
     4  H    0.140321
     5  H    0.044016
     6  H   -0.013320
 Sum of Mulliken charges =  -1.00000
 Mulliken charges with hydrogens summed into heavy atoms:
               1
     1  N   -0.780675
     2  C   -0.219325
 Electronic spatial extent (au):  <R**2>=             98.0783
 Charge=             -1.0000 electrons
 Dipole moment (field-independent basis, Debye):
    X=              2.3517    Y=             -1.2521    Z=              0.1260  Tot=              2.6672
 Quadrupole moment (field-independent basis, Debye-Ang):
   XX=            -20.6735   YY=            -16.6360   ZZ=            -17.7070
   XY=              2.4445   XZ=             -0.1683   YZ=             -0.0219
 Traceless Quadrupole moment (field-independent basis, Debye-Ang):
   XX=             -2.3347   YY=              1.7028   ZZ=              0.6318
   XY=              2.4445   XZ=             -0.1683   YZ=             -0.0219
 Octapole moment (field-independent basis, Debye-Ang**2):
  XXX=             -1.0115  YYY=             -0.4907  ZZZ=              0.0824  XYY=             -0.0151
  XXY=             -1.7605  XXZ=              0.2251  XZZ=              0.0190  YZZ=              0.0533
  YYZ=              0.0582  XYZ=              0.0085
 Hexadecapole moment (field-independent basis, Debye-Ang**3):
 XXXX=            -89.4375 YYYY=            -28.4205 ZZZZ=            -28.0488 XXXY=              4.5652
 XXXZ=             -0.2314 YYYX=              2.2883 YYYZ=             -0.0493 ZZZX=             -0.2136
 ZZZY=             -0.0132 XXYY=            -20.3909 XXZZ=            -21.1573 YYZZ=             -9.6573
 XXYZ=             -0.0475 YYXZ=              0.0253 ZZXY=              1.4173
 N-N= 3.576898357222D+01 E-N=-2.983653505510D+02  KE= 9.457801443190D+01
 1\1\GINC-NODE60\SP\RB3LYP\6-31G(d)\C1H4N1(1-)\YANZ\22-Sep-2023\0\\# b3
 lyp/6-31g(d)\\tmpdir/M2_conf_0_67.gjf\\-1,1\N,0,0.,0.,0.\C,0,1.4927,0.
 ,0.\H,0,1.85699,0.,1.0356\H,0,-0.40584,-0.75195,0.40709\H,0,1.75434,0.
 96222,-0.44563\H,0,1.93309,-0.82877,-0.5645\\Version=ES64L-G16RevA.03\
 State=1-A\HF=-95.1448963\RMSD=8.744e-09\Dipole=0.9708652,-0.3397442,0.
 2077511\Quadrupole=-2.0744977,1.3748892,0.6996085,1.2904626,-0.7226233
 ,-0.456192\PG=C01 [X(C1H4N1)]\\@


 UNDER MOST GREENE GRASSE LY MOST GREATE SNAKES.
 -- PROVERBS AND REASONS OF THE YEAR 1585
           AS REPRINTED IN PAISLEY MAGAZINE 1828.
 Job cpu time:       0 days  0 hours  0 minutes  6.5 seconds.
 Elapsed time:       0 days  0 hours  0 minutes  3.3 seconds.
 File lengths (MBytes):  RWF=      6 Int=      0 D2E=      0 Chk=      1 Scr=      1
 Normal termination of Gaussian 16 at Fri Sep 22 17:02:33 2023.
