 Entering Gaussian System, Link 0=g16
 Initial command:
 /share/apps/gaussian/g16/l1.exe "/tmp/55621.mgr/Gau-120357.inp" -scrdir="/tmp/55621.mgr/"
 Entering Link 1 = /share/apps/gaussian/g16/l1.exe PID=    120358.
  
 Copyright (c) 1988,1990,1992,1993,1995,1998,2003,2009,2016,
            Gaussian, Inc.  All Rights Reserved.
  
 This is part of the Gaussian(R) 16 program.  It is based on
 the Gaussian(R) 09 system (copyright 2009, Gaussian, Inc.),
 the Gaussian(R) 03 system (copyright 2003, Gaussian, Inc.),
 the Gaussian(R) 98 system (copyright 1998, Gaussian, Inc.),
 the Gaussian(R) 94 system (copyright 1995, Gaussian, Inc.),
 the Gaussian 92(TM) system (copyright 1992, Gaussian, Inc.),
 the Gaussian 90(TM) system (copyright 1990, Gaussian, Inc.),
 the Gaussian 88(TM) system (copyright 1988, Gaussian, Inc.),
 the Gaussian 86(TM) system (copyright 1986, Carnegie Mellon
 University), and the Gaussian 82(TM) system (copyright 1983,
 Carnegie Mellon University). Gaussian is a federally registered
 trademark of Gaussian, Inc.
  
 This software contains proprietary and confidential information,
 including trade secrets, belonging to Gaussian, Inc.
  
 This software is provided under written license and may be
 used, copied, transmitted, or stored only in accord with that
 written license.
  
 The following legend is applicable only to US Government
 contracts under FAR:
  
                    RESTRICTED RIGHTS LEGEND
  
 Use, reproduction and disclosure by the US Government is
 subject to restrictions as set forth in subparagraphs (a)
 and (c) of the Commercial Computer Software - Restricted
 Rights clause in FAR 52.227-19.
  
 Gaussian, Inc.
 340 Quinnipiac St., Bldg. 40, Wallingford CT 06492
  
  
 ---------------------------------------------------------------
 Warning -- This program may not be used in any manner that
 competes with the business of Gaussian, Inc. or will provide
 assistance to any competitor of Gaussian, Inc.  The licensee
 of this program is prohibited from giving any competitor of
 Gaussian, Inc. access to this program.  By using this program,
 the user acknowledges that Gaussian, Inc. is engaged in the
 business of creating and licensing software in the field of
 computational chemistry and represents and warrants to the
 licensee that it is not a competitor of Gaussian, Inc. and that
 it will not use this program in any manner prohibited above.
 ---------------------------------------------------------------
  

 Cite this work as:
 Gaussian 16, Revision A.03,
 M. J. Frisch, G. W. Trucks, H. B. Schlegel, G. E. Scuseria, 
 M. A. Robb, J. R. Cheeseman, G. Scalmani, V. Barone, 
 G. A. Petersson, H. Nakatsuji, X. Li, M. Caricato, A. V. Marenich, 
 J. Bloino, B. G. Janesko, R. Gomperts, B. Mennucci, H. P. Hratchian, 
 J. V. Ortiz, A. F. Izmaylov, J. L. Sonnenberg, D. Williams-Young, 
 F. Ding, F. Lipparini, F. Egidi, J. Goings, B. Peng, A. Petrone, 
 T. Henderson, D. Ranasinghe, V. G. Zakrzewski, J. Gao, N. Rega, 
 G. Zheng, W. Liang, M. Hada, M. Ehara, K. Toyota, R. Fukuda, 
 J. Hasegawa, M. Ishida, T. Nakajima, Y. Honda, O. Kitao, H. Nakai, 
 T. Vreven, K. Throssell, J. A. Montgomery, Jr., J. E. Peralta, 
 F. Ogliaro, M. J. Bearpark, J. J. Heyd, E. N. Brothers, K. N. Kudin, 
 V. N. Staroverov, T. A. Keith, R. Kobayashi, J. Normand, 
 K. Raghavachari, A. P. Rendell, J. C. Burant, S. S. Iyengar, 
 J. Tomasi, M. Cossi, J. M. Millam, M. Klene, C. Adamo, R. Cammi, 
 J. W. Ochterski, R. L. Martin, K. Morokuma, O. Farkas, 
 J. B. Foresman, and D. J. Fox, Gaussian, Inc., Wallingford CT, 2016.
 
 ******************************************
 Gaussian 16:  ES64L-G16RevA.03 25-Dec-2016
                22-Sep-2023 
 ******************************************
 %nprocshared=2
 Will use up to    2 processors via shared memory.
 %mem=2GB
 ----------------
 # b3lyp/6-31g(d)
 ----------------
 1/38=1,172=1/1;
 2/12=2,17=6,18=5,40=1/2;
 3/5=1,6=6,7=1,11=2,25=1,30=1,74=-5/1,2,3;
 4//1;
 5/5=2,38=5/2;
 6/7=2,8=2,9=2,10=2,28=1/1;
 99/5=1,9=1/99;
 ------------------------
 tmpdir/M2_conf_0_102.gjf
 ------------------------
 Symbolic Z-matrix:
 Charge =  0 Multiplicity = 1
 C                     0.        0.        0. 
 O                     1.4241    0.        0. 
 C                     2.01147   0.        1.2859 
 H                    -0.42766   1.01889   0.21434 
 H                    -0.35811  -0.70892   0.76825 
 H                    -0.37982  -0.28784  -0.9456 
 H                     3.08839  -0.11568   1.13774 
 H                     1.83291   0.93538   1.83672 
 H                     1.64489  -0.83961   1.89887 
 
                          Input orientation:                          
 ---------------------------------------------------------------------
 Center     Atomic      Atomic             Coordinates (Angstroms)
 Number     Number       Type             X           Y           Z
 ---------------------------------------------------------------------
      1          6           0        0.000000    0.000000    0.000000
      2          8           0        1.424100    0.000000    0.000000
      3          6           0        2.011470    0.000000    1.285900
      4          1           0       -0.427660    1.018890    0.214340
      5          1           0       -0.358110   -0.708920    0.768250
      6          1           0       -0.379820   -0.287840   -0.945600
      7          1           0        3.088390   -0.115680    1.137740
      8          1           0        1.832910    0.935380    1.836720
      9          1           0        1.644890   -0.839610    1.898870
 ---------------------------------------------------------------------
                    Distance matrix (angstroms):
                    1          2          3          4          5
     1  C    0.000000
     2  O    1.424100   0.000000
     3  C    2.387373   1.413698   0.000000
     4  H    1.125598   2.124404   2.852321   0.000000
     5  H    1.104997   2.066167   2.526943   1.815759   0.000000
     6  H    1.058902   2.056973   3.283399   1.747940   1.764954
     7  H    3.293325   2.019330   1.093202   3.808218   3.516649
     8  H    2.758267   2.101333   1.100101   2.783751   2.940394
     9  H    2.648833   2.087918   1.102297   3.253787   2.303777
                    6          7          8          9
     6  H    0.000000
     7  H    4.049497   0.000000
     8  H    3.759487   1.780317   0.000000
     9  H    3.534814   1.785241   1.786002   0.000000
 Stoichiometry    C2H6O
 Framework group  C1[X(C2H6O)]
 Deg. of freedom    21
 Full point group                 C1      NOp   1
 Largest Abelian subgroup         C1      NOp   1
 Largest concise Abelian subgroup C1      NOp   1
                         Standard orientation:                         
 ---------------------------------------------------------------------
 Center     Atomic      Atomic             Coordinates (Angstroms)
 Number     Number       Type             X           Y           Z
 ---------------------------------------------------------------------
      1          6           0        1.197801    0.182616   -0.004974
      2          8           0       -0.005989   -0.578257   -0.000145
      3          6           0       -1.189520    0.194900    0.004824
      4          1           0        1.448966    0.592141    1.012954
      5          1           0        1.087143    1.023458   -0.713323
      6          1           0        2.022895   -0.413732   -0.296290
      7          1           0       -2.021155   -0.505704   -0.107546
      8          1           0       -1.329036    0.755775    0.940867
      9          1           0       -1.210592    0.909027   -0.834602
 ---------------------------------------------------------------------
 Rotational constants (GHZ):          40.1895061           9.6734290           8.6633082
 Standard basis: 6-31G(d) (6D, 7F)
 There are    57 symmetry adapted cartesian basis functions of A   symmetry.
 There are    57 symmetry adapted basis functions of A   symmetry.
    57 basis functions,   108 primitive gaussians,    57 cartesian basis functions
    13 alpha electrons       13 beta electrons
       nuclear repulsion energy        83.2926133279 Hartrees.
 NAtoms=    9 NActive=    9 NUniq=    9 SFac= 1.00D+00 NAtFMM=   60 NAOKFM=F Big=F
 Integral buffers will be    131072 words long.
 Raffenetti 2 integral format.
 Two-electron integral symmetry is turned on.
 One-electron integrals computed using PRISM.
 NBasis=    57 RedAO= T EigKep=  8.17D-03  NBF=    57
 NBsUse=    57 1.00D-06 EigRej= -1.00D+00 NBFU=    57
 ExpMin= 1.61D-01 ExpMax= 5.48D+03 ExpMxC= 8.25D+02 IAcc=3 IRadAn=         5 AccDes= 0.00D+00
 Harris functional with IExCor=  402 and IRadAn=       5 diagonalized for initial guess.
 HarFok:  IExCor=  402 AccDes= 0.00D+00 IRadAn=         5 IDoV= 1 UseB2=F ITyADJ=14
 ICtDFT=  3500011 ScaDFX=  1.000000  1.000000  1.000000  1.000000
 FoFCou: FMM=F IPFlag=           0 FMFlag=      100000 FMFlg1=           0
         NFxFlg=           0 DoJE=T BraDBF=F KetDBF=T FulRan=T
         wScrn=  0.000000 ICntrl=       500 IOpCl=  0 I1Cent=   200000004 NGrid=           0
         NMat0=    1 NMatS0=      1 NMatT0=    0 NMatD0=    1 NMtDS0=    0 NMtDT0=    0
 Petite list used in FoFCou.
 Keep R1 ints in memory in canonical form, NReq=3127177.
 Requested convergence on RMS density matrix=1.00D-08 within 128 cycles.
 Requested convergence on MAX density matrix=1.00D-06.
 Requested convergence on             energy=1.00D-06.
 No special actions if energy rises.
 Integral accuracy reduced to 1.0D-05 until final iterations.
 Initial convergence to 1.0D-05 achieved.  Increase integral accuracy.
 SCF Done:  E(RB3LYP) =  -155.021924281     A.U. after   12 cycles
            NFock= 12  Conv=0.11D-08     -V/T= 2.0093

 **********************************************************************

            Population analysis using the SCF density.

 **********************************************************************

 Orbital symmetries:
       Occupied  (A) (A) (A) (A) (A) (A) (A) (A) (A) (A) (A) (A)
                 (A)
       Virtual   (A) (A) (A) (A) (A) (A) (A) (A) (A) (A) (A) (A)
                 (A) (A) (A) (A) (A) (A) (A) (A) (A) (A) (A) (A)
                 (A) (A) (A) (A) (A) (A) (A) (A) (A) (A) (A) (A)
                 (A) (A) (A) (A) (A) (A) (A) (A)
 The electronic state is 1-A.
 Alpha  occ. eigenvalues --  -19.14287 -10.22451 -10.22446  -1.02025  -0.71895
 Alpha  occ. eigenvalues --   -0.63612  -0.47276  -0.46758  -0.45949  -0.39364
 Alpha  occ. eigenvalues --   -0.38101  -0.30934  -0.24946
 Alpha virt. eigenvalues --    0.09268   0.13343   0.14555   0.15664   0.16735
 Alpha virt. eigenvalues --    0.18336   0.19145   0.24300   0.51569   0.53031
 Alpha virt. eigenvalues --    0.53576   0.57251   0.59427   0.72293   0.82517
 Alpha virt. eigenvalues --    0.84352   0.85651   0.85858   0.88859   0.94172
 Alpha virt. eigenvalues --    0.95529   1.05508   1.07915   1.11800   1.37529
 Alpha virt. eigenvalues --    1.42448   1.49413   1.51998   1.64396   1.88289
 Alpha virt. eigenvalues --    2.03264   2.05638   2.08350   2.12952   2.17533
 Alpha virt. eigenvalues --    2.23115   2.31754   2.49076   2.52776   2.72140
 Alpha virt. eigenvalues --    2.88845   3.86985   4.20842   4.27227
          Condensed to atoms (all electrons):
               1          2          3          4          5          6
     1  C    4.873648   0.264260  -0.047813   0.359811   0.360045   0.387039
     2  O    0.264260   8.140459   0.269030  -0.039676  -0.038428  -0.030308
     3  C   -0.047813   0.269030   4.872129  -0.002732  -0.010670   0.005343
     4  H    0.359811  -0.039676  -0.002732   0.642256  -0.045537  -0.044719
     5  H    0.360045  -0.038428  -0.010670  -0.045537   0.626191  -0.032028
     6  H    0.387039  -0.030308   0.005343  -0.044719  -0.032028   0.549840
     7  H    0.006085  -0.034873   0.387265  -0.000264  -0.000066  -0.000214
     8  H   -0.003931  -0.039249   0.359307   0.008139  -0.002127  -0.000385
     9  H   -0.010243  -0.038241   0.357977  -0.001807   0.016727   0.000127
               7          8          9
     1  C    0.006085  -0.003931  -0.010243
     2  O   -0.034873  -0.039249  -0.038241
     3  C    0.387265   0.359307   0.357977
     4  H   -0.000264   0.008139  -0.001807
     5  H   -0.000066  -0.002127   0.016727
     6  H   -0.000214  -0.000385   0.000127
     7  H    0.553328  -0.037580  -0.032291
     8  H   -0.037580   0.637915  -0.052232
     9  H   -0.032291  -0.052232   0.632753
 Mulliken charges:
               1
     1  C   -0.188901
     2  O   -0.452975
     3  C   -0.189835
     4  H    0.124528
     5  H    0.125893
     6  H    0.165306
     7  H    0.158611
     8  H    0.130144
     9  H    0.127230
 Sum of Mulliken charges =   0.00000
 Mulliken charges with hydrogens summed into heavy atoms:
               1
     1  C    0.226826
     2  O   -0.452975
     3  C    0.226149
 Electronic spatial extent (au):  <R**2>=            190.5407
 Charge=             -0.0000 electrons
 Dipole moment (field-independent basis, Debye):
    X=              0.0462    Y=              1.2715    Z=             -0.0654  Tot=              1.2740
 Quadrupole moment (field-independent basis, Debye-Ang):
   XX=            -16.7605   YY=            -20.9555   ZZ=            -20.0476
   XY=             -0.0295   XZ=             -0.0578   YZ=             -0.0022
 Traceless Quadrupole moment (field-independent basis, Debye-Ang):
   XX=              2.4940   YY=             -1.7010   ZZ=             -0.7930
   XY=             -0.0295   XZ=             -0.0578   YZ=             -0.0022
 Octapole moment (field-independent basis, Debye-Ang**2):
  XXX=              0.4660  YYY=             -1.8610  ZZZ=              0.2026  XYY=             -0.1804
  XXY=             -2.2733  XXZ=             -0.3514  XZZ=              0.0936  YZZ=             -0.1085
  YYZ=             -0.3389  XYZ=              0.0646
 Hexadecapole moment (field-independent basis, Debye-Ang**3):
 XXXX=           -161.8673 YYYY=            -47.8235 ZZZZ=            -33.5510 XXXY=              0.1446
 XXXZ=             -0.5749 YYYX=             -0.0417 YYYZ=             -0.3417 ZZZX=              0.0913
 ZZZY=              0.1645 XXYY=            -34.9276 XXZZ=            -34.1907 YYZZ=            -13.0745
 XXYZ=              0.6876 YYXZ=             -0.1888 ZZXY=             -0.1935
 N-N= 8.329261332795D+01 E-N=-5.282168126005D+02  KE= 1.535877924907D+02
 1\1\GINC-NODE60\SP\RB3LYP\6-31G(d)\C2H6O1\YANZ\22-Sep-2023\0\\# b3lyp/
 6-31g(d)\\tmpdir/M2_conf_0_102.gjf\\0,1\C,0,0.,0.,0.\O,0,1.4241,0.,0.\
 C,0,2.01147,0.,1.2859\H,0,-0.42766,1.01889,0.21434\H,0,-0.35811,-0.708
 92,0.76825\H,0,-0.37982,-0.28784,-0.9456\H,0,3.08839,-0.11568,1.13774\
 H,0,1.83291,0.93538,1.83672\H,0,1.64489,-0.83961,1.89887\\Version=ES64
 L-G16RevA.03\State=1-A\HF=-155.0219243\RMSD=1.144e-09\Dipole=-0.282708
 4,-0.0257317,0.4130973\Quadrupole=0.9443485,-0.5899185,-0.35443,0.0287
 561,1.4181301,0.0162089\PG=C01 [X(C2H6O1)]\\@


 SCIENCE AND PEACE WILL TRIUMPH OVER IGNORANCE AND WAR

                          -- PASTEUR
 Job cpu time:       0 days  0 hours  0 minutes 13.7 seconds.
 Elapsed time:       0 days  0 hours  0 minutes  7.0 seconds.
 File lengths (MBytes):  RWF=      6 Int=      0 D2E=      0 Chk=      1 Scr=      1
 Normal termination of Gaussian 16 at Fri Sep 22 17:02:47 2023.
