 Entering Gaussian System, Link 0=g16
 Initial command:
 /share/apps/gaussian/g16/l1.exe "/tmp/55621.mgr/Gau-119778.inp" -scrdir="/tmp/55621.mgr/"
 Entering Link 1 = /share/apps/gaussian/g16/l1.exe PID=    119779.
  
 Copyright (c) 1988,1990,1992,1993,1995,1998,2003,2009,2016,
            Gaussian, Inc.  All Rights Reserved.
  
 This is part of the Gaussian(R) 16 program.  It is based on
 the Gaussian(R) 09 system (copyright 2009, Gaussian, Inc.),
 the Gaussian(R) 03 system (copyright 2003, Gaussian, Inc.),
 the Gaussian(R) 98 system (copyright 1998, Gaussian, Inc.),
 the Gaussian(R) 94 system (copyright 1995, Gaussian, Inc.),
 the Gaussian 92(TM) system (copyright 1992, Gaussian, Inc.),
 the Gaussian 90(TM) system (copyright 1990, Gaussian, Inc.),
 the Gaussian 88(TM) system (copyright 1988, Gaussian, Inc.),
 the Gaussian 86(TM) system (copyright 1986, Carnegie Mellon
 University), and the Gaussian 82(TM) system (copyright 1983,
 Carnegie Mellon University). Gaussian is a federally registered
 trademark of Gaussian, Inc.
  
 This software contains proprietary and confidential information,
 including trade secrets, belonging to Gaussian, Inc.
  
 This software is provided under written license and may be
 used, copied, transmitted, or stored only in accord with that
 written license.
  
 The following legend is applicable only to US Government
 contracts under FAR:
  
                    RESTRICTED RIGHTS LEGEND
  
 Use, reproduction and disclosure by the US Government is
 subject to restrictions as set forth in subparagraphs (a)
 and (c) of the Commercial Computer Software - Restricted
 Rights clause in FAR 52.227-19.
  
 Gaussian, Inc.
 340 Quinnipiac St., Bldg. 40, Wallingford CT 06492
  
  
 ---------------------------------------------------------------
 Warning -- This program may not be used in any manner that
 competes with the business of Gaussian, Inc. or will provide
 assistance to any competitor of Gaussian, Inc.  The licensee
 of this program is prohibited from giving any competitor of
 Gaussian, Inc. access to this program.  By using this program,
 the user acknowledges that Gaussian, Inc. is engaged in the
 business of creating and licensing software in the field of
 computational chemistry and represents and warrants to the
 licensee that it is not a competitor of Gaussian, Inc. and that
 it will not use this program in any manner prohibited above.
 ---------------------------------------------------------------
  

 Cite this work as:
 Gaussian 16, Revision A.03,
 M. J. Frisch, G. W. Trucks, H. B. Schlegel, G. E. Scuseria, 
 M. A. Robb, J. R. Cheeseman, G. Scalmani, V. Barone, 
 G. A. Petersson, H. Nakatsuji, X. Li, M. Caricato, A. V. Marenich, 
 J. Bloino, B. G. Janesko, R. Gomperts, B. Mennucci, H. P. Hratchian, 
 J. V. Ortiz, A. F. Izmaylov, J. L. Sonnenberg, D. Williams-Young, 
 F. Ding, F. Lipparini, F. Egidi, J. Goings, B. Peng, A. Petrone, 
 T. Henderson, D. Ranasinghe, V. G. Zakrzewski, J. Gao, N. Rega, 
 G. Zheng, W. Liang, M. Hada, M. Ehara, K. Toyota, R. Fukuda, 
 J. Hasegawa, M. Ishida, T. Nakajima, Y. Honda, O. Kitao, H. Nakai, 
 T. Vreven, K. Throssell, J. A. Montgomery, Jr., J. E. Peralta, 
 F. Ogliaro, M. J. Bearpark, J. J. Heyd, E. N. Brothers, K. N. Kudin, 
 V. N. Staroverov, T. A. Keith, R. Kobayashi, J. Normand, 
 K. Raghavachari, A. P. Rendell, J. C. Burant, S. S. Iyengar, 
 J. Tomasi, M. Cossi, J. M. Millam, M. Klene, C. Adamo, R. Cammi, 
 J. W. Ochterski, R. L. Martin, K. Morokuma, O. Farkas, 
 J. B. Foresman, and D. J. Fox, Gaussian, Inc., Wallingford CT, 2016.
 
 ******************************************
 Gaussian 16:  ES64L-G16RevA.03 25-Dec-2016
                22-Sep-2023 
 ******************************************
 %nprocshared=2
 Will use up to    2 processors via shared memory.
 %mem=2GB
 ----------------
 # b3lyp/6-31g(d)
 ----------------
 1/38=1,172=1/1;
 2/12=2,17=6,18=5,40=1/2;
 3/5=1,6=6,7=1,11=2,25=1,30=1,74=-5/1,2,3;
 4//1;
 5/5=2,38=5/2;
 6/7=2,8=2,9=2,10=2,28=1/1;
 99/5=1,9=1/99;
 -----------------------
 tmpdir/M2_conf_0_51.gjf
 -----------------------
 Symbolic Z-matrix:
 Charge =  0 Multiplicity = 1
 C                     0.        0.        0. 
 C                     1.555     0.        0. 
 O                     2.06628   0.        1.32916 
 H                    -0.48907   0.15812  -0.99835 
 H                    -0.3396   -0.95968   0.41092 
 H                    -0.31976   0.77746   0.70447 
 H                     1.91457  -0.89768  -0.5347 
 H                     1.85131   0.86614  -0.53223 
 H                     2.03874  -0.86688   1.76551 
 
                          Input orientation:                          
 ---------------------------------------------------------------------
 Center     Atomic      Atomic             Coordinates (Angstroms)
 Number     Number       Type             X           Y           Z
 ---------------------------------------------------------------------
      1          6           0        0.000000    0.000000    0.000000
      2          6           0        1.555000    0.000000    0.000000
      3          8           0        2.066280    0.000000    1.329160
      4          1           0       -0.489070    0.158120   -0.998350
      5          1           0       -0.339600   -0.959680    0.410920
      6          1           0       -0.319760    0.777460    0.704470
      7          1           0        1.914570   -0.897680   -0.534700
      8          1           0        1.851310    0.866140   -0.532230
      9          1           0        2.038740   -0.866880    1.765510
 ---------------------------------------------------------------------
                    Distance matrix (angstroms):
                    1          2          3          4          5
     1  C    0.000000
     2  C    1.555000   0.000000
     3  O    2.456864   1.424104   0.000000
     4  H    1.122895   2.280335   3.460075   0.000000
     5  H    1.097802   2.163181   2.748165   1.804954   0.000000
     6  H    1.096799   2.148359   2.586091   1.819847   1.761880
     7  H    2.181126   1.105000   2.074324   2.665928   2.445266
     8  H    2.112064   1.058899   2.064263   2.489164   3.003870
     9  H    2.832837   2.025466   0.970897   3.883217   2.738618
                    6          7          8          9
     6  H    0.000000
     7  H    3.055138   0.000000
     8  H    2.500167   1.764956   0.000000
     9  H    3.064667   2.303765   2.884111   0.000000
 Stoichiometry    C2H6O
 Framework group  C1[X(C2H6O)]
 Deg. of freedom    21
 Full point group                 C1      NOp   1
 Largest Abelian subgroup         C1      NOp   1
 Largest concise Abelian subgroup C1      NOp   1
                         Standard orientation:                         
 ---------------------------------------------------------------------
 Center     Atomic      Atomic             Coordinates (Angstroms)
 Number     Number       Type             X           Y           Z
 ---------------------------------------------------------------------
      1          6           0        1.229335   -0.247855   -0.007569
      2          6           0       -0.088972    0.576029    0.028605
      3          8           0       -1.224612   -0.269375   -0.125305
      4          1           0        2.178742    0.350151   -0.051250
      5          1           0        1.255479   -0.886181    0.885194
      6          1           0        1.164452   -0.917146   -0.874060
      7          1           0       -0.153125    1.109640    0.994093
      8          1           0       -0.018683    1.282258   -0.757249
      9          1           0       -1.472142   -0.752765    0.679495
 ---------------------------------------------------------------------
 Rotational constants (GHZ):          33.8574188           9.0547769           8.0050967
 Standard basis: 6-31G(d) (6D, 7F)
 There are    57 symmetry adapted cartesian basis functions of A   symmetry.
 There are    57 symmetry adapted basis functions of A   symmetry.
    57 basis functions,   108 primitive gaussians,    57 cartesian basis functions
    13 alpha electrons       13 beta electrons
       nuclear repulsion energy        81.0385785205 Hartrees.
 NAtoms=    9 NActive=    9 NUniq=    9 SFac= 1.00D+00 NAtFMM=   60 NAOKFM=F Big=F
 Integral buffers will be    131072 words long.
 Raffenetti 2 integral format.
 Two-electron integral symmetry is turned on.
 One-electron integrals computed using PRISM.
 NBasis=    57 RedAO= T EigKep=  6.45D-03  NBF=    57
 NBsUse=    57 1.00D-06 EigRej= -1.00D+00 NBFU=    57
 ExpMin= 1.61D-01 ExpMax= 5.48D+03 ExpMxC= 8.25D+02 IAcc=3 IRadAn=         5 AccDes= 0.00D+00
 Harris functional with IExCor=  402 and IRadAn=       5 diagonalized for initial guess.
 HarFok:  IExCor=  402 AccDes= 0.00D+00 IRadAn=         5 IDoV= 1 UseB2=F ITyADJ=14
 ICtDFT=  3500011 ScaDFX=  1.000000  1.000000  1.000000  1.000000
 FoFCou: FMM=F IPFlag=           0 FMFlag=      100000 FMFlg1=           0
         NFxFlg=           0 DoJE=T BraDBF=F KetDBF=T FulRan=T
         wScrn=  0.000000 ICntrl=       500 IOpCl=  0 I1Cent=   200000004 NGrid=           0
         NMat0=    1 NMatS0=      1 NMatT0=    0 NMatD0=    1 NMtDS0=    0 NMtDT0=    0
 Petite list used in FoFCou.
 Keep R1 ints in memory in canonical form, NReq=3127177.
 Requested convergence on RMS density matrix=1.00D-08 within 128 cycles.
 Requested convergence on MAX density matrix=1.00D-06.
 Requested convergence on             energy=1.00D-06.
 No special actions if energy rises.
 Integral accuracy reduced to 1.0D-05 until final iterations.
 Initial convergence to 1.0D-05 achieved.  Increase integral accuracy.
 SCF Done:  E(RB3LYP) =  -155.027934848     A.U. after   12 cycles
            NFock= 12  Conv=0.12D-08     -V/T= 2.0095

 **********************************************************************

            Population analysis using the SCF density.

 **********************************************************************

 Orbital symmetries:
       Occupied  (A) (A) (A) (A) (A) (A) (A) (A) (A) (A) (A) (A)
                 (A)
       Virtual   (A) (A) (A) (A) (A) (A) (A) (A) (A) (A) (A) (A)
                 (A) (A) (A) (A) (A) (A) (A) (A) (A) (A) (A) (A)
                 (A) (A) (A) (A) (A) (A) (A) (A) (A) (A) (A) (A)
                 (A) (A) (A) (A) (A) (A) (A) (A)
 The electronic state is 1-A.
 Alpha  occ. eigenvalues --  -19.13772 -10.22844 -10.17530  -1.00632  -0.73778
 Alpha  occ. eigenvalues --   -0.61923  -0.50221  -0.45557  -0.41456  -0.37075
 Alpha  occ. eigenvalues --   -0.36497  -0.31364  -0.26134
 Alpha virt. eigenvalues --    0.07073   0.12044   0.15189   0.15957   0.17319
 Alpha virt. eigenvalues --    0.19178   0.22713   0.23128   0.53157   0.55289
 Alpha virt. eigenvalues --    0.55916   0.59159   0.64525   0.66909   0.80462
 Alpha virt. eigenvalues --    0.86163   0.87521   0.89079   0.90466   0.95122
 Alpha virt. eigenvalues --    0.98493   1.01709   1.03281   1.15950   1.35901
 Alpha virt. eigenvalues --    1.45989   1.51030   1.58458   1.74011   1.78826
 Alpha virt. eigenvalues --    1.93162   1.94454   2.08233   2.13860   2.15765
 Alpha virt. eigenvalues --    2.28338   2.33953   2.42308   2.52910   2.62633
 Alpha virt. eigenvalues --    2.81215   3.72218   4.16317   4.39396
          Condensed to atoms (all electrons):
               1          2          3          4          5          6
     1  C    5.176072   0.361166  -0.056141   0.340137   0.368861   0.369917
     2  C    0.361166   4.746352   0.268278  -0.018350  -0.033841  -0.035301
     3  O   -0.056141   0.268278   8.232544   0.003194   0.000856   0.004121
     4  H    0.340137  -0.018350   0.003194   0.589812  -0.027451  -0.023928
     5  H    0.368861  -0.033841   0.000856  -0.027451   0.590073  -0.033237
     6  H    0.369917  -0.035301   0.004121  -0.023928  -0.033237   0.558382
     7  H   -0.050814   0.370353  -0.034604   0.002227  -0.007533   0.006090
     8  H   -0.055715   0.388988  -0.032767   0.000213   0.005843  -0.004724
     9  H   -0.001423  -0.024142   0.235517  -0.000119   0.003024  -0.000601
               7          8          9
     1  C   -0.050814  -0.055715  -0.001423
     2  C    0.370353   0.388988  -0.024142
     3  O   -0.034604  -0.032767   0.235517
     4  H    0.002227   0.000213  -0.000119
     5  H   -0.007533   0.005843   0.003024
     6  H    0.006090  -0.004724  -0.000601
     7  H    0.646536  -0.042954  -0.008174
     8  H   -0.042954   0.577531   0.006153
     9  H   -0.008174   0.006153   0.396463
 Mulliken charges:
               1
     1  C   -0.452059
     2  C   -0.023504
     3  O   -0.620998
     4  H    0.134265
     5  H    0.133406
     6  H    0.159280
     7  H    0.118874
     8  H    0.157433
     9  H    0.393302
 Sum of Mulliken charges =   0.00000
 Mulliken charges with hydrogens summed into heavy atoms:
               1
     1  C   -0.025107
     2  C    0.252803
     3  O   -0.227696
 Electronic spatial extent (au):  <R**2>=            196.5039
 Charge=              0.0000 electrons
 Dipole moment (field-independent basis, Debye):
    X=              0.6323    Y=              0.0206    Z=              1.3790  Tot=              1.5172
 Quadrupole moment (field-independent basis, Debye-Ang):
   XX=            -20.8983   YY=            -18.9546   ZZ=            -18.7874
   XY=              1.2190   XZ=             -2.5484   YZ=             -1.3961
 Traceless Quadrupole moment (field-independent basis, Debye-Ang):
   XX=             -1.3515   YY=              0.5921   ZZ=              0.7594
   XY=              1.2190   XZ=             -2.5484   YZ=             -1.3961
 Octapole moment (field-independent basis, Debye-Ang**2):
  XXX=             -5.2438  YYY=             -1.5445  ZZZ=              0.6990  XYY=             -3.1248
  XXY=             -1.7898  XXZ=              3.5526  XZZ=             -3.2157  YZZ=             -0.9812
  YYZ=              0.4672  XYZ=              1.7407
 Hexadecapole moment (field-independent basis, Debye-Ang**3):
 XXXX=           -157.2206 YYYY=            -55.2489 ZZZZ=            -33.0087 XXXY=              8.9169
 XXXZ=             -6.2231 YYYX=              3.8734 YYYZ=             -1.8478 ZZZX=             -1.8517
 ZZZY=             -1.2455 XXYY=            -33.7476 XXZZ=            -31.0852 YYZZ=            -13.2694
 XXYZ=             -2.8057 YYXZ=             -1.6769 ZZXY=              1.0889
 N-N= 8.103857852045D+01 E-N=-5.239177421733D+02  KE= 1.535623620305D+02
 1\1\GINC-NODE60\SP\RB3LYP\6-31G(d)\C2H6O1\YANZ\22-Sep-2023\0\\# b3lyp/
 6-31g(d)\\tmpdir/M2_conf_0_51.gjf\\0,1\C,0,0.,0.,0.\C,0,1.555,0.,0.\O,
 0,2.06628,0.,1.32916\H,0,-0.48907,0.15812,-0.99835\H,0,-0.3396,-0.9596
 8,0.41092\H,0,-0.31976,0.77746,0.70447\H,0,1.91457,-0.89768,-0.5347\H,
 0,1.85131,0.86614,-0.53223\H,0,2.03874,-0.86688,1.76551\\Version=ES64L
 -G16RevA.03\State=1-A\HF=-155.0279348\RMSD=1.165e-09\Dipole=-0.1940009
 ,-0.5256022,-0.2058999\Quadrupole=-1.363341,0.9874707,0.3758703,-1.066
 9033,-0.3441787,-1.872261\PG=C01 [X(C2H6O1)]\\@


 IF IT HAPPENS, IT MUST BE POSSIBLE.

 -- THE UNNAMED LAW FROM PAUL DICKSON'S 
    "THE OFFICIAL RULES"
 Job cpu time:       0 days  0 hours  0 minutes 13.6 seconds.
 Elapsed time:       0 days  0 hours  0 minutes  6.9 seconds.
 File lengths (MBytes):  RWF=      6 Int=      0 D2E=      0 Chk=      1 Scr=      1
 Normal termination of Gaussian 16 at Fri Sep 22 17:02:31 2023.
