 Entering Gaussian System, Link 0=g16
 Initial command:
 /share/apps/gaussian/g16/l1.exe "/tmp/55621.mgr/Gau-119801.inp" -scrdir="/tmp/55621.mgr/"
 Entering Link 1 = /share/apps/gaussian/g16/l1.exe PID=    119802.
  
 Copyright (c) 1988,1990,1992,1993,1995,1998,2003,2009,2016,
            Gaussian, Inc.  All Rights Reserved.
  
 This is part of the Gaussian(R) 16 program.  It is based on
 the Gaussian(R) 09 system (copyright 2009, Gaussian, Inc.),
 the Gaussian(R) 03 system (copyright 2003, Gaussian, Inc.),
 the Gaussian(R) 98 system (copyright 1998, Gaussian, Inc.),
 the Gaussian(R) 94 system (copyright 1995, Gaussian, Inc.),
 the Gaussian 92(TM) system (copyright 1992, Gaussian, Inc.),
 the Gaussian 90(TM) system (copyright 1990, Gaussian, Inc.),
 the Gaussian 88(TM) system (copyright 1988, Gaussian, Inc.),
 the Gaussian 86(TM) system (copyright 1986, Carnegie Mellon
 University), and the Gaussian 82(TM) system (copyright 1983,
 Carnegie Mellon University). Gaussian is a federally registered
 trademark of Gaussian, Inc.
  
 This software contains proprietary and confidential information,
 including trade secrets, belonging to Gaussian, Inc.
  
 This software is provided under written license and may be
 used, copied, transmitted, or stored only in accord with that
 written license.
  
 The following legend is applicable only to US Government
 contracts under FAR:
  
                    RESTRICTED RIGHTS LEGEND
  
 Use, reproduction and disclosure by the US Government is
 subject to restrictions as set forth in subparagraphs (a)
 and (c) of the Commercial Computer Software - Restricted
 Rights clause in FAR 52.227-19.
  
 Gaussian, Inc.
 340 Quinnipiac St., Bldg. 40, Wallingford CT 06492
  
  
 ---------------------------------------------------------------
 Warning -- This program may not be used in any manner that
 competes with the business of Gaussian, Inc. or will provide
 assistance to any competitor of Gaussian, Inc.  The licensee
 of this program is prohibited from giving any competitor of
 Gaussian, Inc. access to this program.  By using this program,
 the user acknowledges that Gaussian, Inc. is engaged in the
 business of creating and licensing software in the field of
 computational chemistry and represents and warrants to the
 licensee that it is not a competitor of Gaussian, Inc. and that
 it will not use this program in any manner prohibited above.
 ---------------------------------------------------------------
  

 Cite this work as:
 Gaussian 16, Revision A.03,
 M. J. Frisch, G. W. Trucks, H. B. Schlegel, G. E. Scuseria, 
 M. A. Robb, J. R. Cheeseman, G. Scalmani, V. Barone, 
 G. A. Petersson, H. Nakatsuji, X. Li, M. Caricato, A. V. Marenich, 
 J. Bloino, B. G. Janesko, R. Gomperts, B. Mennucci, H. P. Hratchian, 
 J. V. Ortiz, A. F. Izmaylov, J. L. Sonnenberg, D. Williams-Young, 
 F. Ding, F. Lipparini, F. Egidi, J. Goings, B. Peng, A. Petrone, 
 T. Henderson, D. Ranasinghe, V. G. Zakrzewski, J. Gao, N. Rega, 
 G. Zheng, W. Liang, M. Hada, M. Ehara, K. Toyota, R. Fukuda, 
 J. Hasegawa, M. Ishida, T. Nakajima, Y. Honda, O. Kitao, H. Nakai, 
 T. Vreven, K. Throssell, J. A. Montgomery, Jr., J. E. Peralta, 
 F. Ogliaro, M. J. Bearpark, J. J. Heyd, E. N. Brothers, K. N. Kudin, 
 V. N. Staroverov, T. A. Keith, R. Kobayashi, J. Normand, 
 K. Raghavachari, A. P. Rendell, J. C. Burant, S. S. Iyengar, 
 J. Tomasi, M. Cossi, J. M. Millam, M. Klene, C. Adamo, R. Cammi, 
 J. W. Ochterski, R. L. Martin, K. Morokuma, O. Farkas, 
 J. B. Foresman, and D. J. Fox, Gaussian, Inc., Wallingford CT, 2016.
 
 ******************************************
 Gaussian 16:  ES64L-G16RevA.03 25-Dec-2016
                22-Sep-2023 
 ******************************************
 %nprocshared=2
 Will use up to    2 processors via shared memory.
 %mem=2GB
 ----------------
 # b3lyp/6-31g(d)
 ----------------
 1/38=1,172=1/1;
 2/12=2,17=6,18=5,40=1/2;
 3/5=1,6=6,7=1,11=2,25=1,30=1,74=-5/1,2,3;
 4//1;
 5/5=2,38=5/2;
 6/7=2,8=2,9=2,10=2,28=1/1;
 99/5=1,9=1/99;
 -----------------------
 tmpdir/M2_conf_0_54.gjf
 -----------------------
 Symbolic Z-matrix:
 Charge =  0 Multiplicity = 1
 C                     0.        0.        0. 
 C                     1.4627    0.        0. 
 O                     1.96655   0.        1.33199 
 N                    -1.01675  -0.23737  -0.39071 
 H                     1.77768  -0.91241  -0.57903 
 H                     1.82774   0.90186  -0.52384 
 H                     2.89979   0.25796   1.40383 
 
                          Input orientation:                          
 ---------------------------------------------------------------------
 Center     Atomic      Atomic             Coordinates (Angstroms)
 Number     Number       Type             X           Y           Z
 ---------------------------------------------------------------------
      1          6           0        0.000000    0.000000    0.000000
      2          6           0        1.462700    0.000000    0.000000
      3          8           0        1.966550    0.000000    1.331990
      4          7           0       -1.016750   -0.237370   -0.390710
      5          1           0        1.777680   -0.912410   -0.579030
      6          1           0        1.827740    0.901860   -0.523840
      7          1           0        2.899790    0.257960    1.403830
 ---------------------------------------------------------------------
                    Distance matrix (angstroms):
                    1          2          3          4          5
     1  C    0.000000
     2  C    1.462700   0.000000
     3  O    2.375188   1.424100   0.000000
     4  N    1.114800   2.521244   3.453132   0.000000
     5  H    2.080364   1.125602   2.126067   2.880969   0.000000
     6  H    2.104375   1.104995   2.068024   3.067033   1.815799
     7  H    3.232037   2.025465   0.970897   4.336475   2.561373
                    6          7
     6  H    0.000000
     7  H    2.297784   0.000000
 Stoichiometry    C2H3NO
 Framework group  C1[X(C2H3NO)]
 Deg. of freedom    15
 Full point group                 C1      NOp   1
 Largest Abelian subgroup         C1      NOp   1
 Largest concise Abelian subgroup C1      NOp   1
                         Standard orientation:                         
 ---------------------------------------------------------------------
 Center     Atomic      Atomic             Coordinates (Angstroms)
 Number     Number       Type             X           Y           Z
 ---------------------------------------------------------------------
      1          6           0        0.831576   -0.089369   -0.111010
      2          6           0       -0.485932    0.533640    0.013591
      3          8           0       -1.510548   -0.455110    0.038003
      4          7           0        1.931688   -0.181092    0.044291
      5          1           0       -0.456703    1.146186    0.957473
      6          1           0       -0.654330    1.206581   -0.846529
      7          1           0       -2.400262   -0.109871   -0.140494
 ---------------------------------------------------------------------
 Rotational constants (GHZ):          42.6393933           4.6797265           4.3522896
 Standard basis: 6-31G(d) (6D, 7F)
 There are    66 symmetry adapted cartesian basis functions of A   symmetry.
 There are    66 symmetry adapted basis functions of A   symmetry.
    66 basis functions,   124 primitive gaussians,    66 cartesian basis functions
    15 alpha electrons       15 beta electrons
       nuclear repulsion energy       102.6418618893 Hartrees.
 NAtoms=    7 NActive=    7 NUniq=    7 SFac= 1.00D+00 NAtFMM=   60 NAOKFM=F Big=F
 Integral buffers will be    131072 words long.
 Raffenetti 2 integral format.
 Two-electron integral symmetry is turned on.
 One-electron integrals computed using PRISM.
 NBasis=    66 RedAO= T EigKep=  2.07D-03  NBF=    66
 NBsUse=    66 1.00D-06 EigRej= -1.00D+00 NBFU=    66
 ExpMin= 1.61D-01 ExpMax= 5.48D+03 ExpMxC= 8.25D+02 IAcc=3 IRadAn=         5 AccDes= 0.00D+00
 Harris functional with IExCor=  402 and IRadAn=       5 diagonalized for initial guess.
 HarFok:  IExCor=  402 AccDes= 0.00D+00 IRadAn=         5 IDoV= 1 UseB2=F ITyADJ=14
 ICtDFT=  3500011 ScaDFX=  1.000000  1.000000  1.000000  1.000000
 FoFCou: FMM=F IPFlag=           0 FMFlag=      100000 FMFlg1=           0
         NFxFlg=           0 DoJE=T BraDBF=F KetDBF=T FulRan=T
         wScrn=  0.000000 ICntrl=       500 IOpCl=  0 I1Cent=   200000004 NGrid=           0
         NMat0=    1 NMatS0=      1 NMatT0=    0 NMatD0=    1 NMtDS0=    0 NMtDT0=    0
 Petite list used in FoFCou.
 Keep R1 ints in memory in canonical form, NReq=4221979.
 Requested convergence on RMS density matrix=1.00D-08 within 128 cycles.
 Requested convergence on MAX density matrix=1.00D-06.
 Requested convergence on             energy=1.00D-06.
 No special actions if energy rises.
 Integral accuracy reduced to 1.0D-05 until final iterations.
 Initial convergence to 1.0D-05 achieved.  Increase integral accuracy.
 SCF Done:  E(RB3LYP) =  -207.933426720     A.U. after   13 cycles
            NFock= 13  Conv=0.61D-08     -V/T= 2.0080

 **********************************************************************

            Population analysis using the SCF density.

 **********************************************************************

 Orbital symmetries:
       Occupied  (A) (A) (A) (A) (A) (A) (A) (A) (A) (A) (A) (A)
                 (A) (A) (A)
       Virtual   (A) (A) (A) (A) (A) (A) (A) (A) (A) (A) (A) (A)
                 (A) (A) (A) (A) (A) (A) (A) (A) (A) (A) (A) (A)
                 (A) (A) (A) (A) (A) (A) (A) (A) (A) (A) (A) (A)
                 (A) (A) (A) (A) (A) (A) (A) (A) (A) (A) (A) (A)
                 (A) (A) (A)
 The electronic state is 1-A.
 Alpha  occ. eigenvalues --  -19.17221 -14.33469 -10.29582 -10.22453  -1.04462
 Alpha  occ. eigenvalues --   -0.92898  -0.75461  -0.55032  -0.52313  -0.49422
 Alpha  occ. eigenvalues --   -0.37744  -0.36244  -0.35087  -0.34649  -0.29720
 Alpha virt. eigenvalues --   -0.00375   0.03172   0.08236   0.10493   0.15439
 Alpha virt. eigenvalues --    0.19520   0.25016   0.31484   0.50622   0.54126
 Alpha virt. eigenvalues --    0.56827   0.57944   0.65966   0.69450   0.71947
 Alpha virt. eigenvalues --    0.78338   0.79418   0.81718   0.84131   0.86384
 Alpha virt. eigenvalues --    0.93796   0.98050   1.00221   1.15259   1.25877
 Alpha virt. eigenvalues --    1.35465   1.43505   1.49520   1.51327   1.57524
 Alpha virt. eigenvalues --    1.59732   1.73551   1.78822   1.86023   1.92102
 Alpha virt. eigenvalues --    1.99647   2.02821   2.08147   2.15247   2.31641
 Alpha virt. eigenvalues --    2.34099   2.47951   2.62871   2.74352   2.83692
 Alpha virt. eigenvalues --    2.90062   3.20710   3.68691   3.95136   4.10778
 Alpha virt. eigenvalues --    4.52456
          Condensed to atoms (all electrons):
               1          2          3          4          5          6
     1  C    4.588350   0.332637  -0.039320   0.884466  -0.052853  -0.033109
     2  C    0.332637   4.881464   0.230671  -0.064253   0.376976   0.359944
     3  O   -0.039320   0.230671   8.259869   0.001039  -0.038752  -0.034878
     4  N    0.884466  -0.064253   0.001039   6.551311  -0.004479   0.000285
     5  H   -0.052853   0.376976  -0.038752  -0.004479   0.579794  -0.044482
     6  H   -0.033109   0.359944  -0.034878   0.000285  -0.044482   0.583439
     7  H    0.004648  -0.014754   0.232873  -0.000111   0.000075  -0.006327
               7
     1  C    0.004648
     2  C   -0.014754
     3  O    0.232873
     4  N   -0.000111
     5  H    0.000075
     6  H   -0.006327
     7  H    0.375181
 Mulliken charges:
               1
     1  C    0.315180
     2  C   -0.102685
     3  O   -0.611501
     4  N   -0.368260
     5  H    0.183722
     6  H    0.175128
     7  H    0.408416
 Sum of Mulliken charges =  -0.00000
 Mulliken charges with hydrogens summed into heavy atoms:
               1
     1  C    0.315180
     2  C    0.256165
     3  O   -0.203085
     4  N   -0.368260
 Electronic spatial extent (au):  <R**2>=            282.1534
 Charge=             -0.0000 electrons
 Dipole moment (field-independent basis, Debye):
    X=             -3.7169    Y=              2.3404    Z=             -0.4554  Tot=              4.4159
 Quadrupole moment (field-independent basis, Debye-Ang):
   XX=            -24.5051   YY=            -22.7788   ZZ=            -22.3382
   XY=             -1.4137   XZ=              0.7360   YZ=              0.1303
 Traceless Quadrupole moment (field-independent basis, Debye-Ang):
   XX=             -1.2977   YY=              0.4285   ZZ=              0.8691
   XY=             -1.4137   XZ=              0.7360   YZ=              0.1303
 Octapole moment (field-independent basis, Debye-Ang**2):
  XXX=            -39.9444  YYY=              0.3517  ZZZ=              0.1509  XYY=             -1.6727
  XXY=              3.4691  XXZ=             -2.6467  XZZ=             -2.3597  YZZ=              0.8527
  YYZ=              0.0218  XYZ=              0.0325
 Hexadecapole moment (field-independent basis, Debye-Ang**3):
 XXXX=           -253.2826 YYYY=            -48.6225 ZZZZ=            -26.7233 XXXY=              4.4572
 XXXZ=              3.9285 YYYX=              1.3374 YYYZ=             -0.0964 ZZZX=              0.5640
 ZZZY=              0.1553 XXYY=            -54.1675 XXZZ=            -49.8507 YYZZ=            -11.6096
 XXYZ=              0.3348 YYXZ=              0.3257 ZZXY=             -0.0421
 N-N= 1.026418618893D+02 E-N=-6.913834635654D+02  KE= 2.062929389490D+02
 1\1\GINC-NODE60\SP\RB3LYP\6-31G(d)\C2H3N1O1\YANZ\22-Sep-2023\0\\# b3ly
 p/6-31g(d)\\tmpdir/M2_conf_0_54.gjf\\0,1\C,0,0.,0.,0.\C,0,1.4627,0.,0.
 \O,0,1.96655,0.,1.33199\N,0,-1.01675,-0.23737,-0.39071\H,0,1.77768,-0.
 91241,-0.57903\H,0,1.82774,0.90186,-0.52384\H,0,2.89979,0.25796,1.4038
 3\\Version=ES64L-G16RevA.03\State=1-A\HF=-207.9334267\RMSD=6.140e-09\D
 ipole=1.6940974,0.3275018,-0.2027293\Quadrupole=0.009292,0.7125767,-0.
 7218687,0.4152778,-1.1803918,0.2413688\PG=C01 [X(C2H3N1O1)]\\@


 IF IT HAPPENS, IT MUST BE POSSIBLE.

 -- THE UNNAMED LAW FROM PAUL DICKSON'S 
    "THE OFFICIAL RULES"
 Job cpu time:       0 days  0 hours  0 minutes 12.7 seconds.
 Elapsed time:       0 days  0 hours  0 minutes  6.5 seconds.
 File lengths (MBytes):  RWF=      6 Int=      0 D2E=      0 Chk=      1 Scr=      1
 Normal termination of Gaussian 16 at Fri Sep 22 17:02:31 2023.
