 Entering Gaussian System, Link 0=g16
 Initial command:
 /share/apps/gaussian/g16/l1.exe "/tmp/55621.mgr/Gau-120289.inp" -scrdir="/tmp/55621.mgr/"
 Entering Link 1 = /share/apps/gaussian/g16/l1.exe PID=    120290.
  
 Copyright (c) 1988,1990,1992,1993,1995,1998,2003,2009,2016,
            Gaussian, Inc.  All Rights Reserved.
  
 This is part of the Gaussian(R) 16 program.  It is based on
 the Gaussian(R) 09 system (copyright 2009, Gaussian, Inc.),
 the Gaussian(R) 03 system (copyright 2003, Gaussian, Inc.),
 the Gaussian(R) 98 system (copyright 1998, Gaussian, Inc.),
 the Gaussian(R) 94 system (copyright 1995, Gaussian, Inc.),
 the Gaussian 92(TM) system (copyright 1992, Gaussian, Inc.),
 the Gaussian 90(TM) system (copyright 1990, Gaussian, Inc.),
 the Gaussian 88(TM) system (copyright 1988, Gaussian, Inc.),
 the Gaussian 86(TM) system (copyright 1986, Carnegie Mellon
 University), and the Gaussian 82(TM) system (copyright 1983,
 Carnegie Mellon University). Gaussian is a federally registered
 trademark of Gaussian, Inc.
  
 This software contains proprietary and confidential information,
 including trade secrets, belonging to Gaussian, Inc.
  
 This software is provided under written license and may be
 used, copied, transmitted, or stored only in accord with that
 written license.
  
 The following legend is applicable only to US Government
 contracts under FAR:
  
                    RESTRICTED RIGHTS LEGEND
  
 Use, reproduction and disclosure by the US Government is
 subject to restrictions as set forth in subparagraphs (a)
 and (c) of the Commercial Computer Software - Restricted
 Rights clause in FAR 52.227-19.
  
 Gaussian, Inc.
 340 Quinnipiac St., Bldg. 40, Wallingford CT 06492
  
  
 ---------------------------------------------------------------
 Warning -- This program may not be used in any manner that
 competes with the business of Gaussian, Inc. or will provide
 assistance to any competitor of Gaussian, Inc.  The licensee
 of this program is prohibited from giving any competitor of
 Gaussian, Inc. access to this program.  By using this program,
 the user acknowledges that Gaussian, Inc. is engaged in the
 business of creating and licensing software in the field of
 computational chemistry and represents and warrants to the
 licensee that it is not a competitor of Gaussian, Inc. and that
 it will not use this program in any manner prohibited above.
 ---------------------------------------------------------------
  

 Cite this work as:
 Gaussian 16, Revision A.03,
 M. J. Frisch, G. W. Trucks, H. B. Schlegel, G. E. Scuseria, 
 M. A. Robb, J. R. Cheeseman, G. Scalmani, V. Barone, 
 G. A. Petersson, H. Nakatsuji, X. Li, M. Caricato, A. V. Marenich, 
 J. Bloino, B. G. Janesko, R. Gomperts, B. Mennucci, H. P. Hratchian, 
 J. V. Ortiz, A. F. Izmaylov, J. L. Sonnenberg, D. Williams-Young, 
 F. Ding, F. Lipparini, F. Egidi, J. Goings, B. Peng, A. Petrone, 
 T. Henderson, D. Ranasinghe, V. G. Zakrzewski, J. Gao, N. Rega, 
 G. Zheng, W. Liang, M. Hada, M. Ehara, K. Toyota, R. Fukuda, 
 J. Hasegawa, M. Ishida, T. Nakajima, Y. Honda, O. Kitao, H. Nakai, 
 T. Vreven, K. Throssell, J. A. Montgomery, Jr., J. E. Peralta, 
 F. Ogliaro, M. J. Bearpark, J. J. Heyd, E. N. Brothers, K. N. Kudin, 
 V. N. Staroverov, T. A. Keith, R. Kobayashi, J. Normand, 
 K. Raghavachari, A. P. Rendell, J. C. Burant, S. S. Iyengar, 
 J. Tomasi, M. Cossi, J. M. Millam, M. Klene, C. Adamo, R. Cammi, 
 J. W. Ochterski, R. L. Martin, K. Morokuma, O. Farkas, 
 J. B. Foresman, and D. J. Fox, Gaussian, Inc., Wallingford CT, 2016.
 
 ******************************************
 Gaussian 16:  ES64L-G16RevA.03 25-Dec-2016
                22-Sep-2023 
 ******************************************
 %nprocshared=2
 Will use up to    2 processors via shared memory.
 %mem=2GB
 ----------------
 # b3lyp/6-31g(d)
 ----------------
 1/38=1,172=1/1;
 2/12=2,17=6,18=5,40=1/2;
 3/5=1,6=6,7=1,11=2,25=1,30=1,74=-5/1,2,3;
 4//1;
 5/5=2,38=5/2;
 6/7=2,8=2,9=2,10=2,28=1/1;
 99/5=1,9=1/99;
 -----------------------
 tmpdir/M2_conf_0_90.gjf
 -----------------------
 Symbolic Z-matrix:
 Charge =  0 Multiplicity = 1
 C                     0.        0.        0. 
 C                     1.3934    0.        0. 
 H                     1.93214   0.        0.94375 
 H                    -0.51536  -0.00259  -0.8742 
 H                    -0.54436   0.00805   0.9413 
 H                     1.90088  -0.00244  -0.87544 
 
                          Input orientation:                          
 ---------------------------------------------------------------------
 Center     Atomic      Atomic             Coordinates (Angstroms)
 Number     Number       Type             X           Y           Z
 ---------------------------------------------------------------------
      1          6           0        0.000000    0.000000    0.000000
      2          6           0        1.393400    0.000000    0.000000
      3          1           0        1.932140    0.000000    0.943750
      4          1           0       -0.515360   -0.002590   -0.874200
      5          1           0       -0.544360    0.008050    0.941300
      6          1           0        1.900880   -0.002440   -0.875440
 ---------------------------------------------------------------------
                    Distance matrix (angstroms):
                    1          2          3          4          5
     1  C    0.000000
     2  C    1.393400   0.000000
     3  H    2.150309   1.086694   0.000000
     4  H    1.014805   2.099428   3.048804   0.000000
     5  H    1.087400   2.154304   2.476514   1.815763   0.000000
     6  H    2.092784   1.011898   1.819460   2.416240   3.046285
                    6
     6  H    0.000000
 Stoichiometry    C2H4
 Framework group  C1[X(C2H4)]
 Deg. of freedom    12
 Full point group                 C1      NOp   1
 Largest Abelian subgroup         C1      NOp   1
 Largest concise Abelian subgroup C1      NOp   1
                         Standard orientation:                         
 ---------------------------------------------------------------------
 Center     Atomic      Atomic             Coordinates (Angstroms)
 Number     Number       Type             X           Y           Z
 ---------------------------------------------------------------------
      1          6           0        0.695859   -0.008201   -0.000735
      2          6           0       -0.697540   -0.008727    0.000421
      3          1           0       -1.236639    0.934813   -0.002545
      4          1           0        1.211549   -0.882210   -0.000592
      5          1           0        1.239867    0.933327    0.003459
      6          1           0       -1.204689   -0.884362    0.001567
 ---------------------------------------------------------------------
 Rotational constants (GHZ):         151.6462603          28.5816678          24.0490743
 Standard basis: 6-31G(d) (6D, 7F)
 There are    38 symmetry adapted cartesian basis functions of A   symmetry.
 There are    38 symmetry adapted basis functions of A   symmetry.
    38 basis functions,    72 primitive gaussians,    38 cartesian basis functions
     8 alpha electrons        8 beta electrons
       nuclear repulsion energy        33.1220977877 Hartrees.
 NAtoms=    6 NActive=    6 NUniq=    6 SFac= 1.00D+00 NAtFMM=   60 NAOKFM=F Big=F
 Integral buffers will be    131072 words long.
 Raffenetti 2 integral format.
 Two-electron integral symmetry is turned on.
 One-electron integrals computed using PRISM.
 NBasis=    38 RedAO= T EigKep=  8.99D-03  NBF=    38
 NBsUse=    38 1.00D-06 EigRej= -1.00D+00 NBFU=    38
 ExpMin= 1.61D-01 ExpMax= 3.05D+03 ExpMxC= 4.57D+02 IAcc=3 IRadAn=         5 AccDes= 0.00D+00
 Harris functional with IExCor=  402 and IRadAn=       5 diagonalized for initial guess.
 HarFok:  IExCor=  402 AccDes= 0.00D+00 IRadAn=         5 IDoV= 1 UseB2=F ITyADJ=14
 ICtDFT=  3500011 ScaDFX=  1.000000  1.000000  1.000000  1.000000
 FoFCou: FMM=F IPFlag=           0 FMFlag=      100000 FMFlg1=           0
         NFxFlg=           0 DoJE=T BraDBF=F KetDBF=T FulRan=T
         wScrn=  0.000000 ICntrl=       500 IOpCl=  0 I1Cent=   200000004 NGrid=           0
         NMat0=    1 NMatS0=      1 NMatT0=    0 NMatD0=    1 NMtDS0=    0 NMtDT0=    0
 Petite list used in FoFCou.
 Keep R1 ints in memory in canonical form, NReq=2001149.
 Requested convergence on RMS density matrix=1.00D-08 within 128 cycles.
 Requested convergence on MAX density matrix=1.00D-06.
 Requested convergence on             energy=1.00D-06.
 No special actions if energy rises.
 Integral accuracy reduced to 1.0D-05 until final iterations.
 Initial convergence to 1.0D-05 achieved.  Increase integral accuracy.
 SCF Done:  E(RB3LYP) =  -78.5753315474     A.U. after   10 cycles
            NFock= 10  Conv=0.72D-08     -V/T= 2.0096

 **********************************************************************

            Population analysis using the SCF density.

 **********************************************************************

 Orbital symmetries:
       Occupied  (A) (A) (A) (A) (A) (A) (A) (A)
       Virtual   (A) (A) (A) (A) (A) (A) (A) (A) (A) (A) (A) (A)
                 (A) (A) (A) (A) (A) (A) (A) (A) (A) (A) (A) (A)
                 (A) (A) (A) (A) (A) (A)
 The electronic state is 1-A.
 Alpha  occ. eigenvalues --  -10.18358 -10.18297  -0.74732  -0.59091  -0.47273
 Alpha  occ. eigenvalues --   -0.40421  -0.37134  -0.25609
 Alpha virt. eigenvalues --    0.00579   0.12398   0.16195   0.16761   0.24407
 Alpha virt. eigenvalues --    0.31044   0.49224   0.55704   0.55775   0.63310
 Alpha virt. eigenvalues --    0.65249   0.65884   0.87988   0.88176   0.96076
 Alpha virt. eigenvalues --    0.97768   1.08324   1.23358   1.44809   1.55841
 Alpha virt. eigenvalues --    1.80205   1.92142   2.01175   2.06994   2.31154
 Alpha virt. eigenvalues --    2.32350   2.64703   2.66947   4.08469   4.27078
          Condensed to atoms (all electrons):
               1          2          3          4          5          6
     1  C    4.937411   0.665697  -0.033355   0.385010   0.378006  -0.036686
     2  C    0.665697   4.935189   0.378202  -0.036352  -0.033142   0.385513
     3  H   -0.033355   0.378202   0.556839   0.005079  -0.007898  -0.043129
     4  H    0.385010  -0.036352   0.005079   0.546799  -0.043691  -0.008313
     5  H    0.378006  -0.033142  -0.007898  -0.043691   0.557797   0.005099
     6  H   -0.036686   0.385513  -0.043129  -0.008313   0.005099   0.545885
 Mulliken charges:
               1
     1  C   -0.296082
     2  C   -0.295107
     3  H    0.144262
     4  H    0.151467
     5  H    0.143828
     6  H    0.151631
 Sum of Mulliken charges =  -0.00000
 Mulliken charges with hydrogens summed into heavy atoms:
               1
     1  C   -0.000786
     2  C    0.000786
 Electronic spatial extent (au):  <R**2>=             82.9691
 Charge=             -0.0000 electrons
 Dipole moment (field-independent basis, Debye):
    X=              0.0021    Y=             -0.0437    Z=              0.0017  Tot=              0.0437
 Quadrupole moment (field-independent basis, Debye-Ang):
   XX=            -11.9856   YY=            -11.9574   ZZ=            -15.0450
   XY=             -0.0027   XZ=              0.0045   YZ=             -0.0001
 Traceless Quadrupole moment (field-independent basis, Debye-Ang):
   XX=              1.0104   YY=              1.0386   ZZ=             -2.0490
   XY=             -0.0027   XZ=              0.0045   YZ=             -0.0001
 Octapole moment (field-independent basis, Debye-Ang**2):
  XXX=              0.0294  YYY=             -0.1566  ZZZ=              0.0026  XYY=             -0.0159
  XXY=             -0.0608  XXZ=              0.0038  XZZ=             -0.0019  YZZ=             -0.1272
  YYZ=              0.0023  XYZ=              0.0101
 Hexadecapole moment (field-independent basis, Debye-Ang**3):
 XXXX=            -68.1047 YYYY=            -24.8945 ZZZZ=            -15.7388 XXXY=             -0.0086
 XXXZ=              0.0115 YYYX=             -0.0012 YYYZ=             -0.0001 ZZZX=              0.0037
 ZZZY=             -0.0002 XXYY=            -13.3113 XXZZ=            -14.7636 YYZZ=             -7.3183
 XXYZ=              0.0000 YYXZ=              0.0065 ZZXY=              0.0014
 N-N= 3.312209778768D+01 E-N=-2.476386597483D+02  KE= 7.783158262035D+01
 1\1\GINC-NODE60\SP\RB3LYP\6-31G(d)\C2H4\YANZ\22-Sep-2023\0\\# b3lyp/6-
 31g(d)\\tmpdir/M2_conf_0_90.gjf\\0,1\C,0,0.,0.,0.\C,0,1.3934,0.,0.\H,0
 ,1.93214,0.,0.94375\H,0,-0.51536,-0.00259,-0.8742\H,0,-0.54436,0.00805
 ,0.9413\H,0,1.90088,-0.00244,-0.87544\\Version=ES64L-G16RevA.03\State=
 1-A\HF=-78.5753315\RMSD=7.224e-09\Dipole=-0.000801,0.0006118,-0.017178
 2\Quadrupole=0.7512043,-1.5233441,0.7721397,-0.0052289,0.001998,0.0082
 44\PG=C01 [X(C2H4)]\\@


 My opinions may have changed, but not the fact that I am right.
                       -- Ashleigh Brilliant
 Job cpu time:       0 days  0 hours  0 minutes  5.5 seconds.
 Elapsed time:       0 days  0 hours  0 minutes  2.9 seconds.
 File lengths (MBytes):  RWF=      6 Int=      0 D2E=      0 Chk=      1 Scr=      1
 Normal termination of Gaussian 16 at Fri Sep 22 17:02:41 2023.
