 Entering Gaussian System, Link 0=g16
 Initial command:
 /share/apps/gaussian/g16/l1.exe "/tmp/55621.mgr/Gau-119396.inp" -scrdir="/tmp/55621.mgr/"
 Entering Link 1 = /share/apps/gaussian/g16/l1.exe PID=    119397.
  
 Copyright (c) 1988,1990,1992,1993,1995,1998,2003,2009,2016,
            Gaussian, Inc.  All Rights Reserved.
  
 This is part of the Gaussian(R) 16 program.  It is based on
 the Gaussian(R) 09 system (copyright 2009, Gaussian, Inc.),
 the Gaussian(R) 03 system (copyright 2003, Gaussian, Inc.),
 the Gaussian(R) 98 system (copyright 1998, Gaussian, Inc.),
 the Gaussian(R) 94 system (copyright 1995, Gaussian, Inc.),
 the Gaussian 92(TM) system (copyright 1992, Gaussian, Inc.),
 the Gaussian 90(TM) system (copyright 1990, Gaussian, Inc.),
 the Gaussian 88(TM) system (copyright 1988, Gaussian, Inc.),
 the Gaussian 86(TM) system (copyright 1986, Carnegie Mellon
 University), and the Gaussian 82(TM) system (copyright 1983,
 Carnegie Mellon University). Gaussian is a federally registered
 trademark of Gaussian, Inc.
  
 This software contains proprietary and confidential information,
 including trade secrets, belonging to Gaussian, Inc.
  
 This software is provided under written license and may be
 used, copied, transmitted, or stored only in accord with that
 written license.
  
 The following legend is applicable only to US Government
 contracts under FAR:
  
                    RESTRICTED RIGHTS LEGEND
  
 Use, reproduction and disclosure by the US Government is
 subject to restrictions as set forth in subparagraphs (a)
 and (c) of the Commercial Computer Software - Restricted
 Rights clause in FAR 52.227-19.
  
 Gaussian, Inc.
 340 Quinnipiac St., Bldg. 40, Wallingford CT 06492
  
  
 ---------------------------------------------------------------
 Warning -- This program may not be used in any manner that
 competes with the business of Gaussian, Inc. or will provide
 assistance to any competitor of Gaussian, Inc.  The licensee
 of this program is prohibited from giving any competitor of
 Gaussian, Inc. access to this program.  By using this program,
 the user acknowledges that Gaussian, Inc. is engaged in the
 business of creating and licensing software in the field of
 computational chemistry and represents and warrants to the
 licensee that it is not a competitor of Gaussian, Inc. and that
 it will not use this program in any manner prohibited above.
 ---------------------------------------------------------------
  

 Cite this work as:
 Gaussian 16, Revision A.03,
 M. J. Frisch, G. W. Trucks, H. B. Schlegel, G. E. Scuseria, 
 M. A. Robb, J. R. Cheeseman, G. Scalmani, V. Barone, 
 G. A. Petersson, H. Nakatsuji, X. Li, M. Caricato, A. V. Marenich, 
 J. Bloino, B. G. Janesko, R. Gomperts, B. Mennucci, H. P. Hratchian, 
 J. V. Ortiz, A. F. Izmaylov, J. L. Sonnenberg, D. Williams-Young, 
 F. Ding, F. Lipparini, F. Egidi, J. Goings, B. Peng, A. Petrone, 
 T. Henderson, D. Ranasinghe, V. G. Zakrzewski, J. Gao, N. Rega, 
 G. Zheng, W. Liang, M. Hada, M. Ehara, K. Toyota, R. Fukuda, 
 J. Hasegawa, M. Ishida, T. Nakajima, Y. Honda, O. Kitao, H. Nakai, 
 T. Vreven, K. Throssell, J. A. Montgomery, Jr., J. E. Peralta, 
 F. Ogliaro, M. J. Bearpark, J. J. Heyd, E. N. Brothers, K. N. Kudin, 
 V. N. Staroverov, T. A. Keith, R. Kobayashi, J. Normand, 
 K. Raghavachari, A. P. Rendell, J. C. Burant, S. S. Iyengar, 
 J. Tomasi, M. Cossi, J. M. Millam, M. Klene, C. Adamo, R. Cammi, 
 J. W. Ochterski, R. L. Martin, K. Morokuma, O. Farkas, 
 J. B. Foresman, and D. J. Fox, Gaussian, Inc., Wallingford CT, 2016.
 
 ******************************************
 Gaussian 16:  ES64L-G16RevA.03 25-Dec-2016
                22-Sep-2023 
 ******************************************
 %nprocshared=2
 Will use up to    2 processors via shared memory.
 %mem=2GB
 ----------------
 # b3lyp/6-31g(d)
 ----------------
 1/38=1,172=1/1;
 2/12=2,17=6,18=5,40=1/2;
 3/5=1,6=6,7=1,11=2,25=1,30=1,74=-5/1,2,3;
 4//1;
 5/5=2,38=5/2;
 6/7=2,8=2,9=2,10=2,28=1/1;
 99/5=1,9=1/99;
 ----------------------
 tmpdir/M2_conf_0_4.gjf
 ----------------------
 Symbolic Z-matrix:
 Charge =  0 Multiplicity = 1
 C                     0.        0.        0. 
 C                     1.5643    0.        0. 
 C                     2.30761   0.        1.36163 
 H                    -0.53342   0.9439   -0.2911 
 H                    -0.36948  -0.34011   0.97666 
 H                    -0.3188   -0.7669   -0.71715 
 H                     1.93199   0.83322  -0.61475 
 H                     1.88415  -0.90884  -0.52472 
 H                     2.52792   1.01309   1.7999 
 H                     3.25978  -0.53344   1.24345 
 H                     1.72568  -0.55221   2.10955 
 
                          Input orientation:                          
 ---------------------------------------------------------------------
 Center     Atomic      Atomic             Coordinates (Angstroms)
 Number     Number       Type             X           Y           Z
 ---------------------------------------------------------------------
      1          6           0        0.000000    0.000000    0.000000
      2          6           0        1.564300    0.000000    0.000000
      3          6           0        2.307610    0.000000    1.361630
      4          1           0       -0.533420    0.943900   -0.291100
      5          1           0       -0.369480   -0.340110    0.976660
      6          1           0       -0.318800   -0.766900   -0.717150
      7          1           0        1.931990    0.833220   -0.614750
      8          1           0        1.884150   -0.908840   -0.524720
      9          1           0        2.527920    1.013090    1.799900
     10          1           0        3.259780   -0.533440    1.243450
     11          1           0        1.725680   -0.552210    2.109550
 ---------------------------------------------------------------------
                    Distance matrix (angstroms):
                    1          2          3          4          5
     1  C    0.000000
     2  C    1.564300   0.000000
     3  C    2.679384   1.551305   0.000000
     4  H    1.122597   2.318645   3.419637   0.000000
     5  H    1.098205   2.192953   2.725929   1.811843   0.000000
     6  H    1.097303   2.156039   3.436203   1.776068   1.747487
     7  H    2.191976   1.098803   2.177481   2.489025   3.034148
     8  H    2.156697   1.097099   2.136264   3.054811   2.767028
     9  H    3.264410   2.279157   1.125597   3.707947   3.302090
    10  H    3.529432   2.169188   1.097794   4.350373   3.644185
    11  H    2.780847   2.186591   1.096797   3.620083   2.391259
                    6          7          8          9         10
     6  H    0.000000
     7  H    2.763499   0.000000
     8  H    2.215889   1.745041   0.000000
     9  H    4.196155   2.493596   3.084171   0.000000
    10  H    4.087137   2.661521   2.271499   1.799169   0.000000
    11  H    3.495171   3.063297   2.663020   1.785955   1.761801
                   11
    11  H    0.000000
 Stoichiometry    C3H8
 Framework group  C1[X(C3H8)]
 Deg. of freedom    27
 Full point group                 C1      NOp   1
 Largest Abelian subgroup         C1      NOp   1
 Largest concise Abelian subgroup C1      NOp   1
                         Standard orientation:                         
 ---------------------------------------------------------------------
 Center     Atomic      Atomic             Coordinates (Angstroms)
 Number     Number       Type             X           Y           Z
 ---------------------------------------------------------------------
      1          6           0       -1.341975   -0.248526    0.012529
      2          6           0        0.005668    0.545757    0.015185
      3          6           0        1.337405   -0.249841    0.008483
      4          1           0       -1.947902   -0.274165    0.957208
      5          1           0       -1.164889   -1.275498   -0.333915
      6          1           0       -1.981915    0.211938   -0.750704
      7          1           0        0.011545    1.257132    0.852609
      8          1           0        0.013419    1.165562   -0.890026
      9          1           0        1.751263   -0.521517    1.019365
     10          1           0        2.096889    0.338586   -0.522639
     11          1           0        1.215002   -1.186380   -0.549079
 ---------------------------------------------------------------------
 Rotational constants (GHZ):          30.8932370           7.6571164           6.9392457
 Standard basis: 6-31G(d) (6D, 7F)
 There are    61 symmetry adapted cartesian basis functions of A   symmetry.
 There are    61 symmetry adapted basis functions of A   symmetry.
    61 basis functions,   116 primitive gaussians,    61 cartesian basis functions
    13 alpha electrons       13 beta electrons
       nuclear repulsion energy        80.8678736014 Hartrees.
 NAtoms=   11 NActive=   11 NUniq=   11 SFac= 1.00D+00 NAtFMM=   60 NAOKFM=F Big=F
 Integral buffers will be    131072 words long.
 Raffenetti 2 integral format.
 Two-electron integral symmetry is turned on.
 One-electron integrals computed using PRISM.
 NBasis=    61 RedAO= T EigKep=  6.16D-03  NBF=    61
 NBsUse=    61 1.00D-06 EigRej= -1.00D+00 NBFU=    61
 ExpMin= 1.61D-01 ExpMax= 3.05D+03 ExpMxC= 4.57D+02 IAcc=3 IRadAn=         5 AccDes= 0.00D+00
 Harris functional with IExCor=  402 and IRadAn=       5 diagonalized for initial guess.
 HarFok:  IExCor=  402 AccDes= 0.00D+00 IRadAn=         5 IDoV= 1 UseB2=F ITyADJ=14
 ICtDFT=  3500011 ScaDFX=  1.000000  1.000000  1.000000  1.000000
 FoFCou: FMM=F IPFlag=           0 FMFlag=      100000 FMFlg1=           0
         NFxFlg=           0 DoJE=T BraDBF=F KetDBF=T FulRan=T
         wScrn=  0.000000 ICntrl=       500 IOpCl=  0 I1Cent=   200000004 NGrid=           0
         NMat0=    1 NMatS0=      1 NMatT0=    0 NMatD0=    1 NMtDS0=    0 NMtDT0=    0
 Petite list used in FoFCou.
 Keep R1 ints in memory in canonical form, NReq=3557582.
 Requested convergence on RMS density matrix=1.00D-08 within 128 cycles.
 Requested convergence on MAX density matrix=1.00D-06.
 Requested convergence on             energy=1.00D-06.
 No special actions if energy rises.
 Integral accuracy reduced to 1.0D-05 until final iterations.
 Initial convergence to 1.0D-05 achieved.  Increase integral accuracy.
 SCF Done:  E(RB3LYP) =  -119.133169421     A.U. after   11 cycles
            NFock= 11  Conv=0.36D-08     -V/T= 2.0117

 **********************************************************************

            Population analysis using the SCF density.

 **********************************************************************

 Orbital symmetries:
       Occupied  (A) (A) (A) (A) (A) (A) (A) (A) (A) (A) (A) (A)
                 (A)
       Virtual   (A) (A) (A) (A) (A) (A) (A) (A) (A) (A) (A) (A)
                 (A) (A) (A) (A) (A) (A) (A) (A) (A) (A) (A) (A)
                 (A) (A) (A) (A) (A) (A) (A) (A) (A) (A) (A) (A)
                 (A) (A) (A) (A) (A) (A) (A) (A) (A) (A) (A) (A)
 The electronic state is 1-A.
 Alpha  occ. eigenvalues --  -10.18147 -10.17462 -10.17461  -0.76537  -0.67507
 Alpha  occ. eigenvalues --   -0.57959  -0.44431  -0.42722  -0.39190  -0.37678
 Alpha  occ. eigenvalues --   -0.33520  -0.32723  -0.31793
 Alpha virt. eigenvalues --    0.09486   0.12143   0.13692   0.14211   0.17010
 Alpha virt. eigenvalues --    0.18259   0.18622   0.23577   0.25096   0.28496
 Alpha virt. eigenvalues --    0.50768   0.52592   0.53480   0.60487   0.62174
 Alpha virt. eigenvalues --    0.65186   0.70183   0.71660   0.78220   0.86016
 Alpha virt. eigenvalues --    0.87692   0.88105   0.90360   0.91024   0.94445
 Alpha virt. eigenvalues --    0.96934   0.97988   1.01751   1.28165   1.45361
 Alpha virt. eigenvalues --    1.47402   1.61681   1.72899   1.87803   1.89965
 Alpha virt. eigenvalues --    1.95693   2.04912   2.08897   2.18140   2.26563
 Alpha virt. eigenvalues --    2.31562   2.34547   2.42776   2.59117   2.64271
 Alpha virt. eigenvalues --    4.09687   4.27182   4.47396
          Condensed to atoms (all electrons):
               1          2          3          4          5          6
     1  C    5.074747   0.363646  -0.036239   0.376609   0.376546   0.376533
     2  C    0.363646   4.930604   0.374159  -0.024227  -0.039513  -0.033624
     3  C   -0.036239   0.374159   5.063237   0.001636  -0.008442   0.003413
     4  H    0.376609  -0.024227   0.001636   0.568484  -0.028514  -0.033295
     5  H    0.376546  -0.039513  -0.008442  -0.028514   0.574271  -0.032355
     6  H    0.376533  -0.033624   0.003413  -0.033295  -0.032355   0.582945
     7  H   -0.037793   0.379570  -0.038237  -0.007405   0.004179   0.002762
     8  H   -0.042731   0.389664  -0.044113   0.003874   0.002169  -0.011247
     9  H    0.001021  -0.028486   0.376214   0.000168   0.000203  -0.000086
    10  H    0.003843  -0.032225   0.375956  -0.000081   0.000157  -0.000232
    11  H   -0.008018  -0.037973   0.375234  -0.000034   0.007213   0.000291
               7          8          9         10         11
     1  C   -0.037793  -0.042731   0.001021   0.003843  -0.008018
     2  C    0.379570   0.389664  -0.028486  -0.032225  -0.037973
     3  C   -0.038237  -0.044113   0.376214   0.375956   0.375234
     4  H   -0.007405   0.003874   0.000168  -0.000081  -0.000034
     5  H    0.004179   0.002169   0.000203   0.000157   0.007213
     6  H    0.002762  -0.011247  -0.000086  -0.000232   0.000291
     7  H    0.598582  -0.038374  -0.007170   0.001113   0.004814
     8  H   -0.038374   0.607832   0.004550  -0.008502   0.000128
     9  H   -0.007170   0.004550   0.576929  -0.030793  -0.032035
    10  H    0.001113  -0.008502  -0.030793   0.578450  -0.031717
    11  H    0.004814   0.000128  -0.032035  -0.031717   0.579510
 Mulliken charges:
               1
     1  C   -0.448164
     2  C   -0.241595
     3  C   -0.442818
     4  H    0.142784
     5  H    0.144086
     6  H    0.144894
     7  H    0.137959
     8  H    0.136750
     9  H    0.139485
    10  H    0.144031
    11  H    0.142587
 Sum of Mulliken charges =  -0.00000
 Mulliken charges with hydrogens summed into heavy atoms:
               1
     1  C   -0.016400
     2  C    0.033115
     3  C   -0.016715
 Electronic spatial extent (au):  <R**2>=            238.3971
 Charge=             -0.0000 electrons
 Dipole moment (field-independent basis, Debye):
    X=             -0.0108    Y=              0.0975    Z=             -0.1043  Tot=              0.1432
 Quadrupole moment (field-independent basis, Debye-Ang):
   XX=            -21.7995   YY=            -21.6307   ZZ=            -21.2290
   XY=              0.0016   XZ=             -0.0735   YZ=             -0.0278
 Traceless Quadrupole moment (field-independent basis, Debye-Ang):
   XX=             -0.2464   YY=             -0.0776   ZZ=              0.3241
   XY=              0.0016   XZ=             -0.0735   YZ=             -0.0278
 Octapole moment (field-independent basis, Debye-Ang**2):
  XXX=             -0.2635  YYY=             -0.2873  ZZZ=              0.4048  XYY=              0.1891
  XXY=              0.7826  XXZ=              0.2487  XZZ=             -0.1707  YZZ=              0.4846
  YYZ=             -0.5807  XYZ=             -0.1365
 Hexadecapole moment (field-independent basis, Debye-Ang**3):
 XXXX=           -220.9269 YYYY=            -65.2075 ZZZZ=            -42.8488 XXXY=              0.4637
 XXXZ=             -1.2594 YYYX=              0.1509 YYYZ=              1.1234 ZZZX=              0.2306
 ZZZY=             -0.5101 XXYY=            -48.2933 XXZZ=            -41.4923 YYZZ=            -17.3760
 XXYZ=             -1.5625 YYXZ=              0.0119 ZZXY=             -0.4355
 N-N= 8.086787360143D+01 E-N=-4.362211933449D+02  KE= 1.177523691336D+02
 1\1\GINC-NODE60\SP\RB3LYP\6-31G(d)\C3H8\YANZ\22-Sep-2023\0\\# b3lyp/6-
 31g(d)\\tmpdir/M2_conf_0_4.gjf\\0,1\C,0,0.,0.,0.\C,0,1.5643,0.,0.\C,0,
 2.30761,0.,1.36163\H,0,-0.53342,0.9439,-0.2911\H,0,-0.36948,-0.34011,0
 .97666\H,0,-0.3188,-0.7669,-0.71715\H,0,1.93199,0.83322,-0.61475\H,0,1
 .88415,-0.90884,-0.52472\H,0,2.52792,1.01309,1.7999\H,0,3.25978,-0.533
 44,1.24345\H,0,1.72568,-0.55221,2.10955\\Version=ES64L-G16RevA.03\Stat
 e=1-A\HF=-119.1331694\RMSD=3.650e-09\Dipole=0.0157408,-0.0412597,-0.03
 49817\Quadrupole=-0.1500383,0.2410197,-0.0909814,-0.0572568,-0.0551527
 ,-0.0118113\PG=C01 [X(C3H8)]\\@


 TIME GOES, YOU SAY?  AH NO!
 ALAS, TIME STAYS, WE GO.
    -- A. DOBSON (1840-1921)
 Job cpu time:       0 days  0 hours  0 minutes 16.2 seconds.
 Elapsed time:       0 days  0 hours  0 minutes  8.2 seconds.
 File lengths (MBytes):  RWF=      6 Int=      0 D2E=      0 Chk=      1 Scr=      1
 Normal termination of Gaussian 16 at Fri Sep 22 17:02:22 2023.
