 Entering Gaussian System, Link 0=g16
 Initial command:
 /share/apps/gaussian/g16/l1.exe "/tmp/55621.mgr/Gau-120132.inp" -scrdir="/tmp/55621.mgr/"
 Entering Link 1 = /share/apps/gaussian/g16/l1.exe PID=    120133.
  
 Copyright (c) 1988,1990,1992,1993,1995,1998,2003,2009,2016,
            Gaussian, Inc.  All Rights Reserved.
  
 This is part of the Gaussian(R) 16 program.  It is based on
 the Gaussian(R) 09 system (copyright 2009, Gaussian, Inc.),
 the Gaussian(R) 03 system (copyright 2003, Gaussian, Inc.),
 the Gaussian(R) 98 system (copyright 1998, Gaussian, Inc.),
 the Gaussian(R) 94 system (copyright 1995, Gaussian, Inc.),
 the Gaussian 92(TM) system (copyright 1992, Gaussian, Inc.),
 the Gaussian 90(TM) system (copyright 1990, Gaussian, Inc.),
 the Gaussian 88(TM) system (copyright 1988, Gaussian, Inc.),
 the Gaussian 86(TM) system (copyright 1986, Carnegie Mellon
 University), and the Gaussian 82(TM) system (copyright 1983,
 Carnegie Mellon University). Gaussian is a federally registered
 trademark of Gaussian, Inc.
  
 This software contains proprietary and confidential information,
 including trade secrets, belonging to Gaussian, Inc.
  
 This software is provided under written license and may be
 used, copied, transmitted, or stored only in accord with that
 written license.
  
 The following legend is applicable only to US Government
 contracts under FAR:
  
                    RESTRICTED RIGHTS LEGEND
  
 Use, reproduction and disclosure by the US Government is
 subject to restrictions as set forth in subparagraphs (a)
 and (c) of the Commercial Computer Software - Restricted
 Rights clause in FAR 52.227-19.
  
 Gaussian, Inc.
 340 Quinnipiac St., Bldg. 40, Wallingford CT 06492
  
  
 ---------------------------------------------------------------
 Warning -- This program may not be used in any manner that
 competes with the business of Gaussian, Inc. or will provide
 assistance to any competitor of Gaussian, Inc.  The licensee
 of this program is prohibited from giving any competitor of
 Gaussian, Inc. access to this program.  By using this program,
 the user acknowledges that Gaussian, Inc. is engaged in the
 business of creating and licensing software in the field of
 computational chemistry and represents and warrants to the
 licensee that it is not a competitor of Gaussian, Inc. and that
 it will not use this program in any manner prohibited above.
 ---------------------------------------------------------------
  

 Cite this work as:
 Gaussian 16, Revision A.03,
 M. J. Frisch, G. W. Trucks, H. B. Schlegel, G. E. Scuseria, 
 M. A. Robb, J. R. Cheeseman, G. Scalmani, V. Barone, 
 G. A. Petersson, H. Nakatsuji, X. Li, M. Caricato, A. V. Marenich, 
 J. Bloino, B. G. Janesko, R. Gomperts, B. Mennucci, H. P. Hratchian, 
 J. V. Ortiz, A. F. Izmaylov, J. L. Sonnenberg, D. Williams-Young, 
 F. Ding, F. Lipparini, F. Egidi, J. Goings, B. Peng, A. Petrone, 
 T. Henderson, D. Ranasinghe, V. G. Zakrzewski, J. Gao, N. Rega, 
 G. Zheng, W. Liang, M. Hada, M. Ehara, K. Toyota, R. Fukuda, 
 J. Hasegawa, M. Ishida, T. Nakajima, Y. Honda, O. Kitao, H. Nakai, 
 T. Vreven, K. Throssell, J. A. Montgomery, Jr., J. E. Peralta, 
 F. Ogliaro, M. J. Bearpark, J. J. Heyd, E. N. Brothers, K. N. Kudin, 
 V. N. Staroverov, T. A. Keith, R. Kobayashi, J. Normand, 
 K. Raghavachari, A. P. Rendell, J. C. Burant, S. S. Iyengar, 
 J. Tomasi, M. Cossi, J. M. Millam, M. Klene, C. Adamo, R. Cammi, 
 J. W. Ochterski, R. L. Martin, K. Morokuma, O. Farkas, 
 J. B. Foresman, and D. J. Fox, Gaussian, Inc., Wallingford CT, 2016.
 
 ******************************************
 Gaussian 16:  ES64L-G16RevA.03 25-Dec-2016
                22-Sep-2023 
 ******************************************
 %nprocshared=2
 Will use up to    2 processors via shared memory.
 %mem=2GB
 ----------------
 # b3lyp/6-31g(d)
 ----------------
 1/38=1,172=1/1;
 2/12=2,17=6,18=5,40=1/2;
 3/5=1,6=6,7=1,11=2,25=1,30=1,74=-5/1,2,3;
 4//1;
 5/5=2,38=5/2;
 6/7=2,8=2,9=2,10=2,28=1/1;
 99/5=1,9=1/99;
 -----------------------
 tmpdir/M2_conf_0_56.gjf
 -----------------------
 Symbolic Z-matrix:
 Charge =  0 Multiplicity = 1
 C                     0.        0.        0. 
 C                     1.4627    0.        0. 
 C                     2.5247    0.        0.58071 
 H                    -0.31498  -0.47914   0.9686 
 H                    -0.36504   1.04276  -0.02057 
 H                    -0.41942  -0.56672  -0.93283 
 H                     3.21435  -0.09852   1.37512 
 
                          Input orientation:                          
 ---------------------------------------------------------------------
 Center     Atomic      Atomic             Coordinates (Angstroms)
 Number     Number       Type             X           Y           Z
 ---------------------------------------------------------------------
      1          6           0        0.000000    0.000000    0.000000
      2          6           0        1.462700    0.000000    0.000000
      3          6           0        2.524700    0.000000    0.580710
      4          1           0       -0.314980   -0.479140    0.968600
      5          1           0       -0.365040    1.042760   -0.020570
      6          1           0       -0.419420   -0.566720   -0.932830
      7          1           0        3.214350   -0.098520    1.375120
 ---------------------------------------------------------------------
                    Distance matrix (angstroms):
                    1          2          3          4          5
     1  C    0.000000
     2  C    1.462700   0.000000
     3  C    2.590624   1.210400   0.000000
     4  H    1.125599   2.080362   2.905825   0.000000
     5  H    1.105000   2.104378   3.130413   1.815804   0.000000
     6  H    1.169297   2.175711   3.358544   1.906309   1.850838
     7  H    3.497529   2.229112   1.056603   3.572996   4.007805
                    6          7
     6  H    0.000000
     7  H    4.330142   0.000000
 Stoichiometry    C3H4
 Framework group  C1[X(C3H4)]
 Deg. of freedom    15
 Full point group                 C1      NOp   1
 Largest Abelian subgroup         C1      NOp   1
 Largest concise Abelian subgroup C1      NOp   1
                         Standard orientation:                         
 ---------------------------------------------------------------------
 Center     Atomic      Atomic             Coordinates (Angstroms)
 Number     Number       Type             X           Y           Z
 ---------------------------------------------------------------------
      1          6           0        1.200804    0.090029   -0.001310
      2          6           0       -0.212759   -0.285907    0.000478
      3          6           0       -1.388290    0.002235    0.013521
      4          1           0        1.253275    1.116075   -0.461147
      5          1           0        1.565518    0.143921    1.040374
      6          1           0        1.842199   -0.692591   -0.587292
      7          1           0       -2.259516    0.594451   -0.068069
 ---------------------------------------------------------------------
 Rotational constants (GHZ):         105.2140669           9.1674336           8.9269895
 Standard basis: 6-31G(d) (6D, 7F)
 There are    53 symmetry adapted cartesian basis functions of A   symmetry.
 There are    53 symmetry adapted basis functions of A   symmetry.
    53 basis functions,   100 primitive gaussians,    53 cartesian basis functions
    11 alpha electrons       11 beta electrons
       nuclear repulsion energy        58.6671390063 Hartrees.
 NAtoms=    7 NActive=    7 NUniq=    7 SFac= 1.00D+00 NAtFMM=   60 NAOKFM=F Big=F
 Integral buffers will be    131072 words long.
 Raffenetti 2 integral format.
 Two-electron integral symmetry is turned on.
 One-electron integrals computed using PRISM.
 NBasis=    53 RedAO= T EigKep=  1.47D-03  NBF=    53
 NBsUse=    53 1.00D-06 EigRej= -1.00D+00 NBFU=    53
 ExpMin= 1.61D-01 ExpMax= 3.05D+03 ExpMxC= 4.57D+02 IAcc=3 IRadAn=         5 AccDes= 0.00D+00
 Harris functional with IExCor=  402 and IRadAn=       5 diagonalized for initial guess.
 HarFok:  IExCor=  402 AccDes= 0.00D+00 IRadAn=         5 IDoV= 1 UseB2=F ITyADJ=14
 ICtDFT=  3500011 ScaDFX=  1.000000  1.000000  1.000000  1.000000
 FoFCou: FMM=F IPFlag=           0 FMFlag=      100000 FMFlg1=           0
         NFxFlg=           0 DoJE=T BraDBF=F KetDBF=T FulRan=T
         wScrn=  0.000000 ICntrl=       500 IOpCl=  0 I1Cent=   200000004 NGrid=           0
         NMat0=    1 NMatS0=      1 NMatT0=    0 NMatD0=    1 NMtDS0=    0 NMtDT0=    0
 Petite list used in FoFCou.
 Keep R1 ints in memory in canonical form, NReq=2776208.
 Requested convergence on RMS density matrix=1.00D-08 within 128 cycles.
 Requested convergence on MAX density matrix=1.00D-06.
 Requested convergence on             energy=1.00D-06.
 No special actions if energy rises.
 Integral accuracy reduced to 1.0D-05 until final iterations.
 Initial convergence to 1.0D-05 achieved.  Increase integral accuracy.
 SCF Done:  E(RB3LYP) =  -116.629818756     A.U. after   12 cycles
            NFock= 12  Conv=0.47D-08     -V/T= 2.0109

 **********************************************************************

            Population analysis using the SCF density.

 **********************************************************************

 Orbital symmetries:
       Occupied  (A) (A) (A) (A) (A) (A) (A) (A) (A) (A) (A)
       Virtual   (A) (A) (A) (A) (A) (A) (A) (A) (A) (A) (A) (A)
                 (A) (A) (A) (A) (A) (A) (A) (A) (A) (A) (A) (A)
                 (A) (A) (A) (A) (A) (A) (A) (A) (A) (A) (A) (A)
                 (A) (A) (A) (A) (A) (A)
 The electronic state is 1-A.
 Alpha  occ. eigenvalues --  -10.21706 -10.18331 -10.17189  -0.77449  -0.68629
 Alpha  occ. eigenvalues --   -0.52098  -0.43870  -0.42818  -0.41937  -0.25919
 Alpha  occ. eigenvalues --   -0.25694
 Alpha virt. eigenvalues --    0.00858   0.06020   0.10529   0.14187   0.16851
 Alpha virt. eigenvalues --    0.18082   0.26241   0.44667   0.45999   0.52981
 Alpha virt. eigenvalues --    0.54164   0.61421   0.63493   0.64860   0.70224
 Alpha virt. eigenvalues --    0.74087   0.78777   0.84397   0.86606   0.87062
 Alpha virt. eigenvalues --    0.90583   1.09648   1.24571   1.35779   1.42316
 Alpha virt. eigenvalues --    1.54465   1.56744   1.67303   1.81383   1.85614
 Alpha virt. eigenvalues --    1.98836   2.04159   2.15221   2.20169   2.25527
 Alpha virt. eigenvalues --    2.51527   2.66460   2.78306   3.25339   4.09430
 Alpha virt. eigenvalues --    4.20750   4.51516
          Condensed to atoms (all electrons):
               1          2          3          4          5          6
     1  C    5.101176   0.393387  -0.074100   0.378824   0.364852   0.352472
     2  C    0.393387   4.729530   0.918280  -0.035224  -0.032974  -0.033738
     3  C   -0.074100   0.918280   5.076775  -0.011807  -0.000953   0.003131
     4  H    0.378824  -0.035224  -0.011807   0.537314  -0.029174  -0.025182
     5  H    0.364852  -0.032974  -0.000953  -0.029174   0.544324  -0.028328
     6  H    0.352472  -0.033738   0.003131  -0.025182  -0.028328   0.575049
     7  H    0.002570  -0.023007   0.361983  -0.000084  -0.000021  -0.000042
               7
     1  C    0.002570
     2  C   -0.023007
     3  C    0.361983
     4  H   -0.000084
     5  H   -0.000021
     6  H   -0.000042
     7  H    0.474104
 Mulliken charges:
               1
     1  C   -0.519181
     2  C    0.083747
     3  C   -0.273309
     4  H    0.185333
     5  H    0.182275
     6  H    0.156638
     7  H    0.184497
 Sum of Mulliken charges =  -0.00000
 Mulliken charges with hydrogens summed into heavy atoms:
               1
     1  C    0.005065
     2  C    0.083747
     3  C   -0.088812
 Electronic spatial extent (au):  <R**2>=            172.6052
 Charge=             -0.0000 electrons
 Dipole moment (field-independent basis, Debye):
    X=              0.6780    Y=              0.9033    Z=             -0.0409  Tot=              1.1302
 Quadrupole moment (field-independent basis, Debye-Ang):
   XX=            -15.4183   YY=            -18.4690   ZZ=            -19.1509
   XY=             -1.6832   XZ=              0.3197   YZ=             -0.0646
 Traceless Quadrupole moment (field-independent basis, Debye-Ang):
   XX=              2.2611   YY=             -0.7896   ZZ=             -1.4715
   XY=             -1.6832   XZ=              0.3197   YZ=             -0.0646
 Octapole moment (field-independent basis, Debye-Ang**2):
  XXX=             -5.9827  YYY=              2.2843  ZZZ=              0.7227  XYY=              1.1150
  XXY=              3.6127  XXZ=             -0.3646  XZZ=              2.2397  YZZ=              0.4982
  YYZ=             -0.6988  XYZ=              0.3166
 Hexadecapole moment (field-independent basis, Debye-Ang**3):
 XXXX=           -162.2195 YYYY=            -30.3812 ZZZZ=            -26.4844 XXXY=            -10.8567
 XXXZ=              1.5329 YYYX=             -1.6622 YYYZ=             -0.5455 ZZZX=              1.6070
 ZZZY=              0.0853 XXYY=            -33.0426 XXZZ=            -34.5627 YYZZ=             -9.5829
 XXYZ=              0.4098 YYXZ=             -0.7384 ZZXY=             -0.5702
 N-N= 5.866713900628D+01 E-N=-3.869743132429D+02  KE= 1.153727414835D+02
 1\1\GINC-NODE60\SP\RB3LYP\6-31G(d)\C3H4\YANZ\22-Sep-2023\0\\# b3lyp/6-
 31g(d)\\tmpdir/M2_conf_0_56.gjf\\0,1\C,0,0.,0.,0.\C,0,1.4627,0.,0.\C,0
 ,2.5247,0.,0.58071\H,0,-0.31498,-0.47914,0.9686\H,0,-0.36504,1.04276,-
 0.02057\H,0,-0.41942,-0.56672,-0.93283\H,0,3.21435,-0.09852,1.37512\\V
 ersion=ES64L-G16RevA.03\State=1-A\HF=-116.6298188\RMSD=4.681e-09\Dipol
 e=-0.3491464,-0.0212387,0.2745291\Quadrupole=0.909065,-1.0885439,0.179
 4789,-0.2531538,1.6445273,-0.1352603\PG=C01 [X(C3H4)]\\@


 IT IS DOUBTED WHETHER A MAN EVER BRINGS HIS FACULTIES TO BEAR WITH THEIR FULL FORCE
 ON A SUBJECT UNTIL HE WRITES UPON IT.

                          -- CICERO
 Job cpu time:       0 days  0 hours  0 minutes  9.4 seconds.
 Elapsed time:       0 days  0 hours  0 minutes  4.8 seconds.
 File lengths (MBytes):  RWF=      6 Int=      0 D2E=      0 Chk=      1 Scr=      1
 Normal termination of Gaussian 16 at Fri Sep 22 17:02:38 2023.
