 Entering Gaussian System, Link 0=g16
 Initial command:
 /share/apps/gaussian/g16/l1.exe "/tmp/55621.mgr/Gau-120624.inp" -scrdir="/tmp/55621.mgr/"
 Entering Link 1 = /share/apps/gaussian/g16/l1.exe PID=    120625.
  
 Copyright (c) 1988,1990,1992,1993,1995,1998,2003,2009,2016,
            Gaussian, Inc.  All Rights Reserved.
  
 This is part of the Gaussian(R) 16 program.  It is based on
 the Gaussian(R) 09 system (copyright 2009, Gaussian, Inc.),
 the Gaussian(R) 03 system (copyright 2003, Gaussian, Inc.),
 the Gaussian(R) 98 system (copyright 1998, Gaussian, Inc.),
 the Gaussian(R) 94 system (copyright 1995, Gaussian, Inc.),
 the Gaussian 92(TM) system (copyright 1992, Gaussian, Inc.),
 the Gaussian 90(TM) system (copyright 1990, Gaussian, Inc.),
 the Gaussian 88(TM) system (copyright 1988, Gaussian, Inc.),
 the Gaussian 86(TM) system (copyright 1986, Carnegie Mellon
 University), and the Gaussian 82(TM) system (copyright 1983,
 Carnegie Mellon University). Gaussian is a federally registered
 trademark of Gaussian, Inc.
  
 This software contains proprietary and confidential information,
 including trade secrets, belonging to Gaussian, Inc.
  
 This software is provided under written license and may be
 used, copied, transmitted, or stored only in accord with that
 written license.
  
 The following legend is applicable only to US Government
 contracts under FAR:
  
                    RESTRICTED RIGHTS LEGEND
  
 Use, reproduction and disclosure by the US Government is
 subject to restrictions as set forth in subparagraphs (a)
 and (c) of the Commercial Computer Software - Restricted
 Rights clause in FAR 52.227-19.
  
 Gaussian, Inc.
 340 Quinnipiac St., Bldg. 40, Wallingford CT 06492
  
  
 ---------------------------------------------------------------
 Warning -- This program may not be used in any manner that
 competes with the business of Gaussian, Inc. or will provide
 assistance to any competitor of Gaussian, Inc.  The licensee
 of this program is prohibited from giving any competitor of
 Gaussian, Inc. access to this program.  By using this program,
 the user acknowledges that Gaussian, Inc. is engaged in the
 business of creating and licensing software in the field of
 computational chemistry and represents and warrants to the
 licensee that it is not a competitor of Gaussian, Inc. and that
 it will not use this program in any manner prohibited above.
 ---------------------------------------------------------------
  

 Cite this work as:
 Gaussian 16, Revision A.03,
 M. J. Frisch, G. W. Trucks, H. B. Schlegel, G. E. Scuseria, 
 M. A. Robb, J. R. Cheeseman, G. Scalmani, V. Barone, 
 G. A. Petersson, H. Nakatsuji, X. Li, M. Caricato, A. V. Marenich, 
 J. Bloino, B. G. Janesko, R. Gomperts, B. Mennucci, H. P. Hratchian, 
 J. V. Ortiz, A. F. Izmaylov, J. L. Sonnenberg, D. Williams-Young, 
 F. Ding, F. Lipparini, F. Egidi, J. Goings, B. Peng, A. Petrone, 
 T. Henderson, D. Ranasinghe, V. G. Zakrzewski, J. Gao, N. Rega, 
 G. Zheng, W. Liang, M. Hada, M. Ehara, K. Toyota, R. Fukuda, 
 J. Hasegawa, M. Ishida, T. Nakajima, Y. Honda, O. Kitao, H. Nakai, 
 T. Vreven, K. Throssell, J. A. Montgomery, Jr., J. E. Peralta, 
 F. Ogliaro, M. J. Bearpark, J. J. Heyd, E. N. Brothers, K. N. Kudin, 
 V. N. Staroverov, T. A. Keith, R. Kobayashi, J. Normand, 
 K. Raghavachari, A. P. Rendell, J. C. Burant, S. S. Iyengar, 
 J. Tomasi, M. Cossi, J. M. Millam, M. Klene, C. Adamo, R. Cammi, 
 J. W. Ochterski, R. L. Martin, K. Morokuma, O. Farkas, 
 J. B. Foresman, and D. J. Fox, Gaussian, Inc., Wallingford CT, 2016.
 
 ******************************************
 Gaussian 16:  ES64L-G16RevA.03 25-Dec-2016
                22-Sep-2023 
 ******************************************
 %nprocshared=2
 Will use up to    2 processors via shared memory.
 %mem=2GB
 ----------------
 # b3lyp/6-31g(d)
 ----------------
 1/38=1,172=1/1;
 2/12=2,17=6,18=5,40=1/2;
 3/5=1,6=6,7=1,11=2,25=1,30=1,74=-5/1,2,3;
 4//1;
 5/5=2,38=5/2;
 6/7=2,8=2,9=2,10=2,28=1/1;
 99/5=1,9=1/99;
 -----------------------
 tmpdir/M2_conf_0_95.gjf
 -----------------------
 Symbolic Z-matrix:
 Charge =  0 Multiplicity = 1
 C                     0.        0.        0. 
 C                     1.3967    0.        0. 
 H                     1.93737   0.        0.94254 
 O                    -0.62822   0.00278  -1.06142 
 H                    -0.54033   0.00214   0.94423 
 O                     2.01126   0.00019  -1.06489 
 
                          Input orientation:                          
 ---------------------------------------------------------------------
 Center     Atomic      Atomic             Coordinates (Angstroms)
 Number     Number       Type             X           Y           Z
 ---------------------------------------------------------------------
      1          6           0        0.000000    0.000000    0.000000
      2          6           0        1.396700    0.000000    0.000000
      3          1           0        1.937370    0.000000    0.942540
      4          8           0       -0.628220    0.002780   -1.061420
      5          1           0       -0.540330    0.002140    0.944230
      6          8           0        2.011260    0.000190   -1.064890
 ---------------------------------------------------------------------
                    Distance matrix (angstroms):
                    1          2          3          4          5
     1  C    0.000000
     2  C    1.396700   0.000000
     3  H    2.154480   1.086603   0.000000
     4  O    1.233402   2.286246   3.255475   0.000000
     5  H    1.087902   2.154915   2.477702   2.007575   0.000000
     6  O    2.275776   1.229502   2.008789   2.639484   3.247642
                    6
     6  O    0.000000
 Stoichiometry    C2H2O2
 Framework group  C1[X(C2H2O2)]
 Deg. of freedom    12
 Full point group                 C1      NOp   1
 Largest Abelian subgroup         C1      NOp   1
 Largest concise Abelian subgroup C1      NOp   1
                         Standard orientation:                         
 ---------------------------------------------------------------------
 Center     Atomic      Atomic             Coordinates (Angstroms)
 Number     Number       Type             X           Y           Z
 ---------------------------------------------------------------------
      1          6           0        0.694248    0.504771   -0.001014
      2          6           0       -0.702451    0.503470    0.000127
      3          1           0       -1.243998    1.445505    0.001349
      4          8           0        1.323458   -0.556065    0.000375
      5          1           0        1.233700    1.449502    0.001466
      6          8           0       -1.316019   -0.561992   -0.000062
 ---------------------------------------------------------------------
 Rotational constants (GHZ):          25.0454180           7.1668671           5.5723229
 Standard basis: 6-31G(d) (6D, 7F)
 There are    64 symmetry adapted cartesian basis functions of A   symmetry.
 There are    64 symmetry adapted basis functions of A   symmetry.
    64 basis functions,   120 primitive gaussians,    64 cartesian basis functions
    15 alpha electrons       15 beta electrons
       nuclear repulsion energy       105.8163586793 Hartrees.
 NAtoms=    6 NActive=    6 NUniq=    6 SFac= 1.00D+00 NAtFMM=   60 NAOKFM=F Big=F
 Integral buffers will be    131072 words long.
 Raffenetti 2 integral format.
 Two-electron integral symmetry is turned on.
 One-electron integrals computed using PRISM.
 NBasis=    64 RedAO= T EigKep=  2.77D-03  NBF=    64
 NBsUse=    64 1.00D-06 EigRej= -1.00D+00 NBFU=    64
 ExpMin= 1.61D-01 ExpMax= 5.48D+03 ExpMxC= 8.25D+02 IAcc=3 IRadAn=         5 AccDes= 0.00D+00
 Harris functional with IExCor=  402 and IRadAn=       5 diagonalized for initial guess.
 HarFok:  IExCor=  402 AccDes= 0.00D+00 IRadAn=         5 IDoV= 1 UseB2=F ITyADJ=14
 ICtDFT=  3500011 ScaDFX=  1.000000  1.000000  1.000000  1.000000
 FoFCou: FMM=F IPFlag=           0 FMFlag=      100000 FMFlg1=           0
         NFxFlg=           0 DoJE=T BraDBF=F KetDBF=T FulRan=T
         wScrn=  0.000000 ICntrl=       500 IOpCl=  0 I1Cent=   200000004 NGrid=           0
         NMat0=    1 NMatS0=      1 NMatT0=    0 NMatD0=    1 NMtDS0=    0 NMtDT0=    0
 Petite list used in FoFCou.
 Keep R1 ints in memory in canonical form, NReq=3940480.
 Requested convergence on RMS density matrix=1.00D-08 within 128 cycles.
 Requested convergence on MAX density matrix=1.00D-06.
 Requested convergence on             energy=1.00D-06.
 No special actions if energy rises.
 Integral accuracy reduced to 1.0D-05 until final iterations.
 Initial convergence to 1.0D-05 achieved.  Increase integral accuracy.
 SCF Done:  E(RB3LYP) =  -227.798997982     A.U. after   13 cycles
            NFock= 13  Conv=0.58D-08     -V/T= 2.0080

 **********************************************************************

            Population analysis using the SCF density.

 **********************************************************************

 Orbital symmetries:
       Occupied  (A) (A) (A) (A) (A) (A) (A) (A) (A) (A) (A) (A)
                 (A) (A) (A)
       Virtual   (A) (A) (A) (A) (A) (A) (A) (A) (A) (A) (A) (A)
                 (A) (A) (A) (A) (A) (A) (A) (A) (A) (A) (A) (A)
                 (A) (A) (A) (A) (A) (A) (A) (A) (A) (A) (A) (A)
                 (A) (A) (A) (A) (A) (A) (A) (A) (A) (A) (A) (A)
                 (A)
 The electronic state is 1-A.
 Alpha  occ. eigenvalues --  -19.18744 -19.18716 -10.29822 -10.29766  -1.08792
 Alpha  occ. eigenvalues --   -1.04990  -0.75477  -0.57650  -0.55429  -0.47088
 Alpha  occ. eigenvalues --   -0.45204  -0.44467  -0.37675  -0.30536  -0.27976
 Alpha virt. eigenvalues --   -0.13241   0.03622   0.10752   0.13708   0.17673
 Alpha virt. eigenvalues --    0.31613   0.38006   0.48312   0.51246   0.56569
 Alpha virt. eigenvalues --    0.58529   0.65859   0.66384   0.74291   0.81870
 Alpha virt. eigenvalues --    0.82950   0.84192   0.92376   0.96375   0.99196
 Alpha virt. eigenvalues --    1.00458   1.11855   1.13033   1.29251   1.29771
 Alpha virt. eigenvalues --    1.41176   1.54507   1.59878   1.66405   1.72561
 Alpha virt. eigenvalues --    1.76056   1.85287   1.86022   2.01495   2.02021
 Alpha virt. eigenvalues --    2.05769   2.25027   2.33932   2.40298   2.49402
 Alpha virt. eigenvalues --    2.65142   2.65814   2.84463   2.89828   3.12631
 Alpha virt. eigenvalues --    3.61542   4.00868   4.02550   4.33296
          Condensed to atoms (all electrons):
               1          2          3          4          5          6
     1  C    4.890777   0.210148  -0.096720   0.532026   0.332523  -0.071347
     2  C    0.210148   4.887357   0.332991  -0.070016  -0.096835   0.533178
     3  H   -0.096720   0.332991   0.666062   0.003888   0.012244  -0.051942
     4  O    0.532026  -0.070016   0.003888   7.927591  -0.052736  -0.003874
     5  H    0.332523  -0.096835   0.012244  -0.052736   0.668391   0.004081
     6  O   -0.071347   0.533178  -0.051942  -0.003874   0.004081   7.924604
 Mulliken charges:
               1
     1  C    0.202593
     2  C    0.203177
     3  H    0.133477
     4  O   -0.336879
     5  H    0.132332
     6  O   -0.334699
 Sum of Mulliken charges =  -0.00000
 Mulliken charges with hydrogens summed into heavy atoms:
               1
     1  C    0.334925
     2  C    0.336654
     4  O   -0.336879
     6  O   -0.334699
 Electronic spatial extent (au):  <R**2>=            225.3116
 Charge=             -0.0000 electrons
 Dipole moment (field-independent basis, Debye):
    X=             -0.0391    Y=              3.4753    Z=             -0.0007  Tot=              3.4755
 Quadrupole moment (field-independent basis, Debye-Ang):
   XX=            -25.4278   YY=            -21.3558   ZZ=            -20.7664
   XY=             -0.0283   XZ=             -0.0010   YZ=              0.0006
 Traceless Quadrupole moment (field-independent basis, Debye-Ang):
   XX=             -2.9111   YY=              1.1609   ZZ=              1.7503
   XY=             -0.0283   XZ=             -0.0010   YZ=              0.0006
 Octapole moment (field-independent basis, Debye-Ang**2):
  XXX=             -0.1069  YYY=             -1.2256  ZZZ=              0.0008  XYY=             -0.0129
  XXY=              3.7592  XXZ=             -0.0021  XZZ=             -0.0080  YZZ=             -1.4309
  YYZ=              0.0036  XYZ=              0.0013
 Hexadecapole moment (field-independent basis, Debye-Ang**3):
 XXXX=           -183.3619 YYYY=            -70.4720 ZZZZ=            -16.5426 XXXY=             -0.0823
 XXXZ=              0.0031 YYYX=             -0.0288 YYYZ=              0.0026 ZZZX=              0.0032
 ZZZY=             -0.0020 XXYY=            -39.1573 XXZZ=            -30.4323 YYZZ=            -14.6438
 XXYZ=              0.0047 YYXZ=              0.0022 ZZXY=             -0.0022
 N-N= 1.058163586793D+02 E-N=-7.458991996972D+02  KE= 2.260020849683D+02
 1\1\GINC-NODE60\SP\RB3LYP\6-31G(d)\C2H2O2\YANZ\22-Sep-2023\0\\# b3lyp/
 6-31g(d)\\tmpdir/M2_conf_0_95.gjf\\0,1\C,0,0.,0.,0.\C,0,1.3967,0.,0.\H
 ,0,1.93737,0.,0.94254\O,0,-0.62822,0.00278,-1.06142\H,0,-0.54033,0.002
 14,0.94423\O,0,2.01126,0.00019,-1.06489\\Version=ES64L-G16RevA.03\Stat
 e=1-A\HF=-227.798998\RMSD=5.840e-09\Dipole=0.0141088,-0.0014365,1.3672
 848\Quadrupole=-2.1643868,1.3012764,0.8631104,0.0035643,0.0182141,0.00
 08266\PG=C01 [X(C2H2O2)]\\@


 MATERIAL COPIED FROM ONE SCHOLARLY BOOK WITHOUT CREDIT COMPRISES PLAGIARISM.
 MATERIAL COPIED FROM TWO SCHOLARLY BOOKS COMPRISES AN ESSAY.
 MATERIAL COPIED FROM THREE SCHOLARLY BOOKS COMPRISES A DISSERTATION.
 MATERIAL COPIED FROM FOUR SCHOLARLY BOOKS COMPRISES A FIFTH SCHOLARLY BOOK.

                               -- C&EN, 25 FEB 1980
 Job cpu time:       0 days  0 hours  0 minutes 10.7 seconds.
 Elapsed time:       0 days  0 hours  0 minutes  5.5 seconds.
 File lengths (MBytes):  RWF=      6 Int=      0 D2E=      0 Chk=      1 Scr=      1
 Normal termination of Gaussian 16 at Fri Sep 22 17:02:54 2023.
