 Entering Gaussian System, Link 0=g16
 Initial command:
 /share/apps/gaussian/g16/l1.exe "/tmp/55621.mgr/Gau-120528.inp" -scrdir="/tmp/55621.mgr/"
 Entering Link 1 = /share/apps/gaussian/g16/l1.exe PID=    120529.
  
 Copyright (c) 1988,1990,1992,1993,1995,1998,2003,2009,2016,
            Gaussian, Inc.  All Rights Reserved.
  
 This is part of the Gaussian(R) 16 program.  It is based on
 the Gaussian(R) 09 system (copyright 2009, Gaussian, Inc.),
 the Gaussian(R) 03 system (copyright 2003, Gaussian, Inc.),
 the Gaussian(R) 98 system (copyright 1998, Gaussian, Inc.),
 the Gaussian(R) 94 system (copyright 1995, Gaussian, Inc.),
 the Gaussian 92(TM) system (copyright 1992, Gaussian, Inc.),
 the Gaussian 90(TM) system (copyright 1990, Gaussian, Inc.),
 the Gaussian 88(TM) system (copyright 1988, Gaussian, Inc.),
 the Gaussian 86(TM) system (copyright 1986, Carnegie Mellon
 University), and the Gaussian 82(TM) system (copyright 1983,
 Carnegie Mellon University). Gaussian is a federally registered
 trademark of Gaussian, Inc.
  
 This software contains proprietary and confidential information,
 including trade secrets, belonging to Gaussian, Inc.
  
 This software is provided under written license and may be
 used, copied, transmitted, or stored only in accord with that
 written license.
  
 The following legend is applicable only to US Government
 contracts under FAR:
  
                    RESTRICTED RIGHTS LEGEND
  
 Use, reproduction and disclosure by the US Government is
 subject to restrictions as set forth in subparagraphs (a)
 and (c) of the Commercial Computer Software - Restricted
 Rights clause in FAR 52.227-19.
  
 Gaussian, Inc.
 340 Quinnipiac St., Bldg. 40, Wallingford CT 06492
  
  
 ---------------------------------------------------------------
 Warning -- This program may not be used in any manner that
 competes with the business of Gaussian, Inc. or will provide
 assistance to any competitor of Gaussian, Inc.  The licensee
 of this program is prohibited from giving any competitor of
 Gaussian, Inc. access to this program.  By using this program,
 the user acknowledges that Gaussian, Inc. is engaged in the
 business of creating and licensing software in the field of
 computational chemistry and represents and warrants to the
 licensee that it is not a competitor of Gaussian, Inc. and that
 it will not use this program in any manner prohibited above.
 ---------------------------------------------------------------
  

 Cite this work as:
 Gaussian 16, Revision A.03,
 M. J. Frisch, G. W. Trucks, H. B. Schlegel, G. E. Scuseria, 
 M. A. Robb, J. R. Cheeseman, G. Scalmani, V. Barone, 
 G. A. Petersson, H. Nakatsuji, X. Li, M. Caricato, A. V. Marenich, 
 J. Bloino, B. G. Janesko, R. Gomperts, B. Mennucci, H. P. Hratchian, 
 J. V. Ortiz, A. F. Izmaylov, J. L. Sonnenberg, D. Williams-Young, 
 F. Ding, F. Lipparini, F. Egidi, J. Goings, B. Peng, A. Petrone, 
 T. Henderson, D. Ranasinghe, V. G. Zakrzewski, J. Gao, N. Rega, 
 G. Zheng, W. Liang, M. Hada, M. Ehara, K. Toyota, R. Fukuda, 
 J. Hasegawa, M. Ishida, T. Nakajima, Y. Honda, O. Kitao, H. Nakai, 
 T. Vreven, K. Throssell, J. A. Montgomery, Jr., J. E. Peralta, 
 F. Ogliaro, M. J. Bearpark, J. J. Heyd, E. N. Brothers, K. N. Kudin, 
 V. N. Staroverov, T. A. Keith, R. Kobayashi, J. Normand, 
 K. Raghavachari, A. P. Rendell, J. C. Burant, S. S. Iyengar, 
 J. Tomasi, M. Cossi, J. M. Millam, M. Klene, C. Adamo, R. Cammi, 
 J. W. Ochterski, R. L. Martin, K. Morokuma, O. Farkas, 
 J. B. Foresman, and D. J. Fox, Gaussian, Inc., Wallingford CT, 2016.
 
 ******************************************
 Gaussian 16:  ES64L-G16RevA.03 25-Dec-2016
                22-Sep-2023 
 ******************************************
 %nprocshared=2
 Will use up to    2 processors via shared memory.
 %mem=2GB
 ----------------
 # b3lyp/6-31g(d)
 ----------------
 1/38=1,172=1/1;
 2/12=2,17=6,18=5,40=1/2;
 3/5=1,6=6,7=1,11=2,25=1,30=1,74=-5/1,2,3;
 4//1;
 5/5=2,38=5/2;
 6/7=2,8=2,9=2,10=2,28=1/1;
 99/5=1,9=1/99;
 ------------------------
 tmpdir/M2_conf_0_100.gjf
 ------------------------
 Symbolic Z-matrix:
 Charge =  0 Multiplicity = 1
 C                     0.        0.        0. 
 C                     1.3946    0.        0. 
 H                     1.94036   0.        0.9396 
 H                    -0.5054    0.00076  -0.87573 
 H                    -0.54642  -0.00066   0.93922 
 H                     1.89733   0.00107  -0.87818 
 
                          Input orientation:                          
 ---------------------------------------------------------------------
 Center     Atomic      Atomic             Coordinates (Angstroms)
 Number     Number       Type             X           Y           Z
 ---------------------------------------------------------------------
      1          6           0        0.000000    0.000000    0.000000
      2          6           0        1.394600    0.000000    0.000000
      3          1           0        1.940360    0.000000    0.939600
      4          1           0       -0.505400    0.000760   -0.875730
      5          1           0       -0.546420   -0.000660    0.939220
      6          1           0        1.897330    0.001070   -0.878180
 ---------------------------------------------------------------------
                    Distance matrix (angstroms):
                    1          2          3          4          5
     1  C    0.000000
     2  C    1.394600   0.000000
     3  H    2.155886   1.086601   0.000000
     4  H    1.011105   2.092105   3.045844   0.000000
     5  H    1.086605   2.156315   2.486780   1.815414   0.000000
     6  H    2.090709   1.011899   1.818290   2.402731   3.045465
                    6
     6  H    0.000000
 Stoichiometry    C2H4
 Framework group  C1[X(C2H4)]
 Deg. of freedom    12
 Full point group                 C1      NOp   1
 Largest Abelian subgroup         C1      NOp   1
 Largest concise Abelian subgroup C1      NOp   1
                         Standard orientation:                         
 ---------------------------------------------------------------------
 Center     Atomic      Atomic             Coordinates (Angstroms)
 Number     Number       Type             X           Y           Z
 ---------------------------------------------------------------------
      1          6           0        0.697091   -0.007866   -0.000008
      2          6           0       -0.697509   -0.007747   -0.000149
      3          1           0       -1.243189    0.931899    0.000432
      4          1           0        1.202417   -0.883639    0.000210
      5          1           0        1.243591    0.931308    0.000022
      6          1           0       -1.200314   -0.885885    0.000276
 ---------------------------------------------------------------------
 Rotational constants (GHZ):         151.8398410          28.5608209          24.0391065
 Standard basis: 6-31G(d) (6D, 7F)
 There are    38 symmetry adapted cartesian basis functions of A   symmetry.
 There are    38 symmetry adapted basis functions of A   symmetry.
    38 basis functions,    72 primitive gaussians,    38 cartesian basis functions
     8 alpha electrons        8 beta electrons
       nuclear repulsion energy        33.1265809083 Hartrees.
 NAtoms=    6 NActive=    6 NUniq=    6 SFac= 1.00D+00 NAtFMM=   60 NAOKFM=F Big=F
 Integral buffers will be    131072 words long.
 Raffenetti 2 integral format.
 Two-electron integral symmetry is turned on.
 One-electron integrals computed using PRISM.
 NBasis=    38 RedAO= T EigKep=  8.98D-03  NBF=    38
 NBsUse=    38 1.00D-06 EigRej= -1.00D+00 NBFU=    38
 ExpMin= 1.61D-01 ExpMax= 3.05D+03 ExpMxC= 4.57D+02 IAcc=3 IRadAn=         5 AccDes= 0.00D+00
 Harris functional with IExCor=  402 and IRadAn=       5 diagonalized for initial guess.
 HarFok:  IExCor=  402 AccDes= 0.00D+00 IRadAn=         5 IDoV= 1 UseB2=F ITyADJ=14
 ICtDFT=  3500011 ScaDFX=  1.000000  1.000000  1.000000  1.000000
 FoFCou: FMM=F IPFlag=           0 FMFlag=      100000 FMFlg1=           0
         NFxFlg=           0 DoJE=T BraDBF=F KetDBF=T FulRan=T
         wScrn=  0.000000 ICntrl=       500 IOpCl=  0 I1Cent=   200000004 NGrid=           0
         NMat0=    1 NMatS0=      1 NMatT0=    0 NMatD0=    1 NMtDS0=    0 NMtDT0=    0
 Petite list used in FoFCou.
 Keep R1 ints in memory in canonical form, NReq=2001149.
 Requested convergence on RMS density matrix=1.00D-08 within 128 cycles.
 Requested convergence on MAX density matrix=1.00D-06.
 Requested convergence on             energy=1.00D-06.
 No special actions if energy rises.
 Integral accuracy reduced to 1.0D-05 until final iterations.
 Initial convergence to 1.0D-05 achieved.  Increase integral accuracy.
 SCF Done:  E(RB3LYP) =  -78.5747317773     A.U. after   11 cycles
            NFock= 11  Conv=0.20D-08     -V/T= 2.0095

 **********************************************************************

            Population analysis using the SCF density.

 **********************************************************************

 Orbital symmetries:
       Occupied  (A) (A) (A) (A) (A) (A) (A) (A)
       Virtual   (A) (A) (A) (A) (A) (A) (A) (A) (A) (A) (A) (A)
                 (A) (A) (A) (A) (A) (A) (A) (A) (A) (A) (A) (A)
                 (A) (A) (A) (A) (A) (A)
 The electronic state is 1-A.
 Alpha  occ. eigenvalues --  -10.18343 -10.18285  -0.74735  -0.59118  -0.47298
 Alpha  occ. eigenvalues --   -0.40389  -0.37192  -0.25589
 Alpha virt. eigenvalues --    0.00557   0.12427   0.16224   0.16785   0.24429
 Alpha virt. eigenvalues --    0.30992   0.49210   0.55736   0.55793   0.63306
 Alpha virt. eigenvalues --    0.65232   0.65817   0.88014   0.88285   0.96166
 Alpha virt. eigenvalues --    0.97859   1.08344   1.23438   1.44798   1.55848
 Alpha virt. eigenvalues --    1.80137   1.92199   2.00867   2.07464   2.31392
 Alpha virt. eigenvalues --    2.32238   2.64466   2.66937   4.08459   4.27132
          Condensed to atoms (all electrons):
               1          2          3          4          5          6
     1  C    4.936542   0.665560  -0.033202   0.385357   0.378243  -0.036639
     2  C    0.665560   4.936289   0.378238  -0.036478  -0.033172   0.385318
     3  H   -0.033202   0.378238   0.556453   0.005095  -0.007727  -0.043267
     4  H    0.385357  -0.036478   0.005095   0.546539  -0.043540  -0.008510
     5  H    0.378243  -0.033172  -0.007727  -0.043540   0.556882   0.005103
     6  H   -0.036639   0.385318  -0.043267  -0.008510   0.005103   0.546539
 Mulliken charges:
               1
     1  C   -0.295861
     2  C   -0.295755
     3  H    0.144409
     4  H    0.151539
     5  H    0.144211
     6  H    0.151457
 Sum of Mulliken charges =  -0.00000
 Mulliken charges with hydrogens summed into heavy atoms:
               1
     1  C   -0.000111
     2  C    0.000111
 Electronic spatial extent (au):  <R**2>=             82.9603
 Charge=             -0.0000 electrons
 Dipole moment (field-independent basis, Debye):
    X=              0.0009    Y=             -0.0458    Z=              0.0009  Tot=              0.0459
 Quadrupole moment (field-independent basis, Debye-Ang):
   XX=            -11.9875   YY=            -11.9513   ZZ=            -15.0432
   XY=             -0.0029   XZ=             -0.0006   YZ=             -0.0000
 Traceless Quadrupole moment (field-independent basis, Debye-Ang):
   XX=              1.0065   YY=              1.0427   ZZ=             -2.0492
   XY=             -0.0029   XZ=             -0.0006   YZ=             -0.0000
 Octapole moment (field-independent basis, Debye-Ang**2):
  XXX=              0.0155  YYY=             -0.1784  ZZZ=              0.0013  XYY=             -0.0057
  XXY=             -0.0191  XXZ=              0.0019  XZZ=              0.0019  YZZ=             -0.1313
  YYZ=              0.0011  XYZ=             -0.0004
 Hexadecapole moment (field-independent basis, Debye-Ang**3):
 XXXX=            -68.1231 YYYY=            -24.8500 ZZZZ=            -15.7389 XXXY=             -0.0128
 XXXZ=             -0.0015 YYYX=             -0.0035 YYYZ=             -0.0000 ZZZX=             -0.0005
 ZZZY=             -0.0001 XXYY=            -13.3066 XXZZ=            -14.7634 YYZZ=             -7.3097
 XXYZ=              0.0000 YYXZ=             -0.0008 ZZXY=             -0.0015
 N-N= 3.312658090828D+01 E-N=-2.476497471535D+02  KE= 7.783619775935D+01
 1\1\GINC-NODE60\SP\RB3LYP\6-31G(d)\C2H4\YANZ\22-Sep-2023\0\\# b3lyp/6-
 31g(d)\\tmpdir/M2_conf_0_100.gjf\\0,1\C,0,0.,0.,0.\C,0,1.3946,0.,0.\H,
 0,1.94036,0.,0.9396\H,0,-0.5054,0.00076,-0.87573\H,0,-0.54642,-0.00066
 ,0.93922\H,0,1.89733,0.00107,-0.87818\\Version=ES64L-G16RevA.03\State=
 1-A\HF=-78.5747318\RMSD=1.994e-09\Dipole=-0.0003586,0.0003494,-0.01803
 61\Quadrupole=0.7483059,-1.5235258,0.7752198,0.0006473,0.0021612,-0.00
 15715\PG=C01 [X(C2H4)]\\@


 Other things may change us, but we start and end with family.
 -- Anthony Brandt
 Job cpu time:       0 days  0 hours  0 minutes  6.2 seconds.
 Elapsed time:       0 days  0 hours  0 minutes  3.2 seconds.
 File lengths (MBytes):  RWF=      6 Int=      0 D2E=      0 Chk=      1 Scr=      1
 Normal termination of Gaussian 16 at Fri Sep 22 17:02:49 2023.
