 Entering Gaussian System, Link 0=g16
 Initial command:
 /share/apps/gaussian/g16/l1.exe "/tmp/55621.mgr/Gau-120451.inp" -scrdir="/tmp/55621.mgr/"
 Entering Link 1 = /share/apps/gaussian/g16/l1.exe PID=    120452.
  
 Copyright (c) 1988,1990,1992,1993,1995,1998,2003,2009,2016,
            Gaussian, Inc.  All Rights Reserved.
  
 This is part of the Gaussian(R) 16 program.  It is based on
 the Gaussian(R) 09 system (copyright 2009, Gaussian, Inc.),
 the Gaussian(R) 03 system (copyright 2003, Gaussian, Inc.),
 the Gaussian(R) 98 system (copyright 1998, Gaussian, Inc.),
 the Gaussian(R) 94 system (copyright 1995, Gaussian, Inc.),
 the Gaussian 92(TM) system (copyright 1992, Gaussian, Inc.),
 the Gaussian 90(TM) system (copyright 1990, Gaussian, Inc.),
 the Gaussian 88(TM) system (copyright 1988, Gaussian, Inc.),
 the Gaussian 86(TM) system (copyright 1986, Carnegie Mellon
 University), and the Gaussian 82(TM) system (copyright 1983,
 Carnegie Mellon University). Gaussian is a federally registered
 trademark of Gaussian, Inc.
  
 This software contains proprietary and confidential information,
 including trade secrets, belonging to Gaussian, Inc.
  
 This software is provided under written license and may be
 used, copied, transmitted, or stored only in accord with that
 written license.
  
 The following legend is applicable only to US Government
 contracts under FAR:
  
                    RESTRICTED RIGHTS LEGEND
  
 Use, reproduction and disclosure by the US Government is
 subject to restrictions as set forth in subparagraphs (a)
 and (c) of the Commercial Computer Software - Restricted
 Rights clause in FAR 52.227-19.
  
 Gaussian, Inc.
 340 Quinnipiac St., Bldg. 40, Wallingford CT 06492
  
  
 ---------------------------------------------------------------
 Warning -- This program may not be used in any manner that
 competes with the business of Gaussian, Inc. or will provide
 assistance to any competitor of Gaussian, Inc.  The licensee
 of this program is prohibited from giving any competitor of
 Gaussian, Inc. access to this program.  By using this program,
 the user acknowledges that Gaussian, Inc. is engaged in the
 business of creating and licensing software in the field of
 computational chemistry and represents and warrants to the
 licensee that it is not a competitor of Gaussian, Inc. and that
 it will not use this program in any manner prohibited above.
 ---------------------------------------------------------------
  

 Cite this work as:
 Gaussian 16, Revision A.03,
 M. J. Frisch, G. W. Trucks, H. B. Schlegel, G. E. Scuseria, 
 M. A. Robb, J. R. Cheeseman, G. Scalmani, V. Barone, 
 G. A. Petersson, H. Nakatsuji, X. Li, M. Caricato, A. V. Marenich, 
 J. Bloino, B. G. Janesko, R. Gomperts, B. Mennucci, H. P. Hratchian, 
 J. V. Ortiz, A. F. Izmaylov, J. L. Sonnenberg, D. Williams-Young, 
 F. Ding, F. Lipparini, F. Egidi, J. Goings, B. Peng, A. Petrone, 
 T. Henderson, D. Ranasinghe, V. G. Zakrzewski, J. Gao, N. Rega, 
 G. Zheng, W. Liang, M. Hada, M. Ehara, K. Toyota, R. Fukuda, 
 J. Hasegawa, M. Ishida, T. Nakajima, Y. Honda, O. Kitao, H. Nakai, 
 T. Vreven, K. Throssell, J. A. Montgomery, Jr., J. E. Peralta, 
 F. Ogliaro, M. J. Bearpark, J. J. Heyd, E. N. Brothers, K. N. Kudin, 
 V. N. Staroverov, T. A. Keith, R. Kobayashi, J. Normand, 
 K. Raghavachari, A. P. Rendell, J. C. Burant, S. S. Iyengar, 
 J. Tomasi, M. Cossi, J. M. Millam, M. Klene, C. Adamo, R. Cammi, 
 J. W. Ochterski, R. L. Martin, K. Morokuma, O. Farkas, 
 J. B. Foresman, and D. J. Fox, Gaussian, Inc., Wallingford CT, 2016.
 
 ******************************************
 Gaussian 16:  ES64L-G16RevA.03 25-Dec-2016
                22-Sep-2023 
 ******************************************
 %nprocshared=2
 Will use up to    2 processors via shared memory.
 %mem=2GB
 ----------------
 # b3lyp/6-31g(d)
 ----------------
 1/38=1,172=1/1;
 2/12=2,17=6,18=5,40=1/2;
 3/5=1,6=6,7=1,11=2,25=1,30=1,74=-5/1,2,3;
 4//1;
 5/5=2,38=5/2;
 6/7=2,8=2,9=2,10=2,28=1/1;
 99/5=1,9=1/99;
 -----------------------
 tmpdir/M2_conf_0_85.gjf
 -----------------------
 Symbolic Z-matrix:
 Charge =  0 Multiplicity = 1
 C                     0.        0.        0. 
 C                     1.3991    0.        0. 
 H                     1.93547   0.        0.94649 
 H                    -0.55783  -0.02385   0.94219 
 H                    -0.49152   0.00124  -0.88782 
 H                     1.9141    0.00425  -0.87011 
 
                          Input orientation:                          
 ---------------------------------------------------------------------
 Center     Atomic      Atomic             Coordinates (Angstroms)
 Number     Number       Type             X           Y           Z
 ---------------------------------------------------------------------
      1          6           0        0.000000    0.000000    0.000000
      2          6           0        1.399100    0.000000    0.000000
      3          1           0        1.935470    0.000000    0.946490
      4          1           0       -0.557830   -0.023850    0.942190
      5          1           0       -0.491520    0.001240   -0.887820
      6          1           0        1.914100    0.004250   -0.870110
 ---------------------------------------------------------------------
                    Distance matrix (angstroms):
                    1          2          3          4          5
     1  C    0.000000
     2  C    1.399100   0.000000
     3  H    2.154504   1.087904   0.000000
     4  H    1.095201   2.172065   2.493418   0.000000
     5  H    1.014799   2.088701   3.042199   1.831383   0.000000
     6  H    2.102591   1.011106   1.816731   3.065234   2.405687
                    6
     6  H    0.000000
 Stoichiometry    C2H4
 Framework group  C1[X(C2H4)]
 Deg. of freedom    12
 Full point group                 C1      NOp   1
 Largest Abelian subgroup         C1      NOp   1
 Largest concise Abelian subgroup C1      NOp   1
                         Standard orientation:                         
 ---------------------------------------------------------------------
 Center     Atomic      Atomic             Coordinates (Angstroms)
 Number     Number       Type             X           Y           Z
 ---------------------------------------------------------------------
      1          6           0       -0.699655   -0.009371   -0.003058
      2          6           0        0.699437   -0.006992    0.000896
      3          1           0        1.234217    0.940378   -0.005291
      4          1           0       -1.259130    0.932033    0.011547
      5          1           0       -1.189680   -0.898006    0.001537
      6          1           0        1.215905   -0.876231    0.005182
 ---------------------------------------------------------------------
 Rotational constants (GHZ):         150.6430224          28.4008438          23.8964198
 Standard basis: 6-31G(d) (6D, 7F)
 There are    38 symmetry adapted cartesian basis functions of A   symmetry.
 There are    38 symmetry adapted basis functions of A   symmetry.
    38 basis functions,    72 primitive gaussians,    38 cartesian basis functions
     8 alpha electrons        8 beta electrons
       nuclear repulsion energy        33.0273552979 Hartrees.
 NAtoms=    6 NActive=    6 NUniq=    6 SFac= 1.00D+00 NAtFMM=   60 NAOKFM=F Big=F
 Integral buffers will be    131072 words long.
 Raffenetti 2 integral format.
 Two-electron integral symmetry is turned on.
 One-electron integrals computed using PRISM.
 NBasis=    38 RedAO= T EigKep=  9.10D-03  NBF=    38
 NBsUse=    38 1.00D-06 EigRej= -1.00D+00 NBFU=    38
 ExpMin= 1.61D-01 ExpMax= 3.05D+03 ExpMxC= 4.57D+02 IAcc=3 IRadAn=         5 AccDes= 0.00D+00
 Harris functional with IExCor=  402 and IRadAn=       5 diagonalized for initial guess.
 HarFok:  IExCor=  402 AccDes= 0.00D+00 IRadAn=         5 IDoV= 1 UseB2=F ITyADJ=14
 ICtDFT=  3500011 ScaDFX=  1.000000  1.000000  1.000000  1.000000
 FoFCou: FMM=F IPFlag=           0 FMFlag=      100000 FMFlg1=           0
         NFxFlg=           0 DoJE=T BraDBF=F KetDBF=T FulRan=T
         wScrn=  0.000000 ICntrl=       500 IOpCl=  0 I1Cent=   200000004 NGrid=           0
         NMat0=    1 NMatS0=      1 NMatT0=    0 NMatD0=    1 NMtDS0=    0 NMtDT0=    0
 Petite list used in FoFCou.
 Keep R1 ints in memory in canonical form, NReq=2001149.
 Requested convergence on RMS density matrix=1.00D-08 within 128 cycles.
 Requested convergence on MAX density matrix=1.00D-06.
 Requested convergence on             energy=1.00D-06.
 No special actions if energy rises.
 Integral accuracy reduced to 1.0D-05 until final iterations.
 Initial convergence to 1.0D-05 achieved.  Increase integral accuracy.
 SCF Done:  E(RB3LYP) =  -78.5743738544     A.U. after   11 cycles
            NFock= 11  Conv=0.23D-08     -V/T= 2.0099

 **********************************************************************

            Population analysis using the SCF density.

 **********************************************************************

 Orbital symmetries:
       Occupied  (A) (A) (A) (A) (A) (A) (A) (A)
       Virtual   (A) (A) (A) (A) (A) (A) (A) (A) (A) (A) (A) (A)
                 (A) (A) (A) (A) (A) (A) (A) (A) (A) (A) (A) (A)
                 (A) (A) (A) (A) (A) (A)
 The electronic state is 1-A.
 Alpha  occ. eigenvalues --  -10.18503 -10.18378  -0.74615  -0.59057  -0.47219
 Alpha  occ. eigenvalues --   -0.40285  -0.37181  -0.25528
 Alpha virt. eigenvalues --    0.00465   0.12292   0.16146   0.16669   0.24339
 Alpha virt. eigenvalues --    0.30812   0.49323   0.55785   0.55825   0.63248
 Alpha virt. eigenvalues --    0.65216   0.65544   0.87576   0.88172   0.95904
 Alpha virt. eigenvalues --    0.97661   1.08178   1.23242   1.44749   1.56044
 Alpha virt. eigenvalues --    1.79992   1.91908   2.00301   2.07256   2.30832
 Alpha virt. eigenvalues --    2.31833   2.64047   2.66083   4.08125   4.27053
          Condensed to atoms (all electrons):
               1          2          3          4          5          6
     1  C    4.940844   0.662725  -0.033641   0.377066   0.384829  -0.035768
     2  C    0.662725   4.939956   0.378037  -0.032458  -0.037445   0.385168
     3  H   -0.033641   0.378037   0.557565  -0.007527   0.005121  -0.043347
     4  H    0.377066  -0.032458  -0.007527   0.555818  -0.042299   0.004862
     5  H    0.384829  -0.037445   0.005121  -0.042299   0.546786  -0.008314
     6  H   -0.035768   0.385168  -0.043347   0.004862  -0.008314   0.545012
 Mulliken charges:
               1
     1  C   -0.296056
     2  C   -0.295983
     3  H    0.143792
     4  H    0.144538
     5  H    0.151322
     6  H    0.152387
 Sum of Mulliken charges =  -0.00000
 Mulliken charges with hydrogens summed into heavy atoms:
               1
     1  C   -0.000196
     2  C    0.000196
 Electronic spatial extent (au):  <R**2>=             83.2975
 Charge=             -0.0000 electrons
 Dipole moment (field-independent basis, Debye):
    X=              0.0034    Y=             -0.0480    Z=              0.0119  Tot=              0.0495
 Quadrupole moment (field-independent basis, Debye-Ang):
   XX=            -11.9978   YY=            -11.9469   ZZ=            -15.0696
   XY=             -0.0464   XZ=             -0.0157   YZ=             -0.0003
 Traceless Quadrupole moment (field-independent basis, Debye-Ang):
   XX=              1.0069   YY=              1.0579   ZZ=             -2.0649
   XY=             -0.0464   XZ=             -0.0157   YZ=             -0.0003
 Octapole moment (field-independent basis, Debye-Ang**2):
  XXX=              0.0615  YYY=             -0.1853  ZZZ=              0.0180  XYY=             -0.0168
  XXY=             -0.0187  XXZ=              0.0272  XZZ=              0.0169  YZZ=             -0.1373
  YYZ=              0.0156  XYZ=             -0.0258
 Hexadecapole moment (field-independent basis, Debye-Ang**3):
 XXXX=            -68.5343 YYYY=            -24.9652 ZZZZ=            -15.7856 XXXY=             -0.2257
 XXXZ=             -0.0405 YYYX=             -0.0161 YYYZ=             -0.0007 ZZZX=             -0.0134
 ZZZY=             -0.0014 XXYY=            -13.3501 XXZZ=            -14.8508 YYZZ=             -7.3469
 XXYZ=              0.0011 YYXZ=             -0.0225 ZZXY=             -0.0076
 N-N= 3.302735529791D+01 E-N=-2.474299940551D+02  KE= 7.780787588873D+01
 1\1\GINC-NODE60\SP\RB3LYP\6-31G(d)\C2H4\YANZ\22-Sep-2023\0\\# b3lyp/6-
 31g(d)\\tmpdir/M2_conf_0_85.gjf\\0,1\C,0,0.,0.,0.\C,0,1.3991,0.,0.\H,0
 ,1.93547,0.,0.94649\H,0,-0.55783,-0.02385,0.94219\H,0,-0.49152,0.00124
 ,-0.88782\H,0,1.9141,0.00425,-0.87011\\Version=ES64L-G16RevA.03\State=
 1-A\HF=-78.5743739\RMSD=2.345e-09\Dipole=0.0013148,-0.0045048,-0.01891
 81\Quadrupole=0.7484331,-1.5349358,0.7865028,0.0183784,-0.0342724,-0.0
 187745\PG=C01 [X(C2H4)]\\@


 KNOWLEDGE IS OF TWO KINDS:  WE KNOW A SUBJECT OURSELVES OR WE KNOW 
 WHERE WE CAN FIND INFORMATION UPON IT.

                                    -- SAMUEL JOHNSON
 Job cpu time:       0 days  0 hours  0 minutes  6.0 seconds.
 Elapsed time:       0 days  0 hours  0 minutes  3.1 seconds.
 File lengths (MBytes):  RWF=      6 Int=      0 D2E=      0 Chk=      1 Scr=      1
 Normal termination of Gaussian 16 at Fri Sep 22 17:02:46 2023.
