 Entering Gaussian System, Link 0=g16
 Initial command:
 /share/apps/gaussian/g16/l1.exe "/tmp/55621.mgr/Gau-119523.inp" -scrdir="/tmp/55621.mgr/"
 Entering Link 1 = /share/apps/gaussian/g16/l1.exe PID=    119524.
  
 Copyright (c) 1988,1990,1992,1993,1995,1998,2003,2009,2016,
            Gaussian, Inc.  All Rights Reserved.
  
 This is part of the Gaussian(R) 16 program.  It is based on
 the Gaussian(R) 09 system (copyright 2009, Gaussian, Inc.),
 the Gaussian(R) 03 system (copyright 2003, Gaussian, Inc.),
 the Gaussian(R) 98 system (copyright 1998, Gaussian, Inc.),
 the Gaussian(R) 94 system (copyright 1995, Gaussian, Inc.),
 the Gaussian 92(TM) system (copyright 1992, Gaussian, Inc.),
 the Gaussian 90(TM) system (copyright 1990, Gaussian, Inc.),
 the Gaussian 88(TM) system (copyright 1988, Gaussian, Inc.),
 the Gaussian 86(TM) system (copyright 1986, Carnegie Mellon
 University), and the Gaussian 82(TM) system (copyright 1983,
 Carnegie Mellon University). Gaussian is a federally registered
 trademark of Gaussian, Inc.
  
 This software contains proprietary and confidential information,
 including trade secrets, belonging to Gaussian, Inc.
  
 This software is provided under written license and may be
 used, copied, transmitted, or stored only in accord with that
 written license.
  
 The following legend is applicable only to US Government
 contracts under FAR:
  
                    RESTRICTED RIGHTS LEGEND
  
 Use, reproduction and disclosure by the US Government is
 subject to restrictions as set forth in subparagraphs (a)
 and (c) of the Commercial Computer Software - Restricted
 Rights clause in FAR 52.227-19.
  
 Gaussian, Inc.
 340 Quinnipiac St., Bldg. 40, Wallingford CT 06492
  
  
 ---------------------------------------------------------------
 Warning -- This program may not be used in any manner that
 competes with the business of Gaussian, Inc. or will provide
 assistance to any competitor of Gaussian, Inc.  The licensee
 of this program is prohibited from giving any competitor of
 Gaussian, Inc. access to this program.  By using this program,
 the user acknowledges that Gaussian, Inc. is engaged in the
 business of creating and licensing software in the field of
 computational chemistry and represents and warrants to the
 licensee that it is not a competitor of Gaussian, Inc. and that
 it will not use this program in any manner prohibited above.
 ---------------------------------------------------------------
  

 Cite this work as:
 Gaussian 16, Revision A.03,
 M. J. Frisch, G. W. Trucks, H. B. Schlegel, G. E. Scuseria, 
 M. A. Robb, J. R. Cheeseman, G. Scalmani, V. Barone, 
 G. A. Petersson, H. Nakatsuji, X. Li, M. Caricato, A. V. Marenich, 
 J. Bloino, B. G. Janesko, R. Gomperts, B. Mennucci, H. P. Hratchian, 
 J. V. Ortiz, A. F. Izmaylov, J. L. Sonnenberg, D. Williams-Young, 
 F. Ding, F. Lipparini, F. Egidi, J. Goings, B. Peng, A. Petrone, 
 T. Henderson, D. Ranasinghe, V. G. Zakrzewski, J. Gao, N. Rega, 
 G. Zheng, W. Liang, M. Hada, M. Ehara, K. Toyota, R. Fukuda, 
 J. Hasegawa, M. Ishida, T. Nakajima, Y. Honda, O. Kitao, H. Nakai, 
 T. Vreven, K. Throssell, J. A. Montgomery, Jr., J. E. Peralta, 
 F. Ogliaro, M. J. Bearpark, J. J. Heyd, E. N. Brothers, K. N. Kudin, 
 V. N. Staroverov, T. A. Keith, R. Kobayashi, J. Normand, 
 K. Raghavachari, A. P. Rendell, J. C. Burant, S. S. Iyengar, 
 J. Tomasi, M. Cossi, J. M. Millam, M. Klene, C. Adamo, R. Cammi, 
 J. W. Ochterski, R. L. Martin, K. Morokuma, O. Farkas, 
 J. B. Foresman, and D. J. Fox, Gaussian, Inc., Wallingford CT, 2016.
 
 ******************************************
 Gaussian 16:  ES64L-G16RevA.03 25-Dec-2016
                22-Sep-2023 
 ******************************************
 %nprocshared=2
 Will use up to    2 processors via shared memory.
 %mem=2GB
 ----------------
 # b3lyp/6-31g(d)
 ----------------
 1/38=1,172=1/1;
 2/12=2,17=6,18=5,40=1/2;
 3/5=1,6=6,7=1,11=2,25=1,30=1,74=-5/1,2,3;
 4//1;
 5/5=2,38=5/2;
 6/7=2,8=2,9=2,10=2,28=1/1;
 99/5=1,9=1/99;
 -----------------------
 tmpdir/M2_conf_0_36.gjf
 -----------------------
 Symbolic Z-matrix:
 Charge =  0 Multiplicity = 1
 H                     0.        0.        0. 
 C                     1.0989    0.        0. 
 C                     1.56928   0.        1.38173 
 H                     1.4824   -0.93911  -0.48783 
 H                     1.41312   0.88063  -0.5743 
 N                     1.94932  -0.39726   2.35154 
 
                          Input orientation:                          
 ---------------------------------------------------------------------
 Center     Atomic      Atomic             Coordinates (Angstroms)
 Number     Number       Type             X           Y           Z
 ---------------------------------------------------------------------
      1          1           0        0.000000    0.000000    0.000000
      2          6           0        1.098900    0.000000    0.000000
      3          6           0        1.569280    0.000000    1.381730
      4          1           0        1.482400   -0.939110   -0.487830
      5          1           0        1.413120    0.880630   -0.574300
      6          7           0        1.949320   -0.397260    2.351540
 ---------------------------------------------------------------------
                    Distance matrix (angstroms):
                    1          2          3          4          5
     1  H    0.000000
     2  C    1.098900   0.000000
     3  C    2.090889   1.459601   0.000000
     4  H    1.821377   1.125601   2.093975   0.000000
     5  H    1.761317   1.097298   2.150802   1.823110   0.000000
     6  N    3.080163   2.531950   1.114799   2.928077   3.237445
                    6
     6  N    0.000000
 Stoichiometry    C2H3N
 Framework group  C1[X(C2H3N)]
 Deg. of freedom    12
 Full point group                 C1      NOp   1
 Largest Abelian subgroup         C1      NOp   1
 Largest concise Abelian subgroup C1      NOp   1
                         Standard orientation:                         
 ---------------------------------------------------------------------
 Center     Atomic      Atomic             Coordinates (Angstroms)
 Number     Number       Type             X           Y           Z
 ---------------------------------------------------------------------
      1          1           0        1.517968   -0.217419    1.006794
      2          6           0        1.148812    0.034733    0.002939
      3          6           0       -0.295824   -0.170734   -0.032338
      4          1           0        1.341161    1.122266   -0.214435
      5          1           0        1.702809   -0.596441   -0.703298
      6          7           0       -1.382838    0.072515    0.012476
 ---------------------------------------------------------------------
 Rotational constants (GHZ):         136.9086447           9.7562392           9.6564948
 Standard basis: 6-31G(d) (6D, 7F)
 There are    51 symmetry adapted cartesian basis functions of A   symmetry.
 There are    51 symmetry adapted basis functions of A   symmetry.
    51 basis functions,    96 primitive gaussians,    51 cartesian basis functions
    11 alpha electrons       11 beta electrons
       nuclear repulsion energy        59.3742452227 Hartrees.
 NAtoms=    6 NActive=    6 NUniq=    6 SFac= 1.00D+00 NAtFMM=   60 NAOKFM=F Big=F
 Integral buffers will be    131072 words long.
 Raffenetti 2 integral format.
 Two-electron integral symmetry is turned on.
 One-electron integrals computed using PRISM.
 NBasis=    51 RedAO= T EigKep=  2.12D-03  NBF=    51
 NBsUse=    51 1.00D-06 EigRej= -1.00D+00 NBFU=    51
 ExpMin= 1.61D-01 ExpMax= 4.17D+03 ExpMxC= 6.27D+02 IAcc=3 IRadAn=         5 AccDes= 0.00D+00
 Harris functional with IExCor=  402 and IRadAn=       5 diagonalized for initial guess.
 HarFok:  IExCor=  402 AccDes= 0.00D+00 IRadAn=         5 IDoV= 1 UseB2=F ITyADJ=14
 ICtDFT=  3500011 ScaDFX=  1.000000  1.000000  1.000000  1.000000
 FoFCou: FMM=F IPFlag=           0 FMFlag=      100000 FMFlg1=           0
         NFxFlg=           0 DoJE=T BraDBF=F KetDBF=T FulRan=T
         wScrn=  0.000000 ICntrl=       500 IOpCl=  0 I1Cent=   200000004 NGrid=           0
         NMat0=    1 NMatS0=      1 NMatT0=    0 NMatD0=    1 NMtDS0=    0 NMtDT0=    0
 Petite list used in FoFCou.
 Keep R1 ints in memory in canonical form, NReq=2623252.
 Requested convergence on RMS density matrix=1.00D-08 within 128 cycles.
 Requested convergence on MAX density matrix=1.00D-06.
 Requested convergence on             energy=1.00D-06.
 No special actions if energy rises.
 Integral accuracy reduced to 1.0D-05 until final iterations.
 Initial convergence to 1.0D-05 achieved.  Increase integral accuracy.
 SCF Done:  E(RB3LYP) =  -132.742466205     A.U. after   13 cycles
            NFock= 13  Conv=0.36D-08     -V/T= 2.0081

 **********************************************************************

            Population analysis using the SCF density.

 **********************************************************************

 Orbital symmetries:
       Occupied  (A) (A) (A) (A) (A) (A) (A) (A) (A) (A) (A)
       Virtual   (A) (A) (A) (A) (A) (A) (A) (A) (A) (A) (A) (A)
                 (A) (A) (A) (A) (A) (A) (A) (A) (A) (A) (A) (A)
                 (A) (A) (A) (A) (A) (A) (A) (A) (A) (A) (A) (A)
                 (A) (A) (A) (A)
 The electronic state is 1-A.
 Alpha  occ. eigenvalues --  -14.32327 -10.24087 -10.21990  -0.92083  -0.77038
 Alpha  occ. eigenvalues --   -0.50912  -0.46306  -0.45950  -0.35784  -0.33565
 Alpha  occ. eigenvalues --   -0.33323
 Alpha virt. eigenvalues --    0.02477   0.05154   0.09258   0.14305   0.16144
 Alpha virt. eigenvalues --    0.23058   0.30057   0.52460   0.53311   0.56925
 Alpha virt. eigenvalues --    0.61911   0.62348   0.69090   0.76068   0.80659
 Alpha virt. eigenvalues --    0.82164   0.84596   0.85898   0.88681   1.03583
 Alpha virt. eigenvalues --    1.35012   1.40999   1.42178   1.50731   1.52069
 Alpha virt. eigenvalues --    1.63623   1.85552   1.89328   1.98750   2.06074
 Alpha virt. eigenvalues --    2.17560   2.20083   2.26547   2.71383   2.77074
 Alpha virt. eigenvalues --    2.84030   3.21485   3.94773   4.07389   4.50645
          Condensed to atoms (all electrons):
               1          2          3          4          5          6
     1  H    0.507803   0.368344  -0.028596  -0.022667  -0.028278  -0.000706
     2  C    0.368344   5.154072   0.339623   0.380926   0.358045  -0.076707
     3  C   -0.028596   0.339623   4.527397  -0.034738  -0.018726   0.922419
     4  H   -0.022667   0.380926  -0.034738   0.496814  -0.024174  -0.005027
     5  H   -0.028278   0.358045  -0.018726  -0.024174   0.513629   0.001737
     6  N   -0.000706  -0.076707   0.922419  -0.005027   0.001737   6.537334
 Mulliken charges:
               1
     1  H    0.204099
     2  C   -0.524303
     3  C    0.292621
     4  H    0.208867
     5  H    0.197767
     6  N   -0.379050
 Sum of Mulliken charges =  -0.00000
 Mulliken charges with hydrogens summed into heavy atoms:
               1
     2  C    0.086430
     3  C    0.292621
     6  N   -0.379050
 Electronic spatial extent (au):  <R**2>=            155.8239
 Charge=             -0.0000 electrons
 Dipole moment (field-independent basis, Debye):
    X=              3.6146    Y=             -0.1119    Z=              0.0035  Tot=              3.6163
 Quadrupole moment (field-independent basis, Debye-Ang):
   XX=            -20.3195   YY=            -17.0255   ZZ=            -17.2202
   XY=              0.2392   XZ=              0.0627   YZ=             -0.0614
 Traceless Quadrupole moment (field-independent basis, Debye-Ang):
   XX=             -2.1311   YY=              1.1629   ZZ=              0.9682
   XY=              0.2392   XZ=              0.0627   YZ=             -0.0614
 Octapole moment (field-independent basis, Debye-Ang**2):
  XXX=              9.9340  YYY=              1.1815  ZZZ=              0.6527  XYY=              1.3366
  XXY=             -0.7829  XXZ=             -0.1810  XZZ=              1.2583  YZZ=             -0.4103
  YYZ=             -0.4175  XYZ=              0.0174
 Hexadecapole moment (field-independent basis, Debye-Ang**3):
 XXXX=           -167.2366 YYYY=            -23.1120 ZZZZ=            -22.2104 XXXY=             -0.0087
 XXXZ=             -0.1793 YYYX=              1.1145 YYYZ=             -0.2437 ZZZX=              0.8923
 ZZZY=             -0.0851 XXYY=            -28.7446 XXZZ=            -28.2090 YYZZ=             -7.8115
 XXYZ=              0.2126 YYXZ=             -0.7004 ZZXY=             -0.8729
 N-N= 5.937424522274D+01 E-N=-4.270899344684D+02  KE= 1.316800852804D+02
 1\1\GINC-NODE60\SP\RB3LYP\6-31G(d)\C2H3N1\YANZ\22-Sep-2023\0\\# b3lyp/
 6-31g(d)\\tmpdir/M2_conf_0_36.gjf\\0,1\H,0,0.,0.,0.\C,0,1.0989,0.,0.\C
 ,0,1.56928,0.,1.38173\H,0,1.4824,-0.93911,-0.48783\H,0,1.41312,0.88063
 ,-0.5743\N,0,1.94932,-0.39726,2.35154\\Version=ES64L-G16RevA.03\State=
 1-A\HF=-132.7424662\RMSD=3.574e-09\Dipole=-0.4890809,0.2428,-1.3138169
 \Quadrupole=0.4877623,0.7266929,-1.2144552,0.1026629,-0.7300339,0.5099
 425\PG=C01 [X(C2H3N1)]\\@


 TIME GOES, YOU SAY?  AH NO!
 ALAS, TIME STAYS, WE GO.
    -- A. DOBSON (1840-1921)
 Job cpu time:       0 days  0 hours  0 minutes  8.6 seconds.
 Elapsed time:       0 days  0 hours  0 minutes  4.4 seconds.
 File lengths (MBytes):  RWF=      6 Int=      0 D2E=      0 Chk=      1 Scr=      1
 Normal termination of Gaussian 16 at Fri Sep 22 17:02:22 2023.
