 Entering Gaussian System, Link 0=g16
 Initial command:
 /share/apps/gaussian/g16/l1.exe "/tmp/55621.mgr/Gau-119768.inp" -scrdir="/tmp/55621.mgr/"
 Entering Link 1 = /share/apps/gaussian/g16/l1.exe PID=    119769.
  
 Copyright (c) 1988,1990,1992,1993,1995,1998,2003,2009,2016,
            Gaussian, Inc.  All Rights Reserved.
  
 This is part of the Gaussian(R) 16 program.  It is based on
 the Gaussian(R) 09 system (copyright 2009, Gaussian, Inc.),
 the Gaussian(R) 03 system (copyright 2003, Gaussian, Inc.),
 the Gaussian(R) 98 system (copyright 1998, Gaussian, Inc.),
 the Gaussian(R) 94 system (copyright 1995, Gaussian, Inc.),
 the Gaussian 92(TM) system (copyright 1992, Gaussian, Inc.),
 the Gaussian 90(TM) system (copyright 1990, Gaussian, Inc.),
 the Gaussian 88(TM) system (copyright 1988, Gaussian, Inc.),
 the Gaussian 86(TM) system (copyright 1986, Carnegie Mellon
 University), and the Gaussian 82(TM) system (copyright 1983,
 Carnegie Mellon University). Gaussian is a federally registered
 trademark of Gaussian, Inc.
  
 This software contains proprietary and confidential information,
 including trade secrets, belonging to Gaussian, Inc.
  
 This software is provided under written license and may be
 used, copied, transmitted, or stored only in accord with that
 written license.
  
 The following legend is applicable only to US Government
 contracts under FAR:
  
                    RESTRICTED RIGHTS LEGEND
  
 Use, reproduction and disclosure by the US Government is
 subject to restrictions as set forth in subparagraphs (a)
 and (c) of the Commercial Computer Software - Restricted
 Rights clause in FAR 52.227-19.
  
 Gaussian, Inc.
 340 Quinnipiac St., Bldg. 40, Wallingford CT 06492
  
  
 ---------------------------------------------------------------
 Warning -- This program may not be used in any manner that
 competes with the business of Gaussian, Inc. or will provide
 assistance to any competitor of Gaussian, Inc.  The licensee
 of this program is prohibited from giving any competitor of
 Gaussian, Inc. access to this program.  By using this program,
 the user acknowledges that Gaussian, Inc. is engaged in the
 business of creating and licensing software in the field of
 computational chemistry and represents and warrants to the
 licensee that it is not a competitor of Gaussian, Inc. and that
 it will not use this program in any manner prohibited above.
 ---------------------------------------------------------------
  

 Cite this work as:
 Gaussian 16, Revision A.03,
 M. J. Frisch, G. W. Trucks, H. B. Schlegel, G. E. Scuseria, 
 M. A. Robb, J. R. Cheeseman, G. Scalmani, V. Barone, 
 G. A. Petersson, H. Nakatsuji, X. Li, M. Caricato, A. V. Marenich, 
 J. Bloino, B. G. Janesko, R. Gomperts, B. Mennucci, H. P. Hratchian, 
 J. V. Ortiz, A. F. Izmaylov, J. L. Sonnenberg, D. Williams-Young, 
 F. Ding, F. Lipparini, F. Egidi, J. Goings, B. Peng, A. Petrone, 
 T. Henderson, D. Ranasinghe, V. G. Zakrzewski, J. Gao, N. Rega, 
 G. Zheng, W. Liang, M. Hada, M. Ehara, K. Toyota, R. Fukuda, 
 J. Hasegawa, M. Ishida, T. Nakajima, Y. Honda, O. Kitao, H. Nakai, 
 T. Vreven, K. Throssell, J. A. Montgomery, Jr., J. E. Peralta, 
 F. Ogliaro, M. J. Bearpark, J. J. Heyd, E. N. Brothers, K. N. Kudin, 
 V. N. Staroverov, T. A. Keith, R. Kobayashi, J. Normand, 
 K. Raghavachari, A. P. Rendell, J. C. Burant, S. S. Iyengar, 
 J. Tomasi, M. Cossi, J. M. Millam, M. Klene, C. Adamo, R. Cammi, 
 J. W. Ochterski, R. L. Martin, K. Morokuma, O. Farkas, 
 J. B. Foresman, and D. J. Fox, Gaussian, Inc., Wallingford CT, 2016.
 
 ******************************************
 Gaussian 16:  ES64L-G16RevA.03 25-Dec-2016
                22-Sep-2023 
 ******************************************
 %nprocshared=2
 Will use up to    2 processors via shared memory.
 %mem=2GB
 ----------------
 # b3lyp/6-31g(d)
 ----------------
 1/38=1,172=1/1;
 2/12=2,17=6,18=5,40=1/2;
 3/5=1,6=6,7=1,11=2,25=1,30=1,74=-5/1,2,3;
 4//1;
 5/5=2,38=5/2;
 6/7=2,8=2,9=2,10=2,28=1/1;
 99/5=1,9=1/99;
 -----------------------
 tmpdir/M2_conf_0_43.gjf
 -----------------------
 Symbolic Z-matrix:
 Charge =  0 Multiplicity = 1
 C                     0.        0.        0. 
 C                     1.555     0.        0. 
 H                     1.88237   0.        1.04785 
 H                    -0.35957   0.84488   0.61474 
 H                    -0.29631   0.14816  -1.00574 
 H                    -0.44426  -0.9943    0.42575 
 H                     2.04407   0.85542  -0.53848 
 H                     1.87476  -0.9537   -0.43724 
 
                          Input orientation:                          
 ---------------------------------------------------------------------
 Center     Atomic      Atomic             Coordinates (Angstroms)
 Number     Number       Type             X           Y           Z
 ---------------------------------------------------------------------
      1          6           0        0.000000    0.000000    0.000000
      2          6           0        1.555000    0.000000    0.000000
      3          1           0        1.882370    0.000000    1.047850
      4          1           0       -0.359570    0.844880    0.614740
      5          1           0       -0.296310    0.148160   -1.005740
      6          1           0       -0.444260   -0.994300    0.425750
      7          1           0        2.044070    0.855420   -0.538480
      8          1           0        1.874760   -0.953700   -0.437240
 ---------------------------------------------------------------------
                    Distance matrix (angstroms):
                    1          2          3          4          5
     1  C    0.000000
     2  C    1.555000   0.000000
     3  H    2.154369   1.097798   0.000000
     4  H    1.104997   2.181125   2.434687   0.000000
     5  H    1.058898   2.112064   2.997637   1.765043   0.000000
     6  H    1.169300   2.273090   2.605542   1.850803   1.837462
     7  H    2.280335   1.122895   1.809512   2.665992   2.489162
     8  H    2.148359   1.096799   1.764963   3.055124   2.500167
                    6          7          8
     6  H    0.000000
     7  H    3.246997   0.000000
     8  H    2.474723   1.819844   0.000000
 Stoichiometry    C2H6
 Framework group  C1[X(C2H6)]
 Deg. of freedom    18
 Full point group                 C1      NOp   1
 Largest Abelian subgroup         C1      NOp   1
 Largest concise Abelian subgroup C1      NOp   1
                         Standard orientation:                         
 ---------------------------------------------------------------------
 Center     Atomic      Atomic             Coordinates (Angstroms)
 Number     Number       Type             X           Y           Z
 ---------------------------------------------------------------------
      1          6           0        0.779265   -0.018744   -0.009273
      2          6           0       -0.775525    0.004161    0.002011
      3          1           0       -1.090311    0.376953    0.985421
      4          1           0        1.136645   -0.599139    0.860463
      5          1           0        1.061833   -0.514998   -0.900985
      6          1           0        1.239739    1.055082    0.036813
      7          1           0       -1.280591   -0.978573   -0.198080
      8          1           0       -1.089753    0.748178   -0.740060
 ---------------------------------------------------------------------
 Rotational constants (GHZ):          76.9954417          19.6823156          19.4622809
 Standard basis: 6-31G(d) (6D, 7F)
 There are    42 symmetry adapted cartesian basis functions of A   symmetry.
 There are    42 symmetry adapted basis functions of A   symmetry.
    42 basis functions,    80 primitive gaussians,    42 cartesian basis functions
     9 alpha electrons        9 beta electrons
       nuclear repulsion energy        41.6792098276 Hartrees.
 NAtoms=    8 NActive=    8 NUniq=    8 SFac= 1.00D+00 NAtFMM=   60 NAOKFM=F Big=F
 Integral buffers will be    131072 words long.
 Raffenetti 2 integral format.
 Two-electron integral symmetry is turned on.
 One-electron integrals computed using PRISM.
 NBasis=    42 RedAO= T EigKep=  8.65D-03  NBF=    42
 NBsUse=    42 1.00D-06 EigRej= -1.00D+00 NBFU=    42
 ExpMin= 1.61D-01 ExpMax= 3.05D+03 ExpMxC= 4.57D+02 IAcc=3 IRadAn=         5 AccDes= 0.00D+00
 Harris functional with IExCor=  402 and IRadAn=       5 diagonalized for initial guess.
 HarFok:  IExCor=  402 AccDes= 0.00D+00 IRadAn=         5 IDoV= 1 UseB2=F ITyADJ=14
 ICtDFT=  3500011 ScaDFX=  1.000000  1.000000  1.000000  1.000000
 FoFCou: FMM=F IPFlag=           0 FMFlag=      100000 FMFlg1=           0
         NFxFlg=           0 DoJE=T BraDBF=F KetDBF=T FulRan=T
         wScrn=  0.000000 ICntrl=       500 IOpCl=  0 I1Cent=   200000004 NGrid=           0
         NMat0=    1 NMatS0=      1 NMatT0=    0 NMatD0=    1 NMtDS0=    0 NMtDT0=    0
 Petite list used in FoFCou.
 Keep R1 ints in memory in canonical form, NReq=2135132.
 Requested convergence on RMS density matrix=1.00D-08 within 128 cycles.
 Requested convergence on MAX density matrix=1.00D-06.
 Requested convergence on             energy=1.00D-06.
 No special actions if energy rises.
 Integral accuracy reduced to 1.0D-05 until final iterations.
 Initial convergence to 1.0D-05 achieved.  Increase integral accuracy.
 SCF Done:  E(RB3LYP) =  -79.8225506968     A.U. after   10 cycles
            NFock= 10  Conv=0.19D-08     -V/T= 2.0121

 **********************************************************************

            Population analysis using the SCF density.

 **********************************************************************

 Orbital symmetries:
       Occupied  (A) (A) (A) (A) (A) (A) (A) (A) (A)
       Virtual   (A) (A) (A) (A) (A) (A) (A) (A) (A) (A) (A) (A)
                 (A) (A) (A) (A) (A) (A) (A) (A) (A) (A) (A) (A)
                 (A) (A) (A) (A) (A) (A) (A) (A) (A)
 The electronic state is 1-A.
 Alpha  occ. eigenvalues --  -10.17807 -10.17590  -0.74322  -0.60617  -0.43368
 Alpha  occ. eigenvalues --   -0.42642  -0.35572  -0.34029  -0.33602
 Alpha virt. eigenvalues --    0.09895   0.13751   0.15982   0.17063   0.18578
 Alpha virt. eigenvalues --    0.19457   0.22922   0.51676   0.54941   0.55187
 Alpha virt. eigenvalues --    0.61104   0.65584   0.66426   0.85076   0.87901
 Alpha virt. eigenvalues --    0.88508   0.91493   0.93237   0.97632   1.06436
 Alpha virt. eigenvalues --    1.42834   1.50096   1.53792   1.89837   1.96925
 Alpha virt. eigenvalues --    2.05108   2.18878   2.27823   2.28285   2.32946
 Alpha virt. eigenvalues --    2.58118   4.13024   4.35947
          Condensed to atoms (all electrons):
               1          2          3          4          5          6
     1  C    5.025768   0.365501  -0.039182   0.381301   0.384546   0.375829
     2  C    0.365501   5.033412   0.381331  -0.037201  -0.042123  -0.029308
     3  H   -0.039182   0.381331   0.578541  -0.005830   0.005416  -0.001848
     4  H    0.381301  -0.037201  -0.005830   0.575852  -0.031720  -0.029319
     5  H    0.384546  -0.042123   0.005416  -0.031720   0.562068  -0.027455
     6  H    0.375829  -0.029308  -0.001848  -0.029319  -0.027455   0.584892
     7  H   -0.027899   0.379901  -0.030492  -0.001471  -0.004444   0.003357
     8  H   -0.039149   0.381216  -0.032100   0.004967  -0.002514  -0.005115
               7          8
     1  C   -0.027899  -0.039149
     2  C    0.379901   0.381216
     3  H   -0.030492  -0.032100
     4  H   -0.001471   0.004967
     5  H   -0.004444  -0.002514
     6  H    0.003357  -0.005115
     7  H    0.568988  -0.029202
     8  H   -0.029202   0.576500
 Mulliken charges:
               1
     1  C   -0.426715
     2  C   -0.432727
     3  H    0.144164
     4  H    0.143422
     5  H    0.156226
     6  H    0.128968
     7  H    0.141263
     8  H    0.145399
 Sum of Mulliken charges =  -0.00000
 Mulliken charges with hydrogens summed into heavy atoms:
               1
     1  C    0.001902
     2  C   -0.001902
 Electronic spatial extent (au):  <R**2>=            111.0294
 Charge=             -0.0000 electrons
 Dipole moment (field-independent basis, Debye):
    X=             -0.0137    Y=             -0.0270    Z=             -0.0235  Tot=              0.0383
 Quadrupole moment (field-independent basis, Debye-Ang):
   XX=            -15.5667   YY=            -14.5956   ZZ=            -14.7739
   XY=              0.1859   XZ=              0.0554   YZ=              0.0335
 Traceless Quadrupole moment (field-independent basis, Debye-Ang):
   XX=             -0.5880   YY=              0.3831   ZZ=              0.2048
   XY=              0.1859   XZ=              0.0554   YZ=              0.0335
 Octapole moment (field-independent basis, Debye-Ang**2):
  XXX=             -0.2320  YYY=              0.0425  ZZZ=              0.1399  XYY=             -0.0174
  XXY=             -0.1827  XXZ=              0.0014  XZZ=              0.0505  YZZ=             -0.1617
  YYZ=             -0.2617  XYZ=             -0.0330
 Hexadecapole moment (field-independent basis, Debye-Ang**3):
 XXXX=            -94.8542 YYYY=            -30.0143 ZZZZ=            -28.4966 XXXY=              0.8164
 XXXZ=              0.2031 YYYX=              1.1281 YYYZ=             -0.0001 ZZZX=             -0.4639
 ZZZY=              0.1151 XXYY=            -19.1807 XXZZ=            -19.8550 YYZZ=             -9.6731
 XXYZ=              0.0817 YYXZ=              0.4376 ZZXY=             -1.1647
 N-N= 4.167920982761D+01 E-N=-2.670823971952D+02  KE= 7.886789066034D+01
 1\1\GINC-NODE60\SP\RB3LYP\6-31G(d)\C2H6\YANZ\22-Sep-2023\0\\# b3lyp/6-
 31g(d)\\tmpdir/M2_conf_0_43.gjf\\0,1\C,0,0.,0.,0.\C,0,1.555,0.,0.\H,0,
 1.88237,0.,1.04785\H,0,-0.35957,0.84488,0.61474\H,0,-0.29631,0.14816,-
 1.00574\H,0,-0.44426,-0.9943,0.42575\H,0,2.04407,0.85542,-0.53848\H,0,
 1.87476,-0.9537,-0.43724\\Version=ES64L-G16RevA.03\State=1-A\HF=-79.82
 25507\RMSD=1.908e-09\Dipole=0.0051744,0.0067388,-0.0124586\Quadrupole=
 -0.4416086,0.2545822,0.1870264,0.1063567,-0.0789284,-0.064637\PG=C01 [
 X(C2H6)]\\@


 STEINBACH'S GUIDELINES FOR SYSTEMS PROGRAMMING:
 NEVER TEST FOR AN ERROR CONDITION YOU DON'T KNOW HOW
 TO HANDLE.
 Job cpu time:       0 days  0 hours  0 minutes  8.3 seconds.
 Elapsed time:       0 days  0 hours  0 minutes  4.2 seconds.
 File lengths (MBytes):  RWF=      6 Int=      0 D2E=      0 Chk=      1 Scr=      1
 Normal termination of Gaussian 16 at Fri Sep 22 17:02:28 2023.
