 Entering Gaussian System, Link 0=g16
 Initial command:
 /share/apps/gaussian/g16/l1.exe "/tmp/55621.mgr/Gau-118444.inp" -scrdir="/tmp/55621.mgr/"
 Entering Link 1 = /share/apps/gaussian/g16/l1.exe PID=    118445.
  
 Copyright (c) 1988,1990,1992,1993,1995,1998,2003,2009,2016,
            Gaussian, Inc.  All Rights Reserved.
  
 This is part of the Gaussian(R) 16 program.  It is based on
 the Gaussian(R) 09 system (copyright 2009, Gaussian, Inc.),
 the Gaussian(R) 03 system (copyright 2003, Gaussian, Inc.),
 the Gaussian(R) 98 system (copyright 1998, Gaussian, Inc.),
 the Gaussian(R) 94 system (copyright 1995, Gaussian, Inc.),
 the Gaussian 92(TM) system (copyright 1992, Gaussian, Inc.),
 the Gaussian 90(TM) system (copyright 1990, Gaussian, Inc.),
 the Gaussian 88(TM) system (copyright 1988, Gaussian, Inc.),
 the Gaussian 86(TM) system (copyright 1986, Carnegie Mellon
 University), and the Gaussian 82(TM) system (copyright 1983,
 Carnegie Mellon University). Gaussian is a federally registered
 trademark of Gaussian, Inc.
  
 This software contains proprietary and confidential information,
 including trade secrets, belonging to Gaussian, Inc.
  
 This software is provided under written license and may be
 used, copied, transmitted, or stored only in accord with that
 written license.
  
 The following legend is applicable only to US Government
 contracts under FAR:
  
                    RESTRICTED RIGHTS LEGEND
  
 Use, reproduction and disclosure by the US Government is
 subject to restrictions as set forth in subparagraphs (a)
 and (c) of the Commercial Computer Software - Restricted
 Rights clause in FAR 52.227-19.
  
 Gaussian, Inc.
 340 Quinnipiac St., Bldg. 40, Wallingford CT 06492
  
  
 ---------------------------------------------------------------
 Warning -- This program may not be used in any manner that
 competes with the business of Gaussian, Inc. or will provide
 assistance to any competitor of Gaussian, Inc.  The licensee
 of this program is prohibited from giving any competitor of
 Gaussian, Inc. access to this program.  By using this program,
 the user acknowledges that Gaussian, Inc. is engaged in the
 business of creating and licensing software in the field of
 computational chemistry and represents and warrants to the
 licensee that it is not a competitor of Gaussian, Inc. and that
 it will not use this program in any manner prohibited above.
 ---------------------------------------------------------------
  

 Cite this work as:
 Gaussian 16, Revision A.03,
 M. J. Frisch, G. W. Trucks, H. B. Schlegel, G. E. Scuseria, 
 M. A. Robb, J. R. Cheeseman, G. Scalmani, V. Barone, 
 G. A. Petersson, H. Nakatsuji, X. Li, M. Caricato, A. V. Marenich, 
 J. Bloino, B. G. Janesko, R. Gomperts, B. Mennucci, H. P. Hratchian, 
 J. V. Ortiz, A. F. Izmaylov, J. L. Sonnenberg, D. Williams-Young, 
 F. Ding, F. Lipparini, F. Egidi, J. Goings, B. Peng, A. Petrone, 
 T. Henderson, D. Ranasinghe, V. G. Zakrzewski, J. Gao, N. Rega, 
 G. Zheng, W. Liang, M. Hada, M. Ehara, K. Toyota, R. Fukuda, 
 J. Hasegawa, M. Ishida, T. Nakajima, Y. Honda, O. Kitao, H. Nakai, 
 T. Vreven, K. Throssell, J. A. Montgomery, Jr., J. E. Peralta, 
 F. Ogliaro, M. J. Bearpark, J. J. Heyd, E. N. Brothers, K. N. Kudin, 
 V. N. Staroverov, T. A. Keith, R. Kobayashi, J. Normand, 
 K. Raghavachari, A. P. Rendell, J. C. Burant, S. S. Iyengar, 
 J. Tomasi, M. Cossi, J. M. Millam, M. Klene, C. Adamo, R. Cammi, 
 J. W. Ochterski, R. L. Martin, K. Morokuma, O. Farkas, 
 J. B. Foresman, and D. J. Fox, Gaussian, Inc., Wallingford CT, 2016.
 
 ******************************************
 Gaussian 16:  ES64L-G16RevA.03 25-Dec-2016
                22-Sep-2023 
 ******************************************
 %nprocshared=2
 Will use up to    2 processors via shared memory.
 %mem=2GB
 ----------------
 # b3lyp/6-31g(d)
 ----------------
 1/38=1,172=1/1;
 2/12=2,17=6,18=5,40=1/2;
 3/5=1,6=6,7=1,11=2,25=1,30=1,74=-5/1,2,3;
 4//1;
 5/5=2,38=5/2;
 6/7=2,8=2,9=2,10=2,28=1/1;
 99/5=1,9=1/99;
 --------------------
 tmpdir/M2_ref_44.gjf
 --------------------
 Symbolic Z-matrix:
 Charge =  0 Multiplicity = 1
 C                     1.27729  -0.2263    0.32118 
 C                     0.76846   1.14678  -0.20198 
 H                     0.73576   1.07979  -1.29627 
 H                     1.51941  -0.13441   1.39535 
 H                     0.47392  -0.90544   0.20056 
 H                     2.22785  -0.59522  -0.25126 
 H                    -0.22684   1.48298   0.19466 
 H                     1.52179   1.90552   0.04701 
 
                          Input orientation:                          
 ---------------------------------------------------------------------
 Center     Atomic      Atomic             Coordinates (Angstroms)
 Number     Number       Type             X           Y           Z
 ---------------------------------------------------------------------
      1          6           0        1.277293   -0.226303    0.321176
      2          6           0        0.768456    1.146780   -0.201981
      3          1           0        0.735760    1.079786   -1.296274
      4          1           0        1.519410   -0.134405    1.395353
      5          1           0        0.473919   -0.905440    0.200559
      6          1           0        2.227847   -0.595220   -0.251257
      7          1           0       -0.226842    1.482977    0.194656
      8          1           0        1.521792    1.905516    0.047011
 ---------------------------------------------------------------------
                    Distance matrix (angstroms):
                    1          2          3          4          5
     1  C    0.000000
     2  C    1.554981   0.000000
     3  H    2.148318   1.096829   0.000000
     4  H    1.104953   2.181019   3.055032   0.000000
     5  H    1.058861   2.111965   2.500038   1.764959   0.000000
     6  H    1.169330   2.273063   2.474678   1.850826   1.837563
     7  H    2.280366   1.122929   1.819901   2.665895   2.489104
     8  H    2.163238   1.097813   1.761843   2.445263   3.003846
                    6          7          8
     6  H    0.000000
     7  H    3.247036   0.000000
     8  H    2.615561   1.805010   0.000000
 Stoichiometry    C2H6
 Framework group  C1[X(C2H6)]
 Deg. of freedom    18
 Full point group                 C1      NOp   1
 Largest Abelian subgroup         C1      NOp   1
 Largest concise Abelian subgroup C1      NOp   1
                         Standard orientation:                         
 ---------------------------------------------------------------------
 Center     Atomic      Atomic             Coordinates (Angstroms)
 Number     Number       Type             X           Y           Z
 ---------------------------------------------------------------------
      1          6           0        0.779965   -0.018390   -0.008711
      2          6           0       -0.774819    0.004009    0.001721
      3          1           0       -1.088694    0.754269   -0.734232
      4          1           0        1.136821   -0.606167    0.856214
      5          1           0        1.063179   -0.506950   -0.904414
      6          1           0        1.240085    1.055165    0.046974
      7          1           0       -1.279534   -0.977129   -0.207088
      8          1           0       -1.102734    0.367101    0.984487
 ---------------------------------------------------------------------
 Rotational constants (GHZ):          77.0885237          19.6675635          19.4430136
 Standard basis: 6-31G(d) (6D, 7F)
 There are    42 symmetry adapted cartesian basis functions of A   symmetry.
 There are    42 symmetry adapted basis functions of A   symmetry.
    42 basis functions,    80 primitive gaussians,    42 cartesian basis functions
     9 alpha electrons        9 beta electrons
       nuclear repulsion energy        41.6726266226 Hartrees.
 NAtoms=    8 NActive=    8 NUniq=    8 SFac= 1.00D+00 NAtFMM=   60 NAOKFM=F Big=F
 Integral buffers will be    131072 words long.
 Raffenetti 2 integral format.
 Two-electron integral symmetry is turned on.
 One-electron integrals computed using PRISM.
 NBasis=    42 RedAO= T EigKep=  8.68D-03  NBF=    42
 NBsUse=    42 1.00D-06 EigRej= -1.00D+00 NBFU=    42
 ExpMin= 1.61D-01 ExpMax= 3.05D+03 ExpMxC= 4.57D+02 IAcc=3 IRadAn=         5 AccDes= 0.00D+00
 Harris functional with IExCor=  402 and IRadAn=       5 diagonalized for initial guess.
 HarFok:  IExCor=  402 AccDes= 0.00D+00 IRadAn=         5 IDoV= 1 UseB2=F ITyADJ=14
 ICtDFT=  3500011 ScaDFX=  1.000000  1.000000  1.000000  1.000000
 FoFCou: FMM=F IPFlag=           0 FMFlag=      100000 FMFlg1=           0
         NFxFlg=           0 DoJE=T BraDBF=F KetDBF=T FulRan=T
         wScrn=  0.000000 ICntrl=       500 IOpCl=  0 I1Cent=   200000004 NGrid=           0
         NMat0=    1 NMatS0=      1 NMatT0=    0 NMatD0=    1 NMtDS0=    0 NMtDT0=    0
 Petite list used in FoFCou.
 Keep R1 ints in memory in canonical form, NReq=2135132.
 Requested convergence on RMS density matrix=1.00D-08 within 128 cycles.
 Requested convergence on MAX density matrix=1.00D-06.
 Requested convergence on             energy=1.00D-06.
 No special actions if energy rises.
 Integral accuracy reduced to 1.0D-05 until final iterations.
 Initial convergence to 1.0D-05 achieved.  Increase integral accuracy.
 SCF Done:  E(RB3LYP) =  -79.8226961304     A.U. after   10 cycles
            NFock= 10  Conv=0.16D-08     -V/T= 2.0121

 **********************************************************************

            Population analysis using the SCF density.

 **********************************************************************

 Orbital symmetries:
       Occupied  (A) (A) (A) (A) (A) (A) (A) (A) (A)
       Virtual   (A) (A) (A) (A) (A) (A) (A) (A) (A) (A) (A) (A)
                 (A) (A) (A) (A) (A) (A) (A) (A) (A) (A) (A) (A)
                 (A) (A) (A) (A) (A) (A) (A) (A) (A)
 The electronic state is 1-A.
 Alpha  occ. eigenvalues --  -10.17821 -10.17589  -0.74311  -0.60647  -0.43323
 Alpha  occ. eigenvalues --   -0.42640  -0.35569  -0.34053  -0.33619
 Alpha virt. eigenvalues --    0.09913   0.13751   0.15993   0.17017   0.18585
 Alpha virt. eigenvalues --    0.19466   0.22951   0.51692   0.54856   0.55186
 Alpha virt. eigenvalues --    0.61187   0.65579   0.66440   0.85097   0.87930
 Alpha virt. eigenvalues --    0.88487   0.91485   0.93202   0.97624   1.06400
 Alpha virt. eigenvalues --    1.42905   1.50158   1.53781   1.89821   1.96807
 Alpha virt. eigenvalues --    2.04819   2.18878   2.27889   2.28516   2.32912
 Alpha virt. eigenvalues --    2.58080   4.13010   4.35955
          Condensed to atoms (all electrons):
               1          2          3          4          5          6
     1  C    5.024334   0.365713  -0.039208   0.381228   0.384667   0.375840
     2  C    0.365713   5.033736   0.381146  -0.037200  -0.041980  -0.029319
     3  H   -0.039208   0.381146   0.576943   0.004967  -0.002530  -0.005097
     4  H    0.381228  -0.037200   0.004967   0.575662  -0.031736  -0.029261
     5  H    0.384667  -0.041980  -0.002530  -0.031736   0.561725  -0.027481
     6  H    0.375840  -0.029319  -0.005097  -0.029261  -0.027481   0.584742
     7  H   -0.027937   0.379832  -0.029039  -0.001454  -0.004459   0.003355
     8  H   -0.038219   0.381209  -0.032493  -0.005738   0.005336  -0.001824
               7          8
     1  C   -0.027937  -0.038219
     2  C    0.379832   0.381209
     3  H   -0.029039  -0.032493
     4  H   -0.001454  -0.005738
     5  H   -0.004459   0.005336
     6  H    0.003355  -0.001824
     7  H    0.569577  -0.030992
     8  H   -0.030992   0.578633
 Mulliken charges:
               1
     1  C   -0.426418
     2  C   -0.433136
     3  H    0.145311
     4  H    0.143533
     5  H    0.156459
     6  H    0.129045
     7  H    0.141118
     8  H    0.144089
 Sum of Mulliken charges =  -0.00000
 Mulliken charges with hydrogens summed into heavy atoms:
               1
     1  C    0.002619
     2  C   -0.002619
 Electronic spatial extent (au):  <R**2>=            111.0885
 Charge=             -0.0000 electrons
 Dipole moment (field-independent basis, Debye):
    X=             -0.0145    Y=             -0.0267    Z=             -0.0241  Tot=              0.0387
 Quadrupole moment (field-independent basis, Debye-Ang):
   XX=            -15.5460   YY=            -14.5979   ZZ=            -14.7827
   XY=              0.1782   XZ=              0.0409   YZ=              0.0324
 Traceless Quadrupole moment (field-independent basis, Debye-Ang):
   XX=             -0.5704   YY=              0.3776   ZZ=              0.1928
   XY=              0.1782   XZ=              0.0409   YZ=              0.0324
 Octapole moment (field-independent basis, Debye-Ang**2):
  XXX=             -0.2560  YYY=              0.0528  ZZZ=              0.1282  XYY=             -0.0123
  XXY=             -0.1731  XXZ=              0.0236  XZZ=              0.0542  YZZ=             -0.1727
  YYZ=             -0.2569  XYZ=             -0.0323
 Hexadecapole moment (field-independent basis, Debye-Ang**3):
 XXXX=            -94.9047 YYYY=            -30.0149 ZZZZ=            -28.4871 XXXY=              0.7881
 XXXZ=              0.1489 YYYX=              1.1083 YYYZ=             -0.0040 ZZZX=             -0.5114
 ZZZY=              0.1079 XXYY=            -19.1986 XXZZ=            -19.8497 YYZZ=             -9.6739
 XXYZ=              0.0970 YYXZ=              0.4602 ZZXY=             -1.1561
 N-N= 4.167262662255D+01 E-N=-2.670684296580D+02  KE= 7.886716704888D+01
 1\1\GINC-NODE60\SP\RB3LYP\6-31G(d)\C2H6\YANZ\22-Sep-2023\0\\# b3lyp/6-
 31g(d)\\tmpdir/M2_ref_44.gjf\\0,1\C,0,1.277293,-0.226303,0.321176\C,0,
 0.768456,1.14678,-0.201981\H,0,0.73576,1.079786,-1.296274\H,0,1.51941,
 -0.134405,1.395353\H,0,0.47391853,-0.90543982,0.20055922\H,0,2.2278467
 2,-0.59522038,-0.25125675\H,0,-0.22684237,1.48297727,0.19465641\H,0,1.
 521792,1.905516,0.047011\\Version=ES64L-G16RevA.03\State=1-A\HF=-79.82
 26961\RMSD=1.639e-09\Dipole=-0.015233,0.0004086,-0.0003833\Quadrupole=
 0.2437733,-0.3231739,0.0794007,0.0859852,-0.1210041,0.2270806\PG=C01 [
 X(C2H6)]\\@


 LOVE IS BLIND, THAT'S WHY ALL THE WORLD LOVES A LOUVER.
 Job cpu time:       0 days  0 hours  0 minutes  8.2 seconds.
 Elapsed time:       0 days  0 hours  0 minutes  4.2 seconds.
 File lengths (MBytes):  RWF=      6 Int=      0 D2E=      0 Chk=      1 Scr=      1
 Normal termination of Gaussian 16 at Fri Sep 22 17:01:49 2023.
