 Entering Gaussian System, Link 0=g16
 Initial command:
 /share/apps/gaussian/g16/l1.exe "/tmp/55621.mgr/Gau-117982.inp" -scrdir="/tmp/55621.mgr/"
 Entering Link 1 = /share/apps/gaussian/g16/l1.exe PID=    117984.
  
 Copyright (c) 1988,1990,1992,1993,1995,1998,2003,2009,2016,
            Gaussian, Inc.  All Rights Reserved.
  
 This is part of the Gaussian(R) 16 program.  It is based on
 the Gaussian(R) 09 system (copyright 2009, Gaussian, Inc.),
 the Gaussian(R) 03 system (copyright 2003, Gaussian, Inc.),
 the Gaussian(R) 98 system (copyright 1998, Gaussian, Inc.),
 the Gaussian(R) 94 system (copyright 1995, Gaussian, Inc.),
 the Gaussian 92(TM) system (copyright 1992, Gaussian, Inc.),
 the Gaussian 90(TM) system (copyright 1990, Gaussian, Inc.),
 the Gaussian 88(TM) system (copyright 1988, Gaussian, Inc.),
 the Gaussian 86(TM) system (copyright 1986, Carnegie Mellon
 University), and the Gaussian 82(TM) system (copyright 1983,
 Carnegie Mellon University). Gaussian is a federally registered
 trademark of Gaussian, Inc.
  
 This software contains proprietary and confidential information,
 including trade secrets, belonging to Gaussian, Inc.
  
 This software is provided under written license and may be
 used, copied, transmitted, or stored only in accord with that
 written license.
  
 The following legend is applicable only to US Government
 contracts under FAR:
  
                    RESTRICTED RIGHTS LEGEND
  
 Use, reproduction and disclosure by the US Government is
 subject to restrictions as set forth in subparagraphs (a)
 and (c) of the Commercial Computer Software - Restricted
 Rights clause in FAR 52.227-19.
  
 Gaussian, Inc.
 340 Quinnipiac St., Bldg. 40, Wallingford CT 06492
  
  
 ---------------------------------------------------------------
 Warning -- This program may not be used in any manner that
 competes with the business of Gaussian, Inc. or will provide
 assistance to any competitor of Gaussian, Inc.  The licensee
 of this program is prohibited from giving any competitor of
 Gaussian, Inc. access to this program.  By using this program,
 the user acknowledges that Gaussian, Inc. is engaged in the
 business of creating and licensing software in the field of
 computational chemistry and represents and warrants to the
 licensee that it is not a competitor of Gaussian, Inc. and that
 it will not use this program in any manner prohibited above.
 ---------------------------------------------------------------
  

 Cite this work as:
 Gaussian 16, Revision A.03,
 M. J. Frisch, G. W. Trucks, H. B. Schlegel, G. E. Scuseria, 
 M. A. Robb, J. R. Cheeseman, G. Scalmani, V. Barone, 
 G. A. Petersson, H. Nakatsuji, X. Li, M. Caricato, A. V. Marenich, 
 J. Bloino, B. G. Janesko, R. Gomperts, B. Mennucci, H. P. Hratchian, 
 J. V. Ortiz, A. F. Izmaylov, J. L. Sonnenberg, D. Williams-Young, 
 F. Ding, F. Lipparini, F. Egidi, J. Goings, B. Peng, A. Petrone, 
 T. Henderson, D. Ranasinghe, V. G. Zakrzewski, J. Gao, N. Rega, 
 G. Zheng, W. Liang, M. Hada, M. Ehara, K. Toyota, R. Fukuda, 
 J. Hasegawa, M. Ishida, T. Nakajima, Y. Honda, O. Kitao, H. Nakai, 
 T. Vreven, K. Throssell, J. A. Montgomery, Jr., J. E. Peralta, 
 F. Ogliaro, M. J. Bearpark, J. J. Heyd, E. N. Brothers, K. N. Kudin, 
 V. N. Staroverov, T. A. Keith, R. Kobayashi, J. Normand, 
 K. Raghavachari, A. P. Rendell, J. C. Burant, S. S. Iyengar, 
 J. Tomasi, M. Cossi, J. M. Millam, M. Klene, C. Adamo, R. Cammi, 
 J. W. Ochterski, R. L. Martin, K. Morokuma, O. Farkas, 
 J. B. Foresman, and D. J. Fox, Gaussian, Inc., Wallingford CT, 2016.
 
 ******************************************
 Gaussian 16:  ES64L-G16RevA.03 25-Dec-2016
                22-Sep-2023 
 ******************************************
 %nprocshared=2
 Will use up to    2 processors via shared memory.
 %mem=2GB
 ----------------
 # b3lyp/6-31g(d)
 ----------------
 1/38=1,172=1/1;
 2/12=2,17=6,18=5,40=1/2;
 3/5=1,6=6,7=1,11=2,25=1,30=1,74=-5/1,2,3;
 4//1;
 5/5=2,38=5/2;
 6/7=2,8=2,9=2,10=2,28=1/1;
 99/5=1,9=1/99;
 -------------------
 tmpdir/M2_ref_7.gjf
 -------------------
 Symbolic Z-matrix:
 Charge =  0 Multiplicity = 1
 C                     0.76846   1.14678  -0.20198 
 C                    -0.60648   1.61121   0.34595 
 H                    -0.69479   1.32204   1.40231 
 H                     1.1368    0.15282   0.17673 
 H                     1.52179   1.90552   0.04701 
 H                     0.73576   1.07979  -1.29627 
 H                    -1.54263   1.30197  -0.21114 
 H                    -0.58315   2.70806   0.34805 
 
                          Input orientation:                          
 ---------------------------------------------------------------------
 Center     Atomic      Atomic             Coordinates (Angstroms)
 Number     Number       Type             X           Y           Z
 ---------------------------------------------------------------------
      1          6           0        0.768456    1.146780   -0.201981
      2          6           0       -0.606482    1.611214    0.345947
      3          1           0       -0.694786    1.322041    1.402307
      4          1           0        1.136796    0.152824    0.176725
      5          1           0        1.521792    1.905516    0.047011
      6          1           0        0.735760    1.079786   -1.296274
      7          1           0       -1.542626    1.301971   -0.211136
      8          1           0       -0.583150    2.708055    0.348052
 ---------------------------------------------------------------------
                    Distance matrix (angstroms):
                    1          2          3          4          5
     1  C    0.000000
     2  C    1.551251   0.000000
     3  H    2.178425   1.098779   0.000000
     4  H    1.125629   2.279156   2.494757   0.000000
     5  H    1.097813   2.169223   2.662797   1.799160   0.000000
     6  H    1.096829   2.186531   3.063901   1.786005   1.761843
     7  H    2.316305   1.132404   1.822754   2.941135   3.133937
     8  H    2.137043   1.097091   1.744979   3.084926   2.272768
                    6          7          8
     6  H    0.000000
     7  H    2.533364   0.000000
     8  H    2.663567   1.791747   0.000000
 Stoichiometry    C2H6
 Framework group  C1[X(C2H6)]
 Deg. of freedom    18
 Full point group                 C1      NOp   1
 Largest Abelian subgroup         C1      NOp   1
 Largest concise Abelian subgroup C1      NOp   1
                         Standard orientation:                         
 ---------------------------------------------------------------------
 Center     Atomic      Atomic             Coordinates (Angstroms)
 Number     Number       Type             X           Y           Z
 ---------------------------------------------------------------------
      1          6           0        0.775271    0.008584   -0.005640
      2          6           0       -0.775947    0.004482   -0.014716
      3          1           0       -1.134802   -0.800434   -0.670954
      4          1           0        1.271943   -0.225384   -0.988298
      5          1           0        1.125486   -0.722589    0.734581
      6          1           0        1.148407    0.988614    0.315835
      7          1           0       -1.317428    0.967082   -0.264792
      8          1           0       -1.089549   -0.285688    0.995762
 ---------------------------------------------------------------------
 Rotational constants (GHZ):          79.1055621          19.3837280          19.3251309
 Standard basis: 6-31G(d) (6D, 7F)
 There are    42 symmetry adapted cartesian basis functions of A   symmetry.
 There are    42 symmetry adapted basis functions of A   symmetry.
    42 basis functions,    80 primitive gaussians,    42 cartesian basis functions
     9 alpha electrons        9 beta electrons
       nuclear repulsion energy        41.6226265345 Hartrees.
 NAtoms=    8 NActive=    8 NUniq=    8 SFac= 1.00D+00 NAtFMM=   60 NAOKFM=F Big=F
 Integral buffers will be    131072 words long.
 Raffenetti 2 integral format.
 Two-electron integral symmetry is turned on.
 One-electron integrals computed using PRISM.
 NBasis=    42 RedAO= T EigKep=  8.84D-03  NBF=    42
 NBsUse=    42 1.00D-06 EigRej= -1.00D+00 NBFU=    42
 ExpMin= 1.61D-01 ExpMax= 3.05D+03 ExpMxC= 4.57D+02 IAcc=3 IRadAn=         5 AccDes= 0.00D+00
 Harris functional with IExCor=  402 and IRadAn=       5 diagonalized for initial guess.
 HarFok:  IExCor=  402 AccDes= 0.00D+00 IRadAn=         5 IDoV= 1 UseB2=F ITyADJ=14
 ICtDFT=  3500011 ScaDFX=  1.000000  1.000000  1.000000  1.000000
 FoFCou: FMM=F IPFlag=           0 FMFlag=      100000 FMFlg1=           0
         NFxFlg=           0 DoJE=T BraDBF=F KetDBF=T FulRan=T
         wScrn=  0.000000 ICntrl=       500 IOpCl=  0 I1Cent=   200000004 NGrid=           0
         NMat0=    1 NMatS0=      1 NMatT0=    0 NMatD0=    1 NMtDS0=    0 NMtDT0=    0
 Petite list used in FoFCou.
 Keep R1 ints in memory in canonical form, NReq=2135132.
 Requested convergence on RMS density matrix=1.00D-08 within 128 cycles.
 Requested convergence on MAX density matrix=1.00D-06.
 Requested convergence on             energy=1.00D-06.
 No special actions if energy rises.
 Integral accuracy reduced to 1.0D-05 until final iterations.
 Initial convergence to 1.0D-05 achieved.  Increase integral accuracy.
 SCF Done:  E(RB3LYP) =  -79.8243155516     A.U. after   10 cycles
            NFock= 10  Conv=0.31D-08     -V/T= 2.0122

 **********************************************************************

            Population analysis using the SCF density.

 **********************************************************************

 Orbital symmetries:
       Occupied  (A) (A) (A) (A) (A) (A) (A) (A) (A)
       Virtual   (A) (A) (A) (A) (A) (A) (A) (A) (A) (A) (A) (A)
                 (A) (A) (A) (A) (A) (A) (A) (A) (A) (A) (A) (A)
                 (A) (A) (A) (A) (A) (A) (A) (A) (A)
 The electronic state is 1-A.
 Alpha  occ. eigenvalues --  -10.17781 -10.17727  -0.74234  -0.60994  -0.42738
 Alpha  occ. eigenvalues --   -0.42566  -0.36223  -0.33836  -0.33573
 Alpha virt. eigenvalues --    0.10251   0.13689   0.14205   0.15633   0.20543
 Alpha virt. eigenvalues --    0.21613   0.23639   0.51816   0.54158   0.54260
 Alpha virt. eigenvalues --    0.65190   0.65842   0.67227   0.86486   0.86764
 Alpha virt. eigenvalues --    0.89339   0.90495   0.91437   0.97015   1.05301
 Alpha virt. eigenvalues --    1.42869   1.50995   1.52391   1.90068   1.97300
 Alpha virt. eigenvalues --    2.01279   2.17650   2.22122   2.34912   2.36649
 Alpha virt. eigenvalues --    2.57659   4.12385   4.36599
          Condensed to atoms (all electrons):
               1          2          3          4          5          6
     1  C    5.029334   0.362638  -0.036730   0.380061   0.384280   0.380149
     2  C    0.362638   5.028580   0.381182  -0.029002  -0.036178  -0.035374
     3  H   -0.036730   0.381182   0.573714  -0.006833   0.000546   0.004380
     4  H    0.380061  -0.029002  -0.006833   0.574725  -0.031844  -0.031843
     5  H    0.384280  -0.036178   0.000546  -0.031844   0.574490  -0.032232
     6  H    0.380149  -0.035374   0.004380  -0.031843  -0.032232   0.573625
     7  H   -0.025770   0.379529  -0.029012   0.000303   0.003695  -0.006138
     8  H   -0.039590   0.382566  -0.034075   0.004216  -0.009733   0.000348
               7          8
     1  C   -0.025770  -0.039590
     2  C    0.379529   0.382566
     3  H   -0.029012  -0.034075
     4  H    0.000303   0.004216
     5  H    0.003695  -0.009733
     6  H   -0.006138   0.000348
     7  H    0.568808  -0.032503
     8  H   -0.032503   0.582652
 Mulliken charges:
               1
     1  C   -0.434372
     2  C   -0.433941
     3  H    0.146828
     4  H    0.140218
     5  H    0.146975
     6  H    0.147085
     7  H    0.141087
     8  H    0.146119
 Sum of Mulliken charges =  -0.00000
 Mulliken charges with hydrogens summed into heavy atoms:
               1
     1  C   -0.000093
     2  C    0.000093
 Electronic spatial extent (au):  <R**2>=            111.7481
 Charge=             -0.0000 electrons
 Dipole moment (field-independent basis, Debye):
    X=              0.0032    Y=             -0.0470    Z=              0.0880  Tot=              0.0998
 Quadrupole moment (field-independent basis, Debye-Ang):
   XX=            -15.2143   YY=            -14.7229   ZZ=            -14.8386
   XY=             -0.1018   XZ=             -0.0218   YZ=             -0.0060
 Traceless Quadrupole moment (field-independent basis, Debye-Ang):
   XX=             -0.2890   YY=              0.2024   ZZ=              0.0867
   XY=             -0.1018   XZ=             -0.0218   YZ=             -0.0060
 Octapole moment (field-independent basis, Debye-Ang**2):
  XXX=             -0.0085  YYY=              0.4495  ZZZ=              0.2594  XYY=             -0.2254
  XXY=              0.2356  XXZ=             -0.2083  XZZ=              0.2584  YZZ=             -0.6857
  YYZ=              0.0906  XYZ=              0.0391
 Hexadecapole moment (field-independent basis, Debye-Ang**3):
 XXXX=            -95.1821 YYYY=            -29.1249 ZZZZ=            -28.9796 XXXY=             -0.6177
 XXXZ=             -0.1241 YYYX=              0.0210 YYYZ=              0.1097 ZZZX=             -0.9080
 ZZZY=             -0.1068 XXYY=            -19.4613 XXZZ=            -19.7740 YYZZ=             -9.6482
 XXYZ=              0.0007 YYXZ=              0.9520 ZZXY=             -0.0005
 N-N= 4.162262653455D+01 E-N=-2.669635963244D+02  KE= 7.886101230133D+01
 1\1\GINC-NODE60\SP\RB3LYP\6-31G(d)\C2H6\YANZ\22-Sep-2023\0\\# b3lyp/6-
 31g(d)\\tmpdir/M2_ref_7.gjf\\0,1\C,0,0.768456,1.14678,-0.201981\C,0,-0
 .606482,1.611214,0.345947\H,0,-0.694786,1.322041,1.402307\H,0,1.136795
 98,0.15282444,0.17672503\H,0,1.521792,1.905516,0.047011\H,0,0.73576,1.
 079786,-1.296274\H,0,-1.54262585,1.30197135,-0.21113612\H,0,-0.58315,2
 .708055,0.348052\\Version=ES64L-G16RevA.03\State=1-A\HF=-79.8243156\RM
 SD=3.058e-09\Dipole=0.0150996,0.0361142,0.0033088\Quadrupole=-0.086180
 3,0.0435921,0.0425882,0.0814523,0.1713003,-0.0307727\PG=C01 [X(C2H6)]\
 \@


 I LOVE THOSE WHO LONG FOR THE IMPOSSIBLE.

                                 -- GOETHE
 Job cpu time:       0 days  0 hours  0 minutes  8.2 seconds.
 Elapsed time:       0 days  0 hours  0 minutes  4.2 seconds.
 File lengths (MBytes):  RWF=      6 Int=      0 D2E=      0 Chk=      1 Scr=      1
 Normal termination of Gaussian 16 at Fri Sep 22 17:01:37 2023.
