 Entering Gaussian System, Link 0=g16
 Initial command:
 /share/apps/gaussian/g16/l1.exe "/tmp/55621.mgr/Gau-119049.inp" -scrdir="/tmp/55621.mgr/"
 Entering Link 1 = /share/apps/gaussian/g16/l1.exe PID=    119050.
  
 Copyright (c) 1988,1990,1992,1993,1995,1998,2003,2009,2016,
            Gaussian, Inc.  All Rights Reserved.
  
 This is part of the Gaussian(R) 16 program.  It is based on
 the Gaussian(R) 09 system (copyright 2009, Gaussian, Inc.),
 the Gaussian(R) 03 system (copyright 2003, Gaussian, Inc.),
 the Gaussian(R) 98 system (copyright 1998, Gaussian, Inc.),
 the Gaussian(R) 94 system (copyright 1995, Gaussian, Inc.),
 the Gaussian 92(TM) system (copyright 1992, Gaussian, Inc.),
 the Gaussian 90(TM) system (copyright 1990, Gaussian, Inc.),
 the Gaussian 88(TM) system (copyright 1988, Gaussian, Inc.),
 the Gaussian 86(TM) system (copyright 1986, Carnegie Mellon
 University), and the Gaussian 82(TM) system (copyright 1983,
 Carnegie Mellon University). Gaussian is a federally registered
 trademark of Gaussian, Inc.
  
 This software contains proprietary and confidential information,
 including trade secrets, belonging to Gaussian, Inc.
  
 This software is provided under written license and may be
 used, copied, transmitted, or stored only in accord with that
 written license.
  
 The following legend is applicable only to US Government
 contracts under FAR:
  
                    RESTRICTED RIGHTS LEGEND
  
 Use, reproduction and disclosure by the US Government is
 subject to restrictions as set forth in subparagraphs (a)
 and (c) of the Commercial Computer Software - Restricted
 Rights clause in FAR 52.227-19.
  
 Gaussian, Inc.
 340 Quinnipiac St., Bldg. 40, Wallingford CT 06492
  
  
 ---------------------------------------------------------------
 Warning -- This program may not be used in any manner that
 competes with the business of Gaussian, Inc. or will provide
 assistance to any competitor of Gaussian, Inc.  The licensee
 of this program is prohibited from giving any competitor of
 Gaussian, Inc. access to this program.  By using this program,
 the user acknowledges that Gaussian, Inc. is engaged in the
 business of creating and licensing software in the field of
 computational chemistry and represents and warrants to the
 licensee that it is not a competitor of Gaussian, Inc. and that
 it will not use this program in any manner prohibited above.
 ---------------------------------------------------------------
  

 Cite this work as:
 Gaussian 16, Revision A.03,
 M. J. Frisch, G. W. Trucks, H. B. Schlegel, G. E. Scuseria, 
 M. A. Robb, J. R. Cheeseman, G. Scalmani, V. Barone, 
 G. A. Petersson, H. Nakatsuji, X. Li, M. Caricato, A. V. Marenich, 
 J. Bloino, B. G. Janesko, R. Gomperts, B. Mennucci, H. P. Hratchian, 
 J. V. Ortiz, A. F. Izmaylov, J. L. Sonnenberg, D. Williams-Young, 
 F. Ding, F. Lipparini, F. Egidi, J. Goings, B. Peng, A. Petrone, 
 T. Henderson, D. Ranasinghe, V. G. Zakrzewski, J. Gao, N. Rega, 
 G. Zheng, W. Liang, M. Hada, M. Ehara, K. Toyota, R. Fukuda, 
 J. Hasegawa, M. Ishida, T. Nakajima, Y. Honda, O. Kitao, H. Nakai, 
 T. Vreven, K. Throssell, J. A. Montgomery, Jr., J. E. Peralta, 
 F. Ogliaro, M. J. Bearpark, J. J. Heyd, E. N. Brothers, K. N. Kudin, 
 V. N. Staroverov, T. A. Keith, R. Kobayashi, J. Normand, 
 K. Raghavachari, A. P. Rendell, J. C. Burant, S. S. Iyengar, 
 J. Tomasi, M. Cossi, J. M. Millam, M. Klene, C. Adamo, R. Cammi, 
 J. W. Ochterski, R. L. Martin, K. Morokuma, O. Farkas, 
 J. B. Foresman, and D. J. Fox, Gaussian, Inc., Wallingford CT, 2016.
 
 ******************************************
 Gaussian 16:  ES64L-G16RevA.03 25-Dec-2016
                22-Sep-2023 
 ******************************************
 %nprocshared=2
 Will use up to    2 processors via shared memory.
 %mem=2GB
 ----------------
 # b3lyp/6-31g(d)
 ----------------
 1/38=1,172=1/1;
 2/12=2,17=6,18=5,40=1/2;
 3/5=1,6=6,7=1,11=2,25=1,30=1,74=-5/1,2,3;
 4//1;
 5/5=2,38=5/2;
 6/7=2,8=2,9=2,10=2,28=1/1;
 99/5=1,9=1/99;
 ---------------------
 tmpdir/M2_ref_100.gjf
 ---------------------
 Symbolic Z-matrix:
 Charge =  0 Multiplicity = 1
 C                    -1.9794    1.25817   30.39149 
 C                    -2.70147   0.41623   29.54608 
 H                    -3.66986   0.72719   29.16358 
 H                    -1.07888   0.96631   30.7467 
 H                    -2.38171   2.22826   30.67045 
 H                    -2.32131  -0.48603   29.29051 
 
                          Input orientation:                          
 ---------------------------------------------------------------------
 Center     Atomic      Atomic             Coordinates (Angstroms)
 Number     Number       Type             X           Y           Z
 ---------------------------------------------------------------------
      1          6           0       -1.979399    1.258167   30.391492
      2          6           0       -2.701470    0.416228   29.546076
      3          1           0       -3.669857    0.727191   29.163584
      4          1           0       -1.078880    0.966306   30.746698
      5          1           0       -2.381706    2.228263   30.670452
      6          1           0       -2.321307   -0.486026   29.290506
 ---------------------------------------------------------------------
                    Distance matrix (angstroms):
                    1          2          3          4          5
     1  C    0.000000
     2  C    1.394624   0.000000
     3  H    2.155769   1.086633   0.000000
     4  H    1.011083   2.092099   3.045749   0.000000
     5  H    1.086626   2.156372   2.486604   1.815407   0.000000
     6  H    2.090761   1.011880   1.818404   2.402788   3.045532
                    6
     6  H    0.000000
 Stoichiometry    C2H4
 Framework group  C1[X(C2H4)]
 Deg. of freedom    12
 Full point group                 C1      NOp   1
 Largest Abelian subgroup         C1      NOp   1
 Largest concise Abelian subgroup C1      NOp   1
                         Standard orientation:                         
 ---------------------------------------------------------------------
 Center     Atomic      Atomic             Coordinates (Angstroms)
 Number     Number       Type             X           Y           Z
 ---------------------------------------------------------------------
      1          6           0        0.697091   -0.007887   -0.000003
      2          6           0       -0.697533   -0.007757   -0.000144
      3          1           0       -1.242967    0.932069    0.000424
      4          1           0        1.202384   -0.883654    0.000201
      5          1           0        1.243637    0.931285    0.000002
      6          1           0       -1.200403   -0.885837    0.000255
 ---------------------------------------------------------------------
 Rotational constants (GHZ):         151.8298087          28.5606644          24.0387441
 Standard basis: 6-31G(d) (6D, 7F)
 There are    38 symmetry adapted cartesian basis functions of A   symmetry.
 There are    38 symmetry adapted basis functions of A   symmetry.
    38 basis functions,    72 primitive gaussians,    38 cartesian basis functions
     8 alpha electrons        8 beta electrons
       nuclear repulsion energy        33.1263285108 Hartrees.
 NAtoms=    6 NActive=    6 NUniq=    6 SFac= 1.00D+00 NAtFMM=   60 NAOKFM=F Big=F
 Integral buffers will be    131072 words long.
 Raffenetti 2 integral format.
 Two-electron integral symmetry is turned on.
 One-electron integrals computed using PRISM.
 NBasis=    38 RedAO= T EigKep=  8.99D-03  NBF=    38
 NBsUse=    38 1.00D-06 EigRej= -1.00D+00 NBFU=    38
 ExpMin= 1.61D-01 ExpMax= 3.05D+03 ExpMxC= 4.57D+02 IAcc=3 IRadAn=         5 AccDes= 0.00D+00
 Harris functional with IExCor=  402 and IRadAn=       5 diagonalized for initial guess.
 HarFok:  IExCor=  402 AccDes= 0.00D+00 IRadAn=         5 IDoV= 1 UseB2=F ITyADJ=14
 ICtDFT=  3500011 ScaDFX=  1.000000  1.000000  1.000000  1.000000
 FoFCou: FMM=F IPFlag=           0 FMFlag=      100000 FMFlg1=           0
         NFxFlg=           0 DoJE=T BraDBF=F KetDBF=T FulRan=T
         wScrn=  0.000000 ICntrl=       500 IOpCl=  0 I1Cent=   200000004 NGrid=           0
         NMat0=    1 NMatS0=      1 NMatT0=    0 NMatD0=    1 NMtDS0=    0 NMtDT0=    0
 Petite list used in FoFCou.
 Keep R1 ints in memory in canonical form, NReq=2001149.
 Requested convergence on RMS density matrix=1.00D-08 within 128 cycles.
 Requested convergence on MAX density matrix=1.00D-06.
 Requested convergence on             energy=1.00D-06.
 No special actions if energy rises.
 Integral accuracy reduced to 1.0D-05 until final iterations.
 Initial convergence to 1.0D-05 achieved.  Increase integral accuracy.
 SCF Done:  E(RB3LYP) =  -78.5747232438     A.U. after   11 cycles
            NFock= 11  Conv=0.20D-08     -V/T= 2.0095

 **********************************************************************

            Population analysis using the SCF density.

 **********************************************************************

 Orbital symmetries:
       Occupied  (A) (A) (A) (A) (A) (A) (A) (A)
       Virtual   (A) (A) (A) (A) (A) (A) (A) (A) (A) (A) (A) (A)
                 (A) (A) (A) (A) (A) (A) (A) (A) (A) (A) (A) (A)
                 (A) (A) (A) (A) (A) (A)
 The electronic state is 1-A.
 Alpha  occ. eigenvalues --  -10.18343 -10.18285  -0.74734  -0.59118  -0.47298
 Alpha  occ. eigenvalues --   -0.40387  -0.37192  -0.25589
 Alpha virt. eigenvalues --    0.00557   0.12426   0.16225   0.16785   0.24429
 Alpha virt. eigenvalues --    0.30990   0.49210   0.55737   0.55794   0.63306
 Alpha virt. eigenvalues --    0.65232   0.65816   0.88013   0.88284   0.96166
 Alpha virt. eigenvalues --    0.97859   1.08343   1.23443   1.44797   1.55848
 Alpha virt. eigenvalues --    1.80136   1.92198   2.00868   2.07464   2.31393
 Alpha virt. eigenvalues --    2.32236   2.64465   2.66929   4.08458   4.27132
          Condensed to atoms (all electrons):
               1          2          3          4          5          6
     1  C    4.936570   0.665544  -0.033212   0.385360   0.378239  -0.036638
     2  C    0.665544   4.936298   0.378234  -0.036484  -0.033166   0.385322
     3  H   -0.033212   0.378234   0.556463   0.005096  -0.007729  -0.043255
     4  H    0.385360  -0.036484   0.005096   0.546540  -0.043541  -0.008508
     5  H    0.378239  -0.033166  -0.007729  -0.043541   0.556883   0.005102
     6  H   -0.036638   0.385322  -0.043255  -0.008508   0.005102   0.546514
 Mulliken charges:
               1
     1  C   -0.295864
     2  C   -0.295750
     3  H    0.144402
     4  H    0.151538
     5  H    0.144211
     6  H    0.151464
 Sum of Mulliken charges =   0.00000
 Mulliken charges with hydrogens summed into heavy atoms:
               1
     1  C   -0.000116
     2  C    0.000116
 Electronic spatial extent (au):  <R**2>=             82.9609
 Charge=              0.0000 electrons
 Dipole moment (field-independent basis, Debye):
    X=              0.0010    Y=             -0.0458    Z=              0.0008  Tot=              0.0459
 Quadrupole moment (field-independent basis, Debye-Ang):
   XX=            -11.9878   YY=            -11.9510   ZZ=            -15.0433
   XY=             -0.0025   XZ=             -0.0006   YZ=             -0.0000
 Traceless Quadrupole moment (field-independent basis, Debye-Ang):
   XX=              1.0062   YY=              1.0430   ZZ=             -2.0492
   XY=             -0.0025   XZ=             -0.0006   YZ=             -0.0000
 Octapole moment (field-independent basis, Debye-Ang**2):
  XXX=              0.0162  YYY=             -0.1783  ZZZ=              0.0012  XYY=             -0.0060
  XXY=             -0.0197  XXZ=              0.0018  XZZ=              0.0019  YZZ=             -0.1313
  YYZ=              0.0011  XYZ=             -0.0005
 Hexadecapole moment (field-independent basis, Debye-Ang**3):
 XXXX=            -68.1244 YYYY=            -24.8503 ZZZZ=            -15.7390 XXXY=             -0.0109
 XXXZ=             -0.0015 YYYX=             -0.0033 YYYZ=             -0.0000 ZZZX=             -0.0005
 ZZZY=             -0.0001 XXYY=            -13.3067 XXZZ=            -14.7635 YYZZ=             -7.3099
 XXYZ=              0.0000 YYXZ=             -0.0008 ZZXY=             -0.0014
 N-N= 3.312632851080D+01 E-N=-2.476491946009D+02  KE= 7.783614460317D+01
 1\1\GINC-NODE60\SP\RB3LYP\6-31G(d)\C2H4\YANZ\22-Sep-2023\0\\# b3lyp/6-
 31g(d)\\tmpdir/M2_ref_100.gjf\\0,1\C,0,-1.979399,1.258167,30.391492\C,
 0,-2.70147,0.416228,29.546076\H,0,-3.669857,0.727191,29.163584\H,0,-1.
 07887975,0.9663063,30.74669779\H,0,-2.381706,2.228263,30.670452\H,0,-2
 .32130679,-0.48602568,29.29050588\\Version=ES64L-G16RevA.03\State=1-A\
 HF=-78.5747232\RMSD=1.997e-09\Dipole=0.0132155,-0.0121926,0.0014859\Qu
 adrupole=0.310931,0.3712226,-0.6821535,-0.4327652,0.8071209,0.7432717\
 PG=C01 [X(C2H4)]\\@


 IF YOU'RE NOT PART OF THE SOLUTION,
 THEN YOU'RE PART OF THE PRECIPITATE.
 Job cpu time:       0 days  0 hours  0 minutes  6.1 seconds.
 Elapsed time:       0 days  0 hours  0 minutes  3.1 seconds.
 File lengths (MBytes):  RWF=      6 Int=      0 D2E=      0 Chk=      1 Scr=      1
 Normal termination of Gaussian 16 at Fri Sep 22 17:02:06 2023.
