 Entering Gaussian System, Link 0=g16
 Initial command:
 /share/apps/gaussian/g16/l1.exe "/tmp/55621.mgr/Gau-118321.inp" -scrdir="/tmp/55621.mgr/"
 Entering Link 1 = /share/apps/gaussian/g16/l1.exe PID=    118322.
  
 Copyright (c) 1988,1990,1992,1993,1995,1998,2003,2009,2016,
            Gaussian, Inc.  All Rights Reserved.
  
 This is part of the Gaussian(R) 16 program.  It is based on
 the Gaussian(R) 09 system (copyright 2009, Gaussian, Inc.),
 the Gaussian(R) 03 system (copyright 2003, Gaussian, Inc.),
 the Gaussian(R) 98 system (copyright 1998, Gaussian, Inc.),
 the Gaussian(R) 94 system (copyright 1995, Gaussian, Inc.),
 the Gaussian 92(TM) system (copyright 1992, Gaussian, Inc.),
 the Gaussian 90(TM) system (copyright 1990, Gaussian, Inc.),
 the Gaussian 88(TM) system (copyright 1988, Gaussian, Inc.),
 the Gaussian 86(TM) system (copyright 1986, Carnegie Mellon
 University), and the Gaussian 82(TM) system (copyright 1983,
 Carnegie Mellon University). Gaussian is a federally registered
 trademark of Gaussian, Inc.
  
 This software contains proprietary and confidential information,
 including trade secrets, belonging to Gaussian, Inc.
  
 This software is provided under written license and may be
 used, copied, transmitted, or stored only in accord with that
 written license.
  
 The following legend is applicable only to US Government
 contracts under FAR:
  
                    RESTRICTED RIGHTS LEGEND
  
 Use, reproduction and disclosure by the US Government is
 subject to restrictions as set forth in subparagraphs (a)
 and (c) of the Commercial Computer Software - Restricted
 Rights clause in FAR 52.227-19.
  
 Gaussian, Inc.
 340 Quinnipiac St., Bldg. 40, Wallingford CT 06492
  
  
 ---------------------------------------------------------------
 Warning -- This program may not be used in any manner that
 competes with the business of Gaussian, Inc. or will provide
 assistance to any competitor of Gaussian, Inc.  The licensee
 of this program is prohibited from giving any competitor of
 Gaussian, Inc. access to this program.  By using this program,
 the user acknowledges that Gaussian, Inc. is engaged in the
 business of creating and licensing software in the field of
 computational chemistry and represents and warrants to the
 licensee that it is not a competitor of Gaussian, Inc. and that
 it will not use this program in any manner prohibited above.
 ---------------------------------------------------------------
  

 Cite this work as:
 Gaussian 16, Revision A.03,
 M. J. Frisch, G. W. Trucks, H. B. Schlegel, G. E. Scuseria, 
 M. A. Robb, J. R. Cheeseman, G. Scalmani, V. Barone, 
 G. A. Petersson, H. Nakatsuji, X. Li, M. Caricato, A. V. Marenich, 
 J. Bloino, B. G. Janesko, R. Gomperts, B. Mennucci, H. P. Hratchian, 
 J. V. Ortiz, A. F. Izmaylov, J. L. Sonnenberg, D. Williams-Young, 
 F. Ding, F. Lipparini, F. Egidi, J. Goings, B. Peng, A. Petrone, 
 T. Henderson, D. Ranasinghe, V. G. Zakrzewski, J. Gao, N. Rega, 
 G. Zheng, W. Liang, M. Hada, M. Ehara, K. Toyota, R. Fukuda, 
 J. Hasegawa, M. Ishida, T. Nakajima, Y. Honda, O. Kitao, H. Nakai, 
 T. Vreven, K. Throssell, J. A. Montgomery, Jr., J. E. Peralta, 
 F. Ogliaro, M. J. Bearpark, J. J. Heyd, E. N. Brothers, K. N. Kudin, 
 V. N. Staroverov, T. A. Keith, R. Kobayashi, J. Normand, 
 K. Raghavachari, A. P. Rendell, J. C. Burant, S. S. Iyengar, 
 J. Tomasi, M. Cossi, J. M. Millam, M. Klene, C. Adamo, R. Cammi, 
 J. W. Ochterski, R. L. Martin, K. Morokuma, O. Farkas, 
 J. B. Foresman, and D. J. Fox, Gaussian, Inc., Wallingford CT, 2016.
 
 ******************************************
 Gaussian 16:  ES64L-G16RevA.03 25-Dec-2016
                22-Sep-2023 
 ******************************************
 %nprocshared=2
 Will use up to    2 processors via shared memory.
 %mem=2GB
 ----------------
 # b3lyp/6-31g(d)
 ----------------
 1/38=1,172=1/1;
 2/12=2,17=6,18=5,40=1/2;
 3/5=1,6=6,7=1,11=2,25=1,30=1,74=-5/1,2,3;
 4//1;
 5/5=2,38=5/2;
 6/7=2,8=2,9=2,10=2,28=1/1;
 99/5=1,9=1/99;
 --------------------
 tmpdir/M2_ref_54.gjf
 --------------------
 Symbolic Z-matrix:
 Charge =  0 Multiplicity = 1
 C                     0.16749  -1.16448   0.15455 
 C                     1.27729  -0.2263    0.32118 
 O                     2.43497  -0.67561  -0.37599 
 N                    -0.90094  -1.47035   0.0673 
 H                     0.90895   0.76765  -0.05753 
 H                     1.51941  -0.13441   1.39535 
 H                     3.25894  -0.24412  -0.0975 
 
                          Input orientation:                          
 ---------------------------------------------------------------------
 Center     Atomic      Atomic             Coordinates (Angstroms)
 Number     Number       Type             X           Y           Z
 ---------------------------------------------------------------------
      1          6           0        0.167485   -1.164485    0.154552
      2          6           0        1.277293   -0.226303    0.321176
      3          8           0        2.434966   -0.675605   -0.375986
      4          7           0       -0.900941   -1.470354    0.067299
      5          1           0        0.908953    0.767653   -0.057530
      6          1           0        1.519410   -0.134405    1.395353
      7          1           0        3.258943   -0.244122   -0.097503
 ---------------------------------------------------------------------
                    Distance matrix (angstroms):
                    1          2          3          4          5
     1  C    0.000000
     2  C    1.462745   0.000000
     3  O    2.379484   1.424119   0.000000
     4  N    1.114766   2.521273   3.457803   0.000000
     5  H    2.080363   1.125629   2.124411   2.880967   0.000000
     6  H    2.104365   1.104953   2.066103   3.067016   1.815829
     7  H    3.235385   2.025474   0.970911   4.339982   2.558855
                    6          7
     6  H    0.000000
     7  H    2.294914   0.000000
 Stoichiometry    C2H3NO
 Framework group  C1[X(C2H3NO)]
 Deg. of freedom    15
 Full point group                 C1      NOp   1
 Largest Abelian subgroup         C1      NOp   1
 Largest concise Abelian subgroup C1      NOp   1
                         Standard orientation:                         
 ---------------------------------------------------------------------
 Center     Atomic      Atomic             Coordinates (Angstroms)
 Number     Number       Type             X           Y           Z
 ---------------------------------------------------------------------
      1          6           0        0.833224   -0.089899   -0.111054
      2          6           0       -0.485218    0.531237    0.013537
      3          8           0       -1.513566   -0.453658    0.037944
      4          7           0        1.933401   -0.180204    0.044374
      5          1           0       -0.456948    1.143441    0.957702
      6          1           0       -0.654368    1.204234   -0.846339
      7          1           0       -2.401992   -0.105016   -0.140431
 ---------------------------------------------------------------------
 Rotational constants (GHZ):          42.8860493           4.6679646           4.3446775
 Standard basis: 6-31G(d) (6D, 7F)
 There are    66 symmetry adapted cartesian basis functions of A   symmetry.
 There are    66 symmetry adapted basis functions of A   symmetry.
    66 basis functions,   124 primitive gaussians,    66 cartesian basis functions
    15 alpha electrons       15 beta electrons
       nuclear repulsion energy       102.6130599542 Hartrees.
 NAtoms=    7 NActive=    7 NUniq=    7 SFac= 1.00D+00 NAtFMM=   60 NAOKFM=F Big=F
 Integral buffers will be    131072 words long.
 Raffenetti 2 integral format.
 Two-electron integral symmetry is turned on.
 One-electron integrals computed using PRISM.
 NBasis=    66 RedAO= T EigKep=  2.07D-03  NBF=    66
 NBsUse=    66 1.00D-06 EigRej= -1.00D+00 NBFU=    66
 ExpMin= 1.61D-01 ExpMax= 5.48D+03 ExpMxC= 8.25D+02 IAcc=3 IRadAn=         5 AccDes= 0.00D+00
 Harris functional with IExCor=  402 and IRadAn=       5 diagonalized for initial guess.
 HarFok:  IExCor=  402 AccDes= 0.00D+00 IRadAn=         5 IDoV= 1 UseB2=F ITyADJ=14
 ICtDFT=  3500011 ScaDFX=  1.000000  1.000000  1.000000  1.000000
 FoFCou: FMM=F IPFlag=           0 FMFlag=      100000 FMFlg1=           0
         NFxFlg=           0 DoJE=T BraDBF=F KetDBF=T FulRan=T
         wScrn=  0.000000 ICntrl=       500 IOpCl=  0 I1Cent=   200000004 NGrid=           0
         NMat0=    1 NMatS0=      1 NMatT0=    0 NMatD0=    1 NMtDS0=    0 NMtDT0=    0
 Petite list used in FoFCou.
 Keep R1 ints in memory in canonical form, NReq=4221979.
 Requested convergence on RMS density matrix=1.00D-08 within 128 cycles.
 Requested convergence on MAX density matrix=1.00D-06.
 Requested convergence on             energy=1.00D-06.
 No special actions if energy rises.
 Integral accuracy reduced to 1.0D-05 until final iterations.
 Initial convergence to 1.0D-05 achieved.  Increase integral accuracy.
 SCF Done:  E(RB3LYP) =  -207.933373714     A.U. after   13 cycles
            NFock= 13  Conv=0.61D-08     -V/T= 2.0080

 **********************************************************************

            Population analysis using the SCF density.

 **********************************************************************

 Orbital symmetries:
       Occupied  (A) (A) (A) (A) (A) (A) (A) (A) (A) (A) (A) (A)
                 (A) (A) (A)
       Virtual   (A) (A) (A) (A) (A) (A) (A) (A) (A) (A) (A) (A)
                 (A) (A) (A) (A) (A) (A) (A) (A) (A) (A) (A) (A)
                 (A) (A) (A) (A) (A) (A) (A) (A) (A) (A) (A) (A)
                 (A) (A) (A) (A) (A) (A) (A) (A) (A) (A) (A) (A)
                 (A) (A) (A)
 The electronic state is 1-A.
 Alpha  occ. eigenvalues --  -19.17211 -14.33482 -10.29584 -10.22470  -1.04453
 Alpha  occ. eigenvalues --   -0.92912  -0.75461  -0.55011  -0.52344  -0.49424
 Alpha  occ. eigenvalues --   -0.37750  -0.36250  -0.35079  -0.34667  -0.29704
 Alpha virt. eigenvalues --   -0.00381   0.03157   0.08218   0.10515   0.15425
 Alpha virt. eigenvalues --    0.19511   0.25075   0.31491   0.50637   0.54112
 Alpha virt. eigenvalues --    0.56856   0.57915   0.65945   0.69441   0.71922
 Alpha virt. eigenvalues --    0.78351   0.79419   0.81721   0.84135   0.86379
 Alpha virt. eigenvalues --    0.93771   0.98032   1.00230   1.15346   1.25740
 Alpha virt. eigenvalues --    1.35433   1.43522   1.49524   1.51317   1.57579
 Alpha virt. eigenvalues --    1.59740   1.73518   1.78776   1.86020   1.92028
 Alpha virt. eigenvalues --    1.99642   2.02829   2.08130   2.15315   2.31626
 Alpha virt. eigenvalues --    2.34063   2.47938   2.62882   2.74357   2.83687
 Alpha virt. eigenvalues --    2.90133   3.20696   3.68698   3.95123   4.10750
 Alpha virt. eigenvalues --    4.52443
          Condensed to atoms (all electrons):
               1          2          3          4          5          6
     1  C    4.588711   0.332165  -0.038831   0.884627  -0.052947  -0.033160
     2  C    0.332165   4.881455   0.230513  -0.064210   0.377154   0.360032
     3  O   -0.038831   0.230513   8.260049   0.001039  -0.038947  -0.035014
     4  N    0.884627  -0.064210   0.001039   6.550849  -0.004506   0.000285
     5  H   -0.052947   0.377154  -0.038947  -0.004506   0.579787  -0.044355
     6  H   -0.033160   0.360032  -0.035014   0.000285  -0.044355   0.583488
     7  H    0.004618  -0.014755   0.233018  -0.000109   0.000083  -0.006347
               7
     1  C    0.004618
     2  C   -0.014755
     3  O    0.233018
     4  N   -0.000109
     5  H    0.000083
     6  H   -0.006347
     7  H    0.374957
 Mulliken charges:
               1
     1  C    0.314816
     2  C   -0.102353
     3  O   -0.611827
     4  N   -0.367974
     5  H    0.183732
     6  H    0.175072
     7  H    0.408535
 Sum of Mulliken charges =  -0.00000
 Mulliken charges with hydrogens summed into heavy atoms:
               1
     1  C    0.314816
     2  C    0.256450
     3  O   -0.203292
     4  N   -0.367974
 Electronic spatial extent (au):  <R**2>=            282.5244
 Charge=             -0.0000 electrons
 Dipole moment (field-independent basis, Debye):
    X=             -3.7114    Y=              2.3389    Z=             -0.4553  Tot=              4.4105
 Quadrupole moment (field-independent basis, Debye-Ang):
   XX=            -24.5202   YY=            -22.7836   ZZ=            -22.3379
   XY=             -1.4398   XZ=              0.7356   YZ=              0.1284
 Traceless Quadrupole moment (field-independent basis, Debye-Ang):
   XX=             -1.3063   YY=              0.4303   ZZ=              0.8760
   XY=             -1.4398   XZ=              0.7356   YZ=              0.1284
 Octapole moment (field-independent basis, Debye-Ang**2):
  XXX=            -39.9876  YYY=              0.3466  ZZZ=              0.1518  XYY=             -1.6674
  XXY=              3.5252  XXZ=             -2.6509  XZZ=             -2.3630  YZZ=              0.8529
  YYZ=              0.0225  XYZ=              0.0359
 Hexadecapole moment (field-independent basis, Debye-Ang**3):
 XXXX=           -253.8827 YYYY=            -48.4557 ZZZZ=            -26.7230 XXXY=              4.2699
 XXXZ=              3.9350 YYYX=              1.3169 YYYZ=             -0.0973 ZZZX=              0.5632
 ZZZY=              0.1551 XXYY=            -54.2481 XXZZ=            -49.9530 YYZZ=            -11.5842
 XXYZ=              0.3251 YYXZ=              0.3241 ZZXY=             -0.0497
 N-N= 1.026130599542D+02 E-N=-6.913241307508D+02  KE= 2.062921887469D+02
 1\1\GINC-NODE60\SP\RB3LYP\6-31G(d)\C2H3N1O1\YANZ\22-Sep-2023\0\\# b3ly
 p/6-31g(d)\\tmpdir/M2_ref_54.gjf\\0,1\C,0,0.167485,-1.164485,0.154552\
 C,0,1.277293,-0.226303,0.321176\O,0,2.434966,-0.675605,-0.375986\N,0,-
 0.9009412,-1.47035365,0.06729923\H,0,0.90895302,0.76765256,-0.05753003
 \H,0,1.51941,-0.134405,1.395353\H,0,3.25894312,-0.24412205,-0.09750281
 \\Version=ES64L-G16RevA.03\State=1-A\HF=-207.9333737\RMSD=6.122e-09\Di
 pole=1.2619706,1.0423022,0.5762395\Quadrupole=-0.9542839,0.7030731,0.2
 512108,0.0476896,1.1981679,0.1305839\PG=C01 [X(C2H3N1O1)]\\@


 TELEVISION IS CALLED A MEDIUM BECAUSE IT ISN'T
 RARE, AND IT ISN'T WELL DONE.
 Job cpu time:       0 days  0 hours  0 minutes 12.7 seconds.
 Elapsed time:       0 days  0 hours  0 minutes  6.4 seconds.
 File lengths (MBytes):  RWF=      6 Int=      0 D2E=      0 Chk=      1 Scr=      1
 Normal termination of Gaussian 16 at Fri Sep 22 17:01:48 2023.
