 Entering Gaussian System, Link 0=g16
 Initial command:
 /share/apps/gaussian/g16/l1.exe "/tmp/55621.mgr/Gau-118874.inp" -scrdir="/tmp/55621.mgr/"
 Entering Link 1 = /share/apps/gaussian/g16/l1.exe PID=    118876.
  
 Copyright (c) 1988,1990,1992,1993,1995,1998,2003,2009,2016,
            Gaussian, Inc.  All Rights Reserved.
  
 This is part of the Gaussian(R) 16 program.  It is based on
 the Gaussian(R) 09 system (copyright 2009, Gaussian, Inc.),
 the Gaussian(R) 03 system (copyright 2003, Gaussian, Inc.),
 the Gaussian(R) 98 system (copyright 1998, Gaussian, Inc.),
 the Gaussian(R) 94 system (copyright 1995, Gaussian, Inc.),
 the Gaussian 92(TM) system (copyright 1992, Gaussian, Inc.),
 the Gaussian 90(TM) system (copyright 1990, Gaussian, Inc.),
 the Gaussian 88(TM) system (copyright 1988, Gaussian, Inc.),
 the Gaussian 86(TM) system (copyright 1986, Carnegie Mellon
 University), and the Gaussian 82(TM) system (copyright 1983,
 Carnegie Mellon University). Gaussian is a federally registered
 trademark of Gaussian, Inc.
  
 This software contains proprietary and confidential information,
 including trade secrets, belonging to Gaussian, Inc.
  
 This software is provided under written license and may be
 used, copied, transmitted, or stored only in accord with that
 written license.
  
 The following legend is applicable only to US Government
 contracts under FAR:
  
                    RESTRICTED RIGHTS LEGEND
  
 Use, reproduction and disclosure by the US Government is
 subject to restrictions as set forth in subparagraphs (a)
 and (c) of the Commercial Computer Software - Restricted
 Rights clause in FAR 52.227-19.
  
 Gaussian, Inc.
 340 Quinnipiac St., Bldg. 40, Wallingford CT 06492
  
  
 ---------------------------------------------------------------
 Warning -- This program may not be used in any manner that
 competes with the business of Gaussian, Inc. or will provide
 assistance to any competitor of Gaussian, Inc.  The licensee
 of this program is prohibited from giving any competitor of
 Gaussian, Inc. access to this program.  By using this program,
 the user acknowledges that Gaussian, Inc. is engaged in the
 business of creating and licensing software in the field of
 computational chemistry and represents and warrants to the
 licensee that it is not a competitor of Gaussian, Inc. and that
 it will not use this program in any manner prohibited above.
 ---------------------------------------------------------------
  

 Cite this work as:
 Gaussian 16, Revision A.03,
 M. J. Frisch, G. W. Trucks, H. B. Schlegel, G. E. Scuseria, 
 M. A. Robb, J. R. Cheeseman, G. Scalmani, V. Barone, 
 G. A. Petersson, H. Nakatsuji, X. Li, M. Caricato, A. V. Marenich, 
 J. Bloino, B. G. Janesko, R. Gomperts, B. Mennucci, H. P. Hratchian, 
 J. V. Ortiz, A. F. Izmaylov, J. L. Sonnenberg, D. Williams-Young, 
 F. Ding, F. Lipparini, F. Egidi, J. Goings, B. Peng, A. Petrone, 
 T. Henderson, D. Ranasinghe, V. G. Zakrzewski, J. Gao, N. Rega, 
 G. Zheng, W. Liang, M. Hada, M. Ehara, K. Toyota, R. Fukuda, 
 J. Hasegawa, M. Ishida, T. Nakajima, Y. Honda, O. Kitao, H. Nakai, 
 T. Vreven, K. Throssell, J. A. Montgomery, Jr., J. E. Peralta, 
 F. Ogliaro, M. J. Bearpark, J. J. Heyd, E. N. Brothers, K. N. Kudin, 
 V. N. Staroverov, T. A. Keith, R. Kobayashi, J. Normand, 
 K. Raghavachari, A. P. Rendell, J. C. Burant, S. S. Iyengar, 
 J. Tomasi, M. Cossi, J. M. Millam, M. Klene, C. Adamo, R. Cammi, 
 J. W. Ochterski, R. L. Martin, K. Morokuma, O. Farkas, 
 J. B. Foresman, and D. J. Fox, Gaussian, Inc., Wallingford CT, 2016.
 
 ******************************************
 Gaussian 16:  ES64L-G16RevA.03 25-Dec-2016
                22-Sep-2023 
 ******************************************
 %nprocshared=2
 Will use up to    2 processors via shared memory.
 %mem=2GB
 ----------------
 # b3lyp/6-31g(d)
 ----------------
 1/38=1,172=1/1;
 2/12=2,17=6,18=5,40=1/2;
 3/5=1,6=6,7=1,11=2,25=1,30=1,74=-5/1,2,3;
 4//1;
 5/5=2,38=5/2;
 6/7=2,8=2,9=2,10=2,28=1/1;
 99/5=1,9=1/99;
 ---------------------
 tmpdir/M2_ref_102.gjf
 ---------------------
 Symbolic Z-matrix:
 Charge =  0 Multiplicity = 1
 C                     1.27729  -0.2263    0.32118 
 O                     2.43497  -0.67561  -0.37599 
 C                     3.63468  -0.04736   0.02949 
 H                     0.90895   0.76765  -0.05753 
 H                     1.51941  -0.13441   1.39535 
 H                     0.47392  -0.90544   0.20056 
 H                     4.44739  -0.55819  -0.49361 
 H                     3.66711   1.02057  -0.23268 
 H                     3.79547  -0.14356   1.11572 
 
                          Input orientation:                          
 ---------------------------------------------------------------------
 Center     Atomic      Atomic             Coordinates (Angstroms)
 Number     Number       Type             X           Y           Z
 ---------------------------------------------------------------------
      1          6           0        1.277293   -0.226303    0.321176
      2          8           0        2.434966   -0.675605   -0.375986
      3          6           0        3.634684   -0.047362    0.029488
      4          1           0        0.908953    0.767653   -0.057530
      5          1           0        1.519410   -0.134405    1.395353
      6          1           0        0.473919   -0.905440    0.200559
      7          1           0        4.447390   -0.558189   -0.493610
      8          1           0        3.667109    1.020568   -0.232683
      9          1           0        3.795474   -0.143555    1.115716
 ---------------------------------------------------------------------
                    Distance matrix (angstroms):
                    1          2          3          4          5
     1  C    0.000000
     2  O    1.424119   0.000000
     3  C    2.382099   1.413655   0.000000
     4  H    1.125629   2.124411   2.846301   0.000000
     5  H    1.104953   2.066103   2.519434   1.815829   0.000000
     6  H    1.058861   2.056924   3.279634   1.747885   1.764959
     7  H    3.289915   2.019275   1.093191   3.803756   3.510106
     8  H    2.751848   2.101360   1.100118   2.775260   2.932077
     9  H    2.641851   2.087878   1.102269   3.246353   2.293196
                    6          7          8          9
     6  H    0.000000
     7  H    4.048571   0.000000
     8  H    3.754154   1.780279   0.000000
     9  H    3.528557   1.785174   1.786012   0.000000
 Stoichiometry    C2H6O
 Framework group  C1[X(C2H6O)]
 Deg. of freedom    21
 Full point group                 C1      NOp   1
 Largest Abelian subgroup         C1      NOp   1
 Largest concise Abelian subgroup C1      NOp   1
                         Standard orientation:                         
 ---------------------------------------------------------------------
 Center     Atomic      Atomic             Coordinates (Angstroms)
 Number     Number       Type             X           Y           Z
 ---------------------------------------------------------------------
      1          6           0        1.195211    0.183590   -0.005024
      2          8           0       -0.006040   -0.581320   -0.000074
      3          6           0       -1.186836    0.195931    0.004812
      4          1           0        1.445028    0.594005    1.012910
      5          1           0        1.081660    1.023909   -0.713467
      6          1           0        2.022239   -0.410064   -0.296202
      7          1           0       -2.020889   -0.501794   -0.107448
      8          1           0       -1.324478    0.757417    0.940786
      9          1           0       -1.205492    0.909961   -0.834717
 ---------------------------------------------------------------------
 Rotational constants (GHZ):          39.9824545           9.7111026           8.6838119
 Standard basis: 6-31G(d) (6D, 7F)
 There are    57 symmetry adapted cartesian basis functions of A   symmetry.
 There are    57 symmetry adapted basis functions of A   symmetry.
    57 basis functions,   108 primitive gaussians,    57 cartesian basis functions
    13 alpha electrons       13 beta electrons
       nuclear repulsion energy        83.3285152557 Hartrees.
 NAtoms=    9 NActive=    9 NUniq=    9 SFac= 1.00D+00 NAtFMM=   60 NAOKFM=F Big=F
 Integral buffers will be    131072 words long.
 Raffenetti 2 integral format.
 Two-electron integral symmetry is turned on.
 One-electron integrals computed using PRISM.
 NBasis=    57 RedAO= T EigKep=  8.16D-03  NBF=    57
 NBsUse=    57 1.00D-06 EigRej= -1.00D+00 NBFU=    57
 ExpMin= 1.61D-01 ExpMax= 5.48D+03 ExpMxC= 8.25D+02 IAcc=3 IRadAn=         5 AccDes= 0.00D+00
 Harris functional with IExCor=  402 and IRadAn=       5 diagonalized for initial guess.
 HarFok:  IExCor=  402 AccDes= 0.00D+00 IRadAn=         5 IDoV= 1 UseB2=F ITyADJ=14
 ICtDFT=  3500011 ScaDFX=  1.000000  1.000000  1.000000  1.000000
 FoFCou: FMM=F IPFlag=           0 FMFlag=      100000 FMFlg1=           0
         NFxFlg=           0 DoJE=T BraDBF=F KetDBF=T FulRan=T
         wScrn=  0.000000 ICntrl=       500 IOpCl=  0 I1Cent=   200000004 NGrid=           0
         NMat0=    1 NMatS0=      1 NMatT0=    0 NMatD0=    1 NMtDS0=    0 NMtDT0=    0
 Petite list used in FoFCou.
 Keep R1 ints in memory in canonical form, NReq=3127177.
 Requested convergence on RMS density matrix=1.00D-08 within 128 cycles.
 Requested convergence on MAX density matrix=1.00D-06.
 Requested convergence on             energy=1.00D-06.
 No special actions if energy rises.
 Integral accuracy reduced to 1.0D-05 until final iterations.
 Initial convergence to 1.0D-05 achieved.  Increase integral accuracy.
 SCF Done:  E(RB3LYP) =  -155.021980911     A.U. after   12 cycles
            NFock= 12  Conv=0.11D-08     -V/T= 2.0093

 **********************************************************************

            Population analysis using the SCF density.

 **********************************************************************

 Orbital symmetries:
       Occupied  (A) (A) (A) (A) (A) (A) (A) (A) (A) (A) (A) (A)
                 (A)
       Virtual   (A) (A) (A) (A) (A) (A) (A) (A) (A) (A) (A) (A)
                 (A) (A) (A) (A) (A) (A) (A) (A) (A) (A) (A) (A)
                 (A) (A) (A) (A) (A) (A) (A) (A) (A) (A) (A) (A)
                 (A) (A) (A) (A) (A) (A) (A) (A)
 The electronic state is 1-A.
 Alpha  occ. eigenvalues --  -19.14315 -10.22445 -10.22440  -1.02062  -0.71868
 Alpha  occ. eigenvalues --   -0.63637  -0.47278  -0.46773  -0.45969  -0.39351
 Alpha  occ. eigenvalues --   -0.38055  -0.31010  -0.24968
 Alpha virt. eigenvalues --    0.09261   0.13370   0.14568   0.15635   0.16717
 Alpha virt. eigenvalues --    0.18359   0.19168   0.24292   0.51652   0.52981
 Alpha virt. eigenvalues --    0.53648   0.57285   0.59383   0.72353   0.82508
 Alpha virt. eigenvalues --    0.84336   0.85660   0.85869   0.88883   0.94160
 Alpha virt. eigenvalues --    0.95552   1.05515   1.07894   1.11758   1.37610
 Alpha virt. eigenvalues --    1.42398   1.49500   1.51905   1.64266   1.88340
 Alpha virt. eigenvalues --    2.03332   2.05582   2.08327   2.13113   2.17501
 Alpha virt. eigenvalues --    2.23140   2.31947   2.48951   2.53006   2.71745
 Alpha virt. eigenvalues --    2.89007   3.86993   4.20825   4.27246
          Condensed to atoms (all electrons):
               1          2          3          4          5          6
     1  C    4.874827   0.264132  -0.048389   0.359854   0.360142   0.386908
     2  O    0.264132   8.139961   0.268975  -0.039665  -0.038420  -0.030262
     3  C   -0.048389   0.268975   4.873280  -0.002782  -0.010846   0.005394
     4  H    0.359854  -0.039665  -0.002782   0.642055  -0.045582  -0.044627
     5  H    0.360142  -0.038420  -0.010846  -0.045582   0.626012  -0.031958
     6  H    0.386908  -0.030262   0.005394  -0.044627  -0.031958   0.549796
     7  H    0.006144  -0.034826   0.387102  -0.000264  -0.000055  -0.000219
     8  H   -0.003979  -0.039246   0.359353   0.008243  -0.002175  -0.000385
     9  H   -0.010452  -0.038222   0.358105  -0.001831   0.016923   0.000136
               7          8          9
     1  C    0.006144  -0.003979  -0.010452
     2  O   -0.034826  -0.039246  -0.038222
     3  C    0.387102   0.359353   0.358105
     4  H   -0.000264   0.008243  -0.001831
     5  H   -0.000055  -0.002175   0.016923
     6  H   -0.000219  -0.000385   0.000136
     7  H    0.553347  -0.037506  -0.032215
     8  H   -0.037506   0.637796  -0.052301
     9  H   -0.032215  -0.052301   0.632517
 Mulliken charges:
               1
     1  C   -0.189187
     2  O   -0.452427
     3  C   -0.190193
     4  H    0.124599
     5  H    0.125959
     6  H    0.165216
     7  H    0.158492
     8  H    0.130199
     9  H    0.127341
 Sum of Mulliken charges =  -0.00000
 Mulliken charges with hydrogens summed into heavy atoms:
               1
     1  C    0.226587
     2  O   -0.452427
     3  C    0.225840
 Electronic spatial extent (au):  <R**2>=            190.2231
 Charge=              0.0000 electrons
 Dipole moment (field-independent basis, Debye):
    X=              0.0466    Y=              1.2772    Z=             -0.0655  Tot=              1.2798
 Quadrupole moment (field-independent basis, Debye-Ang):
   XX=            -16.7757   YY=            -20.9624   ZZ=            -20.0474
   XY=             -0.0295   XZ=             -0.0571   YZ=             -0.0028
 Traceless Quadrupole moment (field-independent basis, Debye-Ang):
   XX=              2.4861   YY=             -1.7006   ZZ=             -0.7855
   XY=             -0.0295   XZ=             -0.0571   YZ=             -0.0028
 Octapole moment (field-independent basis, Debye-Ang**2):
  XXX=              0.4666  YYY=             -1.8621  ZZZ=              0.2024  XYY=             -0.1796
  XXY=             -2.2677  XXZ=             -0.3505  XZZ=              0.0941  YZZ=             -0.1110
  YYZ=             -0.3376  XYZ=              0.0650
 Hexadecapole moment (field-independent basis, Debye-Ang**3):
 XXXX=           -161.2916 YYYY=            -47.9681 ZZZZ=            -33.5509 XXXY=              0.1496
 XXXZ=             -0.5733 YYYX=             -0.0448 YYYZ=             -0.3435 ZZZX=              0.0925
 ZZZY=              0.1641 XXYY=            -34.8578 XXZZ=            -34.0931 YYZZ=            -13.0972
 XXYZ=              0.6860 YYXZ=             -0.1865 ZZXY=             -0.1923
 N-N= 8.332851525568D+01 E-N=-5.282881068815D+02  KE= 1.535897621052D+02
 1\1\GINC-NODE60\SP\RB3LYP\6-31G(d)\C2H6O1\YANZ\22-Sep-2023\0\\# b3lyp/
 6-31g(d)\\tmpdir/M2_ref_102.gjf\\0,1\C,0,1.277293,-0.226303,0.321176\O
 ,0,2.434966,-0.675605,-0.375986\C,0,3.634684,-0.047362,0.029488\H,0,0.
 90895302,0.76765256,-0.05753003\H,0,1.51941,-0.134405,1.395353\H,0,0.4
 7391853,-0.90543982,0.20055922\H,0,4.44739,-0.558189,-0.49361\H,0,3.66
 7109,1.020568,-0.232683\H,0,3.795474,-0.143555,1.115716\\Version=ES64L
 -G16RevA.03\State=1-A\HF=-155.0219809\RMSD=1.147e-09\Dipole=0.0056126,
 0.3320004,0.3784832\Quadrupole=1.7892701,-0.9014289,-0.8878413,0.19071
 32,-0.3291608,-0.366702\PG=C01 [X(C2H6O1)]\\@


 COLLEGE PROFESSOR: SOMEONE WHO TALKS IN OTHER PEOPLE'S SLEEP.
 Job cpu time:       0 days  0 hours  0 minutes 13.6 seconds.
 Elapsed time:       0 days  0 hours  0 minutes  6.9 seconds.
 File lengths (MBytes):  RWF=      6 Int=      0 D2E=      0 Chk=      1 Scr=      1
 Normal termination of Gaussian 16 at Fri Sep 22 17:02:05 2023.
