 Entering Gaussian System, Link 0=g16
 Initial command:
 /share/apps/gaussian/g16/l1.exe "/tmp/55621.mgr/Gau-119018.inp" -scrdir="/tmp/55621.mgr/"
 Entering Link 1 = /share/apps/gaussian/g16/l1.exe PID=    119019.
  
 Copyright (c) 1988,1990,1992,1993,1995,1998,2003,2009,2016,
            Gaussian, Inc.  All Rights Reserved.
  
 This is part of the Gaussian(R) 16 program.  It is based on
 the Gaussian(R) 09 system (copyright 2009, Gaussian, Inc.),
 the Gaussian(R) 03 system (copyright 2003, Gaussian, Inc.),
 the Gaussian(R) 98 system (copyright 1998, Gaussian, Inc.),
 the Gaussian(R) 94 system (copyright 1995, Gaussian, Inc.),
 the Gaussian 92(TM) system (copyright 1992, Gaussian, Inc.),
 the Gaussian 90(TM) system (copyright 1990, Gaussian, Inc.),
 the Gaussian 88(TM) system (copyright 1988, Gaussian, Inc.),
 the Gaussian 86(TM) system (copyright 1986, Carnegie Mellon
 University), and the Gaussian 82(TM) system (copyright 1983,
 Carnegie Mellon University). Gaussian is a federally registered
 trademark of Gaussian, Inc.
  
 This software contains proprietary and confidential information,
 including trade secrets, belonging to Gaussian, Inc.
  
 This software is provided under written license and may be
 used, copied, transmitted, or stored only in accord with that
 written license.
  
 The following legend is applicable only to US Government
 contracts under FAR:
  
                    RESTRICTED RIGHTS LEGEND
  
 Use, reproduction and disclosure by the US Government is
 subject to restrictions as set forth in subparagraphs (a)
 and (c) of the Commercial Computer Software - Restricted
 Rights clause in FAR 52.227-19.
  
 Gaussian, Inc.
 340 Quinnipiac St., Bldg. 40, Wallingford CT 06492
  
  
 ---------------------------------------------------------------
 Warning -- This program may not be used in any manner that
 competes with the business of Gaussian, Inc. or will provide
 assistance to any competitor of Gaussian, Inc.  The licensee
 of this program is prohibited from giving any competitor of
 Gaussian, Inc. access to this program.  By using this program,
 the user acknowledges that Gaussian, Inc. is engaged in the
 business of creating and licensing software in the field of
 computational chemistry and represents and warrants to the
 licensee that it is not a competitor of Gaussian, Inc. and that
 it will not use this program in any manner prohibited above.
 ---------------------------------------------------------------
  

 Cite this work as:
 Gaussian 16, Revision A.03,
 M. J. Frisch, G. W. Trucks, H. B. Schlegel, G. E. Scuseria, 
 M. A. Robb, J. R. Cheeseman, G. Scalmani, V. Barone, 
 G. A. Petersson, H. Nakatsuji, X. Li, M. Caricato, A. V. Marenich, 
 J. Bloino, B. G. Janesko, R. Gomperts, B. Mennucci, H. P. Hratchian, 
 J. V. Ortiz, A. F. Izmaylov, J. L. Sonnenberg, D. Williams-Young, 
 F. Ding, F. Lipparini, F. Egidi, J. Goings, B. Peng, A. Petrone, 
 T. Henderson, D. Ranasinghe, V. G. Zakrzewski, J. Gao, N. Rega, 
 G. Zheng, W. Liang, M. Hada, M. Ehara, K. Toyota, R. Fukuda, 
 J. Hasegawa, M. Ishida, T. Nakajima, Y. Honda, O. Kitao, H. Nakai, 
 T. Vreven, K. Throssell, J. A. Montgomery, Jr., J. E. Peralta, 
 F. Ogliaro, M. J. Bearpark, J. J. Heyd, E. N. Brothers, K. N. Kudin, 
 V. N. Staroverov, T. A. Keith, R. Kobayashi, J. Normand, 
 K. Raghavachari, A. P. Rendell, J. C. Burant, S. S. Iyengar, 
 J. Tomasi, M. Cossi, J. M. Millam, M. Klene, C. Adamo, R. Cammi, 
 J. W. Ochterski, R. L. Martin, K. Morokuma, O. Farkas, 
 J. B. Foresman, and D. J. Fox, Gaussian, Inc., Wallingford CT, 2016.
 
 ******************************************
 Gaussian 16:  ES64L-G16RevA.03 25-Dec-2016
                22-Sep-2023 
 ******************************************
 %nprocshared=2
 Will use up to    2 processors via shared memory.
 %mem=2GB
 ----------------
 # b3lyp/6-31g(d)
 ----------------
 1/38=1,172=1/1;
 2/12=2,17=6,18=5,40=1/2;
 3/5=1,6=6,7=1,11=2,25=1,30=1,74=-5/1,2,3;
 4//1;
 5/5=2,38=5/2;
 6/7=2,8=2,9=2,10=2,28=1/1;
 99/5=1,9=1/99;
 --------------------
 tmpdir/M2_ref_98.gjf
 --------------------
 Symbolic Z-matrix:
 Charge =  0 Multiplicity = 1
 C                    -2.1763   -0.83018   29.19302 
 C                    -2.70147   0.41623   29.54608 
 C                    -1.9794    1.25817   30.39149 
 O                    -1.08257  -1.18318   29.6268 
 H                    -2.73599  -1.49051   28.53601 
 H                    -3.66986   0.72719   29.16358 
 H                    -1.07888   0.96631   30.7467 
 H                    -2.38171   2.22826   30.67045 
 
                          Input orientation:                          
 ---------------------------------------------------------------------
 Center     Atomic      Atomic             Coordinates (Angstroms)
 Number     Number       Type             X           Y           Z
 ---------------------------------------------------------------------
      1          6           0       -2.176300   -0.830175   29.193023
      2          6           0       -2.701470    0.416228   29.546076
      3          6           0       -1.979399    1.258167   30.391492
      4          8           0       -1.082571   -1.183178   29.626804
      5          1           0       -2.735985   -1.490513   28.536011
      6          1           0       -3.669857    0.727191   29.163584
      7          1           0       -1.078880    0.966306   30.746698
      8          1           0       -2.381706    2.228263   30.670452
 ---------------------------------------------------------------------
                    Distance matrix (angstroms):
                    1          2          3          4          5
     1  C    0.000000
     2  C    1.397845   0.000000
     3  C    2.415837   1.394624   0.000000
     4  O    1.228422   2.277159   2.710944   0.000000
     5  H    1.086719   2.158028   3.401540   2.004510   0.000000
     6  H    2.158001   1.086633   2.155769   3.249328   2.486800
     7  H    2.616406   2.092099   1.011083   2.423729   3.697174
     8  H    3.402798   2.156372   1.086626   3.796694   4.302400
                    6          7          8
     6  H    0.000000
     7  H    3.045749   0.000000
     8  H    2.486604   1.815407   0.000000
 Stoichiometry    C3H4O
 Framework group  C1[X(C3H4O)]
 Deg. of freedom    18
 Full point group                 C1      NOp   1
 Largest Abelian subgroup         C1      NOp   1
 Largest concise Abelian subgroup C1      NOp   1
                         Standard orientation:                         
 ---------------------------------------------------------------------
 Center     Atomic      Atomic             Coordinates (Angstroms)
 Number     Number       Type             X           Y           Z
 ---------------------------------------------------------------------
      1          6           0       -0.801168    0.481552   -0.000534
      2          6           0        0.586890    0.646672   -0.000196
      3          6           0        1.417970   -0.473275   -0.000005
      4          8           0       -1.287432   -0.646529    0.000245
      5          1           0       -1.452916    1.351138    0.001149
      6          1           0        1.016487    1.644779    0.001021
      7          1           0        1.015887   -1.400970   -0.000405
      8          1           0        2.497853   -0.352408    0.000689
 ---------------------------------------------------------------------
 Rotational constants (GHZ):          21.3332950           6.9293046           5.2304078
 Standard basis: 6-31G(d) (6D, 7F)
 There are    68 symmetry adapted cartesian basis functions of A   symmetry.
 There are    68 symmetry adapted basis functions of A   symmetry.
    68 basis functions,   128 primitive gaussians,    68 cartesian basis functions
    15 alpha electrons       15 beta electrons
       nuclear repulsion energy       106.2000700731 Hartrees.
 NAtoms=    8 NActive=    8 NUniq=    8 SFac= 1.00D+00 NAtFMM=   60 NAOKFM=F Big=F
 Integral buffers will be    131072 words long.
 Raffenetti 2 integral format.
 Two-electron integral symmetry is turned on.
 One-electron integrals computed using PRISM.
 NBasis=    68 RedAO= T EigKep=  2.85D-03  NBF=    68
 NBsUse=    68 1.00D-06 EigRej= -1.00D+00 NBFU=    68
 ExpMin= 1.61D-01 ExpMax= 5.48D+03 ExpMxC= 8.25D+02 IAcc=3 IRadAn=         5 AccDes= 0.00D+00
 Harris functional with IExCor=  402 and IRadAn=       5 diagonalized for initial guess.
 HarFok:  IExCor=  402 AccDes= 0.00D+00 IRadAn=         5 IDoV= 1 UseB2=F ITyADJ=14
 ICtDFT=  3500011 ScaDFX=  1.000000  1.000000  1.000000  1.000000
 FoFCou: FMM=F IPFlag=           0 FMFlag=      100000 FMFlg1=           0
         NFxFlg=           0 DoJE=T BraDBF=F KetDBF=T FulRan=T
         wScrn=  0.000000 ICntrl=       500 IOpCl=  0 I1Cent=   200000004 NGrid=           0
         NMat0=    1 NMatS0=      1 NMatT0=    0 NMatD0=    1 NMtDS0=    0 NMtDT0=    0
 Petite list used in FoFCou.
 Keep R1 ints in memory in canonical form, NReq=4537793.
 Requested convergence on RMS density matrix=1.00D-08 within 128 cycles.
 Requested convergence on MAX density matrix=1.00D-06.
 Requested convergence on             energy=1.00D-06.
 No special actions if energy rises.
 Integral accuracy reduced to 1.0D-05 until final iterations.
 Initial convergence to 1.0D-05 achieved.  Increase integral accuracy.
 SCF Done:  E(RB3LYP) =  -191.895763724     A.U. after   14 cycles
            NFock= 14  Conv=0.66D-08     -V/T= 2.0084

 **********************************************************************

            Population analysis using the SCF density.

 **********************************************************************

 Orbital symmetries:
       Occupied  (A) (A) (A) (A) (A) (A) (A) (A) (A) (A) (A) (A)
                 (A) (A) (A)
       Virtual   (A) (A) (A) (A) (A) (A) (A) (A) (A) (A) (A) (A)
                 (A) (A) (A) (A) (A) (A) (A) (A) (A) (A) (A) (A)
                 (A) (A) (A) (A) (A) (A) (A) (A) (A) (A) (A) (A)
                 (A) (A) (A) (A) (A) (A) (A) (A) (A) (A) (A) (A)
                 (A) (A) (A) (A) (A)
 The electronic state is 1-A.
 Alpha  occ. eigenvalues --  -19.13626 -10.26555 -10.21630 -10.20660  -1.03176
 Alpha  occ. eigenvalues --   -0.79222  -0.67279  -0.55064  -0.51769  -0.44572
 Alpha  occ. eigenvalues --   -0.41987  -0.39455  -0.39066  -0.27506  -0.25330
 Alpha virt. eigenvalues --   -0.07930   0.07070   0.10582   0.14083   0.16630
 Alpha virt. eigenvalues --    0.20033   0.25370   0.31237   0.36005   0.51439
 Alpha virt. eigenvalues --    0.52709   0.57524   0.57955   0.59668   0.63457
 Alpha virt. eigenvalues --    0.63981   0.68551   0.81022   0.84711   0.85925
 Alpha virt. eigenvalues --    0.87248   0.92057   0.97670   0.99414   1.09791
 Alpha virt. eigenvalues --    1.10310   1.14027   1.28258   1.32980   1.41790
 Alpha virt. eigenvalues --    1.53927   1.54839   1.65110   1.76454   1.83688
 Alpha virt. eigenvalues --    1.84253   1.94699   1.95351   2.07230   2.20768
 Alpha virt. eigenvalues --    2.21990   2.30045   2.31737   2.53587   2.54116
 Alpha virt. eigenvalues --    2.62011   2.76904   2.90766   3.08182   3.84894
 Alpha virt. eigenvalues --    4.08432   4.15097   4.38377
          Condensed to atoms (all electrons):
               1          2          3          4          5          6
     1  C    4.581934   0.332360  -0.019737   0.560843   0.357846  -0.028710
     2  C    0.332360   5.177882   0.582722  -0.102145  -0.123634   0.339304
     3  C   -0.019737   0.582722   5.021225  -0.006439   0.008987  -0.044450
     4  O    0.560843  -0.102145  -0.006439   8.001649  -0.059585   0.004051
     5  H    0.357846  -0.123634   0.008987  -0.059585   0.700633   0.002439
     6  H   -0.028710   0.339304  -0.044450   0.004051   0.002439   0.586372
     7  H   -0.012015  -0.036584   0.373567   0.018551   0.000755   0.005385
     8  H    0.004722  -0.028993   0.356954   0.000715  -0.000060  -0.004388
               7          8
     1  C   -0.012015   0.004722
     2  C   -0.036584  -0.028993
     3  C    0.373567   0.356954
     4  O    0.018551   0.000715
     5  H    0.000755  -0.000060
     6  H    0.005385  -0.004388
     7  H    0.491735  -0.035936
     8  H   -0.035936   0.545523
 Mulliken charges:
               1
     1  C    0.222756
     2  C   -0.140911
     3  C   -0.272827
     4  O   -0.417640
     5  H    0.112619
     6  H    0.139998
     7  H    0.194542
     8  H    0.161464
 Sum of Mulliken charges =  -0.00000
 Mulliken charges with hydrogens summed into heavy atoms:
               1
     1  C    0.335375
     2  C   -0.000914
     3  C    0.083178
     4  O   -0.417640
 Electronic spatial extent (au):  <R**2>=            254.7237
 Charge=             -0.0000 electrons
 Dipole moment (field-independent basis, Debye):
    X=              2.1184    Y=              1.6630    Z=              0.0001  Tot=              2.6932
 Quadrupole moment (field-independent basis, Debye-Ang):
   XX=            -23.2870   YY=            -22.0144   ZZ=            -24.1850
   XY=             -3.0229   XZ=              0.0026   YZ=              0.0022
 Traceless Quadrupole moment (field-independent basis, Debye-Ang):
   XX=             -0.1249   YY=              1.1477   ZZ=             -1.0229
   XY=             -3.0229   XZ=              0.0026   YZ=              0.0022
 Octapole moment (field-independent basis, Debye-Ang**2):
  XXX=              4.9156  YYY=             -1.2423  ZZZ=              0.0019  XYY=              0.4823
  XXY=              1.9372  XXZ=              0.0039  XZZ=             -3.1789  YZZ=             -1.1662
  YYZ=              0.0036  XYZ=              0.0006
 Hexadecapole moment (field-independent basis, Debye-Ang**3):
 XXXX=           -201.3623 YYYY=            -84.6396 ZZZZ=            -22.4573 XXXY=             -4.0467
 XXXZ=              0.0093 YYYX=              1.6925 YYYZ=              0.0066 ZZZX=              0.0003
 ZZZY=             -0.0000 XXYY=            -49.2468 XXZZ=            -40.3612 YYZZ=            -19.1048
 XXYZ=              0.0045 YYXZ=              0.0005 ZZXY=              0.7265
 N-N= 1.062000700731D+02 E-N=-6.600362916134D+02  KE= 1.902917629434D+02
 1\1\GINC-NODE60\SP\RB3LYP\6-31G(d)\C3H4O1\YANZ\22-Sep-2023\0\\# b3lyp/
 6-31g(d)\\tmpdir/M2_ref_98.gjf\\0,1\C,0,-2.1763,-0.830175,29.193023\C,
 0,-2.70147,0.416228,29.546076\C,0,-1.979399,1.258167,30.391492\O,0,-1.
 08257072,-1.18317845,29.62680364\H,0,-2.735985,-1.490513,28.536011\H,0
 ,-3.669857,0.727191,29.163584\H,0,-1.07887975,0.9663063,30.74669779\H,
 0,-2.381706,2.228263,30.670452\\Version=ES64L-G16RevA.03\State=1-A\HF=
 -191.8957637\RMSD=6.578e-09\Dipole=-0.7873571,0.7048852,-0.0769194\Qua
 drupole=-0.5995379,0.1179526,0.4815853,1.6252922,0.9341511,1.3753701\P
 G=C01 [X(C3H4O1)]\\@


 The number of Unix installations has grown to 10,
  with more expected.
                  -- The Unix Programmer's Manual,
                     2nd Edition, June, 1972.
 Job cpu time:       0 days  0 hours  0 minutes 15.4 seconds.
 Elapsed time:       0 days  0 hours  0 minutes  7.8 seconds.
 File lengths (MBytes):  RWF=      6 Int=      0 D2E=      0 Chk=      1 Scr=      1
 Normal termination of Gaussian 16 at Fri Sep 22 17:02:10 2023.
