 Entering Gaussian System, Link 0=g16
 Initial command:
 /share/apps/gaussian/g16/l1.exe "/tmp/55621.mgr/Gau-118489.inp" -scrdir="/tmp/55621.mgr/"
 Entering Link 1 = /share/apps/gaussian/g16/l1.exe PID=    118490.
  
 Copyright (c) 1988,1990,1992,1993,1995,1998,2003,2009,2016,
            Gaussian, Inc.  All Rights Reserved.
  
 This is part of the Gaussian(R) 16 program.  It is based on
 the Gaussian(R) 09 system (copyright 2009, Gaussian, Inc.),
 the Gaussian(R) 03 system (copyright 2003, Gaussian, Inc.),
 the Gaussian(R) 98 system (copyright 1998, Gaussian, Inc.),
 the Gaussian(R) 94 system (copyright 1995, Gaussian, Inc.),
 the Gaussian 92(TM) system (copyright 1992, Gaussian, Inc.),
 the Gaussian 90(TM) system (copyright 1990, Gaussian, Inc.),
 the Gaussian 88(TM) system (copyright 1988, Gaussian, Inc.),
 the Gaussian 86(TM) system (copyright 1986, Carnegie Mellon
 University), and the Gaussian 82(TM) system (copyright 1983,
 Carnegie Mellon University). Gaussian is a federally registered
 trademark of Gaussian, Inc.
  
 This software contains proprietary and confidential information,
 including trade secrets, belonging to Gaussian, Inc.
  
 This software is provided under written license and may be
 used, copied, transmitted, or stored only in accord with that
 written license.
  
 The following legend is applicable only to US Government
 contracts under FAR:
  
                    RESTRICTED RIGHTS LEGEND
  
 Use, reproduction and disclosure by the US Government is
 subject to restrictions as set forth in subparagraphs (a)
 and (c) of the Commercial Computer Software - Restricted
 Rights clause in FAR 52.227-19.
  
 Gaussian, Inc.
 340 Quinnipiac St., Bldg. 40, Wallingford CT 06492
  
  
 ---------------------------------------------------------------
 Warning -- This program may not be used in any manner that
 competes with the business of Gaussian, Inc. or will provide
 assistance to any competitor of Gaussian, Inc.  The licensee
 of this program is prohibited from giving any competitor of
 Gaussian, Inc. access to this program.  By using this program,
 the user acknowledges that Gaussian, Inc. is engaged in the
 business of creating and licensing software in the field of
 computational chemistry and represents and warrants to the
 licensee that it is not a competitor of Gaussian, Inc. and that
 it will not use this program in any manner prohibited above.
 ---------------------------------------------------------------
  

 Cite this work as:
 Gaussian 16, Revision A.03,
 M. J. Frisch, G. W. Trucks, H. B. Schlegel, G. E. Scuseria, 
 M. A. Robb, J. R. Cheeseman, G. Scalmani, V. Barone, 
 G. A. Petersson, H. Nakatsuji, X. Li, M. Caricato, A. V. Marenich, 
 J. Bloino, B. G. Janesko, R. Gomperts, B. Mennucci, H. P. Hratchian, 
 J. V. Ortiz, A. F. Izmaylov, J. L. Sonnenberg, D. Williams-Young, 
 F. Ding, F. Lipparini, F. Egidi, J. Goings, B. Peng, A. Petrone, 
 T. Henderson, D. Ranasinghe, V. G. Zakrzewski, J. Gao, N. Rega, 
 G. Zheng, W. Liang, M. Hada, M. Ehara, K. Toyota, R. Fukuda, 
 J. Hasegawa, M. Ishida, T. Nakajima, Y. Honda, O. Kitao, H. Nakai, 
 T. Vreven, K. Throssell, J. A. Montgomery, Jr., J. E. Peralta, 
 F. Ogliaro, M. J. Bearpark, J. J. Heyd, E. N. Brothers, K. N. Kudin, 
 V. N. Staroverov, T. A. Keith, R. Kobayashi, J. Normand, 
 K. Raghavachari, A. P. Rendell, J. C. Burant, S. S. Iyengar, 
 J. Tomasi, M. Cossi, J. M. Millam, M. Klene, C. Adamo, R. Cammi, 
 J. W. Ochterski, R. L. Martin, K. Morokuma, O. Farkas, 
 J. B. Foresman, and D. J. Fox, Gaussian, Inc., Wallingford CT, 2016.
 
 ******************************************
 Gaussian 16:  ES64L-G16RevA.03 25-Dec-2016
                22-Sep-2023 
 ******************************************
 %nprocshared=2
 Will use up to    2 processors via shared memory.
 %mem=2GB
 ----------------
 # b3lyp/6-31g(d)
 ----------------
 1/38=1,172=1/1;
 2/12=2,17=6,18=5,40=1/2;
 3/5=1,6=6,7=1,11=2,25=1,30=1,74=-5/1,2,3;
 4//1;
 5/5=2,38=5/2;
 6/7=2,8=2,9=2,10=2,28=1/1;
 99/5=1,9=1/99;
 --------------------
 tmpdir/M2_ref_67.gjf
 --------------------
 Symbolic Z-matrix:
 Charge = -1 Multiplicity = 1
 N                     2.22392  -0.79147   30.00378 
 C                     1.15615  -0.81771   31.04648 
 H                     1.45905  -0.19669   31.89954 
 H                     2.41077   0.06028   29.63562 
 H                     1.14246  -1.85736   31.38093 
 H                     0.17229  -0.50936   30.6772 
 
                          Input orientation:                          
 ---------------------------------------------------------------------
 Center     Atomic      Atomic             Coordinates (Angstroms)
 Number     Number       Type             X           Y           Z
 ---------------------------------------------------------------------
      1          7           0        2.223918   -0.791472   30.003777
      2          6           0        1.156149   -0.817712   31.046479
      3          1           0        1.459053   -0.196692   31.899535
      4          1           0        2.410771    0.060285   29.635617
      5          1           0        1.142456   -1.857358   31.380926
      6          1           0        0.172292   -0.509364   30.677204
 ---------------------------------------------------------------------
                    Distance matrix (angstroms):
                    1          2          3          4          5
     1  N    0.000000
     2  C    1.492664   0.000000
     3  H    2.129009   1.097780   0.000000
     4  H    0.946544   2.082183   2.469237   0.000000
     5  H    2.049930   1.092202   1.768333   2.886534   0.000000
     6  H    2.177673   1.095179   1.802113   2.533810   1.803755
                    6
     6  H    0.000000
 Stoichiometry    CH4N(1-)
 Framework group  C1[X(CH4N)]
 Deg. of freedom    12
 Full point group                 C1      NOp   1
 Largest Abelian subgroup         C1      NOp   1
 Largest concise Abelian subgroup C1      NOp   1
                         Standard orientation:                         
 ---------------------------------------------------------------------
 Center     Atomic      Atomic             Coordinates (Angstroms)
 Number     Number       Type             X           Y           Z
 ---------------------------------------------------------------------
      1          7           0       -0.820525    0.127907   -0.011465
      2          6           0        0.664363   -0.024111   -0.004714
      3          1           0        0.982257   -0.493612    0.935303
      4          1           0       -1.311389   -0.679777    0.039947
      5          1           0        1.032693    1.004110   -0.003466
      6          1           0        1.053937   -0.581408   -0.863242
 ---------------------------------------------------------------------
 Rotational constants (GHZ):         130.0436697          23.8455220          23.1736236
 Standard basis: 6-31G(d) (6D, 7F)
 There are    38 symmetry adapted cartesian basis functions of A   symmetry.
 There are    38 symmetry adapted basis functions of A   symmetry.
    38 basis functions,    72 primitive gaussians,    38 cartesian basis functions
     9 alpha electrons        9 beta electrons
       nuclear repulsion energy        35.7671596495 Hartrees.
 NAtoms=    6 NActive=    6 NUniq=    6 SFac= 1.00D+00 NAtFMM=   60 NAOKFM=F Big=F
 Integral buffers will be    131072 words long.
 Raffenetti 2 integral format.
 Two-electron integral symmetry is turned on.
 One-electron integrals computed using PRISM.
 NBasis=    38 RedAO= T EigKep=  9.98D-03  NBF=    38
 NBsUse=    38 1.00D-06 EigRej= -1.00D+00 NBFU=    38
 ExpMin= 1.61D-01 ExpMax= 4.17D+03 ExpMxC= 6.27D+02 IAcc=3 IRadAn=         5 AccDes= 0.00D+00
 Harris functional with IExCor=  402 and IRadAn=       5 diagonalized for initial guess.
 HarFok:  IExCor=  402 AccDes= 0.00D+00 IRadAn=         5 IDoV= 1 UseB2=F ITyADJ=14
 ICtDFT=  3500011 ScaDFX=  1.000000  1.000000  1.000000  1.000000
 FoFCou: FMM=F IPFlag=           0 FMFlag=      100000 FMFlg1=           0
         NFxFlg=           0 DoJE=T BraDBF=F KetDBF=T FulRan=T
         wScrn=  0.000000 ICntrl=       500 IOpCl=  0 I1Cent=   200000004 NGrid=           0
         NMat0=    1 NMatS0=      1 NMatT0=    0 NMatD0=    1 NMtDS0=    0 NMtDT0=    0
 Petite list used in FoFCou.
 Keep R1 ints in memory in canonical form, NReq=2001161.
 Requested convergence on RMS density matrix=1.00D-08 within 128 cycles.
 Requested convergence on MAX density matrix=1.00D-06.
 Requested convergence on             energy=1.00D-06.
 No special actions if energy rises.
 Integral accuracy reduced to 1.0D-05 until final iterations.
 Initial convergence to 1.0D-05 achieved.  Increase integral accuracy.
 SCF Done:  E(RB3LYP) =  -95.1450800540     A.U. after   13 cycles
            NFock= 13  Conv=0.88D-08     -V/T= 2.0060

 **********************************************************************

            Population analysis using the SCF density.

 **********************************************************************

 Orbital symmetries:
       Occupied  (A) (A) (A) (A) (A) (A) (A) (A) (A)
       Virtual   (A) (A) (A) (A) (A) (A) (A) (A) (A) (A) (A) (A)
                 (A) (A) (A) (A) (A) (A) (A) (A) (A) (A) (A) (A)
                 (A) (A) (A) (A) (A)
 The electronic state is 1-A.
 Alpha  occ. eigenvalues --  -13.92051  -9.94165  -0.50767  -0.36233  -0.16909
 Alpha  occ. eigenvalues --   -0.15693  -0.09580   0.08847   0.14827
 Alpha virt. eigenvalues --    0.33310   0.39259   0.40186   0.40569   0.50451
 Alpha virt. eigenvalues --    0.81217   0.81760   0.84910   1.05044   1.07154
 Alpha virt. eigenvalues --    1.08291   1.12737   1.14015   1.19121   1.25325
 Alpha virt. eigenvalues --    1.33054   1.60779   1.79638   1.88168   2.08034
 Alpha virt. eigenvalues --    2.27445   2.35365   2.41740   2.55633   2.62533
 Alpha virt. eigenvalues --    2.79087   2.97476   4.01233   4.50833
          Condensed to atoms (all electrons):
               1          2          3          4          5          6
     1  N    7.511291   0.418759  -0.069566   0.193517  -0.070077  -0.063378
     2  C    0.418759   4.948553   0.287242  -0.056373   0.380290   0.263657
     3  H   -0.069566   0.287242   0.959586  -0.010508  -0.061844  -0.096561
     4  H    0.193517  -0.056373  -0.010508   0.730295   0.012784  -0.010113
     5  H   -0.070077   0.380290  -0.061844   0.012784   0.758982  -0.064105
     6  H   -0.063378   0.263657  -0.096561  -0.010113  -0.064105   0.983843
 Mulliken charges:
               1
     1  N   -0.920546
     2  C   -0.242129
     3  H   -0.008350
     4  H    0.140398
     5  H    0.043969
     6  H   -0.013343
 Sum of Mulliken charges =  -1.00000
 Mulliken charges with hydrogens summed into heavy atoms:
               1
     1  N   -0.780148
     2  C   -0.219852
 Electronic spatial extent (au):  <R**2>=             98.0986
 Charge=             -1.0000 electrons
 Dipole moment (field-independent basis, Debye):
    X=              2.3488    Y=             -1.2504    Z=              0.1245  Tot=              2.6638
 Quadrupole moment (field-independent basis, Debye-Ang):
   XX=            -20.6726   YY=            -16.6361   ZZ=            -17.7113
   XY=              2.4432   XZ=             -0.1702   YZ=             -0.0224
 Traceless Quadrupole moment (field-independent basis, Debye-Ang):
   XX=             -2.3326   YY=              1.7039   ZZ=              0.6287
   XY=              2.4432   XZ=             -0.1702   YZ=             -0.0224
 Octapole moment (field-independent basis, Debye-Ang**2):
  XXX=             -1.0147  YYY=             -0.4902  ZZZ=              0.0757  XYY=             -0.0185
  XXY=             -1.7599  XXZ=              0.2230  XZZ=              0.0126  YZZ=              0.0561
  YYZ=              0.0572  XYZ=              0.0120
 Hexadecapole moment (field-independent basis, Debye-Ang**3):
 XXXX=            -89.4756 YYYY=            -28.4208 ZZZZ=            -28.0476 XXXY=              4.5662
 XXXZ=             -0.2403 YYYX=              2.2869 YYYZ=             -0.0505 ZZZX=             -0.2218
 ZZZY=             -0.0109 XXYY=            -20.3969 XXZZ=            -21.1669 YYZZ=             -9.6572
 XXYZ=             -0.0470 YYXZ=              0.0256 ZZXY=              1.4186
 N-N= 3.576715964947D+01 E-N=-2.983605737802D+02  KE= 9.457779636605D+01
 1\1\GINC-NODE60\SP\RB3LYP\6-31G(d)\C1H4N1(1-)\YANZ\22-Sep-2023\0\\# b3
 lyp/6-31g(d)\\tmpdir/M2_ref_67.gjf\\-1,1\N,0,2.223918,-0.791472,30.003
 777\C,0,1.156149,-0.817712,31.046479\H,0,1.459053,-0.196692,31.899535\
 H,0,2.4107708,0.06028458,29.63561668\H,0,1.142456,-1.857358,31.380926\
 H,0,0.17229165,-0.50936407,30.67720376\\Version=ES64L-G16RevA.03\State
 =1-A\HF=-95.1450801\RMSD=8.754e-09\Dipole=-0.7279409,0.3784444,0.65207
 27\Quadrupole=-1.0448493,1.6161251,-0.5712758,0.8536489,1.30926,-1.128
 4547\PG=C01 [X(C1H4N1)]\\@


 The earth never tires,
 The earth is rude, silent, incomprehensible at first,
 Nature is rude and incomprehensible at first,
 Be not discouraged, keep on,
 There are divine things well envelop'd,
 I swear to you there are divine things more beautiful than words can tell.
                                 -- Walt Whitman
 Job cpu time:       0 days  0 hours  0 minutes  6.5 seconds.
 Elapsed time:       0 days  0 hours  0 minutes  3.3 seconds.
 File lengths (MBytes):  RWF=      6 Int=      0 D2E=      0 Chk=      1 Scr=      1
 Normal termination of Gaussian 16 at Fri Sep 22 17:01:50 2023.
