 Entering Gaussian System, Link 0=g16
 Initial command:
 /share/apps/gaussian/g16/l1.exe "/tmp/55621.mgr/Gau-117906.inp" -scrdir="/tmp/55621.mgr/"
 Entering Link 1 = /share/apps/gaussian/g16/l1.exe PID=    117908.
  
 Copyright (c) 1988,1990,1992,1993,1995,1998,2003,2009,2016,
            Gaussian, Inc.  All Rights Reserved.
  
 This is part of the Gaussian(R) 16 program.  It is based on
 the Gaussian(R) 09 system (copyright 2009, Gaussian, Inc.),
 the Gaussian(R) 03 system (copyright 2003, Gaussian, Inc.),
 the Gaussian(R) 98 system (copyright 1998, Gaussian, Inc.),
 the Gaussian(R) 94 system (copyright 1995, Gaussian, Inc.),
 the Gaussian 92(TM) system (copyright 1992, Gaussian, Inc.),
 the Gaussian 90(TM) system (copyright 1990, Gaussian, Inc.),
 the Gaussian 88(TM) system (copyright 1988, Gaussian, Inc.),
 the Gaussian 86(TM) system (copyright 1986, Carnegie Mellon
 University), and the Gaussian 82(TM) system (copyright 1983,
 Carnegie Mellon University). Gaussian is a federally registered
 trademark of Gaussian, Inc.
  
 This software contains proprietary and confidential information,
 including trade secrets, belonging to Gaussian, Inc.
  
 This software is provided under written license and may be
 used, copied, transmitted, or stored only in accord with that
 written license.
  
 The following legend is applicable only to US Government
 contracts under FAR:
  
                    RESTRICTED RIGHTS LEGEND
  
 Use, reproduction and disclosure by the US Government is
 subject to restrictions as set forth in subparagraphs (a)
 and (c) of the Commercial Computer Software - Restricted
 Rights clause in FAR 52.227-19.
  
 Gaussian, Inc.
 340 Quinnipiac St., Bldg. 40, Wallingford CT 06492
  
  
 ---------------------------------------------------------------
 Warning -- This program may not be used in any manner that
 competes with the business of Gaussian, Inc. or will provide
 assistance to any competitor of Gaussian, Inc.  The licensee
 of this program is prohibited from giving any competitor of
 Gaussian, Inc. access to this program.  By using this program,
 the user acknowledges that Gaussian, Inc. is engaged in the
 business of creating and licensing software in the field of
 computational chemistry and represents and warrants to the
 licensee that it is not a competitor of Gaussian, Inc. and that
 it will not use this program in any manner prohibited above.
 ---------------------------------------------------------------
  

 Cite this work as:
 Gaussian 16, Revision A.03,
 M. J. Frisch, G. W. Trucks, H. B. Schlegel, G. E. Scuseria, 
 M. A. Robb, J. R. Cheeseman, G. Scalmani, V. Barone, 
 G. A. Petersson, H. Nakatsuji, X. Li, M. Caricato, A. V. Marenich, 
 J. Bloino, B. G. Janesko, R. Gomperts, B. Mennucci, H. P. Hratchian, 
 J. V. Ortiz, A. F. Izmaylov, J. L. Sonnenberg, D. Williams-Young, 
 F. Ding, F. Lipparini, F. Egidi, J. Goings, B. Peng, A. Petrone, 
 T. Henderson, D. Ranasinghe, V. G. Zakrzewski, J. Gao, N. Rega, 
 G. Zheng, W. Liang, M. Hada, M. Ehara, K. Toyota, R. Fukuda, 
 J. Hasegawa, M. Ishida, T. Nakajima, Y. Honda, O. Kitao, H. Nakai, 
 T. Vreven, K. Throssell, J. A. Montgomery, Jr., J. E. Peralta, 
 F. Ogliaro, M. J. Bearpark, J. J. Heyd, E. N. Brothers, K. N. Kudin, 
 V. N. Staroverov, T. A. Keith, R. Kobayashi, J. Normand, 
 K. Raghavachari, A. P. Rendell, J. C. Burant, S. S. Iyengar, 
 J. Tomasi, M. Cossi, J. M. Millam, M. Klene, C. Adamo, R. Cammi, 
 J. W. Ochterski, R. L. Martin, K. Morokuma, O. Farkas, 
 J. B. Foresman, and D. J. Fox, Gaussian, Inc., Wallingford CT, 2016.
 
 ******************************************
 Gaussian 16:  ES64L-G16RevA.03 25-Dec-2016
                22-Sep-2023 
 ******************************************
 %nprocshared=2
 Will use up to    2 processors via shared memory.
 %mem=2GB
 ----------------
 # b3lyp/6-31g(d)
 ----------------
 1/38=1,172=1/1;
 2/12=2,17=6,18=5,40=1/2;
 3/5=1,6=6,7=1,11=2,25=1,30=1,74=-5/1,2,3;
 4//1;
 5/5=2,38=5/2;
 6/7=2,8=2,9=2,10=2,28=1/1;
 99/5=1,9=1/99;
 --------------------
 tmpdir/M2_ref_22.gjf
 --------------------
 Symbolic Z-matrix:
 Charge =  0 Multiplicity = 1
 C                    -1.8997    1.18402  -0.42363 
 C                    -2.80943   0.09913   0.20928 
 C                    -2.43448  -1.37143  -0.12933 
 H                    -0.96356   1.49326   0.13346 
 H                    -1.63877   0.88728  -1.44823 
 H                    -2.52023   2.08295  -0.52774 
 H                    -2.80456   0.21851   1.30042 
 H                    -3.84544   0.26372  -0.1157 
 H                    -3.01433  -2.06339   0.49447 
 H                    -2.69653  -1.59376  -1.17314 
 H                    -1.39075  -1.46204   0.00759 
 
                          Input orientation:                          
 ---------------------------------------------------------------------
 Center     Atomic      Atomic             Coordinates (Angstroms)
 Number     Number       Type             X           Y           Z
 ---------------------------------------------------------------------
      1          6           0       -1.899702    1.184016   -0.423626
      2          6           0       -2.809433    0.099125    0.209283
      3          6           0       -2.434475   -1.371426   -0.129325
      4          1           0       -0.963558    1.493259    0.133457
      5          1           0       -1.638771    0.887282   -1.448230
      6          1           0       -2.520225    2.082946   -0.527744
      7          1           0       -2.804560    0.218507    1.300420
      8          1           0       -3.845443    0.263720   -0.115704
      9          1           0       -3.014333   -2.063392    0.494468
     10          1           0       -2.696534   -1.593761   -1.173141
     11          1           0       -1.390748   -1.462041    0.007588
 ---------------------------------------------------------------------
                    Distance matrix (angstroms):
                    1          2          3          4          5
     1  C    0.000000
     2  C    1.550862   0.000000
     3  C    2.627333   1.554918   0.000000
     4  H    1.132404   2.314436   3.230955   0.000000
     5  H    1.098157   2.176922   2.733938   1.823418   0.000000
     6  H    1.097253   2.135977   3.478330   1.791125   1.747532
     7  H    2.173318   1.097659   2.170028   2.525090   3.059641
     8  H    2.174320   1.098192   2.159796   3.143105   2.652142
     9  H    3.554006   2.190843   1.097347   4.121380   3.791137
    10  H    2.985424   2.188540   1.098936   3.773605   2.711109
    11  H    2.728845   2.119100   1.056562   2.988667   2.774930
                    6          7          8          9         10
     6  H    0.000000
     7  H    2.626626   0.000000
     8  H    2.288135   1.758092   0.000000
     9  H    4.298974   2.429120   2.545291   0.000000
    10  H    3.737084   3.068304   2.426603   1.761383   0.000000
    11  H    3.758887   2.548435   3.003161   1.798528   1.765375
                   11
    11  H    0.000000
 Stoichiometry    C3H8
 Framework group  C1[X(C3H8)]
 Deg. of freedom    27
 Full point group                 C1      NOp   1
 Largest Abelian subgroup         C1      NOp   1
 Largest concise Abelian subgroup C1      NOp   1
                         Standard orientation:                         
 ---------------------------------------------------------------------
 Center     Atomic      Atomic             Coordinates (Angstroms)
 Number     Number       Type             X           Y           Z
 ---------------------------------------------------------------------
      1          6           0        1.309352   -0.252211    0.004393
      2          6           0       -0.008076    0.566051    0.006611
      3          6           0       -1.317886   -0.271859    0.015215
      4          1           0        1.744793   -0.573740    0.999052
      5          1           0        1.192475   -1.127803   -0.648010
      6          1           0        2.062340    0.378958   -0.484073
      7          1           0       -0.014594    1.233465    0.878030
      8          1           0       -0.030950    1.213848   -0.879876
      9          1           0       -2.182987    0.379428    0.192962
     10          1           0       -1.471132   -0.737158   -0.968488
     11          1           0       -1.200285   -1.018878    0.753088
 ---------------------------------------------------------------------
 Rotational constants (GHZ):          30.1022515           7.9687204           7.1533156
 Standard basis: 6-31G(d) (6D, 7F)
 There are    61 symmetry adapted cartesian basis functions of A   symmetry.
 There are    61 symmetry adapted basis functions of A   symmetry.
    61 basis functions,   116 primitive gaussians,    61 cartesian basis functions
    13 alpha electrons       13 beta electrons
       nuclear repulsion energy        81.5371165317 Hartrees.
 NAtoms=   11 NActive=   11 NUniq=   11 SFac= 1.00D+00 NAtFMM=   60 NAOKFM=F Big=F
 Integral buffers will be    131072 words long.
 Raffenetti 2 integral format.
 Two-electron integral symmetry is turned on.
 One-electron integrals computed using PRISM.
 NBasis=    61 RedAO= T EigKep=  6.16D-03  NBF=    61
 NBsUse=    61 1.00D-06 EigRej= -1.00D+00 NBFU=    61
 ExpMin= 1.61D-01 ExpMax= 3.05D+03 ExpMxC= 4.57D+02 IAcc=3 IRadAn=         5 AccDes= 0.00D+00
 Harris functional with IExCor=  402 and IRadAn=       5 diagonalized for initial guess.
 HarFok:  IExCor=  402 AccDes= 0.00D+00 IRadAn=         5 IDoV= 1 UseB2=F ITyADJ=14
 ICtDFT=  3500011 ScaDFX=  1.000000  1.000000  1.000000  1.000000
 FoFCou: FMM=F IPFlag=           0 FMFlag=      100000 FMFlg1=           0
         NFxFlg=           0 DoJE=T BraDBF=F KetDBF=T FulRan=T
         wScrn=  0.000000 ICntrl=       500 IOpCl=  0 I1Cent=   200000004 NGrid=           0
         NMat0=    1 NMatS0=      1 NMatT0=    0 NMatD0=    1 NMtDS0=    0 NMtDT0=    0
 Petite list used in FoFCou.
 Keep R1 ints in memory in canonical form, NReq=3557582.
 Requested convergence on RMS density matrix=1.00D-08 within 128 cycles.
 Requested convergence on MAX density matrix=1.00D-06.
 Requested convergence on             energy=1.00D-06.
 No special actions if energy rises.
 Integral accuracy reduced to 1.0D-05 until final iterations.
 Initial convergence to 1.0D-05 achieved.  Increase integral accuracy.
 SCF Done:  E(RB3LYP) =  -119.136301480     A.U. after   11 cycles
            NFock= 11  Conv=0.39D-08     -V/T= 2.0110

 **********************************************************************

            Population analysis using the SCF density.

 **********************************************************************

 Orbital symmetries:
       Occupied  (A) (A) (A) (A) (A) (A) (A) (A) (A) (A) (A) (A)
                 (A)
       Virtual   (A) (A) (A) (A) (A) (A) (A) (A) (A) (A) (A) (A)
                 (A) (A) (A) (A) (A) (A) (A) (A) (A) (A) (A) (A)
                 (A) (A) (A) (A) (A) (A) (A) (A) (A) (A) (A) (A)
                 (A) (A) (A) (A) (A) (A) (A) (A) (A) (A) (A) (A)
 The electronic state is 1-A.
 Alpha  occ. eigenvalues --  -10.17929 -10.17501 -10.16710  -0.76869  -0.67598
 Alpha  occ. eigenvalues --   -0.57826  -0.44926  -0.43018  -0.39314  -0.37895
 Alpha  occ. eigenvalues --   -0.33855  -0.32493  -0.31847
 Alpha virt. eigenvalues --    0.09496   0.13548   0.15031   0.15684   0.16793
 Alpha virt. eigenvalues --    0.17534   0.18174   0.22499   0.23978   0.26044
 Alpha virt. eigenvalues --    0.51389   0.52555   0.54248   0.57723   0.59667
 Alpha virt. eigenvalues --    0.65643   0.69847   0.71790   0.78314   0.87131
 Alpha virt. eigenvalues --    0.87869   0.89153   0.89834   0.92725   0.95210
 Alpha virt. eigenvalues --    0.97221   0.98478   1.04240   1.30704   1.46751
 Alpha virt. eigenvalues --    1.47251   1.59321   1.73807   1.90292   1.91505
 Alpha virt. eigenvalues --    1.95034   2.05670   2.11813   2.18333   2.26105
 Alpha virt. eigenvalues --    2.34677   2.36908   2.39709   2.57269   2.65556
 Alpha virt. eigenvalues --    4.11814   4.26701   4.46695
          Condensed to atoms (all electrons):
               1          2          3          4          5          6
     1  C    5.069690   0.371033  -0.041693   0.375036   0.377247   0.373022
     2  C    0.371033   4.933358   0.379679  -0.023812  -0.041784  -0.033820
     3  C   -0.041693   0.379679   5.048100  -0.000735  -0.005775   0.004343
     4  H    0.375036  -0.023812  -0.000735   0.572655  -0.029550  -0.031872
     5  H    0.377247  -0.041784  -0.005775  -0.029550   0.580305  -0.032731
     6  H    0.373022  -0.033820   0.004343  -0.031872  -0.032731   0.584892
     7  H   -0.039511   0.380604  -0.040424  -0.006345   0.005074   0.000779
     8  H   -0.039261   0.384700  -0.042179   0.003996  -0.000196  -0.008105
     9  H    0.004207  -0.029265   0.375592  -0.000068   0.000060  -0.000177
    10  H   -0.003064  -0.032830   0.378533  -0.000161   0.003915  -0.000041
    11  H   -0.003726  -0.042896   0.383606   0.002019   0.000391  -0.000040
               7          8          9         10         11
     1  C   -0.039511  -0.039261   0.004207  -0.003064  -0.003726
     2  C    0.380604   0.384700  -0.029265  -0.032830  -0.042896
     3  C   -0.040424  -0.042179   0.375592   0.378533   0.383606
     4  H   -0.006345   0.003996  -0.000068  -0.000161   0.002019
     5  H    0.005074  -0.000196   0.000060   0.003915   0.000391
     6  H    0.000779  -0.008105  -0.000177  -0.000041  -0.000040
     7  H    0.605680  -0.037985  -0.004925   0.005157  -0.002403
     8  H   -0.037985   0.607028  -0.000547  -0.006676   0.005789
     9  H   -0.004925  -0.000547   0.573672  -0.033820  -0.025708
    10  H    0.005157  -0.006676  -0.033820   0.580758  -0.031164
    11  H   -0.002403   0.005789  -0.025708  -0.031164   0.560875
 Mulliken charges:
               1
     1  C   -0.442980
     2  C   -0.244967
     3  C   -0.439047
     4  H    0.138836
     5  H    0.143043
     6  H    0.143750
     7  H    0.134297
     8  H    0.133438
     9  H    0.140979
    10  H    0.139393
    11  H    0.153258
 Sum of Mulliken charges =  -0.00000
 Mulliken charges with hydrogens summed into heavy atoms:
               1
     1  C   -0.017351
     2  C    0.022768
     3  C   -0.005417
 Electronic spatial extent (au):  <R**2>=            232.9214
 Charge=              0.0000 electrons
 Dipole moment (field-independent basis, Debye):
    X=              0.0230    Y=              0.0772    Z=             -0.0451  Tot=              0.0923
 Quadrupole moment (field-independent basis, Debye-Ang):
   XX=            -21.9290   YY=            -21.6483   ZZ=            -21.1295
   XY=             -0.1855   XZ=              0.1691   YZ=             -0.0823
 Traceless Quadrupole moment (field-independent basis, Debye-Ang):
   XX=             -0.3601   YY=             -0.0793   ZZ=              0.4394
   XY=             -0.1855   XZ=              0.1691   YZ=             -0.0823
 Octapole moment (field-independent basis, Debye-Ang**2):
  XXX=             -0.2429  YYY=              0.0134  ZZZ=              0.0428  XYY=             -0.1153
  XXY=              1.2808  XXZ=              0.0509  XZZ=              0.2622  YZZ=             -0.2038
  YYZ=             -0.0979  XYZ=             -0.4287
 Hexadecapole moment (field-independent basis, Debye-Ang**3):
 XXXX=           -211.8757 YYYY=            -67.2692 ZZZZ=            -42.6112 XXXY=             -1.5220
 XXXZ=              0.5112 YYYX=             -0.0830 YYYZ=              0.0652 ZZZX=              1.2298
 ZZZY=             -0.1807 XXYY=            -46.3293 XXZZ=            -41.5732 YYZZ=            -16.8874
 XXYZ=             -0.5889 YYXZ=             -0.4958 ZZXY=              0.1093
 N-N= 8.153711653172D+01 E-N=-4.376283994657D+02  KE= 1.178412231025D+02
 1\1\GINC-NODE60\SP\RB3LYP\6-31G(d)\C3H8\YANZ\22-Sep-2023\0\\# b3lyp/6-
 31g(d)\\tmpdir/M2_ref_22.gjf\\0,1\C,0,-1.899702,1.184016,-0.423626\C,0
 ,-2.809433,0.099125,0.209283\C,0,-2.434475,-1.371426,-0.129325\H,0,-0.
 96355815,1.49325865,0.13345712\H,0,-1.638771,0.887282,-1.44823\H,0,-2.
 520225,2.082946,-0.527744\H,0,-2.80456,0.218507,1.30042\H,0,-3.845443,
 0.26372,-0.115704\H,0,-3.014333,-2.063392,0.494468\H,0,-2.696534,-1.59
 3761,-1.173141\H,0,-1.39074793,-1.4620406,0.0075879\\Version=ES64L-G16
 RevA.03\State=1-A\HF=-119.1363015\RMSD=3.851e-09\Dipole=-0.0321656,0.0
 166626,0.0026908\Quadrupole=0.2035209,-0.3266663,0.1231454,0.1065463,0
 .1894974,0.024128\PG=C01 [X(C3H8)]\\@


 The theorems and results in mathematical physics are
 not theorems and results about Nature, but about our
 description of it.
                   --Gerard 't Hooft
 Job cpu time:       0 days  0 hours  0 minutes 16.2 seconds.
 Elapsed time:       0 days  0 hours  0 minutes  8.2 seconds.
 File lengths (MBytes):  RWF=      6 Int=      0 D2E=      0 Chk=      1 Scr=      1
 Normal termination of Gaussian 16 at Fri Sep 22 17:01:39 2023.
