 Entering Gaussian System, Link 0=g16
 Initial command:
 /share/apps/gaussian/g16/l1.exe "/tmp/55621.mgr/Gau-118752.inp" -scrdir="/tmp/55621.mgr/"
 Entering Link 1 = /share/apps/gaussian/g16/l1.exe PID=    118754.
  
 Copyright (c) 1988,1990,1992,1993,1995,1998,2003,2009,2016,
            Gaussian, Inc.  All Rights Reserved.
  
 This is part of the Gaussian(R) 16 program.  It is based on
 the Gaussian(R) 09 system (copyright 2009, Gaussian, Inc.),
 the Gaussian(R) 03 system (copyright 2003, Gaussian, Inc.),
 the Gaussian(R) 98 system (copyright 1998, Gaussian, Inc.),
 the Gaussian(R) 94 system (copyright 1995, Gaussian, Inc.),
 the Gaussian 92(TM) system (copyright 1992, Gaussian, Inc.),
 the Gaussian 90(TM) system (copyright 1990, Gaussian, Inc.),
 the Gaussian 88(TM) system (copyright 1988, Gaussian, Inc.),
 the Gaussian 86(TM) system (copyright 1986, Carnegie Mellon
 University), and the Gaussian 82(TM) system (copyright 1983,
 Carnegie Mellon University). Gaussian is a federally registered
 trademark of Gaussian, Inc.
  
 This software contains proprietary and confidential information,
 including trade secrets, belonging to Gaussian, Inc.
  
 This software is provided under written license and may be
 used, copied, transmitted, or stored only in accord with that
 written license.
  
 The following legend is applicable only to US Government
 contracts under FAR:
  
                    RESTRICTED RIGHTS LEGEND
  
 Use, reproduction and disclosure by the US Government is
 subject to restrictions as set forth in subparagraphs (a)
 and (c) of the Commercial Computer Software - Restricted
 Rights clause in FAR 52.227-19.
  
 Gaussian, Inc.
 340 Quinnipiac St., Bldg. 40, Wallingford CT 06492
  
  
 ---------------------------------------------------------------
 Warning -- This program may not be used in any manner that
 competes with the business of Gaussian, Inc. or will provide
 assistance to any competitor of Gaussian, Inc.  The licensee
 of this program is prohibited from giving any competitor of
 Gaussian, Inc. access to this program.  By using this program,
 the user acknowledges that Gaussian, Inc. is engaged in the
 business of creating and licensing software in the field of
 computational chemistry and represents and warrants to the
 licensee that it is not a competitor of Gaussian, Inc. and that
 it will not use this program in any manner prohibited above.
 ---------------------------------------------------------------
  

 Cite this work as:
 Gaussian 16, Revision A.03,
 M. J. Frisch, G. W. Trucks, H. B. Schlegel, G. E. Scuseria, 
 M. A. Robb, J. R. Cheeseman, G. Scalmani, V. Barone, 
 G. A. Petersson, H. Nakatsuji, X. Li, M. Caricato, A. V. Marenich, 
 J. Bloino, B. G. Janesko, R. Gomperts, B. Mennucci, H. P. Hratchian, 
 J. V. Ortiz, A. F. Izmaylov, J. L. Sonnenberg, D. Williams-Young, 
 F. Ding, F. Lipparini, F. Egidi, J. Goings, B. Peng, A. Petrone, 
 T. Henderson, D. Ranasinghe, V. G. Zakrzewski, J. Gao, N. Rega, 
 G. Zheng, W. Liang, M. Hada, M. Ehara, K. Toyota, R. Fukuda, 
 J. Hasegawa, M. Ishida, T. Nakajima, Y. Honda, O. Kitao, H. Nakai, 
 T. Vreven, K. Throssell, J. A. Montgomery, Jr., J. E. Peralta, 
 F. Ogliaro, M. J. Bearpark, J. J. Heyd, E. N. Brothers, K. N. Kudin, 
 V. N. Staroverov, T. A. Keith, R. Kobayashi, J. Normand, 
 K. Raghavachari, A. P. Rendell, J. C. Burant, S. S. Iyengar, 
 J. Tomasi, M. Cossi, J. M. Millam, M. Klene, C. Adamo, R. Cammi, 
 J. W. Ochterski, R. L. Martin, K. Morokuma, O. Farkas, 
 J. B. Foresman, and D. J. Fox, Gaussian, Inc., Wallingford CT, 2016.
 
 ******************************************
 Gaussian 16:  ES64L-G16RevA.03 25-Dec-2016
                22-Sep-2023 
 ******************************************
 %nprocshared=2
 Will use up to    2 processors via shared memory.
 %mem=2GB
 ----------------
 # b3lyp/6-31g(d)
 ----------------
 1/38=1,172=1/1;
 2/12=2,17=6,18=5,40=1/2;
 3/5=1,6=6,7=1,11=2,25=1,30=1,74=-5/1,2,3;
 4//1;
 5/5=2,38=5/2;
 6/7=2,8=2,9=2,10=2,28=1/1;
 99/5=1,9=1/99;
 --------------------
 tmpdir/M2_ref_76.gjf
 --------------------
 Symbolic Z-matrix:
 Charge =  0 Multiplicity = 1
 C                    -0.9357   -1.23058   29.68505 
 C                    -0.20298  -0.39175   30.53635 
 C                    -0.73539   0.85498   30.88218 
 O                    -2.02943  -0.87758   29.25127 
 H                    -0.52576  -2.19821   29.40544 
 H                     0.78087  -0.7001    30.90563 
 H                    -1.63591   1.14684   30.52698 
 H                    -0.17603   1.51346   31.54321 
 
                          Input orientation:                          
 ---------------------------------------------------------------------
 Center     Atomic      Atomic             Coordinates (Angstroms)
 Number     Number       Type             X           Y           Z
 ---------------------------------------------------------------------
      1          6           0       -0.935704   -1.230580   29.685052
      2          6           0       -0.202984   -0.391750   30.536350
      3          6           0       -0.735392    0.854981   30.882185
      4          8           0       -2.029433   -0.877577   29.251271
      5          1           0       -0.525758   -2.198205   29.405435
      6          1           0        0.780873   -0.700098   30.905625
      7          1           0       -1.635911    1.146842   30.526979
      8          1           0       -0.176028    1.513463   31.543208
 ---------------------------------------------------------------------
                    Distance matrix (angstroms):
                    1          2          3          4          5
     1  C    0.000000
     2  C    1.401864   0.000000
     3  C    2.413051   1.399071   0.000000
     4  O    1.228422   2.285470   2.708538   0.000000
     5  H    1.087446   2.155558   3.398041   2.007203   0.000000
     6  H    2.172061   1.095179   2.172068   3.265916   2.490418
     7  H    2.617492   2.102530   1.011083   2.424986   3.698600
     8  H    3.399945   2.155070   1.087859   3.795412   4.297542
                    6          7          8
     6  H    0.000000
     7  H    3.065193   0.000000
     8  H    2.494399   1.816147   0.000000
 Stoichiometry    C3H4O
 Framework group  C1[X(C3H4O)]
 Deg. of freedom    18
 Full point group                 C1      NOp   1
 Largest Abelian subgroup         C1      NOp   1
 Largest concise Abelian subgroup C1      NOp   1
                         Standard orientation:                         
 ---------------------------------------------------------------------
 Center     Atomic      Atomic             Coordinates (Angstroms)
 Number     Number       Type             X           Y           Z
 ---------------------------------------------------------------------
      1          6           0       -0.799556    0.481424   -0.001647
      2          6           0        0.591925    0.651718   -0.003386
      3          6           0        1.413332   -0.480833    0.000763
      4          8           0       -1.290243   -0.644737    0.001051
      5          1           0       -1.445159    1.356478    0.002566
      6          1           0        1.027083    1.656573    0.014603
      7          1           0        1.011310   -1.408553    0.001944
      8          1           0        2.494507   -0.360459   -0.001905
 ---------------------------------------------------------------------
 Rotational constants (GHZ):          21.1469765           6.9321426           5.2207848
 Standard basis: 6-31G(d) (6D, 7F)
 There are    68 symmetry adapted cartesian basis functions of A   symmetry.
 There are    68 symmetry adapted basis functions of A   symmetry.
    68 basis functions,   128 primitive gaussians,    68 cartesian basis functions
    15 alpha electrons       15 beta electrons
       nuclear repulsion energy       106.0300013892 Hartrees.
 NAtoms=    8 NActive=    8 NUniq=    8 SFac= 1.00D+00 NAtFMM=   60 NAOKFM=F Big=F
 Integral buffers will be    131072 words long.
 Raffenetti 2 integral format.
 Two-electron integral symmetry is turned on.
 One-electron integrals computed using PRISM.
 NBasis=    68 RedAO= T EigKep=  2.91D-03  NBF=    68
 NBsUse=    68 1.00D-06 EigRej= -1.00D+00 NBFU=    68
 ExpMin= 1.61D-01 ExpMax= 5.48D+03 ExpMxC= 8.25D+02 IAcc=3 IRadAn=         5 AccDes= 0.00D+00
 Harris functional with IExCor=  402 and IRadAn=       5 diagonalized for initial guess.
 HarFok:  IExCor=  402 AccDes= 0.00D+00 IRadAn=         5 IDoV= 1 UseB2=F ITyADJ=14
 ICtDFT=  3500011 ScaDFX=  1.000000  1.000000  1.000000  1.000000
 FoFCou: FMM=F IPFlag=           0 FMFlag=      100000 FMFlg1=           0
         NFxFlg=           0 DoJE=T BraDBF=F KetDBF=T FulRan=T
         wScrn=  0.000000 ICntrl=       500 IOpCl=  0 I1Cent=   200000004 NGrid=           0
         NMat0=    1 NMatS0=      1 NMatT0=    0 NMatD0=    1 NMtDS0=    0 NMtDT0=    0
 Petite list used in FoFCou.
 Keep R1 ints in memory in canonical form, NReq=4537793.
 Requested convergence on RMS density matrix=1.00D-08 within 128 cycles.
 Requested convergence on MAX density matrix=1.00D-06.
 Requested convergence on             energy=1.00D-06.
 No special actions if energy rises.
 Integral accuracy reduced to 1.0D-05 until final iterations.
 Initial convergence to 1.0D-05 achieved.  Increase integral accuracy.
 SCF Done:  E(RB3LYP) =  -191.895788002     A.U. after   14 cycles
            NFock= 14  Conv=0.64D-08     -V/T= 2.0086

 **********************************************************************

            Population analysis using the SCF density.

 **********************************************************************

 Orbital symmetries:
       Occupied  (A) (A) (A) (A) (A) (A) (A) (A) (A) (A) (A) (A)
                 (A) (A) (A)
       Virtual   (A) (A) (A) (A) (A) (A) (A) (A) (A) (A) (A) (A)
                 (A) (A) (A) (A) (A) (A) (A) (A) (A) (A) (A) (A)
                 (A) (A) (A) (A) (A) (A) (A) (A) (A) (A) (A) (A)
                 (A) (A) (A) (A) (A) (A) (A) (A) (A) (A) (A) (A)
                 (A) (A) (A) (A) (A)
 The electronic state is 1-A.
 Alpha  occ. eigenvalues --  -19.13656 -10.26594 -10.21714 -10.20839  -1.03161
 Alpha  occ. eigenvalues --   -0.79118  -0.67211  -0.55017  -0.51649  -0.44608
 Alpha  occ. eigenvalues --   -0.41765  -0.39423  -0.39175  -0.27477  -0.25342
 Alpha virt. eigenvalues --   -0.07942   0.06952   0.10474   0.14012   0.16505
 Alpha virt. eigenvalues --    0.19991   0.25346   0.31111   0.35713   0.51486
 Alpha virt. eigenvalues --    0.52802   0.57598   0.57966   0.59586   0.63227
 Alpha virt. eigenvalues --    0.63861   0.68513   0.80862   0.84500   0.85785
 Alpha virt. eigenvalues --    0.87001   0.91854   0.97631   0.99443   1.09635
 Alpha virt. eigenvalues --    1.10264   1.14067   1.27367   1.33055   1.41833
 Alpha virt. eigenvalues --    1.54360   1.54950   1.65068   1.76147   1.83590
 Alpha virt. eigenvalues --    1.84112   1.93867   1.95348   2.07027   2.20164
 Alpha virt. eigenvalues --    2.22126   2.29905   2.30996   2.53455   2.53788
 Alpha virt. eigenvalues --    2.61826   2.76379   2.90740   3.07361   3.85104
 Alpha virt. eigenvalues --    4.08158   4.15094   4.38214
          Condensed to atoms (all electrons):
               1          2          3          4          5          6
     1  C    4.580655   0.331177  -0.020144   0.561522   0.357513  -0.028037
     2  C    0.331177   5.185608   0.578113  -0.100976  -0.124222   0.339737
     3  C   -0.020144   0.578113   5.022739  -0.005858   0.009194  -0.042803
     4  O    0.561522  -0.100976  -0.005858   8.000048  -0.059520   0.003812
     5  H    0.357513  -0.124222   0.009194  -0.059520   0.702404   0.002401
     6  H   -0.028037   0.339737  -0.042803   0.003812   0.002401   0.582417
     7  H   -0.011718  -0.036200   0.374390   0.018162   0.000762   0.005065
     8  H    0.004754  -0.029514   0.356459   0.000724  -0.000064  -0.004183
               7          8
     1  C   -0.011718   0.004754
     2  C   -0.036200  -0.029514
     3  C    0.374390   0.356459
     4  O    0.018162   0.000724
     5  H    0.000762  -0.000064
     6  H    0.005065  -0.004183
     7  H    0.489743  -0.035892
     8  H   -0.035892   0.547081
 Mulliken charges:
               1
     1  C    0.224279
     2  C   -0.143722
     3  C   -0.272089
     4  O   -0.417915
     5  H    0.111533
     6  H    0.141591
     7  H    0.195689
     8  H    0.160635
 Sum of Mulliken charges =  -0.00000
 Mulliken charges with hydrogens summed into heavy atoms:
               1
     1  C    0.335811
     2  C   -0.002131
     3  C    0.084235
     4  O   -0.417915
 Electronic spatial extent (au):  <R**2>=            255.1782
 Charge=             -0.0000 electrons
 Dipole moment (field-independent basis, Debye):
    X=              2.1332    Y=              1.6516    Z=              0.0079  Tot=              2.6978
 Quadrupole moment (field-independent basis, Debye-Ang):
   XX=            -23.3662   YY=            -21.9587   ZZ=            -24.2128
   XY=             -2.9912   XZ=              0.0162   YZ=              0.0208
 Traceless Quadrupole moment (field-independent basis, Debye-Ang):
   XX=             -0.1870   YY=              1.2205   ZZ=             -1.0336
   XY=             -2.9912   XZ=              0.0162   YZ=              0.0208
 Octapole moment (field-independent basis, Debye-Ang**2):
  XXX=              4.8360  YYY=             -1.2455  ZZZ=              0.0191  XYY=              0.5650
  XXY=              1.9128  XXZ=              0.0002  XZZ=             -3.2001  YZZ=             -1.1836
  YYZ=              0.0516  XYZ=              0.0205
 Hexadecapole moment (field-independent basis, Debye-Ang**3):
 XXXX=           -201.8349 YYYY=            -85.0815 ZZZZ=            -22.5061 XXXY=             -3.9240
 XXXZ=             -0.0101 YYYX=              1.7945 YYYZ=              0.0709 ZZZX=              0.0103
 ZZZY=              0.0093 XXYY=            -49.2943 XXZZ=            -40.3794 YYZZ=            -19.2541
 XXYZ=              0.0421 YYXZ=              0.0459 ZZXY=              0.7199
 N-N= 1.060300013892D+02 E-N=-6.596692435044D+02  KE= 1.902571057206D+02
 1\1\GINC-NODE60\SP\RB3LYP\6-31G(d)\C3H4O1\YANZ\22-Sep-2023\0\\# b3lyp/
 6-31g(d)\\tmpdir/M2_ref_76.gjf\\0,1\C,0,-0.935704,-1.23058,29.685052\C
 ,0,-0.202984,-0.39175,30.53635\C,0,-0.735392,0.854981,30.882185\O,0,-2
 .02943328,-0.87757655,29.25127136\H,0,-0.525758,-2.198205,29.405435\H,
 0,0.78087335,-0.70009793,30.90562524\H,0,-1.63591125,1.1468417,30.5269
 7921\H,0,-0.176028,1.513463,31.543208\\Version=ES64L-G16RevA.03\State=
 1-A\HF=-191.895788\RMSD=6.439e-09\Dipole=0.872912,0.1751657,0.5778694\
 Quadrupole=-1.1089921,1.9706965,-0.8617044,-1.2079785,-0.8431026,0.751
 3571\PG=C01 [X(C3H4O1)]\\@


 "PERFECTION IS NOT AN ACCIDENT"
         --  EAGLE ELECTRIC MANUFACTURING CO.,INC. NY
 Job cpu time:       0 days  0 hours  0 minutes 15.6 seconds.
 Elapsed time:       0 days  0 hours  0 minutes  7.9 seconds.
 File lengths (MBytes):  RWF=      6 Int=      0 D2E=      0 Chk=      1 Scr=      1
 Normal termination of Gaussian 16 at Fri Sep 22 17:02:02 2023.
