 Entering Gaussian System, Link 0=g16
 Initial command:
 /share/apps/gaussian/g16/l1.exe "/tmp/55621.mgr/Gau-118554.inp" -scrdir="/tmp/55621.mgr/"
 Entering Link 1 = /share/apps/gaussian/g16/l1.exe PID=    118555.
  
 Copyright (c) 1988,1990,1992,1993,1995,1998,2003,2009,2016,
            Gaussian, Inc.  All Rights Reserved.
  
 This is part of the Gaussian(R) 16 program.  It is based on
 the Gaussian(R) 09 system (copyright 2009, Gaussian, Inc.),
 the Gaussian(R) 03 system (copyright 2003, Gaussian, Inc.),
 the Gaussian(R) 98 system (copyright 1998, Gaussian, Inc.),
 the Gaussian(R) 94 system (copyright 1995, Gaussian, Inc.),
 the Gaussian 92(TM) system (copyright 1992, Gaussian, Inc.),
 the Gaussian 90(TM) system (copyright 1990, Gaussian, Inc.),
 the Gaussian 88(TM) system (copyright 1988, Gaussian, Inc.),
 the Gaussian 86(TM) system (copyright 1986, Carnegie Mellon
 University), and the Gaussian 82(TM) system (copyright 1983,
 Carnegie Mellon University). Gaussian is a federally registered
 trademark of Gaussian, Inc.
  
 This software contains proprietary and confidential information,
 including trade secrets, belonging to Gaussian, Inc.
  
 This software is provided under written license and may be
 used, copied, transmitted, or stored only in accord with that
 written license.
  
 The following legend is applicable only to US Government
 contracts under FAR:
  
                    RESTRICTED RIGHTS LEGEND
  
 Use, reproduction and disclosure by the US Government is
 subject to restrictions as set forth in subparagraphs (a)
 and (c) of the Commercial Computer Software - Restricted
 Rights clause in FAR 52.227-19.
  
 Gaussian, Inc.
 340 Quinnipiac St., Bldg. 40, Wallingford CT 06492
  
  
 ---------------------------------------------------------------
 Warning -- This program may not be used in any manner that
 competes with the business of Gaussian, Inc. or will provide
 assistance to any competitor of Gaussian, Inc.  The licensee
 of this program is prohibited from giving any competitor of
 Gaussian, Inc. access to this program.  By using this program,
 the user acknowledges that Gaussian, Inc. is engaged in the
 business of creating and licensing software in the field of
 computational chemistry and represents and warrants to the
 licensee that it is not a competitor of Gaussian, Inc. and that
 it will not use this program in any manner prohibited above.
 ---------------------------------------------------------------
  

 Cite this work as:
 Gaussian 16, Revision A.03,
 M. J. Frisch, G. W. Trucks, H. B. Schlegel, G. E. Scuseria, 
 M. A. Robb, J. R. Cheeseman, G. Scalmani, V. Barone, 
 G. A. Petersson, H. Nakatsuji, X. Li, M. Caricato, A. V. Marenich, 
 J. Bloino, B. G. Janesko, R. Gomperts, B. Mennucci, H. P. Hratchian, 
 J. V. Ortiz, A. F. Izmaylov, J. L. Sonnenberg, D. Williams-Young, 
 F. Ding, F. Lipparini, F. Egidi, J. Goings, B. Peng, A. Petrone, 
 T. Henderson, D. Ranasinghe, V. G. Zakrzewski, J. Gao, N. Rega, 
 G. Zheng, W. Liang, M. Hada, M. Ehara, K. Toyota, R. Fukuda, 
 J. Hasegawa, M. Ishida, T. Nakajima, Y. Honda, O. Kitao, H. Nakai, 
 T. Vreven, K. Throssell, J. A. Montgomery, Jr., J. E. Peralta, 
 F. Ogliaro, M. J. Bearpark, J. J. Heyd, E. N. Brothers, K. N. Kudin, 
 V. N. Staroverov, T. A. Keith, R. Kobayashi, J. Normand, 
 K. Raghavachari, A. P. Rendell, J. C. Burant, S. S. Iyengar, 
 J. Tomasi, M. Cossi, J. M. Millam, M. Klene, C. Adamo, R. Cammi, 
 J. W. Ochterski, R. L. Martin, K. Morokuma, O. Farkas, 
 J. B. Foresman, and D. J. Fox, Gaussian, Inc., Wallingford CT, 2016.
 
 ******************************************
 Gaussian 16:  ES64L-G16RevA.03 25-Dec-2016
                22-Sep-2023 
 ******************************************
 %nprocshared=2
 Will use up to    2 processors via shared memory.
 %mem=2GB
 ----------------
 # b3lyp/6-31g(d)
 ----------------
 1/38=1,172=1/1;
 2/12=2,17=6,18=5,40=1/2;
 3/5=1,6=6,7=1,11=2,25=1,30=1,74=-5/1,2,3;
 4//1;
 5/5=2,38=5/2;
 6/7=2,8=2,9=2,10=2,28=1/1;
 99/5=1,9=1/99;
 --------------------
 tmpdir/M2_ref_55.gjf
 --------------------
 Symbolic Z-matrix:
 Charge =  0 Multiplicity = 1
 C                     0.16749  -1.16448   0.15455 
 C                    -0.99264  -1.4966    0.05981 
 H                     0.97086  -0.48535   0.27517 
 H                    -2.03636  -1.40599  -0.0771 
 
                          Input orientation:                          
 ---------------------------------------------------------------------
 Center     Atomic      Atomic             Coordinates (Angstroms)
 Number     Number       Type             X           Y           Z
 ---------------------------------------------------------------------
      1          6           0        0.167485   -1.164485    0.154552
      2          6           0       -0.992636   -1.496604    0.059811
      3          1           0        0.970859   -0.485348    0.275169
      4          1           0       -2.036363   -1.405989   -0.077102
 ---------------------------------------------------------------------
                    Distance matrix (angstroms):
                    1          2          3          4
     1  C    0.000000
     2  C    1.210438   0.000000
     3  H    1.058861   2.219084   0.000000
     4  H    2.229111   1.056562   3.164658   0.000000
 Stoichiometry    C2H2
 Framework group  C1[X(C2H2)]
 Deg. of freedom     6
 Full point group                 C1      NOp   1
 Largest Abelian subgroup         C1      NOp   1
 Largest concise Abelian subgroup C1      NOp   1
                         Standard orientation:                         
 ---------------------------------------------------------------------
 Center     Atomic      Atomic             Coordinates (Angstroms)
 Number     Number       Type             X           Y           Z
 ---------------------------------------------------------------------
      1          6           0       -0.606048   -0.063019    0.010493
      2          6           0        0.604149   -0.052188   -0.011066
      3          1           0       -1.576379    0.359500   -0.023010
      4          1           0        1.587771    0.331742    0.026450
 ---------------------------------------------------------------------
 Rotational constants (GHZ):        1646.7055990          36.5243098          35.7499314
 Standard basis: 6-31G(d) (6D, 7F)
 There are    34 symmetry adapted cartesian basis functions of A   symmetry.
 There are    34 symmetry adapted basis functions of A   symmetry.
    34 basis functions,    64 primitive gaussians,    34 cartesian basis functions
     7 alpha electrons        7 beta electrons
       nuclear repulsion energy        24.7644549101 Hartrees.
 NAtoms=    4 NActive=    4 NUniq=    4 SFac= 1.00D+00 NAtFMM=   60 NAOKFM=F Big=F
 Integral buffers will be    131072 words long.
 Raffenetti 2 integral format.
 Two-electron integral symmetry is turned on.
 One-electron integrals computed using PRISM.
 NBasis=    34 RedAO= T EigKep=  2.25D-03  NBF=    34
 NBsUse=    34 1.00D-06 EigRej= -1.00D+00 NBFU=    34
 ExpMin= 1.61D-01 ExpMax= 3.05D+03 ExpMxC= 4.57D+02 IAcc=3 IRadAn=         5 AccDes= 0.00D+00
 Harris functional with IExCor=  402 and IRadAn=       5 diagonalized for initial guess.
 HarFok:  IExCor=  402 AccDes= 0.00D+00 IRadAn=         5 IDoV= 1 UseB2=F ITyADJ=14
 ICtDFT=  3500011 ScaDFX=  1.000000  1.000000  1.000000  1.000000
 FoFCou: FMM=F IPFlag=           0 FMFlag=      100000 FMFlg1=           0
         NFxFlg=           0 DoJE=T BraDBF=F KetDBF=T FulRan=T
         wScrn=  0.000000 ICntrl=       500 IOpCl=  0 I1Cent=   200000004 NGrid=           0
         NMat0=    1 NMatS0=      1 NMatT0=    0 NMatD0=    1 NMtDS0=    0 NMtDT0=    0
 Petite list used in FoFCou.
 Keep R1 ints in memory in canonical form, NReq=1902834.
 Requested convergence on RMS density matrix=1.00D-08 within 128 cycles.
 Requested convergence on MAX density matrix=1.00D-06.
 Requested convergence on             energy=1.00D-06.
 No special actions if energy rises.
 Integral accuracy reduced to 1.0D-05 until final iterations.
 Initial convergence to 1.0D-05 achieved.  Increase integral accuracy.
 SCF Done:  E(RB3LYP) =  -77.3124687008     A.U. after   11 cycles
            NFock= 11  Conv=0.31D-08     -V/T= 2.0099

 **********************************************************************

            Population analysis using the SCF density.

 **********************************************************************

 Orbital symmetries:
       Occupied  (A) (A) (A) (A) (A) (A) (A)
       Virtual   (A) (A) (A) (A) (A) (A) (A) (A) (A) (A) (A) (A)
                 (A) (A) (A) (A) (A) (A) (A) (A) (A) (A) (A) (A)
                 (A) (A) (A)
 The electronic state is 1-A.
 Alpha  occ. eigenvalues --  -10.19223 -10.18974  -0.74501  -0.56388  -0.48823
 Alpha  occ. eigenvalues --   -0.28204  -0.28130
 Alpha virt. eigenvalues --    0.00072   0.05037   0.15109   0.15515   0.42406
 Alpha virt. eigenvalues --    0.47070   0.53363   0.53501   0.62263   0.65310
 Alpha virt. eigenvalues --    0.73706   0.83493   0.93289   1.13691   1.20536
 Alpha virt. eigenvalues --    1.51212   1.54818   1.54880   1.71332   1.93364
 Alpha virt. eigenvalues --    1.95231   2.34090   2.49451   2.63316   3.12422
 Alpha virt. eigenvalues --    4.11228   4.24724
          Condensed to atoms (all electrons):
               1          2          3          4
     1  C    4.916667   0.961340   0.363444  -0.035521
     2  C    0.961340   4.886270  -0.029755   0.365240
     3  H    0.363444  -0.029755   0.468710   0.002415
     4  H   -0.035521   0.365240   0.002415   0.474029
 Mulliken charges:
               1
     1  C   -0.205930
     2  C   -0.183094
     3  H    0.195186
     4  H    0.193838
 Sum of Mulliken charges =  -0.00000
 Mulliken charges with hydrogens summed into heavy atoms:
               1
     1  C   -0.010744
     2  C    0.010744
 Electronic spatial extent (au):  <R**2>=             59.2613
 Charge=             -0.0000 electrons
 Dipole moment (field-independent basis, Debye):
    X=              0.0399    Y=              0.7734    Z=              0.0035  Tot=              0.7744
 Quadrupole moment (field-independent basis, Debye-Ang):
   XX=             -7.5268   YY=            -12.6298   ZZ=            -13.0483
   XY=             -0.0612   XZ=              0.1110   YZ=              0.0004
 Traceless Quadrupole moment (field-independent basis, Debye-Ang):
   XX=              3.5415   YY=             -1.5615   ZZ=             -1.9800
   XY=             -0.0612   XZ=              0.1110   YZ=              0.0004
 Octapole moment (field-independent basis, Debye-Ang**2):
  XXX=              0.1933  YYY=              1.1437  ZZZ=              0.0056  XYY=             -0.0137
  XXY=              2.5649  XXZ=              0.0126  XZZ=              0.0093  YZZ=              0.3424
  YYZ=              0.0017  XYZ=              0.0196
 Hexadecapole moment (field-independent basis, Debye-Ang**3):
 XXXX=            -40.5202 YYYY=            -14.3074 ZZZZ=            -13.4275 XXXY=             -0.1863
 XXXZ=              0.3991 YYYX=             -0.0785 YYYZ=              0.0002 ZZZX=              0.0958
 ZZZY=              0.0004 XXYY=            -10.5343 XXZZ=            -11.3430 YYZZ=             -4.6321
 XXYZ=              0.0033 YYXZ=              0.0489 ZZXY=             -0.0165
 N-N= 2.476445491014D+01 E-N=-2.285254236647D+02  KE= 7.655406919937D+01
 1\1\GINC-NODE60\SP\RB3LYP\6-31G(d)\C2H2\YANZ\22-Sep-2023\0\\# b3lyp/6-
 31g(d)\\tmpdir/M2_ref_55.gjf\\0,1\C,0,0.167485,-1.164485,0.154552\C,0,
 -0.992636,-1.496604,0.059811\H,0,0.97085947,-0.48534818,0.27516878\H,0
 ,-2.03636307,-1.4059894,-0.0771019\\Version=ES64L-G16RevA.03\State=1-A
 \HF=-77.3124687\RMSD=3.069e-09\Dipole=-0.1008862,0.2874075,-0.0070415\
 Quadrupole=2.252266,-0.8336277,-1.4186383,1.0581104,0.4527843,0.134086
 2\PG=C01 [X(C2H2)]\\@


 The earth never tires,
 The earth is rude, silent, incomprehensible at first,
 Nature is rude and incomprehensible at first,
 Be not discouraged, keep on,
 There are divine things well envelop'd,
 I swear to you there are divine things more beautiful than words can tell.
                                 -- Walt Whitman
 Job cpu time:       0 days  0 hours  0 minutes  4.1 seconds.
 Elapsed time:       0 days  0 hours  0 minutes  2.1 seconds.
 File lengths (MBytes):  RWF=      6 Int=      0 D2E=      0 Chk=      1 Scr=      1
 Normal termination of Gaussian 16 at Fri Sep 22 17:01:50 2023.
