 Entering Gaussian System, Link 0=g16
 Initial command:
 /share/apps/gaussian/g16/l1.exe "/tmp/55621.mgr/Gau-118689.inp" -scrdir="/tmp/55621.mgr/"
 Entering Link 1 = /share/apps/gaussian/g16/l1.exe PID=    118690.
  
 Copyright (c) 1988,1990,1992,1993,1995,1998,2003,2009,2016,
            Gaussian, Inc.  All Rights Reserved.
  
 This is part of the Gaussian(R) 16 program.  It is based on
 the Gaussian(R) 09 system (copyright 2009, Gaussian, Inc.),
 the Gaussian(R) 03 system (copyright 2003, Gaussian, Inc.),
 the Gaussian(R) 98 system (copyright 1998, Gaussian, Inc.),
 the Gaussian(R) 94 system (copyright 1995, Gaussian, Inc.),
 the Gaussian 92(TM) system (copyright 1992, Gaussian, Inc.),
 the Gaussian 90(TM) system (copyright 1990, Gaussian, Inc.),
 the Gaussian 88(TM) system (copyright 1988, Gaussian, Inc.),
 the Gaussian 86(TM) system (copyright 1986, Carnegie Mellon
 University), and the Gaussian 82(TM) system (copyright 1983,
 Carnegie Mellon University). Gaussian is a federally registered
 trademark of Gaussian, Inc.
  
 This software contains proprietary and confidential information,
 including trade secrets, belonging to Gaussian, Inc.
  
 This software is provided under written license and may be
 used, copied, transmitted, or stored only in accord with that
 written license.
  
 The following legend is applicable only to US Government
 contracts under FAR:
  
                    RESTRICTED RIGHTS LEGEND
  
 Use, reproduction and disclosure by the US Government is
 subject to restrictions as set forth in subparagraphs (a)
 and (c) of the Commercial Computer Software - Restricted
 Rights clause in FAR 52.227-19.
  
 Gaussian, Inc.
 340 Quinnipiac St., Bldg. 40, Wallingford CT 06492
  
  
 ---------------------------------------------------------------
 Warning -- This program may not be used in any manner that
 competes with the business of Gaussian, Inc. or will provide
 assistance to any competitor of Gaussian, Inc.  The licensee
 of this program is prohibited from giving any competitor of
 Gaussian, Inc. access to this program.  By using this program,
 the user acknowledges that Gaussian, Inc. is engaged in the
 business of creating and licensing software in the field of
 computational chemistry and represents and warrants to the
 licensee that it is not a competitor of Gaussian, Inc. and that
 it will not use this program in any manner prohibited above.
 ---------------------------------------------------------------
  

 Cite this work as:
 Gaussian 16, Revision A.03,
 M. J. Frisch, G. W. Trucks, H. B. Schlegel, G. E. Scuseria, 
 M. A. Robb, J. R. Cheeseman, G. Scalmani, V. Barone, 
 G. A. Petersson, H. Nakatsuji, X. Li, M. Caricato, A. V. Marenich, 
 J. Bloino, B. G. Janesko, R. Gomperts, B. Mennucci, H. P. Hratchian, 
 J. V. Ortiz, A. F. Izmaylov, J. L. Sonnenberg, D. Williams-Young, 
 F. Ding, F. Lipparini, F. Egidi, J. Goings, B. Peng, A. Petrone, 
 T. Henderson, D. Ranasinghe, V. G. Zakrzewski, J. Gao, N. Rega, 
 G. Zheng, W. Liang, M. Hada, M. Ehara, K. Toyota, R. Fukuda, 
 J. Hasegawa, M. Ishida, T. Nakajima, Y. Honda, O. Kitao, H. Nakai, 
 T. Vreven, K. Throssell, J. A. Montgomery, Jr., J. E. Peralta, 
 F. Ogliaro, M. J. Bearpark, J. J. Heyd, E. N. Brothers, K. N. Kudin, 
 V. N. Staroverov, T. A. Keith, R. Kobayashi, J. Normand, 
 K. Raghavachari, A. P. Rendell, J. C. Burant, S. S. Iyengar, 
 J. Tomasi, M. Cossi, J. M. Millam, M. Klene, C. Adamo, R. Cammi, 
 J. W. Ochterski, R. L. Martin, K. Morokuma, O. Farkas, 
 J. B. Foresman, and D. J. Fox, Gaussian, Inc., Wallingford CT, 2016.
 
 ******************************************
 Gaussian 16:  ES64L-G16RevA.03 25-Dec-2016
                22-Sep-2023 
 ******************************************
 %nprocshared=2
 Will use up to    2 processors via shared memory.
 %mem=2GB
 ----------------
 # b3lyp/6-31g(d)
 ----------------
 1/38=1,172=1/1;
 2/12=2,17=6,18=5,40=1/2;
 3/5=1,6=6,7=1,11=2,25=1,30=1,74=-5/1,2,3;
 4//1;
 5/5=2,38=5/2;
 6/7=2,8=2,9=2,10=2,28=1/1;
 99/5=1,9=1/99;
 --------------------
 tmpdir/M2_ref_79.gjf
 --------------------
 Symbolic Z-matrix:
 Charge =  0 Multiplicity = 1
 C                    -0.20298  -0.39175   30.53635 
 C                    -0.9357   -1.23058   29.68505 
 C                    -2.1763   -0.83018   29.19302 
 H                     0.78087  -0.7001    30.90563 
 O                    -0.67236   0.70739   30.84124 
 H                    -0.52576  -2.19821   29.40544 
 H                    -2.55646   0.07208   29.44859 
 H                    -2.73599  -1.49051   28.53601 
 
                          Input orientation:                          
 ---------------------------------------------------------------------
 Center     Atomic      Atomic             Coordinates (Angstroms)
 Number     Number       Type             X           Y           Z
 ---------------------------------------------------------------------
      1          6           0       -0.202984   -0.391750   30.536350
      2          6           0       -0.935704   -1.230580   29.685052
      3          6           0       -2.176300   -0.830175   29.193023
      4          1           0        0.780873   -0.700098   30.905625
      5          8           0       -0.672363    0.707388   30.841244
      6          1           0       -0.525758   -2.198205   29.405435
      7          1           0       -2.556463    0.072079   29.448593
      8          1           0       -2.735985   -1.490513   28.536011
 ---------------------------------------------------------------------
                    Distance matrix (angstroms):
                    1          2          3          4          5
     1  C    0.000000
     2  C    1.401864   0.000000
     3  C    2.427081   1.393375   0.000000
     4  H    1.095179   2.172061   3.419766   0.000000
     5  O    1.233443   2.271970   2.709715   2.024119   0.000000
     6  H    2.155558   1.087446   2.154278   2.490418   3.244304
     7  H    2.633860   2.092772   1.011880   3.722501   2.427535
     8  H    3.409506   2.151481   1.086719   4.313713   3.795181
                    6          7          8
     6  H    0.000000
     7  H    3.046279   0.000000
     8  H    2.478271   1.818441   0.000000
 Stoichiometry    C3H4O
 Framework group  C1[X(C3H4O)]
 Deg. of freedom    18
 Full point group                 C1      NOp   1
 Largest Abelian subgroup         C1      NOp   1
 Largest concise Abelian subgroup C1      NOp   1
                         Standard orientation:                         
 ---------------------------------------------------------------------
 Center     Atomic      Atomic             Coordinates (Angstroms)
 Number     Number       Type             X           Y           Z
 ---------------------------------------------------------------------
      1          6           0        0.809564    0.485036   -0.003286
      2          6           0       -0.583251    0.644049   -0.001659
      3          6           0       -1.422462   -0.468251    0.001253
      4          1           0        1.467130    1.360649    0.014820
      5          8           0        1.280822   -0.654826    0.000336
      6          1           0       -1.006906    1.645566    0.002585
      7          1           0       -1.029307   -1.400630    0.002319
      8          1           0       -2.500602   -0.331981   -0.000259
 ---------------------------------------------------------------------
 Rotational constants (GHZ):          21.2198969           6.9236582           5.2203954
 Standard basis: 6-31G(d) (6D, 7F)
 There are    68 symmetry adapted cartesian basis functions of A   symmetry.
 There are    68 symmetry adapted basis functions of A   symmetry.
    68 basis functions,   128 primitive gaussians,    68 cartesian basis functions
    15 alpha electrons       15 beta electrons
       nuclear repulsion energy       106.0138291425 Hartrees.
 NAtoms=    8 NActive=    8 NUniq=    8 SFac= 1.00D+00 NAtFMM=   60 NAOKFM=F Big=F
 Integral buffers will be    131072 words long.
 Raffenetti 2 integral format.
 Two-electron integral symmetry is turned on.
 One-electron integrals computed using PRISM.
 NBasis=    68 RedAO= T EigKep=  2.87D-03  NBF=    68
 NBsUse=    68 1.00D-06 EigRej= -1.00D+00 NBFU=    68
 ExpMin= 1.61D-01 ExpMax= 5.48D+03 ExpMxC= 8.25D+02 IAcc=3 IRadAn=         5 AccDes= 0.00D+00
 Harris functional with IExCor=  402 and IRadAn=       5 diagonalized for initial guess.
 HarFok:  IExCor=  402 AccDes= 0.00D+00 IRadAn=         5 IDoV= 1 UseB2=F ITyADJ=14
 ICtDFT=  3500011 ScaDFX=  1.000000  1.000000  1.000000  1.000000
 FoFCou: FMM=F IPFlag=           0 FMFlag=      100000 FMFlg1=           0
         NFxFlg=           0 DoJE=T BraDBF=F KetDBF=T FulRan=T
         wScrn=  0.000000 ICntrl=       500 IOpCl=  0 I1Cent=   200000004 NGrid=           0
         NMat0=    1 NMatS0=      1 NMatT0=    0 NMatD0=    1 NMtDS0=    0 NMtDT0=    0
 Petite list used in FoFCou.
 Keep R1 ints in memory in canonical form, NReq=4537793.
 Requested convergence on RMS density matrix=1.00D-08 within 128 cycles.
 Requested convergence on MAX density matrix=1.00D-06.
 Requested convergence on             energy=1.00D-06.
 No special actions if energy rises.
 Integral accuracy reduced to 1.0D-05 until final iterations.
 Initial convergence to 1.0D-05 achieved.  Increase integral accuracy.
 SCF Done:  E(RB3LYP) =  -191.895951646     A.U. after   14 cycles
            NFock= 14  Conv=0.68D-08     -V/T= 2.0086

 **********************************************************************

            Population analysis using the SCF density.

 **********************************************************************

 Orbital symmetries:
       Occupied  (A) (A) (A) (A) (A) (A) (A) (A) (A) (A) (A) (A)
                 (A) (A) (A)
       Virtual   (A) (A) (A) (A) (A) (A) (A) (A) (A) (A) (A) (A)
                 (A) (A) (A) (A) (A) (A) (A) (A) (A) (A) (A) (A)
                 (A) (A) (A) (A) (A) (A) (A) (A) (A) (A) (A) (A)
                 (A) (A) (A) (A) (A) (A) (A) (A) (A) (A) (A) (A)
                 (A) (A) (A) (A) (A)
 The electronic state is 1-A.
 Alpha  occ. eigenvalues --  -19.13705 -10.26768 -10.21589 -10.20671  -1.02971
 Alpha  occ. eigenvalues --   -0.79110  -0.67230  -0.55011  -0.51642  -0.44551
 Alpha  occ. eigenvalues --   -0.42022  -0.39343  -0.38947  -0.27463  -0.25369
 Alpha virt. eigenvalues --   -0.07958   0.06928   0.10530   0.13959   0.16460
 Alpha virt. eigenvalues --    0.20062   0.25191   0.31228   0.35883   0.51458
 Alpha virt. eigenvalues --    0.52638   0.57328   0.57937   0.59835   0.63381
 Alpha virt. eigenvalues --    0.64058   0.67966   0.80704   0.84784   0.85844
 Alpha virt. eigenvalues --    0.87071   0.91874   0.97690   0.99276   1.09704
 Alpha virt. eigenvalues --    1.10237   1.14003   1.28514   1.32890   1.42020
 Alpha virt. eigenvalues --    1.52864   1.54753   1.65155   1.76583   1.83446
 Alpha virt. eigenvalues --    1.83884   1.94497   1.95381   2.06702   2.20694
 Alpha virt. eigenvalues --    2.21457   2.29520   2.32227   2.52618   2.54048
 Alpha virt. eigenvalues --    2.61136   2.76522   2.90245   3.07391   3.84114
 Alpha virt. eigenvalues --    4.08190   4.14651   4.38227
          Condensed to atoms (all electrons):
               1          2          3          4          5          6
     1  C    4.589633   0.336787  -0.021003   0.354629   0.554467  -0.029162
     2  C    0.336787   5.165584   0.587768  -0.119778  -0.102881   0.337174
     3  C   -0.021003   0.587768   5.018581   0.008440  -0.006849  -0.044643
     4  H    0.354629  -0.119778   0.008440   0.695020  -0.056975   0.002860
     5  O    0.554467  -0.102881  -0.006849  -0.056975   8.007315   0.004224
     6  H   -0.029162   0.337174  -0.044643   0.002860   0.004224   0.590504
     7  H   -0.011970  -0.035713   0.373100   0.000685   0.018220   0.005447
     8  H    0.004684  -0.029000   0.356967  -0.000054   0.000721  -0.004490
               7          8
     1  C   -0.011970   0.004684
     2  C   -0.035713  -0.029000
     3  C    0.373100   0.356967
     4  H    0.000685  -0.000054
     5  O    0.018220   0.000721
     6  H    0.005447  -0.004490
     7  H    0.491999  -0.035763
     8  H   -0.035763   0.545577
 Mulliken charges:
               1
     1  C    0.221933
     2  C   -0.139941
     3  C   -0.272361
     4  H    0.115173
     5  O   -0.418241
     6  H    0.138085
     7  H    0.193995
     8  H    0.161358
 Sum of Mulliken charges =  -0.00000
 Mulliken charges with hydrogens summed into heavy atoms:
               1
     1  C    0.337106
     2  C   -0.001857
     3  C    0.082992
     5  O   -0.418241
 Electronic spatial extent (au):  <R**2>=            255.1931
 Charge=             -0.0000 electrons
 Dipole moment (field-independent basis, Debye):
    X=             -2.0719    Y=              1.6902    Z=              0.0028  Tot=              2.6739
 Quadrupole moment (field-independent basis, Debye-Ang):
   XX=            -23.2378   YY=            -22.0374   ZZ=            -24.2118
   XY=              3.0814   XZ=             -0.0017   YZ=              0.0051
 Traceless Quadrupole moment (field-independent basis, Debye-Ang):
   XX=             -0.0754   YY=              1.1249   ZZ=             -1.0495
   XY=              3.0814   XZ=             -0.0017   YZ=              0.0051
 Octapole moment (field-independent basis, Debye-Ang**2):
  XXX=             -4.8455  YYY=             -1.2868  ZZZ=              0.0046  XYY=             -0.3956
  XXY=              2.0270  XXZ=              0.0025  XZZ=              3.1613  YZZ=             -1.1873
  YYZ=              0.0285  XYZ=              0.0054
 Hexadecapole moment (field-independent basis, Debye-Ang**3):
 XXXX=           -201.6943 YYYY=            -84.9643 ZZZZ=            -22.5002 XXXY=              4.0333
 XXXZ=              0.0270 YYYX=             -1.4698 YYYZ=              0.0229 ZZZX=             -0.0021
 ZZZY=             -0.0032 XXYY=            -49.3967 XXZZ=            -40.4762 YYZZ=            -19.1743
 XXYZ=              0.0357 YYXZ=              0.0118 ZZXY=             -0.7377
 N-N= 1.060138291425D+02 E-N=-6.596412341150D+02  KE= 1.902535613352D+02
 1\1\GINC-NODE60\SP\RB3LYP\6-31G(d)\C3H4O1\YANZ\22-Sep-2023\0\\# b3lyp/
 6-31g(d)\\tmpdir/M2_ref_79.gjf\\0,1\C,0,-0.202984,-0.39175,30.53635\C,
 0,-0.935704,-1.23058,29.685052\C,0,-2.1763,-0.830175,29.193023\H,0,0.7
 8087335,-0.70009793,30.90562524\O,0,-0.67236341,0.707388,30.84124367\H
 ,0,-0.525758,-2.198205,29.405435\H,0,-2.55646321,0.07207868,29.4485931
 2\H,0,-2.735985,-1.490513,28.536011\\Version=ES64L-G16RevA.03\State=1-
 A\HF=-191.8959516\RMSD=6.848e-09\Dipole=-0.0500596,-0.9193227,-0.50896
 57\Quadrupole=2.0197689,-1.4575152,-0.5622538,-0.8260819,1.1405244,-0.
 8130035\PG=C01 [X(C3H4O1)]\\@


 IN THE UNIVERSE THE DIFFICULT THINGS ARE DONE AS IF THEY WERE EASY.

                                                          -- LAO-TSU
 Job cpu time:       0 days  0 hours  0 minutes 15.5 seconds.
 Elapsed time:       0 days  0 hours  0 minutes  7.9 seconds.
 File lengths (MBytes):  RWF=      6 Int=      0 D2E=      0 Chk=      1 Scr=      1
 Normal termination of Gaussian 16 at Fri Sep 22 17:01:59 2023.
