 Entering Gaussian System, Link 0=g16
 Initial command:
 /share/apps/gaussian/g16/l1.exe "/tmp/55621.mgr/Gau-117899.inp" -scrdir="/tmp/55621.mgr/"
 Entering Link 1 = /share/apps/gaussian/g16/l1.exe PID=    117905.
  
 Copyright (c) 1988,1990,1992,1993,1995,1998,2003,2009,2016,
            Gaussian, Inc.  All Rights Reserved.
  
 This is part of the Gaussian(R) 16 program.  It is based on
 the Gaussian(R) 09 system (copyright 2009, Gaussian, Inc.),
 the Gaussian(R) 03 system (copyright 2003, Gaussian, Inc.),
 the Gaussian(R) 98 system (copyright 1998, Gaussian, Inc.),
 the Gaussian(R) 94 system (copyright 1995, Gaussian, Inc.),
 the Gaussian 92(TM) system (copyright 1992, Gaussian, Inc.),
 the Gaussian 90(TM) system (copyright 1990, Gaussian, Inc.),
 the Gaussian 88(TM) system (copyright 1988, Gaussian, Inc.),
 the Gaussian 86(TM) system (copyright 1986, Carnegie Mellon
 University), and the Gaussian 82(TM) system (copyright 1983,
 Carnegie Mellon University). Gaussian is a federally registered
 trademark of Gaussian, Inc.
  
 This software contains proprietary and confidential information,
 including trade secrets, belonging to Gaussian, Inc.
  
 This software is provided under written license and may be
 used, copied, transmitted, or stored only in accord with that
 written license.
  
 The following legend is applicable only to US Government
 contracts under FAR:
  
                    RESTRICTED RIGHTS LEGEND
  
 Use, reproduction and disclosure by the US Government is
 subject to restrictions as set forth in subparagraphs (a)
 and (c) of the Commercial Computer Software - Restricted
 Rights clause in FAR 52.227-19.
  
 Gaussian, Inc.
 340 Quinnipiac St., Bldg. 40, Wallingford CT 06492
  
  
 ---------------------------------------------------------------
 Warning -- This program may not be used in any manner that
 competes with the business of Gaussian, Inc. or will provide
 assistance to any competitor of Gaussian, Inc.  The licensee
 of this program is prohibited from giving any competitor of
 Gaussian, Inc. access to this program.  By using this program,
 the user acknowledges that Gaussian, Inc. is engaged in the
 business of creating and licensing software in the field of
 computational chemistry and represents and warrants to the
 licensee that it is not a competitor of Gaussian, Inc. and that
 it will not use this program in any manner prohibited above.
 ---------------------------------------------------------------
  

 Cite this work as:
 Gaussian 16, Revision A.03,
 M. J. Frisch, G. W. Trucks, H. B. Schlegel, G. E. Scuseria, 
 M. A. Robb, J. R. Cheeseman, G. Scalmani, V. Barone, 
 G. A. Petersson, H. Nakatsuji, X. Li, M. Caricato, A. V. Marenich, 
 J. Bloino, B. G. Janesko, R. Gomperts, B. Mennucci, H. P. Hratchian, 
 J. V. Ortiz, A. F. Izmaylov, J. L. Sonnenberg, D. Williams-Young, 
 F. Ding, F. Lipparini, F. Egidi, J. Goings, B. Peng, A. Petrone, 
 T. Henderson, D. Ranasinghe, V. G. Zakrzewski, J. Gao, N. Rega, 
 G. Zheng, W. Liang, M. Hada, M. Ehara, K. Toyota, R. Fukuda, 
 J. Hasegawa, M. Ishida, T. Nakajima, Y. Honda, O. Kitao, H. Nakai, 
 T. Vreven, K. Throssell, J. A. Montgomery, Jr., J. E. Peralta, 
 F. Ogliaro, M. J. Bearpark, J. J. Heyd, E. N. Brothers, K. N. Kudin, 
 V. N. Staroverov, T. A. Keith, R. Kobayashi, J. Normand, 
 K. Raghavachari, A. P. Rendell, J. C. Burant, S. S. Iyengar, 
 J. Tomasi, M. Cossi, J. M. Millam, M. Klene, C. Adamo, R. Cammi, 
 J. W. Ochterski, R. L. Martin, K. Morokuma, O. Farkas, 
 J. B. Foresman, and D. J. Fox, Gaussian, Inc., Wallingford CT, 2016.
 
 ******************************************
 Gaussian 16:  ES64L-G16RevA.03 25-Dec-2016
                22-Sep-2023 
 ******************************************
 %nprocshared=2
 Will use up to    2 processors via shared memory.
 %mem=2GB
 ----------------
 # b3lyp/6-31g(d)
 ----------------
 1/38=1,172=1/1;
 2/12=2,17=6,18=5,40=1/2;
 3/5=1,6=6,7=1,11=2,25=1,30=1,74=-5/1,2,3;
 4//1;
 5/5=2,38=5/2;
 6/7=2,8=2,9=2,10=2,28=1/1;
 99/5=1,9=1/99;
 --------------------
 tmpdir/M2_ref_28.gjf
 --------------------
 Symbolic Z-matrix:
 Charge =  0 Multiplicity = 1
 C                    -2.43448  -1.37143  -0.12933 
 H                    -3.01433  -2.06339   0.49447 
 H                    -2.7059   -0.30691   0.11579 
 H                    -2.69653  -1.59376  -1.17314 
 H                    -1.39075  -1.46204   0.00759 
 
                          Input orientation:                          
 ---------------------------------------------------------------------
 Center     Atomic      Atomic             Coordinates (Angstroms)
 Number     Number       Type             X           Y           Z
 ---------------------------------------------------------------------
      1          6           0       -2.434475   -1.371426   -0.129325
      2          1           0       -3.014333   -2.063392    0.494468
      3          1           0       -2.705902   -0.306915    0.115789
      4          1           0       -2.696534   -1.593761   -1.173141
      5          1           0       -1.390748   -1.462041    0.007588
 ---------------------------------------------------------------------
                    Distance matrix (angstroms):
                    1          2          3          4          5
     1  C    0.000000
     2  H    1.097347   0.000000
     3  H    1.125583   1.823113   0.000000
     4  H    1.098936   1.761383   1.821373   0.000000
     5  H    1.056562   1.798528   1.753754   1.765375   0.000000
 Stoichiometry    CH4
 Framework group  C1[X(CH4)]
 Deg. of freedom     9
 Full point group                 C1      NOp   1
 Largest Abelian subgroup         C1      NOp   1
 Largest concise Abelian subgroup C1      NOp   1
                         Standard orientation:                         
 ---------------------------------------------------------------------
 Center     Atomic      Atomic             Coordinates (Angstroms)
 Number     Number       Type             X           Y           Z
 ---------------------------------------------------------------------
      1          6           0       -0.001389   -0.001807    0.009655
      2          1           0       -0.705813    0.784209    0.309882
      3          1           0        0.873723    0.448664   -0.536413
      4          1           0       -0.551475   -0.678836   -0.658699
      5          1           0        0.391901   -0.543197    0.827299
 ---------------------------------------------------------------------
 Rotational constants (GHZ):         163.0654887         155.6214733         152.3489374
 Standard basis: 6-31G(d) (6D, 7F)
 There are    23 symmetry adapted cartesian basis functions of A   symmetry.
 There are    23 symmetry adapted basis functions of A   symmetry.
    23 basis functions,    44 primitive gaussians,    23 cartesian basis functions
     5 alpha electrons        5 beta electrons
       nuclear repulsion energy        13.3854752574 Hartrees.
 NAtoms=    5 NActive=    5 NUniq=    5 SFac= 1.00D+00 NAtFMM=   60 NAOKFM=F Big=F
 Integral buffers will be    131072 words long.
 Raffenetti 2 integral format.
 Two-electron integral symmetry is turned on.
 One-electron integrals computed using PRISM.
 NBasis=    23 RedAO= T EigKep=  1.80D-02  NBF=    23
 NBsUse=    23 1.00D-06 EigRej= -1.00D+00 NBFU=    23
 ExpMin= 1.61D-01 ExpMax= 3.05D+03 ExpMxC= 4.57D+02 IAcc=3 IRadAn=         5 AccDes= 0.00D+00
 Harris functional with IExCor=  402 and IRadAn=       5 diagonalized for initial guess.
 HarFok:  IExCor=  402 AccDes= 0.00D+00 IRadAn=         5 IDoV= 1 UseB2=F ITyADJ=14
 ICtDFT=  3500011 ScaDFX=  1.000000  1.000000  1.000000  1.000000
 FoFCou: FMM=F IPFlag=           0 FMFlag=      100000 FMFlg1=           0
         NFxFlg=           0 DoJE=T BraDBF=F KetDBF=T FulRan=T
         wScrn=  0.000000 ICntrl=       500 IOpCl=  0 I1Cent=   200000004 NGrid=           0
         NMat0=    1 NMatS0=      1 NMatT0=    0 NMatD0=    1 NMtDS0=    0 NMtDT0=    0
 Petite list used in FoFCou.
 Keep R1 ints in memory in canonical form, NReq=1762518.
 Requested convergence on RMS density matrix=1.00D-08 within 128 cycles.
 Requested convergence on MAX density matrix=1.00D-06.
 Requested convergence on             energy=1.00D-06.
 No special actions if energy rises.
 Integral accuracy reduced to 1.0D-05 until final iterations.
 Initial convergence to 1.0D-05 achieved.  Increase integral accuracy.
 SCF Done:  E(RB3LYP) =  -40.5163082483     A.U. after    9 cycles
            NFock=  9  Conv=0.44D-08     -V/T= 2.0112

 **********************************************************************

            Population analysis using the SCF density.

 **********************************************************************

 Orbital symmetries:
       Occupied  (A) (A) (A) (A) (A)
       Virtual   (A) (A) (A) (A) (A) (A) (A) (A) (A) (A) (A) (A)
                 (A) (A) (A) (A) (A) (A)
 The electronic state is 1-A.
 Alpha  occ. eigenvalues --  -10.16752  -0.69037  -0.40132  -0.38400  -0.38127
 Alpha virt. eigenvalues --    0.11689   0.16923   0.17252   0.18641   0.52508
 Alpha virt. eigenvalues --    0.53272   0.54444   0.87822   0.88868   0.91580
 Alpha virt. eigenvalues --    0.95508   1.09714   1.65591   1.66134   2.21000
 Alpha virt. eigenvalues --    2.23996   2.27440   4.17800
          Condensed to atoms (all electrons):
               1          2          3          4          5
     1  C    5.093377   0.383751   0.379839   0.382429   0.387876
     2  H    0.383751   0.538132  -0.024629  -0.030403  -0.023838
     3  H    0.379839  -0.024629   0.551569  -0.024243  -0.030525
     4  H    0.382429  -0.030403  -0.024243   0.544491  -0.027378
     5  H    0.387876  -0.023838  -0.030525  -0.027378   0.526674
 Mulliken charges:
               1
     1  C   -0.627272
     2  H    0.156987
     3  H    0.147990
     4  H    0.155104
     5  H    0.167191
 Sum of Mulliken charges =  -0.00000
 Mulliken charges with hydrogens summed into heavy atoms:
               1
     1  C   -0.000000
 Electronic spatial extent (au):  <R**2>=             35.5338
 Charge=             -0.0000 electrons
 Dipole moment (field-independent basis, Debye):
    X=             -0.0053    Y=             -0.0258    Z=              0.0155  Tot=              0.0306
 Quadrupole moment (field-independent basis, Debye-Ang):
   XX=             -8.1219   YY=             -8.2875   ZZ=             -8.3576
   XY=             -0.0539   XZ=              0.0592   YZ=             -0.0313
 Traceless Quadrupole moment (field-independent basis, Debye-Ang):
   XX=              0.1338   YY=             -0.0319   ZZ=             -0.1019
   XY=             -0.0539   XZ=              0.0592   YZ=             -0.0313
 Octapole moment (field-independent basis, Debye-Ang**2):
  XXX=              0.1038  YYY=             -0.0442  ZZZ=              0.2403  XYY=             -0.2755
  XXY=              0.2608  XXZ=             -0.1634  XZZ=              0.1402  YZZ=             -0.3492
  YYZ=              0.0735  XYZ=             -0.5320
 Hexadecapole moment (field-independent basis, Debye-Ang**3):
 XXXX=            -15.9788 YYYY=            -15.6146 ZZZZ=            -15.2622 XXXY=             -0.0033
 XXXZ=             -0.1968 YYYX=             -0.2726 YYYZ=              0.1137 ZZZX=              0.3576
 ZZZY=             -0.2272 XXYY=             -4.8763 XXZZ=             -4.9736 YYZZ=             -4.8627
 XXYZ=             -0.0185 YYXZ=              0.0798 ZZXY=              0.0449
 N-N= 1.338547525744D+01 E-N=-1.198047885708D+02  KE= 4.006887910382D+01
 1\1\GINC-NODE60\SP\RB3LYP\6-31G(d)\C1H4\YANZ\22-Sep-2023\0\\# b3lyp/6-
 31g(d)\\tmpdir/M2_ref_28.gjf\\0,1\C,0,-2.434475,-1.371426,-0.129325\H,
 0,-3.014333,-2.063392,0.494468\H,0,-2.70590185,-0.30691472,0.11578859\
 H,0,-2.696534,-1.593761,-1.173141\H,0,-1.39074793,-1.4620406,0.0075879
 \\Version=ES64L-G16RevA.03\State=1-A\HF=-40.5163082\RMSD=4.444e-09\Dip
 ole=0.0094257,-0.0055814,-0.0049555\Quadrupole=0.0397349,0.0182214,-0.
 0579563,0.0908641,-0.0016754,0.0359207\PG=C01 [X(C1H4)]\\@


 In the race for quality, there is no finish line.
                               -- David T. Kearns
 Job cpu time:       0 days  0 hours  0 minutes  3.8 seconds.
 Elapsed time:       0 days  0 hours  0 minutes  2.0 seconds.
 File lengths (MBytes):  RWF=      6 Int=      0 D2E=      0 Chk=      1 Scr=      1
 Normal termination of Gaussian 16 at Fri Sep 22 17:01:32 2023.
