 Entering Gaussian System, Link 0=g16
 Initial command:
 /share/apps/gaussian/g16/l1.exe "/tmp/55621.mgr/Gau-118816.inp" -scrdir="/tmp/55621.mgr/"
 Entering Link 1 = /share/apps/gaussian/g16/l1.exe PID=    118817.
  
 Copyright (c) 1988,1990,1992,1993,1995,1998,2003,2009,2016,
            Gaussian, Inc.  All Rights Reserved.
  
 This is part of the Gaussian(R) 16 program.  It is based on
 the Gaussian(R) 09 system (copyright 2009, Gaussian, Inc.),
 the Gaussian(R) 03 system (copyright 2003, Gaussian, Inc.),
 the Gaussian(R) 98 system (copyright 1998, Gaussian, Inc.),
 the Gaussian(R) 94 system (copyright 1995, Gaussian, Inc.),
 the Gaussian 92(TM) system (copyright 1992, Gaussian, Inc.),
 the Gaussian 90(TM) system (copyright 1990, Gaussian, Inc.),
 the Gaussian 88(TM) system (copyright 1988, Gaussian, Inc.),
 the Gaussian 86(TM) system (copyright 1986, Carnegie Mellon
 University), and the Gaussian 82(TM) system (copyright 1983,
 Carnegie Mellon University). Gaussian is a federally registered
 trademark of Gaussian, Inc.
  
 This software contains proprietary and confidential information,
 including trade secrets, belonging to Gaussian, Inc.
  
 This software is provided under written license and may be
 used, copied, transmitted, or stored only in accord with that
 written license.
  
 The following legend is applicable only to US Government
 contracts under FAR:
  
                    RESTRICTED RIGHTS LEGEND
  
 Use, reproduction and disclosure by the US Government is
 subject to restrictions as set forth in subparagraphs (a)
 and (c) of the Commercial Computer Software - Restricted
 Rights clause in FAR 52.227-19.
  
 Gaussian, Inc.
 340 Quinnipiac St., Bldg. 40, Wallingford CT 06492
  
  
 ---------------------------------------------------------------
 Warning -- This program may not be used in any manner that
 competes with the business of Gaussian, Inc. or will provide
 assistance to any competitor of Gaussian, Inc.  The licensee
 of this program is prohibited from giving any competitor of
 Gaussian, Inc. access to this program.  By using this program,
 the user acknowledges that Gaussian, Inc. is engaged in the
 business of creating and licensing software in the field of
 computational chemistry and represents and warrants to the
 licensee that it is not a competitor of Gaussian, Inc. and that
 it will not use this program in any manner prohibited above.
 ---------------------------------------------------------------
  

 Cite this work as:
 Gaussian 16, Revision A.03,
 M. J. Frisch, G. W. Trucks, H. B. Schlegel, G. E. Scuseria, 
 M. A. Robb, J. R. Cheeseman, G. Scalmani, V. Barone, 
 G. A. Petersson, H. Nakatsuji, X. Li, M. Caricato, A. V. Marenich, 
 J. Bloino, B. G. Janesko, R. Gomperts, B. Mennucci, H. P. Hratchian, 
 J. V. Ortiz, A. F. Izmaylov, J. L. Sonnenberg, D. Williams-Young, 
 F. Ding, F. Lipparini, F. Egidi, J. Goings, B. Peng, A. Petrone, 
 T. Henderson, D. Ranasinghe, V. G. Zakrzewski, J. Gao, N. Rega, 
 G. Zheng, W. Liang, M. Hada, M. Ehara, K. Toyota, R. Fukuda, 
 J. Hasegawa, M. Ishida, T. Nakajima, Y. Honda, O. Kitao, H. Nakai, 
 T. Vreven, K. Throssell, J. A. Montgomery, Jr., J. E. Peralta, 
 F. Ogliaro, M. J. Bearpark, J. J. Heyd, E. N. Brothers, K. N. Kudin, 
 V. N. Staroverov, T. A. Keith, R. Kobayashi, J. Normand, 
 K. Raghavachari, A. P. Rendell, J. C. Burant, S. S. Iyengar, 
 J. Tomasi, M. Cossi, J. M. Millam, M. Klene, C. Adamo, R. Cammi, 
 J. W. Ochterski, R. L. Martin, K. Morokuma, O. Farkas, 
 J. B. Foresman, and D. J. Fox, Gaussian, Inc., Wallingford CT, 2016.
 
 ******************************************
 Gaussian 16:  ES64L-G16RevA.03 25-Dec-2016
                22-Sep-2023 
 ******************************************
 %nprocshared=2
 Will use up to    2 processors via shared memory.
 %mem=2GB
 ----------------
 # b3lyp/6-31g(d)
 ----------------
 1/38=1,172=1/1;
 2/12=2,17=6,18=5,40=1/2;
 3/5=1,6=6,7=1,11=2,25=1,30=1,74=-5/1,2,3;
 4//1;
 5/5=2,38=5/2;
 6/7=2,8=2,9=2,10=2,28=1/1;
 99/5=1,9=1/99;
 --------------------
 tmpdir/M2_ref_74.gjf
 --------------------
 Symbolic Z-matrix:
 Charge =  0 Multiplicity = 1
 C                     1.15615  -0.81771   31.04648 
 C                    -0.20298  -0.39175   30.53635 
 C                    -0.9357   -1.23058   29.68505 
 H                     1.99543  -0.79709   30.2269 
 H                     1.14246  -1.85736   31.38093 
 H                     1.45905  -0.19669   31.89954 
 O                    -0.67236   0.70739   30.84124 
 O                    -2.02943  -0.87758   29.25127 
 H                    -0.52576  -2.19821   29.40544 
 
                          Input orientation:                          
 ---------------------------------------------------------------------
 Center     Atomic      Atomic             Coordinates (Angstroms)
 Number     Number       Type             X           Y           Z
 ---------------------------------------------------------------------
      1          6           0        1.156149   -0.817712   31.046479
      2          6           0       -0.202984   -0.391750   30.536350
      3          6           0       -0.935704   -1.230580   29.685052
      4          1           0        1.995427   -0.797087   30.226904
      5          1           0        1.142456   -1.857358   31.380926
      6          1           0        1.459053   -0.196692   31.899535
      7          8           0       -0.672363    0.707388   30.841244
      8          8           0       -2.029433   -0.877577   29.251271
      9          1           0       -0.525758   -2.198205   29.405435
 ---------------------------------------------------------------------
                    Distance matrix (angstroms):
                    1          2          3          4          5
     1  C    0.000000
     2  C    1.512917   0.000000
     3  C    2.529781   1.401864   0.000000
     4  H    1.173251   2.256782   3.012150   0.000000
     5  H    1.092202   2.161371   2.754558   1.784237   0.000000
     6  H    1.097780   2.158399   3.421655   1.856305   1.768333
     7  O    2.389876   1.233443   2.271970   3.123774   3.187907
     8  O    3.657087   2.285470   1.228422   4.142202   3.944145
     9  H    2.725362   2.155558   1.087446   2.999053   2.608003
                    6          7          8          9
     6  H    0.000000
     7  O    2.545639   0.000000
     8  O    4.432431   2.623311   0.000000
     9  H    3.763783   3.244304   2.007203   0.000000
 Stoichiometry    C3H4O2
 Framework group  C1[X(C3H4O2)]
 Deg. of freedom    21
 Full point group                 C1      NOp   1
 Largest Abelian subgroup         C1      NOp   1
 Largest concise Abelian subgroup C1      NOp   1
                         Standard orientation:                         
 ---------------------------------------------------------------------
 Center     Atomic      Atomic             Coordinates (Angstroms)
 Number     Number       Type             X           Y           Z
 ---------------------------------------------------------------------
      1          6           0       -1.725179   -0.514246   -0.001905
      2          6           0       -0.360570    0.138968   -0.010231
      3          6           0        0.801179   -0.645609   -0.008964
      4          1           0       -2.004729   -1.009944    1.024084
      5          1           0       -1.769196   -1.342008   -0.713086
      6          1           0       -2.500311    0.209982   -0.284368
      7          8           0       -0.251919    1.367489    0.007503
      8          8           0        1.910354   -0.117885    0.007132
      9          1           0        0.714171   -1.729538   -0.017108
 ---------------------------------------------------------------------
 Rotational constants (GHZ):          11.0396347           4.2208779           3.1157371
 Standard basis: 6-31G(d) (6D, 7F)
 There are    83 symmetry adapted cartesian basis functions of A   symmetry.
 There are    83 symmetry adapted basis functions of A   symmetry.
    83 basis functions,   156 primitive gaussians,    83 cartesian basis functions
    19 alpha electrons       19 beta electrons
       nuclear repulsion energy       161.5163684071 Hartrees.
 NAtoms=    9 NActive=    9 NUniq=    9 SFac= 1.00D+00 NAtFMM=   60 NAOKFM=F Big=F
 Integral buffers will be    131072 words long.
 Raffenetti 2 integral format.
 Two-electron integral symmetry is turned on.
 One-electron integrals computed using PRISM.
 NBasis=    83 RedAO= T EigKep=  2.44D-03  NBF=    83
 NBsUse=    83 1.00D-06 EigRej= -1.00D+00 NBFU=    83
 ExpMin= 1.61D-01 ExpMax= 5.48D+03 ExpMxC= 8.25D+02 IAcc=3 IRadAn=         5 AccDes= 0.00D+00
 Harris functional with IExCor=  402 and IRadAn=       5 diagonalized for initial guess.
 HarFok:  IExCor=  402 AccDes= 0.00D+00 IRadAn=         5 IDoV= 1 UseB2=F ITyADJ=14
 ICtDFT=  3500011 ScaDFX=  1.000000  1.000000  1.000000  1.000000
 FoFCou: FMM=F IPFlag=           0 FMFlag=      100000 FMFlg1=           0
         NFxFlg=           0 DoJE=T BraDBF=F KetDBF=T FulRan=T
         wScrn=  0.000000 ICntrl=       500 IOpCl=  0 I1Cent=   200000004 NGrid=           0
         NMat0=    1 NMatS0=      1 NMatT0=    0 NMatD0=    1 NMtDS0=    0 NMtDT0=    0
 Petite list used in FoFCou.
 Keep R1 ints in memory in canonical form, NReq=7887989.
 Requested convergence on RMS density matrix=1.00D-08 within 128 cycles.
 Requested convergence on MAX density matrix=1.00D-06.
 Requested convergence on             energy=1.00D-06.
 No special actions if energy rises.
 Integral accuracy reduced to 1.0D-05 until final iterations.
 Initial convergence to 1.0D-05 achieved.  Increase integral accuracy.
 SCF Done:  E(RB3LYP) =  -267.123692272     A.U. after   13 cycles
            NFock= 13  Conv=0.88D-08     -V/T= 2.0086

 **********************************************************************

            Population analysis using the SCF density.

 **********************************************************************

 Orbital symmetries:
       Occupied  (A) (A) (A) (A) (A) (A) (A) (A) (A) (A) (A) (A)
                 (A) (A) (A) (A) (A) (A) (A)
       Virtual   (A) (A) (A) (A) (A) (A) (A) (A) (A) (A) (A) (A)
                 (A) (A) (A) (A) (A) (A) (A) (A) (A) (A) (A) (A)
                 (A) (A) (A) (A) (A) (A) (A) (A) (A) (A) (A) (A)
                 (A) (A) (A) (A) (A) (A) (A) (A) (A) (A) (A) (A)
                 (A) (A) (A) (A) (A) (A) (A) (A) (A) (A) (A) (A)
                 (A) (A) (A) (A)
 The electronic state is 1-A.
 Alpha  occ. eigenvalues --  -19.17974 -19.16778 -10.29332 -10.29103 -10.21808
 Alpha  occ. eigenvalues --   -1.07946  -1.04008  -0.78544  -0.69702  -0.55878
 Alpha  occ. eigenvalues --   -0.50835  -0.47150  -0.46670  -0.42816  -0.41766
 Alpha  occ. eigenvalues --   -0.40828  -0.35885  -0.29411  -0.26831
 Alpha virt. eigenvalues --   -0.11815   0.03289   0.08615   0.12873   0.13129
 Alpha virt. eigenvalues --    0.15850   0.21500   0.22331   0.34130   0.38824
 Alpha virt. eigenvalues --    0.48749   0.49151   0.55516   0.57363   0.62840
 Alpha virt. eigenvalues --    0.65428   0.67302   0.67932   0.71558   0.76070
 Alpha virt. eigenvalues --    0.79975   0.83611   0.84426   0.89016   0.91166
 Alpha virt. eigenvalues --    0.94770   0.97446   1.00854   1.01921   1.11855
 Alpha virt. eigenvalues --    1.16425   1.20369   1.30968   1.37938   1.51609
 Alpha virt. eigenvalues --    1.52734   1.64254   1.69391   1.73514   1.74659
 Alpha virt. eigenvalues --    1.80920   1.83305   1.89429   1.92649   1.99319
 Alpha virt. eigenvalues --    2.02433   2.05851   2.11996   2.16833   2.32684
 Alpha virt. eigenvalues --    2.37995   2.43225   2.44275   2.59229   2.66894
 Alpha virt. eigenvalues --    2.79433   2.87948   2.94947   3.18308   3.70876
 Alpha virt. eigenvalues --    4.00643   4.11922   4.24069   4.51090
          Condensed to atoms (all electrons):
               1          2          3          4          5          6
     1  C    5.398095   0.286778  -0.110326   0.345870   0.341161   0.356533
     2  C    0.286778   4.763279   0.187420  -0.017032  -0.024141  -0.017101
     3  C   -0.110326   0.187420   4.917655   0.003332   0.005980   0.004308
     4  H    0.345870  -0.017032   0.003332   0.537750  -0.028270  -0.016432
     5  H    0.341161  -0.024141   0.005980  -0.028270   0.554801  -0.025441
     6  H    0.356533  -0.017101   0.004308  -0.016432  -0.025441   0.496534
     7  O   -0.086064   0.569783  -0.077445   0.000190   0.002490   0.004035
     8  O    0.004253  -0.065994   0.533541  -0.000039   0.000026  -0.000063
     9  H    0.014230  -0.112171   0.350172  -0.000022   0.000891  -0.000221
               7          8          9
     1  C   -0.086064   0.004253   0.014230
     2  C    0.569783  -0.065994  -0.112171
     3  C   -0.077445   0.533541   0.350172
     4  H    0.000190  -0.000039  -0.000022
     5  H    0.002490   0.000026   0.000891
     6  H    0.004035  -0.000063  -0.000221
     7  O    7.986515  -0.007027   0.003783
     8  O   -0.007027   7.927851  -0.052688
     9  H    0.003783  -0.052688   0.668921
 Mulliken charges:
               1
     1  C   -0.550530
     2  C    0.429178
     3  C    0.185362
     4  H    0.174652
     5  H    0.172503
     6  H    0.197848
     7  O   -0.396259
     8  O   -0.339859
     9  H    0.127106
 Sum of Mulliken charges =   0.00000
 Mulliken charges with hydrogens summed into heavy atoms:
               1
     1  C   -0.005528
     2  C    0.429178
     3  C    0.312468
     7  O   -0.396259
     8  O   -0.339859
 Electronic spatial extent (au):  <R**2>=            397.4857
 Charge=              0.0000 electrons
 Dipole moment (field-independent basis, Debye):
    X=             -2.6178    Y=             -3.1566    Z=             -0.0374  Tot=              4.1010
 Quadrupole moment (field-independent basis, Debye-Ang):
   XX=            -31.3264   YY=            -30.2021   ZZ=            -27.0090
   XY=              0.3489   XZ=             -0.0516   YZ=             -0.1627
 Traceless Quadrupole moment (field-independent basis, Debye-Ang):
   XX=             -1.8139   YY=             -0.6896   ZZ=              2.5035
   XY=              0.3489   XZ=             -0.0516   YZ=             -0.1627
 Octapole moment (field-independent basis, Debye-Ang**2):
  XXX=             -8.7695  YYY=             -2.3081  ZZZ=              0.4402  XYY=              2.7838
  XXY=              1.2762  XXZ=             -0.1476  XZZ=              1.8929  YZZ=              1.0189
  YYZ=             -0.1735  XYZ=              0.5517
 Hexadecapole moment (field-independent basis, Debye-Ang**3):
 XXXX=           -332.7007 YYYY=           -135.8698 ZZZZ=            -30.0657 XXXY=             -1.4912
 XXXZ=              0.7739 YYYX=             -1.6300 YYYZ=              0.5382 ZZZX=             -0.8657
 ZZZY=             -0.4815 XXYY=            -74.5832 XXZZ=            -55.7671 YYZZ=            -25.8396
 XXYZ=             -1.4540 YYXZ=              0.1300 ZZXY=              0.5479
 N-N= 1.615163684071D+02 E-N=-9.479812815140D+02  KE= 2.648377201664D+02
 1\1\GINC-NODE60\SP\RB3LYP\6-31G(d)\C3H4O2\YANZ\22-Sep-2023\0\\# b3lyp/
 6-31g(d)\\tmpdir/M2_ref_74.gjf\\0,1\C,0,1.156149,-0.817712,31.046479\C
 ,0,-0.202984,-0.39175,30.53635\C,0,-0.935704,-1.23058,29.685052\H,0,1.
 99542718,-0.79708707,30.22690376\H,0,1.142456,-1.857358,31.380926\H,0,
 1.459053,-0.196692,31.899535\O,0,-0.67236341,0.707388,30.84124367\O,0,
 -2.02943328,-0.87757655,29.25127136\H,0,-0.525758,-2.198205,29.405435\
 \Version=ES64L-G16RevA.03\State=1-A\HF=-267.1236923\RMSD=8.808e-09\Dip
 ole=1.2516186,-1.0034624,0.1724741\Quadrupole=-0.4555253,-0.2413898,0.
 6969152,0.154029,-1.2806414,-0.9037928\PG=C01 [X(C3H4O2)]\\@


 COLLEGE PROFESSOR: SOMEONE WHO TALKS IN OTHER PEOPLE'S SLEEP.
 Job cpu time:       0 days  0 hours  0 minutes 19.3 seconds.
 Elapsed time:       0 days  0 hours  0 minutes  9.8 seconds.
 File lengths (MBytes):  RWF=      6 Int=      0 D2E=      0 Chk=      2 Scr=      1
 Normal termination of Gaussian 16 at Fri Sep 22 17:02:05 2023.
