 Entering Gaussian System, Link 0=g16
 Initial command:
 /share/apps/gaussian/g16/l1.exe "/tmp/55621.mgr/Gau-119148.inp" -scrdir="/tmp/55621.mgr/"
 Entering Link 1 = /share/apps/gaussian/g16/l1.exe PID=    119149.
  
 Copyright (c) 1988,1990,1992,1993,1995,1998,2003,2009,2016,
            Gaussian, Inc.  All Rights Reserved.
  
 This is part of the Gaussian(R) 16 program.  It is based on
 the Gaussian(R) 09 system (copyright 2009, Gaussian, Inc.),
 the Gaussian(R) 03 system (copyright 2003, Gaussian, Inc.),
 the Gaussian(R) 98 system (copyright 1998, Gaussian, Inc.),
 the Gaussian(R) 94 system (copyright 1995, Gaussian, Inc.),
 the Gaussian 92(TM) system (copyright 1992, Gaussian, Inc.),
 the Gaussian 90(TM) system (copyright 1990, Gaussian, Inc.),
 the Gaussian 88(TM) system (copyright 1988, Gaussian, Inc.),
 the Gaussian 86(TM) system (copyright 1986, Carnegie Mellon
 University), and the Gaussian 82(TM) system (copyright 1983,
 Carnegie Mellon University). Gaussian is a federally registered
 trademark of Gaussian, Inc.
  
 This software contains proprietary and confidential information,
 including trade secrets, belonging to Gaussian, Inc.
  
 This software is provided under written license and may be
 used, copied, transmitted, or stored only in accord with that
 written license.
  
 The following legend is applicable only to US Government
 contracts under FAR:
  
                    RESTRICTED RIGHTS LEGEND
  
 Use, reproduction and disclosure by the US Government is
 subject to restrictions as set forth in subparagraphs (a)
 and (c) of the Commercial Computer Software - Restricted
 Rights clause in FAR 52.227-19.
  
 Gaussian, Inc.
 340 Quinnipiac St., Bldg. 40, Wallingford CT 06492
  
  
 ---------------------------------------------------------------
 Warning -- This program may not be used in any manner that
 competes with the business of Gaussian, Inc. or will provide
 assistance to any competitor of Gaussian, Inc.  The licensee
 of this program is prohibited from giving any competitor of
 Gaussian, Inc. access to this program.  By using this program,
 the user acknowledges that Gaussian, Inc. is engaged in the
 business of creating and licensing software in the field of
 computational chemistry and represents and warrants to the
 licensee that it is not a competitor of Gaussian, Inc. and that
 it will not use this program in any manner prohibited above.
 ---------------------------------------------------------------
  

 Cite this work as:
 Gaussian 16, Revision A.03,
 M. J. Frisch, G. W. Trucks, H. B. Schlegel, G. E. Scuseria, 
 M. A. Robb, J. R. Cheeseman, G. Scalmani, V. Barone, 
 G. A. Petersson, H. Nakatsuji, X. Li, M. Caricato, A. V. Marenich, 
 J. Bloino, B. G. Janesko, R. Gomperts, B. Mennucci, H. P. Hratchian, 
 J. V. Ortiz, A. F. Izmaylov, J. L. Sonnenberg, D. Williams-Young, 
 F. Ding, F. Lipparini, F. Egidi, J. Goings, B. Peng, A. Petrone, 
 T. Henderson, D. Ranasinghe, V. G. Zakrzewski, J. Gao, N. Rega, 
 G. Zheng, W. Liang, M. Hada, M. Ehara, K. Toyota, R. Fukuda, 
 J. Hasegawa, M. Ishida, T. Nakajima, Y. Honda, O. Kitao, H. Nakai, 
 T. Vreven, K. Throssell, J. A. Montgomery, Jr., J. E. Peralta, 
 F. Ogliaro, M. J. Bearpark, J. J. Heyd, E. N. Brothers, K. N. Kudin, 
 V. N. Staroverov, T. A. Keith, R. Kobayashi, J. Normand, 
 K. Raghavachari, A. P. Rendell, J. C. Burant, S. S. Iyengar, 
 J. Tomasi, M. Cossi, J. M. Millam, M. Klene, C. Adamo, R. Cammi, 
 J. W. Ochterski, R. L. Martin, K. Morokuma, O. Farkas, 
 J. B. Foresman, and D. J. Fox, Gaussian, Inc., Wallingford CT, 2016.
 
 ******************************************
 Gaussian 16:  ES64L-G16RevA.03 25-Dec-2016
                22-Sep-2023 
 ******************************************
 %nprocshared=2
 Will use up to    2 processors via shared memory.
 %mem=2GB
 ----------------
 # b3lyp/6-31g(d)
 ----------------
 1/38=1,172=1/1;
 2/12=2,17=6,18=5,40=1/2;
 3/5=1,6=6,7=1,11=2,25=1,30=1,74=-5/1,2,3;
 4//1;
 5/5=2,38=5/2;
 6/7=2,8=2,9=2,10=2,28=1/1;
 99/5=1,9=1/99;
 --------------------
 tmpdir/M2_ref_95.gjf
 --------------------
 Symbolic Z-matrix:
 Charge =  0 Multiplicity = 1
 C                    -0.73539   0.85498   30.88218 
 C                    -1.9794    1.25817   30.39149 
 H                    -2.38171   2.22826   30.67045 
 O                    -0.26601  -0.24416   30.57729 
 H                    -0.17603   1.51346   31.54321 
 O                    -2.61599   0.5159    29.64616 
 
                          Input orientation:                          
 ---------------------------------------------------------------------
 Center     Atomic      Atomic             Coordinates (Angstroms)
 Number     Number       Type             X           Y           Z
 ---------------------------------------------------------------------
      1          6           0       -0.735392    0.854981   30.882185
      2          6           0       -1.979399    1.258167   30.391492
      3          1           0       -2.381706    2.228263   30.670452
      4          8           0       -0.266013   -0.244157   30.577291
      5          1           0       -0.176028    1.513463   31.543208
      6          8           0       -2.615988    0.515900   29.646160
 ---------------------------------------------------------------------
                    Distance matrix (angstroms):
                    1          2          3          4          5
     1  C    0.000000
     2  C    1.396743   0.000000
     3  H    2.154318   1.086626   0.000000
     4  O    1.233443   2.286305   3.255411   0.000000
     5  H    1.087859   2.154941   2.477430   2.007566   0.000000
     6  O    2.275824   1.229523   2.009042   2.639522   3.247665
                    6
     6  O    0.000000
 Stoichiometry    C2H2O2
 Framework group  C1[X(C2H2O2)]
 Deg. of freedom    12
 Full point group                 C1      NOp   1
 Largest Abelian subgroup         C1      NOp   1
 Largest concise Abelian subgroup C1      NOp   1
                         Standard orientation:                         
 ---------------------------------------------------------------------
 Center     Atomic      Atomic             Coordinates (Angstroms)
 Number     Number       Type             X           Y           Z
 ---------------------------------------------------------------------
      1          6           0        0.694256    0.504789   -0.001028
      2          6           0       -0.702486    0.503482    0.000147
      3          1           0       -1.243708    1.445730    0.001369
      4          8           0        1.323468   -0.556094    0.000384
      5          1           0        1.233719    1.449464    0.001429
      6          8           0       -1.316047   -0.562008   -0.000073
 ---------------------------------------------------------------------
 Rotational constants (GHZ):          25.0433252           7.1666953           5.5721155
 Standard basis: 6-31G(d) (6D, 7F)
 There are    64 symmetry adapted cartesian basis functions of A   symmetry.
 There are    64 symmetry adapted basis functions of A   symmetry.
    64 basis functions,   120 primitive gaussians,    64 cartesian basis functions
    15 alpha electrons       15 beta electrons
       nuclear repulsion energy       105.8141165925 Hartrees.
 NAtoms=    6 NActive=    6 NUniq=    6 SFac= 1.00D+00 NAtFMM=   60 NAOKFM=F Big=F
 Integral buffers will be    131072 words long.
 Raffenetti 2 integral format.
 Two-electron integral symmetry is turned on.
 One-electron integrals computed using PRISM.
 NBasis=    64 RedAO= T EigKep=  2.77D-03  NBF=    64
 NBsUse=    64 1.00D-06 EigRej= -1.00D+00 NBFU=    64
 ExpMin= 1.61D-01 ExpMax= 5.48D+03 ExpMxC= 8.25D+02 IAcc=3 IRadAn=         5 AccDes= 0.00D+00
 Harris functional with IExCor=  402 and IRadAn=       5 diagonalized for initial guess.
 HarFok:  IExCor=  402 AccDes= 0.00D+00 IRadAn=         5 IDoV= 1 UseB2=F ITyADJ=14
 ICtDFT=  3500011 ScaDFX=  1.000000  1.000000  1.000000  1.000000
 FoFCou: FMM=F IPFlag=           0 FMFlag=      100000 FMFlg1=           0
         NFxFlg=           0 DoJE=T BraDBF=F KetDBF=T FulRan=T
         wScrn=  0.000000 ICntrl=       500 IOpCl=  0 I1Cent=   200000004 NGrid=           0
         NMat0=    1 NMatS0=      1 NMatT0=    0 NMatD0=    1 NMtDS0=    0 NMtDT0=    0
 Petite list used in FoFCou.
 Keep R1 ints in memory in canonical form, NReq=3940480.
 Requested convergence on RMS density matrix=1.00D-08 within 128 cycles.
 Requested convergence on MAX density matrix=1.00D-06.
 Requested convergence on             energy=1.00D-06.
 No special actions if energy rises.
 Integral accuracy reduced to 1.0D-05 until final iterations.
 Initial convergence to 1.0D-05 achieved.  Increase integral accuracy.
 SCF Done:  E(RB3LYP) =  -227.799003873     A.U. after   13 cycles
            NFock= 13  Conv=0.58D-08     -V/T= 2.0080

 **********************************************************************

            Population analysis using the SCF density.

 **********************************************************************

 Orbital symmetries:
       Occupied  (A) (A) (A) (A) (A) (A) (A) (A) (A) (A) (A) (A)
                 (A) (A) (A)
       Virtual   (A) (A) (A) (A) (A) (A) (A) (A) (A) (A) (A) (A)
                 (A) (A) (A) (A) (A) (A) (A) (A) (A) (A) (A) (A)
                 (A) (A) (A) (A) (A) (A) (A) (A) (A) (A) (A) (A)
                 (A) (A) (A) (A) (A) (A) (A) (A) (A) (A) (A) (A)
                 (A)
 The electronic state is 1-A.
 Alpha  occ. eigenvalues --  -19.18745 -19.18715 -10.29823 -10.29766  -1.08791
 Alpha  occ. eigenvalues --   -1.04988  -0.75477  -0.57651  -0.55427  -0.47088
 Alpha  occ. eigenvalues --   -0.45203  -0.44467  -0.37675  -0.30537  -0.27977
 Alpha virt. eigenvalues --   -0.13242   0.03620   0.10751   0.13709   0.17673
 Alpha virt. eigenvalues --    0.31610   0.38004   0.48312   0.51249   0.56569
 Alpha virt. eigenvalues --    0.58528   0.65855   0.66380   0.74289   0.81870
 Alpha virt. eigenvalues --    0.82948   0.84191   0.92376   0.96375   0.99195
 Alpha virt. eigenvalues --    1.00456   1.11860   1.13031   1.29253   1.29771
 Alpha virt. eigenvalues --    1.41176   1.54504   1.59880   1.66403   1.72561
 Alpha virt. eigenvalues --    1.76056   1.85287   1.86020   2.01490   2.02018
 Alpha virt. eigenvalues --    2.05763   2.25023   2.33932   2.40296   2.49400
 Alpha virt. eigenvalues --    2.65136   2.65802   2.84460   2.89826   3.12625
 Alpha virt. eigenvalues --    3.61539   4.00866   4.02550   4.33298
          Condensed to atoms (all electrons):
               1          2          3          4          5          6
     1  C    4.890792   0.210200  -0.096734   0.531983   0.332526  -0.071342
     2  C    0.210200   4.887317   0.332949  -0.070011  -0.096833   0.533166
     3  H   -0.096734   0.332949   0.666093   0.003889   0.012251  -0.051917
     4  O    0.531983  -0.070011   0.003889   7.927633  -0.052729  -0.003875
     5  H    0.332526  -0.096833   0.012251  -0.052729   0.668351   0.004080
     6  O   -0.071342   0.533166  -0.051917  -0.003875   0.004080   7.924602
 Mulliken charges:
               1
     1  C    0.202575
     2  C    0.203211
     3  H    0.133468
     4  O   -0.336891
     5  H    0.132353
     6  O   -0.334715
 Sum of Mulliken charges =  -0.00000
 Mulliken charges with hydrogens summed into heavy atoms:
               1
     1  C    0.334927
     2  C    0.336679
     4  O   -0.336891
     6  O   -0.334715
 Electronic spatial extent (au):  <R**2>=            225.3177
 Charge=             -0.0000 electrons
 Dipole moment (field-independent basis, Debye):
    X=             -0.0390    Y=              3.4755    Z=             -0.0007  Tot=              3.4757
 Quadrupole moment (field-independent basis, Debye-Ang):
   XX=            -25.4284   YY=            -21.3553   ZZ=            -20.7665
   XY=             -0.0278   XZ=             -0.0011   YZ=              0.0006
 Traceless Quadrupole moment (field-independent basis, Debye-Ang):
   XX=             -2.9117   YY=              1.1614   ZZ=              1.7502
   XY=             -0.0278   XZ=             -0.0011   YZ=              0.0006
 Octapole moment (field-independent basis, Debye-Ang**2):
  XXX=             -0.1054  YYY=             -1.2247  ZZZ=              0.0008  XYY=             -0.0128
  XXY=              3.7589  XXZ=             -0.0021  XZZ=             -0.0080  YZZ=             -1.4309
  YYZ=              0.0036  XYZ=              0.0014
 Hexadecapole moment (field-independent basis, Debye-Ang**3):
 XXXX=           -183.3677 YYYY=            -70.4745 ZZZZ=            -16.5429 XXXY=             -0.0795
 XXXZ=              0.0031 YYYX=             -0.0283 YYYZ=              0.0026 ZZZX=              0.0034
 ZZZY=             -0.0020 XXYY=            -39.1588 XXZZ=            -30.4328 YYZZ=            -14.6446
 XXYZ=              0.0047 YYXZ=              0.0022 ZZXY=             -0.0020
 N-N= 1.058141165925D+02 E-N=-7.458945235613D+02  KE= 2.260017750357D+02
 1\1\GINC-NODE60\SP\RB3LYP\6-31G(d)\C2H2O2\YANZ\22-Sep-2023\0\\# b3lyp/
 6-31g(d)\\tmpdir/M2_ref_95.gjf\\0,1\C,0,-0.735392,0.854981,30.882185\C
 ,0,-1.979399,1.258167,30.391492\H,0,-2.381706,2.228263,30.670452\O,0,-
 0.26601259,-0.244157,30.57729133\H,0,-0.176028,1.513463,31.543208\O,0,
 -2.61598835,0.51590011,29.64615973\\Version=ES64L-G16RevA.03\State=1-A
 \HF=-227.7990039\RMSD=5.788e-09\Dipole=0.1026106,1.1854462,0.6738662\Q
 uadrupole=-1.4510412,0.6934703,0.7575709,0.8466747,-1.1133246,0.162464
 8\PG=C01 [X(C2H2O2)]\\@


 THE DIFFERENCE BETWEEN A NOOSE AND A HALO IS ONLY 12 INCHES.
 Job cpu time:       0 days  0 hours  0 minutes 10.9 seconds.
 Elapsed time:       0 days  0 hours  0 minutes  5.6 seconds.
 File lengths (MBytes):  RWF=      6 Int=      0 D2E=      0 Chk=      1 Scr=      1
 Normal termination of Gaussian 16 at Fri Sep 22 17:02:11 2023.
