 Entering Gaussian System, Link 0=g16
 Initial command:
 /share/apps/gaussian/g16/l1.exe "/tmp/55621.mgr/Gau-118759.inp" -scrdir="/tmp/55621.mgr/"
 Entering Link 1 = /share/apps/gaussian/g16/l1.exe PID=    118761.
  
 Copyright (c) 1988,1990,1992,1993,1995,1998,2003,2009,2016,
            Gaussian, Inc.  All Rights Reserved.
  
 This is part of the Gaussian(R) 16 program.  It is based on
 the Gaussian(R) 09 system (copyright 2009, Gaussian, Inc.),
 the Gaussian(R) 03 system (copyright 2003, Gaussian, Inc.),
 the Gaussian(R) 98 system (copyright 1998, Gaussian, Inc.),
 the Gaussian(R) 94 system (copyright 1995, Gaussian, Inc.),
 the Gaussian 92(TM) system (copyright 1992, Gaussian, Inc.),
 the Gaussian 90(TM) system (copyright 1990, Gaussian, Inc.),
 the Gaussian 88(TM) system (copyright 1988, Gaussian, Inc.),
 the Gaussian 86(TM) system (copyright 1986, Carnegie Mellon
 University), and the Gaussian 82(TM) system (copyright 1983,
 Carnegie Mellon University). Gaussian is a federally registered
 trademark of Gaussian, Inc.
  
 This software contains proprietary and confidential information,
 including trade secrets, belonging to Gaussian, Inc.
  
 This software is provided under written license and may be
 used, copied, transmitted, or stored only in accord with that
 written license.
  
 The following legend is applicable only to US Government
 contracts under FAR:
  
                    RESTRICTED RIGHTS LEGEND
  
 Use, reproduction and disclosure by the US Government is
 subject to restrictions as set forth in subparagraphs (a)
 and (c) of the Commercial Computer Software - Restricted
 Rights clause in FAR 52.227-19.
  
 Gaussian, Inc.
 340 Quinnipiac St., Bldg. 40, Wallingford CT 06492
  
  
 ---------------------------------------------------------------
 Warning -- This program may not be used in any manner that
 competes with the business of Gaussian, Inc. or will provide
 assistance to any competitor of Gaussian, Inc.  The licensee
 of this program is prohibited from giving any competitor of
 Gaussian, Inc. access to this program.  By using this program,
 the user acknowledges that Gaussian, Inc. is engaged in the
 business of creating and licensing software in the field of
 computational chemistry and represents and warrants to the
 licensee that it is not a competitor of Gaussian, Inc. and that
 it will not use this program in any manner prohibited above.
 ---------------------------------------------------------------
  

 Cite this work as:
 Gaussian 16, Revision A.03,
 M. J. Frisch, G. W. Trucks, H. B. Schlegel, G. E. Scuseria, 
 M. A. Robb, J. R. Cheeseman, G. Scalmani, V. Barone, 
 G. A. Petersson, H. Nakatsuji, X. Li, M. Caricato, A. V. Marenich, 
 J. Bloino, B. G. Janesko, R. Gomperts, B. Mennucci, H. P. Hratchian, 
 J. V. Ortiz, A. F. Izmaylov, J. L. Sonnenberg, D. Williams-Young, 
 F. Ding, F. Lipparini, F. Egidi, J. Goings, B. Peng, A. Petrone, 
 T. Henderson, D. Ranasinghe, V. G. Zakrzewski, J. Gao, N. Rega, 
 G. Zheng, W. Liang, M. Hada, M. Ehara, K. Toyota, R. Fukuda, 
 J. Hasegawa, M. Ishida, T. Nakajima, Y. Honda, O. Kitao, H. Nakai, 
 T. Vreven, K. Throssell, J. A. Montgomery, Jr., J. E. Peralta, 
 F. Ogliaro, M. J. Bearpark, J. J. Heyd, E. N. Brothers, K. N. Kudin, 
 V. N. Staroverov, T. A. Keith, R. Kobayashi, J. Normand, 
 K. Raghavachari, A. P. Rendell, J. C. Burant, S. S. Iyengar, 
 J. Tomasi, M. Cossi, J. M. Millam, M. Klene, C. Adamo, R. Cammi, 
 J. W. Ochterski, R. L. Martin, K. Morokuma, O. Farkas, 
 J. B. Foresman, and D. J. Fox, Gaussian, Inc., Wallingford CT, 2016.
 
 ******************************************
 Gaussian 16:  ES64L-G16RevA.03 25-Dec-2016
                22-Sep-2023 
 ******************************************
 %nprocshared=2
 Will use up to    2 processors via shared memory.
 %mem=2GB
 ----------------
 # b3lyp/6-31g(d)
 ----------------
 1/38=1,172=1/1;
 2/12=2,17=6,18=5,40=1/2;
 3/5=1,6=6,7=1,11=2,25=1,30=1,74=-5/1,2,3;
 4//1;
 5/5=2,38=5/2;
 6/7=2,8=2,9=2,10=2,28=1/1;
 99/5=1,9=1/99;
 --------------------
 tmpdir/M2_ref_82.gjf
 --------------------
 Symbolic Z-matrix:
 Charge =  0 Multiplicity = 1
 C                    -0.73539   0.85498   30.88218 
 C                    -1.9794    1.25817   30.39149 
 C                    -0.20298  -0.39175   30.53635 
 H                    -0.17603   1.51346   31.54321 
 C                    -2.70147   0.41623   29.54608 
 H                    -2.38171   2.22826   30.67045 
 
                          Input orientation:                          
 ---------------------------------------------------------------------
 Center     Atomic      Atomic             Coordinates (Angstroms)
 Number     Number       Type             X           Y           Z
 ---------------------------------------------------------------------
      1          6           0       -0.735392    0.854981   30.882185
      2          6           0       -1.979399    1.258167   30.391492
      3          6           0       -0.202984   -0.391750   30.536350
      4          1           0       -0.176028    1.513463   31.543208
      5          6           0       -2.701470    0.416228   29.546076
      6          1           0       -2.381706    2.228263   30.670452
 ---------------------------------------------------------------------
                    Distance matrix (angstroms):
                    1          2          3          4          5
     1  C    0.000000
     2  C    1.396743   0.000000
     3  C    1.399071   2.428757   0.000000
     4  H    1.087859   2.154941   2.155070   0.000000
     5  C    2.417262   1.394624   2.806404   3.401517   0.000000
     6  H    2.154318   1.086626   3.410173   2.477430   2.156372
                    6
     6  H    0.000000
 Stoichiometry    C4H2
 Framework group  C1[X(C4H2)]
 Deg. of freedom    12
 Full point group                 C1      NOp   1
 Largest Abelian subgroup         C1      NOp   1
 Largest concise Abelian subgroup C1      NOp   1
                         Standard orientation:                         
 ---------------------------------------------------------------------
 Center     Atomic      Atomic             Coordinates (Angstroms)
 Number     Number       Type             X           Y           Z
 ---------------------------------------------------------------------
      1          6           0        0.693985    0.485184   -0.001038
      2          6           0       -0.702756    0.482848    0.000175
      3          6           0        1.408575   -0.717628    0.000491
      4          1           0        1.232751    1.430257    0.001448
      5          6           0       -1.397816   -0.726229   -0.000111
      6          1           0       -1.244673    1.424697    0.001454
 ---------------------------------------------------------------------
 Rotational constants (GHZ):          22.8903873           8.1441340           6.0069387
 Standard basis: 6-31G(d) (6D, 7F)
 There are    64 symmetry adapted cartesian basis functions of A   symmetry.
 There are    64 symmetry adapted basis functions of A   symmetry.
    64 basis functions,   120 primitive gaussians,    64 cartesian basis functions
    13 alpha electrons       13 beta electrons
       nuclear repulsion energy        77.2398673591 Hartrees.
 NAtoms=    6 NActive=    6 NUniq=    6 SFac= 1.00D+00 NAtFMM=   60 NAOKFM=F Big=F
 Integral buffers will be    131072 words long.
 Raffenetti 2 integral format.
 Two-electron integral symmetry is turned on.
 One-electron integrals computed using PRISM.
 NBasis=    64 RedAO= T EigKep=  3.13D-03  NBF=    64
 NBsUse=    64 1.00D-06 EigRej= -1.00D+00 NBFU=    64
 ExpMin= 1.61D-01 ExpMax= 3.05D+03 ExpMxC= 4.57D+02 IAcc=3 IRadAn=         5 AccDes= 0.00D+00
 Harris functional with IExCor=  402 and IRadAn=       5 diagonalized for initial guess.
 HarFok:  IExCor=  402 AccDes= 0.00D+00 IRadAn=         5 IDoV= 1 UseB2=F ITyADJ=14
 ICtDFT=  3500011 ScaDFX=  1.000000  1.000000  1.000000  1.000000
 FoFCou: FMM=F IPFlag=           0 FMFlag=      100000 FMFlg1=           0
         NFxFlg=           0 DoJE=T BraDBF=F KetDBF=T FulRan=T
         wScrn=  0.000000 ICntrl=       500 IOpCl=  0 I1Cent=   200000004 NGrid=           0
         NMat0=    1 NMatS0=      1 NMatT0=    0 NMatD0=    1 NMtDS0=    0 NMtDT0=    0
 Petite list used in FoFCou.
 Keep R1 ints in memory in canonical form, NReq=3940480.
 Requested convergence on RMS density matrix=1.00D-08 within 128 cycles.
 Requested convergence on MAX density matrix=1.00D-06.
 Requested convergence on             energy=1.00D-06.
 No special actions if energy rises.
 Integral accuracy reduced to 1.0D-05 until final iterations.
 Initial convergence to 1.0D-05 achieved.  Increase integral accuracy.
 SCF Done:  E(RB3LYP) =  -153.299957901     A.U. after   13 cycles
            NFock= 13  Conv=0.97D-08     -V/T= 2.0101

 **********************************************************************

            Population analysis using the SCF density.

 **********************************************************************

 Orbital symmetries:
       Occupied  (A) (A) (A) (A) (A) (A) (A) (A) (A) (A) (A) (A)
                 (A)
       Virtual   (A) (A) (A) (A) (A) (A) (A) (A) (A) (A) (A) (A)
                 (A) (A) (A) (A) (A) (A) (A) (A) (A) (A) (A) (A)
                 (A) (A) (A) (A) (A) (A) (A) (A) (A) (A) (A) (A)
                 (A) (A) (A) (A) (A) (A) (A) (A) (A) (A) (A) (A)
                 (A) (A) (A)
 The electronic state is 1-A.
 Alpha  occ. eigenvalues --  -10.27328 -10.27305 -10.23009 -10.22942  -0.84746
 Alpha  occ. eigenvalues --   -0.72014  -0.60731  -0.49720  -0.48911  -0.35880
 Alpha  occ. eigenvalues --   -0.31669  -0.29671  -0.23995
 Alpha virt. eigenvalues --   -0.13124  -0.09985  -0.06248   0.06755   0.10653
 Alpha virt. eigenvalues --    0.14711   0.25589   0.35490   0.37768   0.48209
 Alpha virt. eigenvalues --    0.50287   0.52703   0.55251   0.55902   0.58367
 Alpha virt. eigenvalues --    0.58748   0.60190   0.61087   0.66356   0.69278
 Alpha virt. eigenvalues --    0.72264   0.81634   0.85398   0.93543   0.95513
 Alpha virt. eigenvalues --    1.12281   1.23295   1.30629   1.40528   1.48956
 Alpha virt. eigenvalues --    1.64311   1.66853   1.72863   1.73308   1.74423
 Alpha virt. eigenvalues --    1.86024   1.86646   1.97131   2.13878   2.19609
 Alpha virt. eigenvalues --    2.20436   2.26695   2.46779   2.51334   2.55689
 Alpha virt. eigenvalues --    2.76588   2.93900   3.92479   3.99671   4.11358
 Alpha virt. eigenvalues --    4.39067
          Condensed to atoms (all electrons):
               1          2          3          4          5          6
     1  C    5.047322   0.410225   0.486127   0.333932  -0.045263  -0.017505
     2  C    0.410225   5.040309  -0.045383  -0.017510   0.488929   0.333882
     3  C    0.486127  -0.045383   5.567492  -0.020127   0.001197   0.004278
     4  H    0.333932  -0.017510  -0.020127   0.503604   0.004270  -0.010731
     5  C   -0.045263   0.488929   0.001197   0.004270   5.565541  -0.020541
     6  H   -0.017505   0.333882   0.004278  -0.010731  -0.020541   0.504166
 Mulliken charges:
               1
     1  C   -0.214839
     2  C   -0.210453
     3  C    0.006416
     4  H    0.206561
     5  C    0.005866
     6  H    0.206450
 Sum of Mulliken charges =   0.00000
 Mulliken charges with hydrogens summed into heavy atoms:
               1
     1  C   -0.008278
     2  C   -0.004004
     3  C    0.006416
     5  C    0.005866
 Electronic spatial extent (au):  <R**2>=            217.4615
 Charge=              0.0000 electrons
 Dipole moment (field-independent basis, Debye):
    X=             -0.0361    Y=              3.4727    Z=              0.0028  Tot=              3.4729
 Quadrupole moment (field-independent basis, Debye-Ang):
   XX=            -24.3736   YY=            -23.3627   ZZ=            -25.2952
   XY=              0.0065   XZ=             -0.0021   YZ=              0.0070
 Traceless Quadrupole moment (field-independent basis, Debye-Ang):
   XX=             -0.0298   YY=              0.9812   ZZ=             -0.9514
   XY=              0.0065   XZ=             -0.0021   YZ=              0.0070
 Octapole moment (field-independent basis, Debye-Ang**2):
  XXX=             -0.3716  YYY=             14.2018  ZZZ=              0.0033  XYY=              0.0177
  XXY=             13.4692  XXZ=              0.0118  XZZ=             -0.0354  YZZ=              1.7204
  YYZ=              0.0058  XYZ=              0.0042
 Hexadecapole moment (field-independent basis, Debye-Ang**3):
 XXXX=           -200.3034 YYYY=            -92.3683 ZZZZ=            -26.9533 XXXY=              0.3154
 XXXZ=             -0.0160 YYYX=             -0.1538 YYYZ=              0.0194 ZZZX=             -0.0012
 ZZZY=              0.0061 XXYY=            -58.0231 XXZZ=            -41.4015 YYZZ=            -20.8643
 XXYZ=              0.0115 YYXZ=             -0.0017 ZZXY=             -0.0020
 N-N= 7.723986735911D+01 E-N=-5.091960391979D+02  KE= 1.517677505356D+02
 1\1\GINC-NODE60\SP\RB3LYP\6-31G(d)\C4H2\YANZ\22-Sep-2023\0\\# b3lyp/6-
 31g(d)\\tmpdir/M2_ref_82.gjf\\0,1\C,0,-0.735392,0.854981,30.882185\C,0
 ,-1.979399,1.258167,30.391492\C,0,-0.202984,-0.39175,30.53635\H,0,-0.1
 76028,1.513463,31.543208\C,0,-2.70147,0.416228,29.546076\H,0,-2.381706
 ,2.228263,30.670452\\Version=ES64L-G16RevA.03\State=1-A\HF=-153.299957
 9\RMSD=9.717e-09\Dipole=0.1038196,1.1833454,0.6751506\Quadrupole=-0.15
 23436,0.4151181,-0.2627745,-0.0691307,0.275957,0.5507184\PG=C01 [X(C4H
 2)]\\@


 IN THE UNIVERSE THE DIFFICULT THINGS ARE DONE AS IF THEY WERE EASY.

                                                          -- LAO-TSU
 Job cpu time:       0 days  0 hours  0 minutes 10.1 seconds.
 Elapsed time:       0 days  0 hours  0 minutes  5.2 seconds.
 File lengths (MBytes):  RWF=      6 Int=      0 D2E=      0 Chk=      1 Scr=      1
 Normal termination of Gaussian 16 at Fri Sep 22 17:01:59 2023.
