 Entering Gaussian System, Link 0=g16
 Initial command:
 /share/apps/gaussian/g16/l1.exe "/tmp/55621.mgr/Gau-118777.inp" -scrdir="/tmp/55621.mgr/"
 Entering Link 1 = /share/apps/gaussian/g16/l1.exe PID=    118778.
  
 Copyright (c) 1988,1990,1992,1993,1995,1998,2003,2009,2016,
            Gaussian, Inc.  All Rights Reserved.
  
 This is part of the Gaussian(R) 16 program.  It is based on
 the Gaussian(R) 09 system (copyright 2009, Gaussian, Inc.),
 the Gaussian(R) 03 system (copyright 2003, Gaussian, Inc.),
 the Gaussian(R) 98 system (copyright 1998, Gaussian, Inc.),
 the Gaussian(R) 94 system (copyright 1995, Gaussian, Inc.),
 the Gaussian 92(TM) system (copyright 1992, Gaussian, Inc.),
 the Gaussian 90(TM) system (copyright 1990, Gaussian, Inc.),
 the Gaussian 88(TM) system (copyright 1988, Gaussian, Inc.),
 the Gaussian 86(TM) system (copyright 1986, Carnegie Mellon
 University), and the Gaussian 82(TM) system (copyright 1983,
 Carnegie Mellon University). Gaussian is a federally registered
 trademark of Gaussian, Inc.
  
 This software contains proprietary and confidential information,
 including trade secrets, belonging to Gaussian, Inc.
  
 This software is provided under written license and may be
 used, copied, transmitted, or stored only in accord with that
 written license.
  
 The following legend is applicable only to US Government
 contracts under FAR:
  
                    RESTRICTED RIGHTS LEGEND
  
 Use, reproduction and disclosure by the US Government is
 subject to restrictions as set forth in subparagraphs (a)
 and (c) of the Commercial Computer Software - Restricted
 Rights clause in FAR 52.227-19.
  
 Gaussian, Inc.
 340 Quinnipiac St., Bldg. 40, Wallingford CT 06492
  
  
 ---------------------------------------------------------------
 Warning -- This program may not be used in any manner that
 competes with the business of Gaussian, Inc. or will provide
 assistance to any competitor of Gaussian, Inc.  The licensee
 of this program is prohibited from giving any competitor of
 Gaussian, Inc. access to this program.  By using this program,
 the user acknowledges that Gaussian, Inc. is engaged in the
 business of creating and licensing software in the field of
 computational chemistry and represents and warrants to the
 licensee that it is not a competitor of Gaussian, Inc. and that
 it will not use this program in any manner prohibited above.
 ---------------------------------------------------------------
  

 Cite this work as:
 Gaussian 16, Revision A.03,
 M. J. Frisch, G. W. Trucks, H. B. Schlegel, G. E. Scuseria, 
 M. A. Robb, J. R. Cheeseman, G. Scalmani, V. Barone, 
 G. A. Petersson, H. Nakatsuji, X. Li, M. Caricato, A. V. Marenich, 
 J. Bloino, B. G. Janesko, R. Gomperts, B. Mennucci, H. P. Hratchian, 
 J. V. Ortiz, A. F. Izmaylov, J. L. Sonnenberg, D. Williams-Young, 
 F. Ding, F. Lipparini, F. Egidi, J. Goings, B. Peng, A. Petrone, 
 T. Henderson, D. Ranasinghe, V. G. Zakrzewski, J. Gao, N. Rega, 
 G. Zheng, W. Liang, M. Hada, M. Ehara, K. Toyota, R. Fukuda, 
 J. Hasegawa, M. Ishida, T. Nakajima, Y. Honda, O. Kitao, H. Nakai, 
 T. Vreven, K. Throssell, J. A. Montgomery, Jr., J. E. Peralta, 
 F. Ogliaro, M. J. Bearpark, J. J. Heyd, E. N. Brothers, K. N. Kudin, 
 V. N. Staroverov, T. A. Keith, R. Kobayashi, J. Normand, 
 K. Raghavachari, A. P. Rendell, J. C. Burant, S. S. Iyengar, 
 J. Tomasi, M. Cossi, J. M. Millam, M. Klene, C. Adamo, R. Cammi, 
 J. W. Ochterski, R. L. Martin, K. Morokuma, O. Farkas, 
 J. B. Foresman, and D. J. Fox, Gaussian, Inc., Wallingford CT, 2016.
 
 ******************************************
 Gaussian 16:  ES64L-G16RevA.03 25-Dec-2016
                22-Sep-2023 
 ******************************************
 %nprocshared=2
 Will use up to    2 processors via shared memory.
 %mem=2GB
 ----------------
 # b3lyp/6-31g(d)
 ----------------
 1/38=1,172=1/1;
 2/12=2,17=6,18=5,40=1/2;
 3/5=1,6=6,7=1,11=2,25=1,30=1,74=-5/1,2,3;
 4//1;
 5/5=2,38=5/2;
 6/7=2,8=2,9=2,10=2,28=1/1;
 99/5=1,9=1/99;
 --------------------
 tmpdir/M2_ref_87.gjf
 --------------------
 Symbolic Z-matrix:
 Charge =  0 Multiplicity = 1
 C                    -2.1763   -0.83018   29.19302 
 C                    -2.70147   0.41623   29.54608 
 C                    -0.9357   -1.23058   29.68505 
 H                    -2.73599  -1.49051   28.53601 
 C                    -1.9794    1.25817   30.39149 
 H                    -3.66986   0.72719   29.16358 
 
                          Input orientation:                          
 ---------------------------------------------------------------------
 Center     Atomic      Atomic             Coordinates (Angstroms)
 Number     Number       Type             X           Y           Z
 ---------------------------------------------------------------------
      1          6           0       -2.176300   -0.830175   29.193023
      2          6           0       -2.701470    0.416228   29.546076
      3          6           0       -0.935704   -1.230580   29.685052
      4          1           0       -2.735985   -1.490513   28.536011
      5          6           0       -1.979399    1.258167   30.391492
      6          1           0       -3.669857    0.727191   29.163584
 ---------------------------------------------------------------------
                    Distance matrix (angstroms):
                    1          2          3          4          5
     1  C    0.000000
     2  C    1.397845   0.000000
     3  C    1.393375   2.418516   0.000000
     4  H    1.086719   2.158028   2.151481   0.000000
     5  C    2.415837   1.394624   2.789663   3.401540   0.000000
     6  H    2.158001   1.086633   3.402997   2.486800   2.155769
                    6
     6  H    0.000000
 Stoichiometry    C4H2
 Framework group  C1[X(C4H2)]
 Deg. of freedom    12
 Full point group                 C1      NOp   1
 Largest Abelian subgroup         C1      NOp   1
 Largest concise Abelian subgroup C1      NOp   1
                         Standard orientation:                         
 ---------------------------------------------------------------------
 Center     Atomic      Atomic             Coordinates (Angstroms)
 Number     Number       Type             X           Y           Z
 ---------------------------------------------------------------------
      1          6           0       -0.697947    0.484587   -0.000546
      2          6           0        0.699897    0.485684   -0.000134
      3          6           0       -1.395847   -0.721410    0.000252
      4          1           0       -1.243151    1.424645    0.001145
      5          6           0        1.393814   -0.724049    0.000046
      6          1           0        1.243649    1.426483    0.001149
 ---------------------------------------------------------------------
 Rotational constants (GHZ):          22.8461028           8.2130819           6.0412707
 Standard basis: 6-31G(d) (6D, 7F)
 There are    64 symmetry adapted cartesian basis functions of A   symmetry.
 There are    64 symmetry adapted basis functions of A   symmetry.
    64 basis functions,   120 primitive gaussians,    64 cartesian basis functions
    13 alpha electrons       13 beta electrons
       nuclear repulsion energy        77.3658107607 Hartrees.
 NAtoms=    6 NActive=    6 NUniq=    6 SFac= 1.00D+00 NAtFMM=   60 NAOKFM=F Big=F
 Integral buffers will be    131072 words long.
 Raffenetti 2 integral format.
 Two-electron integral symmetry is turned on.
 One-electron integrals computed using PRISM.
 NBasis=    64 RedAO= T EigKep=  3.07D-03  NBF=    64
 NBsUse=    64 1.00D-06 EigRej= -1.00D+00 NBFU=    64
 ExpMin= 1.61D-01 ExpMax= 3.05D+03 ExpMxC= 4.57D+02 IAcc=3 IRadAn=         5 AccDes= 0.00D+00
 Harris functional with IExCor=  402 and IRadAn=       5 diagonalized for initial guess.
 HarFok:  IExCor=  402 AccDes= 0.00D+00 IRadAn=         5 IDoV= 1 UseB2=F ITyADJ=14
 ICtDFT=  3500011 ScaDFX=  1.000000  1.000000  1.000000  1.000000
 FoFCou: FMM=F IPFlag=           0 FMFlag=      100000 FMFlg1=           0
         NFxFlg=           0 DoJE=T BraDBF=F KetDBF=T FulRan=T
         wScrn=  0.000000 ICntrl=       500 IOpCl=  0 I1Cent=   200000004 NGrid=           0
         NMat0=    1 NMatS0=      1 NMatT0=    0 NMatD0=    1 NMtDS0=    0 NMtDT0=    0
 Petite list used in FoFCou.
 Keep R1 ints in memory in canonical form, NReq=3940480.
 Requested convergence on RMS density matrix=1.00D-08 within 128 cycles.
 Requested convergence on MAX density matrix=1.00D-06.
 Requested convergence on             energy=1.00D-06.
 No special actions if energy rises.
 Integral accuracy reduced to 1.0D-05 until final iterations.
 Initial convergence to 1.0D-05 achieved.  Increase integral accuracy.
 SCF Done:  E(RB3LYP) =  -153.300517354     A.U. after   14 cycles
            NFock= 14  Conv=0.40D-08     -V/T= 2.0100

 **********************************************************************

            Population analysis using the SCF density.

 **********************************************************************

 Orbital symmetries:
       Occupied  (A) (A) (A) (A) (A) (A) (A) (A) (A) (A) (A) (A)
                 (A)
       Virtual   (A) (A) (A) (A) (A) (A) (A) (A) (A) (A) (A) (A)
                 (A) (A) (A) (A) (A) (A) (A) (A) (A) (A) (A) (A)
                 (A) (A) (A) (A) (A) (A) (A) (A) (A) (A) (A) (A)
                 (A) (A) (A) (A) (A) (A) (A) (A) (A) (A) (A) (A)
                 (A) (A) (A)
 The electronic state is 1-A.
 Alpha  occ. eigenvalues --  -10.27280 -10.27235 -10.22984 -10.22926  -0.84824
 Alpha  occ. eigenvalues --   -0.72064  -0.60718  -0.49746  -0.48955  -0.35923
 Alpha  occ. eigenvalues --   -0.31671  -0.29647  -0.24016
 Alpha virt. eigenvalues --   -0.13148  -0.09885  -0.06184   0.06787   0.10701
 Alpha virt. eigenvalues --    0.14676   0.25660   0.35417   0.37903   0.48168
 Alpha virt. eigenvalues --    0.50282   0.52915   0.55207   0.55915   0.58362
 Alpha virt. eigenvalues --    0.58880   0.60175   0.61176   0.66367   0.69364
 Alpha virt. eigenvalues --    0.72466   0.81588   0.85435   0.93444   0.95539
 Alpha virt. eigenvalues --    1.12370   1.23323   1.30689   1.40426   1.48955
 Alpha virt. eigenvalues --    1.64246   1.66853   1.73228   1.73372   1.74459
 Alpha virt. eigenvalues --    1.86396   1.86621   1.97362   2.14265   2.19992
 Alpha virt. eigenvalues --    2.20656   2.26732   2.46768   2.51530   2.56062
 Alpha virt. eigenvalues --    2.76751   2.93907   3.92769   3.99804   4.11267
 Alpha virt. eigenvalues --    4.39064
          Condensed to atoms (all electrons):
               1          2          3          4          5          6
     1  C    5.041571   0.410401   0.489980   0.333973  -0.045709  -0.017669
     2  C    0.410401   5.041056  -0.045740  -0.017559   0.489221   0.334069
     3  C    0.489980  -0.045740   5.564979  -0.020392   0.001900   0.004319
     4  H    0.333973  -0.017559  -0.020392   0.503239   0.004300  -0.010587
     5  C   -0.045709   0.489221   0.001900   0.004300   5.565479  -0.020471
     6  H   -0.017669   0.334069   0.004319  -0.010587  -0.020471   0.503605
 Mulliken charges:
               1
     1  C   -0.212546
     2  C   -0.211448
     3  C    0.004954
     4  H    0.207025
     5  C    0.005281
     6  H    0.206734
 Sum of Mulliken charges =  -0.00000
 Mulliken charges with hydrogens summed into heavy atoms:
               1
     1  C   -0.005521
     2  C   -0.004714
     3  C    0.004954
     5  C    0.005281
 Electronic spatial extent (au):  <R**2>=            216.5696
 Charge=             -0.0000 electrons
 Dipole moment (field-independent basis, Debye):
    X=              0.0120    Y=              3.4911    Z=              0.0022  Tot=              3.4911
 Quadrupole moment (field-independent basis, Debye-Ang):
   XX=            -24.2701   YY=            -23.4022   ZZ=            -25.2798
   XY=             -0.0108   XZ=              0.0007   YZ=              0.0055
 Traceless Quadrupole moment (field-independent basis, Debye-Ang):
   XX=              0.0473   YY=              0.9152   ZZ=             -0.9624
   XY=             -0.0108   XZ=              0.0007   YZ=              0.0055
 Octapole moment (field-independent basis, Debye-Ang**2):
  XXX=              0.1081  YYY=             14.2847  ZZZ=              0.0026  XYY=             -0.0014
  XXY=             13.3839  XXZ=              0.0093  XZZ=              0.0024  YZZ=              1.7222
  YYZ=              0.0045  XYZ=             -0.0014
 Hexadecapole moment (field-independent basis, Debye-Ang**3):
 XXXX=           -198.1728 YYYY=            -92.6604 ZZZZ=            -26.9216 XXXY=             -0.1223
 XXXZ=              0.0055 YYYX=              0.0440 YYYZ=              0.0154 ZZZX=              0.0004
 ZZZY=              0.0049 XXYY=            -57.6061 XXZZ=            -41.0946 YYZZ=            -20.8797
 XXYZ=              0.0092 YYXZ=              0.0006 ZZXY=              0.0002
 N-N= 7.736581076072D+01 E-N=-5.094574471572D+02  KE= 1.517791897472D+02
 1\1\GINC-NODE60\SP\RB3LYP\6-31G(d)\C4H2\YANZ\22-Sep-2023\0\\# b3lyp/6-
 31g(d)\\tmpdir/M2_ref_87.gjf\\0,1\C,0,-2.1763,-0.830175,29.193023\C,0,
 -2.70147,0.416228,29.546076\C,0,-0.935704,-1.23058,29.685052\H,0,-2.73
 5985,-1.490513,28.536011\C,0,-1.979399,1.258167,30.391492\H,0,-3.66985
 7,0.727191,29.163584\\Version=ES64L-G16RevA.03\State=1-A\HF=-153.30051
 74\RMSD=3.963e-09\Dipole=-1.1174651,-0.2494414,-0.7586609\Quadrupole=0
 .3086893,-0.0680054,-0.2406839,-0.0351484,0.5546635,0.3168098\PG=C01 [
 X(C4H2)]\\@


 NO MATTER HOW THIN YOU SLICE IT, IT'S STILL BALONEY

                                   -- ALFRED E. SMITH
 Job cpu time:       0 days  0 hours  0 minutes 11.7 seconds.
 Elapsed time:       0 days  0 hours  0 minutes  6.0 seconds.
 File lengths (MBytes):  RWF=      6 Int=      0 D2E=      0 Chk=      1 Scr=      1
 Normal termination of Gaussian 16 at Fri Sep 22 17:02:00 2023.
