 Entering Gaussian System, Link 0=g16
 Initial command:
 /share/apps/gaussian/g16/l1.exe "/tmp/55621.mgr/Gau-118080.inp" -scrdir="/tmp/55621.mgr/"
 Entering Link 1 = /share/apps/gaussian/g16/l1.exe PID=    118081.
  
 Copyright (c) 1988,1990,1992,1993,1995,1998,2003,2009,2016,
            Gaussian, Inc.  All Rights Reserved.
  
 This is part of the Gaussian(R) 16 program.  It is based on
 the Gaussian(R) 09 system (copyright 2009, Gaussian, Inc.),
 the Gaussian(R) 03 system (copyright 2003, Gaussian, Inc.),
 the Gaussian(R) 98 system (copyright 1998, Gaussian, Inc.),
 the Gaussian(R) 94 system (copyright 1995, Gaussian, Inc.),
 the Gaussian 92(TM) system (copyright 1992, Gaussian, Inc.),
 the Gaussian 90(TM) system (copyright 1990, Gaussian, Inc.),
 the Gaussian 88(TM) system (copyright 1988, Gaussian, Inc.),
 the Gaussian 86(TM) system (copyright 1986, Carnegie Mellon
 University), and the Gaussian 82(TM) system (copyright 1983,
 Carnegie Mellon University). Gaussian is a federally registered
 trademark of Gaussian, Inc.
  
 This software contains proprietary and confidential information,
 including trade secrets, belonging to Gaussian, Inc.
  
 This software is provided under written license and may be
 used, copied, transmitted, or stored only in accord with that
 written license.
  
 The following legend is applicable only to US Government
 contracts under FAR:
  
                    RESTRICTED RIGHTS LEGEND
  
 Use, reproduction and disclosure by the US Government is
 subject to restrictions as set forth in subparagraphs (a)
 and (c) of the Commercial Computer Software - Restricted
 Rights clause in FAR 52.227-19.
  
 Gaussian, Inc.
 340 Quinnipiac St., Bldg. 40, Wallingford CT 06492
  
  
 ---------------------------------------------------------------
 Warning -- This program may not be used in any manner that
 competes with the business of Gaussian, Inc. or will provide
 assistance to any competitor of Gaussian, Inc.  The licensee
 of this program is prohibited from giving any competitor of
 Gaussian, Inc. access to this program.  By using this program,
 the user acknowledges that Gaussian, Inc. is engaged in the
 business of creating and licensing software in the field of
 computational chemistry and represents and warrants to the
 licensee that it is not a competitor of Gaussian, Inc. and that
 it will not use this program in any manner prohibited above.
 ---------------------------------------------------------------
  

 Cite this work as:
 Gaussian 16, Revision A.03,
 M. J. Frisch, G. W. Trucks, H. B. Schlegel, G. E. Scuseria, 
 M. A. Robb, J. R. Cheeseman, G. Scalmani, V. Barone, 
 G. A. Petersson, H. Nakatsuji, X. Li, M. Caricato, A. V. Marenich, 
 J. Bloino, B. G. Janesko, R. Gomperts, B. Mennucci, H. P. Hratchian, 
 J. V. Ortiz, A. F. Izmaylov, J. L. Sonnenberg, D. Williams-Young, 
 F. Ding, F. Lipparini, F. Egidi, J. Goings, B. Peng, A. Petrone, 
 T. Henderson, D. Ranasinghe, V. G. Zakrzewski, J. Gao, N. Rega, 
 G. Zheng, W. Liang, M. Hada, M. Ehara, K. Toyota, R. Fukuda, 
 J. Hasegawa, M. Ishida, T. Nakajima, Y. Honda, O. Kitao, H. Nakai, 
 T. Vreven, K. Throssell, J. A. Montgomery, Jr., J. E. Peralta, 
 F. Ogliaro, M. J. Bearpark, J. J. Heyd, E. N. Brothers, K. N. Kudin, 
 V. N. Staroverov, T. A. Keith, R. Kobayashi, J. Normand, 
 K. Raghavachari, A. P. Rendell, J. C. Burant, S. S. Iyengar, 
 J. Tomasi, M. Cossi, J. M. Millam, M. Klene, C. Adamo, R. Cammi, 
 J. W. Ochterski, R. L. Martin, K. Morokuma, O. Farkas, 
 J. B. Foresman, and D. J. Fox, Gaussian, Inc., Wallingford CT, 2016.
 
 ******************************************
 Gaussian 16:  ES64L-G16RevA.03 25-Dec-2016
                22-Sep-2023 
 ******************************************
 %nprocshared=2
 Will use up to    2 processors via shared memory.
 %mem=2GB
 ----------------
 # b3lyp/6-31g(d)
 ----------------
 1/38=1,172=1/1;
 2/12=2,17=6,18=5,40=1/2;
 3/5=1,6=6,7=1,11=2,25=1,30=1,74=-5/1,2,3;
 4//1;
 5/5=2,38=5/2;
 6/7=2,8=2,9=2,10=2,28=1/1;
 99/5=1,9=1/99;
 --------------------
 tmpdir/M2_ref_39.gjf
 --------------------
 Symbolic Z-matrix:
 Charge =  0 Multiplicity = 1
 C                     0.76846   1.14678  -0.20198 
 H                     0.73576   1.07979  -1.29627 
 H                    -0.22684   1.48298   0.19466 
 H                     1.1368    0.15282   0.17673 
 H                     1.52179   1.90552   0.04701 
 
                          Input orientation:                          
 ---------------------------------------------------------------------
 Center     Atomic      Atomic             Coordinates (Angstroms)
 Number     Number       Type             X           Y           Z
 ---------------------------------------------------------------------
      1          6           0        0.768456    1.146780   -0.201981
      2          1           0        0.735760    1.079786   -1.296274
      3          1           0       -0.226842    1.482977    0.194656
      4          1           0        1.136796    0.152824    0.176725
      5          1           0        1.521792    1.905516    0.047011
 ---------------------------------------------------------------------
                    Distance matrix (angstroms):
                    1          2          3          4          5
     1  C    0.000000
     2  H    1.096829   0.000000
     3  H    1.122929   1.819901   0.000000
     4  H    1.125629   1.786005   1.905030   0.000000
     5  H    1.097813   1.761843   1.805010   1.799160   0.000000
 Stoichiometry    CH4
 Framework group  C1[X(CH4)]
 Deg. of freedom     9
 Full point group                 C1      NOp   1
 Largest Abelian subgroup         C1      NOp   1
 Largest concise Abelian subgroup C1      NOp   1
                         Standard orientation:                         
 ---------------------------------------------------------------------
 Center     Atomic      Atomic             Coordinates (Angstroms)
 Number     Number       Type             X           Y           Z
 ---------------------------------------------------------------------
      1          6           0        0.005403   -0.010911   -0.000055
      2          1           0       -0.166762    0.551858    0.925518
      3          1           0        1.005631   -0.519940    0.037384
      4          1           0       -0.883470   -0.686473   -0.143444
      5          1           0        0.012183    0.720023   -0.819129
 ---------------------------------------------------------------------
 Rotational constants (GHZ):         160.9679846         148.8180835         148.1064182
 Standard basis: 6-31G(d) (6D, 7F)
 There are    23 symmetry adapted cartesian basis functions of A   symmetry.
 There are    23 symmetry adapted basis functions of A   symmetry.
    23 basis functions,    44 primitive gaussians,    23 cartesian basis functions
     5 alpha electrons        5 beta electrons
       nuclear repulsion energy        13.1876169512 Hartrees.
 NAtoms=    5 NActive=    5 NUniq=    5 SFac= 1.00D+00 NAtFMM=   60 NAOKFM=F Big=F
 Integral buffers will be    131072 words long.
 Raffenetti 2 integral format.
 Two-electron integral symmetry is turned on.
 One-electron integrals computed using PRISM.
 NBasis=    23 RedAO= T EigKep=  1.89D-02  NBF=    23
 NBsUse=    23 1.00D-06 EigRej= -1.00D+00 NBFU=    23
 ExpMin= 1.61D-01 ExpMax= 3.05D+03 ExpMxC= 4.57D+02 IAcc=3 IRadAn=         5 AccDes= 0.00D+00
 Harris functional with IExCor=  402 and IRadAn=       5 diagonalized for initial guess.
 HarFok:  IExCor=  402 AccDes= 0.00D+00 IRadAn=         5 IDoV= 1 UseB2=F ITyADJ=14
 ICtDFT=  3500011 ScaDFX=  1.000000  1.000000  1.000000  1.000000
 FoFCou: FMM=F IPFlag=           0 FMFlag=      100000 FMFlg1=           0
         NFxFlg=           0 DoJE=T BraDBF=F KetDBF=T FulRan=T
         wScrn=  0.000000 ICntrl=       500 IOpCl=  0 I1Cent=   200000004 NGrid=           0
         NMat0=    1 NMatS0=      1 NMatT0=    0 NMatD0=    1 NMtDS0=    0 NMtDT0=    0
 Petite list used in FoFCou.
 Keep R1 ints in memory in canonical form, NReq=1762518.
 Requested convergence on RMS density matrix=1.00D-08 within 128 cycles.
 Requested convergence on MAX density matrix=1.00D-06.
 Requested convergence on             energy=1.00D-06.
 No special actions if energy rises.
 Integral accuracy reduced to 1.0D-05 until final iterations.
 Initial convergence to 1.0D-05 achieved.  Increase integral accuracy.
 SCF Done:  E(RB3LYP) =  -40.5160087959     A.U. after    9 cycles
            NFock=  9  Conv=0.55D-08     -V/T= 2.0133

 **********************************************************************

            Population analysis using the SCF density.

 **********************************************************************

 Orbital symmetries:
       Occupied  (A) (A) (A) (A) (A)
       Virtual   (A) (A) (A) (A) (A) (A) (A) (A) (A) (A) (A) (A)
                 (A) (A) (A) (A) (A) (A)
 The electronic state is 1-A.
 Alpha  occ. eigenvalues --  -10.17420  -0.68556  -0.39382  -0.38413  -0.37992
 Alpha virt. eigenvalues --    0.11235   0.16716   0.17093   0.17474   0.53152
 Alpha virt. eigenvalues --    0.53410   0.55186   0.87047   0.88383   0.89105
 Alpha virt. eigenvalues --    0.93345   1.09549   1.65834   1.66289   2.17956
 Alpha virt. eigenvalues --    2.23007   2.24682   4.16582
          Condensed to atoms (all electrons):
               1          2          3          4          5
     1  C    5.099840   0.380352   0.381246   0.379740   0.380156
     2  H    0.380352   0.546983  -0.025892  -0.029423  -0.029458
     3  H    0.381246  -0.025892   0.537159  -0.019409  -0.027636
     4  H    0.379740  -0.029423  -0.019409   0.544589  -0.027826
     5  H    0.380156  -0.029458  -0.027636  -0.027826   0.547728
 Mulliken charges:
               1
     1  C   -0.621333
     2  H    0.157437
     3  H    0.154532
     4  H    0.152329
     5  H    0.157035
 Sum of Mulliken charges =   0.00000
 Mulliken charges with hydrogens summed into heavy atoms:
               1
     1  C    0.000000
 Electronic spatial extent (au):  <R**2>=             36.1324
 Charge=              0.0000 electrons
 Dipole moment (field-independent basis, Debye):
    X=             -0.0169    Y=              0.0685    Z=              0.0042  Tot=              0.0707
 Quadrupole moment (field-independent basis, Debye-Ang):
   XX=             -8.0724   YY=             -8.4109   ZZ=             -8.4135
   XY=             -0.0143   XZ=             -0.0066   YZ=             -0.0016
 Traceless Quadrupole moment (field-independent basis, Debye-Ang):
   XX=              0.2265   YY=             -0.1119   ZZ=             -0.1146
   XY=             -0.0143   XZ=             -0.0066   YZ=             -0.0016
 Octapole moment (field-independent basis, Debye-Ang**2):
  XXX=              0.2198  YYY=              0.2540  ZZZ=              0.1650  XYY=             -0.1341
  XXY=             -0.6841  XXZ=             -0.0283  XZZ=             -0.1160  YZZ=              0.6536
  YYZ=             -0.1186  XYZ=             -0.1328
 Hexadecapole moment (field-independent basis, Debye-Ang**3):
 XXXX=            -15.7544 YYYY=            -15.9685 ZZZZ=            -15.2671 XXXY=             -0.0853
 XXXZ=              0.1266 YYYX=              0.0956 YYYZ=             -0.1198 ZZZX=             -0.1581
 ZZZY=              0.0416 XXYY=             -5.0192 XXZZ=             -5.6262 YYZZ=             -4.8768
 XXYZ=              0.0740 YYXZ=              0.0115 ZZXY=             -0.0751
 N-N= 1.318761695119D+01 E-N=-1.193509617540D+02  KE= 3.998465325087D+01
 1\1\GINC-NODE60\SP\RB3LYP\6-31G(d)\C1H4\YANZ\22-Sep-2023\0\\# b3lyp/6-
 31g(d)\\tmpdir/M2_ref_39.gjf\\0,1\C,0,0.768456,1.14678,-0.201981\H,0,0
 .73576,1.079786,-1.296274\H,0,-0.22684237,1.48297727,0.19465641\H,0,1.
 13679598,0.15282444,0.17672503\H,0,1.521792,1.905516,0.047011\\Version
 =ES64L-G16RevA.03\State=1-A\HF=-40.5160088\RMSD=5.548e-09\Dipole=0.017
 6078,0.0124228,-0.0175811\Quadrupole=0.0519705,0.0261226,-0.0780931,-0
 .1212556,-0.0331332,0.0294281\PG=C01 [X(C1H4)]\\@


 ...THOSE SCIENCES ARE VAIN AND FULL OF ERRORS WHICH 
 ARE NOT BORN FROM EXPERIMENT, THE MOTHER OF CERTAINTY...

                          -- LEONARDO DA VINCI, 1452-1519
 Job cpu time:       0 days  0 hours  0 minutes  3.5 seconds.
 Elapsed time:       0 days  0 hours  0 minutes  1.8 seconds.
 File lengths (MBytes):  RWF=      6 Int=      0 D2E=      0 Chk=      1 Scr=      1
 Normal termination of Gaussian 16 at Fri Sep 22 17:01:38 2023.
