 Entering Gaussian System, Link 0=g16
 Initial command:
 /share/apps/gaussian/g16/l1.exe "/tmp/55621.mgr/Gau-118671.inp" -scrdir="/tmp/55621.mgr/"
 Entering Link 1 = /share/apps/gaussian/g16/l1.exe PID=    118672.
  
 Copyright (c) 1988,1990,1992,1993,1995,1998,2003,2009,2016,
            Gaussian, Inc.  All Rights Reserved.
  
 This is part of the Gaussian(R) 16 program.  It is based on
 the Gaussian(R) 09 system (copyright 2009, Gaussian, Inc.),
 the Gaussian(R) 03 system (copyright 2003, Gaussian, Inc.),
 the Gaussian(R) 98 system (copyright 1998, Gaussian, Inc.),
 the Gaussian(R) 94 system (copyright 1995, Gaussian, Inc.),
 the Gaussian 92(TM) system (copyright 1992, Gaussian, Inc.),
 the Gaussian 90(TM) system (copyright 1990, Gaussian, Inc.),
 the Gaussian 88(TM) system (copyright 1988, Gaussian, Inc.),
 the Gaussian 86(TM) system (copyright 1986, Carnegie Mellon
 University), and the Gaussian 82(TM) system (copyright 1983,
 Carnegie Mellon University). Gaussian is a federally registered
 trademark of Gaussian, Inc.
  
 This software contains proprietary and confidential information,
 including trade secrets, belonging to Gaussian, Inc.
  
 This software is provided under written license and may be
 used, copied, transmitted, or stored only in accord with that
 written license.
  
 The following legend is applicable only to US Government
 contracts under FAR:
  
                    RESTRICTED RIGHTS LEGEND
  
 Use, reproduction and disclosure by the US Government is
 subject to restrictions as set forth in subparagraphs (a)
 and (c) of the Commercial Computer Software - Restricted
 Rights clause in FAR 52.227-19.
  
 Gaussian, Inc.
 340 Quinnipiac St., Bldg. 40, Wallingford CT 06492
  
  
 ---------------------------------------------------------------
 Warning -- This program may not be used in any manner that
 competes with the business of Gaussian, Inc. or will provide
 assistance to any competitor of Gaussian, Inc.  The licensee
 of this program is prohibited from giving any competitor of
 Gaussian, Inc. access to this program.  By using this program,
 the user acknowledges that Gaussian, Inc. is engaged in the
 business of creating and licensing software in the field of
 computational chemistry and represents and warrants to the
 licensee that it is not a competitor of Gaussian, Inc. and that
 it will not use this program in any manner prohibited above.
 ---------------------------------------------------------------
  

 Cite this work as:
 Gaussian 16, Revision A.03,
 M. J. Frisch, G. W. Trucks, H. B. Schlegel, G. E. Scuseria, 
 M. A. Robb, J. R. Cheeseman, G. Scalmani, V. Barone, 
 G. A. Petersson, H. Nakatsuji, X. Li, M. Caricato, A. V. Marenich, 
 J. Bloino, B. G. Janesko, R. Gomperts, B. Mennucci, H. P. Hratchian, 
 J. V. Ortiz, A. F. Izmaylov, J. L. Sonnenberg, D. Williams-Young, 
 F. Ding, F. Lipparini, F. Egidi, J. Goings, B. Peng, A. Petrone, 
 T. Henderson, D. Ranasinghe, V. G. Zakrzewski, J. Gao, N. Rega, 
 G. Zheng, W. Liang, M. Hada, M. Ehara, K. Toyota, R. Fukuda, 
 J. Hasegawa, M. Ishida, T. Nakajima, Y. Honda, O. Kitao, H. Nakai, 
 T. Vreven, K. Throssell, J. A. Montgomery, Jr., J. E. Peralta, 
 F. Ogliaro, M. J. Bearpark, J. J. Heyd, E. N. Brothers, K. N. Kudin, 
 V. N. Staroverov, T. A. Keith, R. Kobayashi, J. Normand, 
 K. Raghavachari, A. P. Rendell, J. C. Burant, S. S. Iyengar, 
 J. Tomasi, M. Cossi, J. M. Millam, M. Klene, C. Adamo, R. Cammi, 
 J. W. Ochterski, R. L. Martin, K. Morokuma, O. Farkas, 
 J. B. Foresman, and D. J. Fox, Gaussian, Inc., Wallingford CT, 2016.
 
 ******************************************
 Gaussian 16:  ES64L-G16RevA.03 25-Dec-2016
                22-Sep-2023 
 ******************************************
 %nprocshared=2
 Will use up to    2 processors via shared memory.
 %mem=2GB
 ----------------
 # b3lyp/6-31g(d)
 ----------------
 1/38=1,172=1/1;
 2/12=2,17=6,18=5,40=1/2;
 3/5=1,6=6,7=1,11=2,25=1,30=1,74=-5/1,2,3;
 4//1;
 5/5=2,38=5/2;
 6/7=2,8=2,9=2,10=2,28=1/1;
 99/5=1,9=1/99;
 --------------------
 tmpdir/M2_ref_58.gjf
 --------------------
 Symbolic Z-matrix:
 Charge =  0 Multiplicity = 1
 N                     2.22392  -0.79147   30.00378 
 N                     2.46788   0.3206    29.5231 
 H                     1.47628  -0.80984   30.73387 
 N                     2.78513   1.28786   29.00411 
 
                          Input orientation:                          
 ---------------------------------------------------------------------
 Center     Atomic      Atomic             Coordinates (Angstroms)
 Number     Number       Type             X           Y           Z
 ---------------------------------------------------------------------
      1          7           0        2.223918   -0.791472   30.003777
      2          7           0        2.467876    0.320595   29.523101
      3          1           0        1.476278   -0.809845   30.733865
      4          7           0        2.785125    1.287862   29.004110
 ---------------------------------------------------------------------
                    Distance matrix (angstroms):
                    1          2          3          4
     1  N    0.000000
     2  N    1.235823   0.000000
     3  H    1.045147   1.930573   0.000000
     4  N    2.374430   1.142630   3.017534   0.000000
 Stoichiometry    HN3
 Framework group  C1[X(HN3)]
 Deg. of freedom     6
 Full point group                 C1      NOp   1
 Largest Abelian subgroup         C1      NOp   1
 Largest concise Abelian subgroup C1      NOp   1
                         Standard orientation:                         
 ---------------------------------------------------------------------
 Center     Atomic      Atomic             Coordinates (Angstroms)
 Number     Number       Type             X           Y           Z
 ---------------------------------------------------------------------
      1          7           0       -1.118734   -0.137627    0.000112
      2          7           0        0.107933    0.012522   -0.000288
      3          1           0       -1.678225    0.745154    0.000152
      4          7           0        1.250547    0.018654    0.000154
 ---------------------------------------------------------------------
 Rotational constants (GHZ):         647.5884812          11.9191424          11.7037312
 Standard basis: 6-31G(d) (6D, 7F)
 There are    47 symmetry adapted cartesian basis functions of A   symmetry.
 There are    47 symmetry adapted basis functions of A   symmetry.
    47 basis functions,    88 primitive gaussians,    47 cartesian basis functions
    11 alpha electrons       11 beta electrons
       nuclear repulsion energy        61.2856033794 Hartrees.
 NAtoms=    4 NActive=    4 NUniq=    4 SFac= 1.00D+00 NAtFMM=   60 NAOKFM=F Big=F
 Integral buffers will be    131072 words long.
 Raffenetti 2 integral format.
 Two-electron integral symmetry is turned on.
 One-electron integrals computed using PRISM.
 NBasis=    47 RedAO= T EigKep=  1.73D-03  NBF=    47
 NBsUse=    47 1.00D-06 EigRej= -1.00D+00 NBFU=    47
 ExpMin= 1.61D-01 ExpMax= 4.17D+03 ExpMxC= 6.27D+02 IAcc=3 IRadAn=         5 AccDes= 0.00D+00
 Harris functional with IExCor=  402 and IRadAn=       5 diagonalized for initial guess.
 HarFok:  IExCor=  402 AccDes= 0.00D+00 IRadAn=         5 IDoV= 1 UseB2=F ITyADJ=14
 ICtDFT=  3500011 ScaDFX=  1.000000  1.000000  1.000000  1.000000
 FoFCou: FMM=F IPFlag=           0 FMFlag=      100000 FMFlg1=           0
         NFxFlg=           0 DoJE=T BraDBF=F KetDBF=T FulRan=T
         wScrn=  0.000000 ICntrl=       500 IOpCl=  0 I1Cent=   200000004 NGrid=           0
         NMat0=    1 NMatS0=      1 NMatT0=    0 NMatD0=    1 NMtDS0=    0 NMtDT0=    0
 Petite list used in FoFCou.
 Keep R1 ints in memory in canonical form, NReq=2371681.
 Requested convergence on RMS density matrix=1.00D-08 within 128 cycles.
 Requested convergence on MAX density matrix=1.00D-06.
 Requested convergence on             energy=1.00D-06.
 No special actions if energy rises.
 Integral accuracy reduced to 1.0D-05 until final iterations.
 Initial convergence to 1.0D-05 achieved.  Increase integral accuracy.
 SCF Done:  E(RB3LYP) =  -164.780945058     A.U. after   13 cycles
            NFock= 13  Conv=0.57D-08     -V/T= 2.0098

 **********************************************************************

            Population analysis using the SCF density.

 **********************************************************************

 Orbital symmetries:
       Occupied  (A) (A) (A) (A) (A) (A) (A) (A) (A) (A) (A)
       Virtual   (A) (A) (A) (A) (A) (A) (A) (A) (A) (A) (A) (A)
                 (A) (A) (A) (A) (A) (A) (A) (A) (A) (A) (A) (A)
                 (A) (A) (A) (A) (A) (A) (A) (A) (A) (A) (A) (A)
 The electronic state is 1-A.
 Alpha  occ. eigenvalues --  -14.52625 -14.41556 -14.39025  -1.14594  -0.97996
 Alpha  occ. eigenvalues --   -0.62962  -0.51194  -0.51111  -0.45573  -0.31995
 Alpha  occ. eigenvalues --   -0.27502
 Alpha virt. eigenvalues --   -0.03554   0.00944   0.07832   0.23153   0.44169
 Alpha virt. eigenvalues --    0.50789   0.60638   0.60740   0.65230   0.70740
 Alpha virt. eigenvalues --    0.71217   0.74769   0.81904   0.86164   0.92257
 Alpha virt. eigenvalues --    1.02298   1.30929   1.33727   1.38027   1.39537
 Alpha virt. eigenvalues --    1.46630   1.50523   1.67356   1.86909   1.97445
 Alpha virt. eigenvalues --    2.01078   2.07984   2.28151   2.29770   2.60868
 Alpha virt. eigenvalues --    2.87099   2.88769   3.02201   3.49429   3.54881
 Alpha virt. eigenvalues --    4.12326
          Condensed to atoms (all electrons):
               1          2          3          4
     1  N    6.919394   0.399342   0.278445  -0.099755
     2  N    0.399342   5.677481  -0.039751   0.575317
     3  H    0.278445  -0.039751   0.403455  -0.001507
     4  N   -0.099755   0.575317  -0.001507   6.775488
 Mulliken charges:
               1
     1  N   -0.497426
     2  N    0.387612
     3  H    0.359358
     4  N   -0.249544
 Sum of Mulliken charges =  -0.00000
 Mulliken charges with hydrogens summed into heavy atoms:
               1
     1  N   -0.138068
     2  N    0.387612
     4  N   -0.249544
 Electronic spatial extent (au):  <R**2>=            120.6541
 Charge=             -0.0000 electrons
 Dipole moment (field-independent basis, Debye):
    X=             -1.2801    Y=              1.6228    Z=             -0.0005  Tot=              2.0669
 Quadrupole moment (field-independent basis, Debye-Ang):
   XX=            -17.9059   YY=            -15.5751   ZZ=            -16.9008
   XY=             -2.9535   XZ=             -0.0004   YZ=              0.0002
 Traceless Quadrupole moment (field-independent basis, Debye-Ang):
   XX=             -1.1119   YY=              1.2189   ZZ=             -0.1069
   XY=             -2.9535   XZ=             -0.0004   YZ=              0.0002
 Octapole moment (field-independent basis, Debye-Ang**2):
  XXX=             -8.0279  YYY=              1.8021  ZZZ=             -0.0007  XYY=             -0.9035
  XXY=              4.8836  XXZ=              0.0009  XZZ=              0.2978  YZZ=              0.3989
  YYZ=             -0.0000  XYZ=             -0.0004
 Hexadecapole moment (field-independent basis, Debye-Ang**3):
 XXXX=           -116.0291 YYYY=            -15.2770 ZZZZ=            -14.0933 XXXY=             -9.2424
 XXXZ=             -0.0024 YYYX=             -3.1820 YYYZ=              0.0003 ZZZX=             -0.0002
 ZZZY=              0.0001 XXYY=            -20.4964 XXZZ=            -23.3774 YYZZ=             -5.0140
 XXYZ=              0.0005 YYXZ=             -0.0002 ZZXY=             -0.6803
 N-N= 6.128560337939D+01 E-N=-5.068048769678D+02  KE= 1.631814503037D+02
 1\1\GINC-NODE60\SP\RB3LYP\6-31G(d)\H1N3\YANZ\22-Sep-2023\0\\# b3lyp/6-
 31g(d)\\tmpdir/M2_ref_58.gjf\\0,1\N,0,2.223918,-0.791472,30.003777\N,0
 ,2.467876,0.320595,29.523101\H,0,1.47627789,-0.80984496,30.73386547\N,
 0,2.785125,1.287862,29.00411\\Version=ES64L-G16RevA.03\State=1-A\HF=-1
 64.7809451\RMSD=5.654e-09\Dipole=-0.5686869,-0.0968608,0.5731422\Quadr
 upole=1.1275792,-2.2553754,1.1277961,0.4060097,-1.261223,0.081344\PG=C
 01 [X(H1N3)]\\@


 THE ENLIGHTENED ONE, BECAUSE HE SAW MANKIND DROWNING  
 IN THE GREAT SEA OF BIRTH, DEATH, AND SORROW, LONGED TO SAVE 
 THEM, FOR THIS HE WAS MOVED TO PITY.                         
 BECAUSE HE SAW MEN OF THE WORLD STRAYING IN FALSE PATHS, AND 
 NONE TO GUIDE THEM, FOR THIS HE WAS MOVED TO PITY.           
                     ..................                       
 BECAUSE HE SAW THE MEN OF THE WORLD PLOUGHING THEIR FIELDS,  
 SOWING THE SEED, TRAFFICKING, HUCKSTERING, BUYING, SELLING,  
 AND AT THE END WINNOWING NOTHING BUT BITTERNESS,             
 FOR THIS HE WAS MOVED TO PITY......                   
                   BUDAH'S PITY - UPSAKA SILA SUTRA           
 Job cpu time:       0 days  0 hours  0 minutes  5.8 seconds.
 Elapsed time:       0 days  0 hours  0 minutes  3.0 seconds.
 File lengths (MBytes):  RWF=      6 Int=      0 D2E=      0 Chk=      1 Scr=      1
 Normal termination of Gaussian 16 at Fri Sep 22 17:01:54 2023.
