 Entering Gaussian System, Link 0=g16
 Initial command:
 /share/apps/gaussian/g16/l1.exe "/tmp/55621.mgr/Gau-118922.inp" -scrdir="/tmp/55621.mgr/"
 Entering Link 1 = /share/apps/gaussian/g16/l1.exe PID=    118923.
  
 Copyright (c) 1988,1990,1992,1993,1995,1998,2003,2009,2016,
            Gaussian, Inc.  All Rights Reserved.
  
 This is part of the Gaussian(R) 16 program.  It is based on
 the Gaussian(R) 09 system (copyright 2009, Gaussian, Inc.),
 the Gaussian(R) 03 system (copyright 2003, Gaussian, Inc.),
 the Gaussian(R) 98 system (copyright 1998, Gaussian, Inc.),
 the Gaussian(R) 94 system (copyright 1995, Gaussian, Inc.),
 the Gaussian 92(TM) system (copyright 1992, Gaussian, Inc.),
 the Gaussian 90(TM) system (copyright 1990, Gaussian, Inc.),
 the Gaussian 88(TM) system (copyright 1988, Gaussian, Inc.),
 the Gaussian 86(TM) system (copyright 1986, Carnegie Mellon
 University), and the Gaussian 82(TM) system (copyright 1983,
 Carnegie Mellon University). Gaussian is a federally registered
 trademark of Gaussian, Inc.
  
 This software contains proprietary and confidential information,
 including trade secrets, belonging to Gaussian, Inc.
  
 This software is provided under written license and may be
 used, copied, transmitted, or stored only in accord with that
 written license.
  
 The following legend is applicable only to US Government
 contracts under FAR:
  
                    RESTRICTED RIGHTS LEGEND
  
 Use, reproduction and disclosure by the US Government is
 subject to restrictions as set forth in subparagraphs (a)
 and (c) of the Commercial Computer Software - Restricted
 Rights clause in FAR 52.227-19.
  
 Gaussian, Inc.
 340 Quinnipiac St., Bldg. 40, Wallingford CT 06492
  
  
 ---------------------------------------------------------------
 Warning -- This program may not be used in any manner that
 competes with the business of Gaussian, Inc. or will provide
 assistance to any competitor of Gaussian, Inc.  The licensee
 of this program is prohibited from giving any competitor of
 Gaussian, Inc. access to this program.  By using this program,
 the user acknowledges that Gaussian, Inc. is engaged in the
 business of creating and licensing software in the field of
 computational chemistry and represents and warrants to the
 licensee that it is not a competitor of Gaussian, Inc. and that
 it will not use this program in any manner prohibited above.
 ---------------------------------------------------------------
  

 Cite this work as:
 Gaussian 16, Revision A.03,
 M. J. Frisch, G. W. Trucks, H. B. Schlegel, G. E. Scuseria, 
 M. A. Robb, J. R. Cheeseman, G. Scalmani, V. Barone, 
 G. A. Petersson, H. Nakatsuji, X. Li, M. Caricato, A. V. Marenich, 
 J. Bloino, B. G. Janesko, R. Gomperts, B. Mennucci, H. P. Hratchian, 
 J. V. Ortiz, A. F. Izmaylov, J. L. Sonnenberg, D. Williams-Young, 
 F. Ding, F. Lipparini, F. Egidi, J. Goings, B. Peng, A. Petrone, 
 T. Henderson, D. Ranasinghe, V. G. Zakrzewski, J. Gao, N. Rega, 
 G. Zheng, W. Liang, M. Hada, M. Ehara, K. Toyota, R. Fukuda, 
 J. Hasegawa, M. Ishida, T. Nakajima, Y. Honda, O. Kitao, H. Nakai, 
 T. Vreven, K. Throssell, J. A. Montgomery, Jr., J. E. Peralta, 
 F. Ogliaro, M. J. Bearpark, J. J. Heyd, E. N. Brothers, K. N. Kudin, 
 V. N. Staroverov, T. A. Keith, R. Kobayashi, J. Normand, 
 K. Raghavachari, A. P. Rendell, J. C. Burant, S. S. Iyengar, 
 J. Tomasi, M. Cossi, J. M. Millam, M. Klene, C. Adamo, R. Cammi, 
 J. W. Ochterski, R. L. Martin, K. Morokuma, O. Farkas, 
 J. B. Foresman, and D. J. Fox, Gaussian, Inc., Wallingford CT, 2016.
 
 ******************************************
 Gaussian 16:  ES64L-G16RevA.03 25-Dec-2016
                22-Sep-2023 
 ******************************************
 %nprocshared=2
 Will use up to    2 processors via shared memory.
 %mem=2GB
 ----------------
 # b3lyp/6-31g(d)
 ----------------
 1/38=1,172=1/1;
 2/12=2,17=6,18=5,40=1/2;
 3/5=1,6=6,7=1,11=2,25=1,30=1,74=-5/1,2,3;
 4//1;
 5/5=2,38=5/2;
 6/7=2,8=2,9=2,10=2,28=1/1;
 99/5=1,9=1/99;
 --------------------
 tmpdir/M2_ref_80.gjf
 --------------------
 Symbolic Z-matrix:
 Charge =  0 Multiplicity = 1
 C                    -0.20298  -0.39175   30.53635 
 C                    -0.9357   -1.23058   29.68505 
 H                    -0.52576  -2.19821   29.40544 
 H                     0.78087  -0.7001    30.90563 
 O                    -0.67236   0.70739   30.84124 
 O                    -2.02943  -0.87758   29.25127 
 
                          Input orientation:                          
 ---------------------------------------------------------------------
 Center     Atomic      Atomic             Coordinates (Angstroms)
 Number     Number       Type             X           Y           Z
 ---------------------------------------------------------------------
      1          6           0       -0.202984   -0.391750   30.536350
      2          6           0       -0.935704   -1.230580   29.685052
      3          1           0       -0.525758   -2.198205   29.405435
      4          1           0        0.780873   -0.700098   30.905625
      5          8           0       -0.672363    0.707388   30.841244
      6          8           0       -2.029433   -0.877577   29.251271
 ---------------------------------------------------------------------
                    Distance matrix (angstroms):
                    1          2          3          4          5
     1  C    0.000000
     2  C    1.401864   0.000000
     3  H    2.155558   1.087446   0.000000
     4  H    1.095179   2.172061   2.490418   0.000000
     5  O    1.233443   2.271970   3.244304   2.024119   0.000000
     6  O    2.285470   1.228422   2.007203   3.265916   2.623311
                    6
     6  O    0.000000
 Stoichiometry    C2H2O2
 Framework group  C1[X(C2H2O2)]
 Deg. of freedom    12
 Full point group                 C1      NOp   1
 Largest Abelian subgroup         C1      NOp   1
 Largest concise Abelian subgroup C1      NOp   1
                         Standard orientation:                         
 ---------------------------------------------------------------------
 Center     Atomic      Atomic             Coordinates (Angstroms)
 Number     Number       Type             X           Y           Z
 ---------------------------------------------------------------------
      1          6           0        0.705731    0.509077   -0.003448
      2          6           0       -0.696125    0.504728   -0.001728
      3          1           0       -1.233583    1.450065    0.002192
      4          1           0        1.256800    1.455347    0.014261
      5          8           0        1.306587   -0.568114    0.000543
      6          8           0       -1.316694   -0.555416    0.001283
 ---------------------------------------------------------------------
 Rotational constants (GHZ):          24.8039010           7.2244641           5.5949284
 Standard basis: 6-31G(d) (6D, 7F)
 There are    64 symmetry adapted cartesian basis functions of A   symmetry.
 There are    64 symmetry adapted basis functions of A   symmetry.
    64 basis functions,   120 primitive gaussians,    64 cartesian basis functions
    15 alpha electrons       15 beta electrons
       nuclear repulsion energy       105.8316591809 Hartrees.
 NAtoms=    6 NActive=    6 NUniq=    6 SFac= 1.00D+00 NAtFMM=   60 NAOKFM=F Big=F
 Integral buffers will be    131072 words long.
 Raffenetti 2 integral format.
 Two-electron integral symmetry is turned on.
 One-electron integrals computed using PRISM.
 NBasis=    64 RedAO= T EigKep=  2.76D-03  NBF=    64
 NBsUse=    64 1.00D-06 EigRej= -1.00D+00 NBFU=    64
 ExpMin= 1.61D-01 ExpMax= 5.48D+03 ExpMxC= 8.25D+02 IAcc=3 IRadAn=         5 AccDes= 0.00D+00
 Harris functional with IExCor=  402 and IRadAn=       5 diagonalized for initial guess.
 HarFok:  IExCor=  402 AccDes= 0.00D+00 IRadAn=         5 IDoV= 1 UseB2=F ITyADJ=14
 ICtDFT=  3500011 ScaDFX=  1.000000  1.000000  1.000000  1.000000
 FoFCou: FMM=F IPFlag=           0 FMFlag=      100000 FMFlg1=           0
         NFxFlg=           0 DoJE=T BraDBF=F KetDBF=T FulRan=T
         wScrn=  0.000000 ICntrl=       500 IOpCl=  0 I1Cent=   200000004 NGrid=           0
         NMat0=    1 NMatS0=      1 NMatT0=    0 NMatD0=    1 NMtDS0=    0 NMtDT0=    0
 Petite list used in FoFCou.
 Keep R1 ints in memory in canonical form, NReq=3940480.
 Requested convergence on RMS density matrix=1.00D-08 within 128 cycles.
 Requested convergence on MAX density matrix=1.00D-06.
 Requested convergence on             energy=1.00D-06.
 No special actions if energy rises.
 Integral accuracy reduced to 1.0D-05 until final iterations.
 Initial convergence to 1.0D-05 achieved.  Increase integral accuracy.
 SCF Done:  E(RB3LYP) =  -227.799641447     A.U. after   13 cycles
            NFock= 13  Conv=0.74D-08     -V/T= 2.0080

 **********************************************************************

            Population analysis using the SCF density.

 **********************************************************************

 Orbital symmetries:
       Occupied  (A) (A) (A) (A) (A) (A) (A) (A) (A) (A) (A) (A)
                 (A) (A) (A)
       Virtual   (A) (A) (A) (A) (A) (A) (A) (A) (A) (A) (A) (A)
                 (A) (A) (A) (A) (A) (A) (A) (A) (A) (A) (A) (A)
                 (A) (A) (A) (A) (A) (A) (A) (A) (A) (A) (A) (A)
                 (A) (A) (A) (A) (A) (A) (A) (A) (A) (A) (A) (A)
                 (A)
 The electronic state is 1-A.
 Alpha  occ. eigenvalues --  -19.18739 -19.18657 -10.29923 -10.29756  -1.08814
 Alpha  occ. eigenvalues --   -1.04963  -0.75235  -0.57592  -0.55316  -0.47049
 Alpha  occ. eigenvalues --   -0.45167  -0.44465  -0.37664  -0.30487  -0.27963
 Alpha virt. eigenvalues --   -0.13140   0.03535   0.10708   0.13524   0.17690
 Alpha virt. eigenvalues --    0.31429   0.37819   0.48360   0.51309   0.56500
 Alpha virt. eigenvalues --    0.58707   0.65675   0.66603   0.74157   0.81720
 Alpha virt. eigenvalues --    0.82818   0.84055   0.92288   0.96219   0.99262
 Alpha virt. eigenvalues --    1.00087   1.11691   1.13272   1.28660   1.29802
 Alpha virt. eigenvalues --    1.41334   1.54476   1.60152   1.66354   1.72564
 Alpha virt. eigenvalues --    1.75617   1.85303   1.86241   2.01122   2.02268
 Alpha virt. eigenvalues --    2.05665   2.24990   2.33571   2.40557   2.49075
 Alpha virt. eigenvalues --    2.64685   2.65541   2.84514   2.90044   3.11996
 Alpha virt. eigenvalues --    3.61483   4.00553   4.02756   4.32898
          Condensed to atoms (all electrons):
               1          2          3          4          5          6
     1  C    4.897778   0.213100  -0.097916   0.331497   0.527323  -0.071190
     2  C    0.213100   4.877283   0.331398  -0.093645  -0.071380   0.538238
     3  H   -0.097916   0.331398   0.672913   0.012240   0.004226  -0.053066
     4  H    0.331497  -0.093645   0.012240   0.660580  -0.049919   0.003682
     5  O    0.527323  -0.071380   0.004226  -0.049919   7.929061  -0.004352
     6  O   -0.071190   0.538238  -0.053066   0.003682  -0.004352   7.921915
 Mulliken charges:
               1
     1  C    0.199409
     2  C    0.205007
     3  H    0.130206
     4  H    0.135564
     5  O   -0.334959
     6  O   -0.335227
 Sum of Mulliken charges =  -0.00000
 Mulliken charges with hydrogens summed into heavy atoms:
               1
     1  C    0.334973
     2  C    0.335213
     5  O   -0.334959
     6  O   -0.335227
 Electronic spatial extent (au):  <R**2>=            224.7308
 Charge=             -0.0000 electrons
 Dipole moment (field-independent basis, Debye):
    X=              0.0522    Y=              3.4907    Z=             -0.0042  Tot=              3.4911
 Quadrupole moment (field-independent basis, Debye-Ang):
   XX=            -25.3699   YY=            -21.3487   ZZ=            -20.7791
   XY=              0.0817   XZ=              0.0064   YZ=              0.0043
 Traceless Quadrupole moment (field-independent basis, Debye-Ang):
   XX=             -2.8707   YY=              1.1506   ZZ=              1.7201
   XY=              0.0817   XZ=              0.0064   YZ=              0.0043
 Octapole moment (field-independent basis, Debye-Ang**2):
  XXX=              0.0954  YYY=             -1.2454  ZZZ=              0.0045  XYY=              0.0747
  XXY=              3.7591  XXZ=             -0.0116  XZZ=             -0.0254  YZZ=             -1.4491
  YYZ=              0.0219  XYZ=              0.0083
 Hexadecapole moment (field-independent basis, Debye-Ang**3):
 XXXX=           -182.2166 YYYY=            -70.9401 ZZZZ=            -16.5609 XXXY=              0.2007
 XXXZ=              0.0131 YYYX=              0.1519 YYYZ=              0.0170 ZZZX=             -0.0024
 ZZZY=             -0.0118 XXYY=            -39.0665 XXZZ=            -30.3034 YYZZ=            -14.7418
 XXYZ=              0.0292 YYXZ=              0.0227 ZZXY=             -0.0143
 N-N= 1.058316591809D+02 E-N=-7.459256434111D+02  KE= 2.259831959957D+02
 1\1\GINC-NODE60\SP\RB3LYP\6-31G(d)\C2H2O2\YANZ\22-Sep-2023\0\\# b3lyp/
 6-31g(d)\\tmpdir/M2_ref_80.gjf\\0,1\C,0,-0.202984,-0.39175,30.53635\C,
 0,-0.935704,-1.23058,29.685052\H,0,-0.525758,-2.198205,29.405435\H,0,0
 .78087335,-0.70009793,30.90562524\O,0,-0.67236341,0.707388,30.84124367
 \O,0,-2.02943328,-0.87757655,29.25127136\\Version=ES64L-G16RevA.03\Sta
 te=1-A\HF=-227.7996414\RMSD=7.396e-09\Dipole=1.0097641,-0.9271625,0.08
 53279\Quadrupole=0.1784559,-0.2012132,0.0227573,-0.8506926,-1.0678221,
 -1.250837\PG=C01 [X(C2H2O2)]\\@


 COLLEGE PROFESSOR: SOMEONE WHO TALKS IN OTHER PEOPLE'S SLEEP.
 Job cpu time:       0 days  0 hours  0 minutes 11.0 seconds.
 Elapsed time:       0 days  0 hours  0 minutes  5.6 seconds.
 File lengths (MBytes):  RWF=      6 Int=      0 D2E=      0 Chk=      1 Scr=      1
 Normal termination of Gaussian 16 at Fri Sep 22 17:02:05 2023.
