 Entering Gaussian System, Link 0=g16
 Initial command:
 /share/apps/gaussian/g16/l1.exe "/tmp/55621.mgr/Gau-118717.inp" -scrdir="/tmp/55621.mgr/"
 Entering Link 1 = /share/apps/gaussian/g16/l1.exe PID=    118718.
  
 Copyright (c) 1988,1990,1992,1993,1995,1998,2003,2009,2016,
            Gaussian, Inc.  All Rights Reserved.
  
 This is part of the Gaussian(R) 16 program.  It is based on
 the Gaussian(R) 09 system (copyright 2009, Gaussian, Inc.),
 the Gaussian(R) 03 system (copyright 2003, Gaussian, Inc.),
 the Gaussian(R) 98 system (copyright 1998, Gaussian, Inc.),
 the Gaussian(R) 94 system (copyright 1995, Gaussian, Inc.),
 the Gaussian 92(TM) system (copyright 1992, Gaussian, Inc.),
 the Gaussian 90(TM) system (copyright 1990, Gaussian, Inc.),
 the Gaussian 88(TM) system (copyright 1988, Gaussian, Inc.),
 the Gaussian 86(TM) system (copyright 1986, Carnegie Mellon
 University), and the Gaussian 82(TM) system (copyright 1983,
 Carnegie Mellon University). Gaussian is a federally registered
 trademark of Gaussian, Inc.
  
 This software contains proprietary and confidential information,
 including trade secrets, belonging to Gaussian, Inc.
  
 This software is provided under written license and may be
 used, copied, transmitted, or stored only in accord with that
 written license.
  
 The following legend is applicable only to US Government
 contracts under FAR:
  
                    RESTRICTED RIGHTS LEGEND
  
 Use, reproduction and disclosure by the US Government is
 subject to restrictions as set forth in subparagraphs (a)
 and (c) of the Commercial Computer Software - Restricted
 Rights clause in FAR 52.227-19.
  
 Gaussian, Inc.
 340 Quinnipiac St., Bldg. 40, Wallingford CT 06492
  
  
 ---------------------------------------------------------------
 Warning -- This program may not be used in any manner that
 competes with the business of Gaussian, Inc. or will provide
 assistance to any competitor of Gaussian, Inc.  The licensee
 of this program is prohibited from giving any competitor of
 Gaussian, Inc. access to this program.  By using this program,
 the user acknowledges that Gaussian, Inc. is engaged in the
 business of creating and licensing software in the field of
 computational chemistry and represents and warrants to the
 licensee that it is not a competitor of Gaussian, Inc. and that
 it will not use this program in any manner prohibited above.
 ---------------------------------------------------------------
  

 Cite this work as:
 Gaussian 16, Revision A.03,
 M. J. Frisch, G. W. Trucks, H. B. Schlegel, G. E. Scuseria, 
 M. A. Robb, J. R. Cheeseman, G. Scalmani, V. Barone, 
 G. A. Petersson, H. Nakatsuji, X. Li, M. Caricato, A. V. Marenich, 
 J. Bloino, B. G. Janesko, R. Gomperts, B. Mennucci, H. P. Hratchian, 
 J. V. Ortiz, A. F. Izmaylov, J. L. Sonnenberg, D. Williams-Young, 
 F. Ding, F. Lipparini, F. Egidi, J. Goings, B. Peng, A. Petrone, 
 T. Henderson, D. Ranasinghe, V. G. Zakrzewski, J. Gao, N. Rega, 
 G. Zheng, W. Liang, M. Hada, M. Ehara, K. Toyota, R. Fukuda, 
 J. Hasegawa, M. Ishida, T. Nakajima, Y. Honda, O. Kitao, H. Nakai, 
 T. Vreven, K. Throssell, J. A. Montgomery, Jr., J. E. Peralta, 
 F. Ogliaro, M. J. Bearpark, J. J. Heyd, E. N. Brothers, K. N. Kudin, 
 V. N. Staroverov, T. A. Keith, R. Kobayashi, J. Normand, 
 K. Raghavachari, A. P. Rendell, J. C. Burant, S. S. Iyengar, 
 J. Tomasi, M. Cossi, J. M. Millam, M. Klene, C. Adamo, R. Cammi, 
 J. W. Ochterski, R. L. Martin, K. Morokuma, O. Farkas, 
 J. B. Foresman, and D. J. Fox, Gaussian, Inc., Wallingford CT, 2016.
 
 ******************************************
 Gaussian 16:  ES64L-G16RevA.03 25-Dec-2016
                22-Sep-2023 
 ******************************************
 %nprocshared=2
 Will use up to    2 processors via shared memory.
 %mem=2GB
 ----------------
 # b3lyp/6-31g(d)
 ----------------
 1/38=1,172=1/1;
 2/12=2,17=6,18=5,40=1/2;
 3/5=1,6=6,7=1,11=2,25=1,30=1,74=-5/1,2,3;
 4//1;
 5/5=2,38=5/2;
 6/7=2,8=2,9=2,10=2,28=1/1;
 99/5=1,9=1/99;
 --------------------
 tmpdir/M2_ref_73.gjf
 --------------------
 Symbolic Z-matrix:
 Charge =  0 Multiplicity = 1
 C                    -0.20298  -0.39175   30.53635 
 C                    -0.73539   0.85498   30.88218 
 H                     0.78087  -0.7001    30.90563 
 H                    -0.73339  -0.99897   29.92011 
 H                    -1.63591   1.14684   30.52698 
 H                    -0.17603   1.51346   31.54321 
 
                          Input orientation:                          
 ---------------------------------------------------------------------
 Center     Atomic      Atomic             Coordinates (Angstroms)
 Number     Number       Type             X           Y           Z
 ---------------------------------------------------------------------
      1          6           0       -0.202984   -0.391750   30.536350
      2          6           0       -0.735392    0.854981   30.882185
      3          1           0        0.780873   -0.700098   30.905625
      4          1           0       -0.733390   -0.998967   29.920107
      5          1           0       -1.635911    1.146842   30.526979
      6          1           0       -0.176028    1.513463   31.543208
 ---------------------------------------------------------------------
                    Distance matrix (angstroms):
                    1          2          3          4          5
     1  C    0.000000
     2  C    1.399071   0.000000
     3  H    1.095179   2.172068   0.000000
     4  H    1.014790   2.088713   1.831273   0.000000
     5  H    2.102530   1.011083   3.065193   2.405688   0.000000
     6  H    2.155070   1.087859   2.494399   3.042600   1.816147
                    6
     6  H    0.000000
 Stoichiometry    C2H4
 Framework group  C1[X(C2H4)]
 Deg. of freedom    12
 Full point group                 C1      NOp   1
 Largest Abelian subgroup         C1      NOp   1
 Largest concise Abelian subgroup C1      NOp   1
                         Standard orientation:                         
 ---------------------------------------------------------------------
 Center     Atomic      Atomic             Coordinates (Angstroms)
 Number     Number       Type             X           Y           Z
 ---------------------------------------------------------------------
      1          6           0       -0.699690   -0.009315   -0.003058
      2          6           0        0.699373   -0.006973    0.000898
      3          1           0       -1.259203    0.932040    0.011557
      4          1           0       -1.189804   -0.897890    0.001520
      5          1           0        1.215784   -0.876220    0.005194
      6          1           0        1.235126    0.939794   -0.005309
 ---------------------------------------------------------------------
 Rotational constants (GHZ):         150.7028326          28.3977267          23.8957184
 Standard basis: 6-31G(d) (6D, 7F)
 There are    38 symmetry adapted cartesian basis functions of A   symmetry.
 There are    38 symmetry adapted basis functions of A   symmetry.
    38 basis functions,    72 primitive gaussians,    38 cartesian basis functions
     8 alpha electrons        8 beta electrons
       nuclear repulsion energy        33.0275723457 Hartrees.
 NAtoms=    6 NActive=    6 NUniq=    6 SFac= 1.00D+00 NAtFMM=   60 NAOKFM=F Big=F
 Integral buffers will be    131072 words long.
 Raffenetti 2 integral format.
 Two-electron integral symmetry is turned on.
 One-electron integrals computed using PRISM.
 NBasis=    38 RedAO= T EigKep=  9.10D-03  NBF=    38
 NBsUse=    38 1.00D-06 EigRej= -1.00D+00 NBFU=    38
 ExpMin= 1.61D-01 ExpMax= 3.05D+03 ExpMxC= 4.57D+02 IAcc=3 IRadAn=         5 AccDes= 0.00D+00
 Harris functional with IExCor=  402 and IRadAn=       5 diagonalized for initial guess.
 HarFok:  IExCor=  402 AccDes= 0.00D+00 IRadAn=         5 IDoV= 1 UseB2=F ITyADJ=14
 ICtDFT=  3500011 ScaDFX=  1.000000  1.000000  1.000000  1.000000
 FoFCou: FMM=F IPFlag=           0 FMFlag=      100000 FMFlg1=           0
         NFxFlg=           0 DoJE=T BraDBF=F KetDBF=T FulRan=T
         wScrn=  0.000000 ICntrl=       500 IOpCl=  0 I1Cent=   200000004 NGrid=           0
         NMat0=    1 NMatS0=      1 NMatT0=    0 NMatD0=    1 NMtDS0=    0 NMtDT0=    0
 Petite list used in FoFCou.
 Keep R1 ints in memory in canonical form, NReq=2001149.
 Requested convergence on RMS density matrix=1.00D-08 within 128 cycles.
 Requested convergence on MAX density matrix=1.00D-06.
 Requested convergence on             energy=1.00D-06.
 No special actions if energy rises.
 Integral accuracy reduced to 1.0D-05 until final iterations.
 Initial convergence to 1.0D-05 achieved.  Increase integral accuracy.
 SCF Done:  E(RB3LYP) =  -78.5743815404     A.U. after   11 cycles
            NFock= 11  Conv=0.23D-08     -V/T= 2.0098

 **********************************************************************

            Population analysis using the SCF density.

 **********************************************************************

 Orbital symmetries:
       Occupied  (A) (A) (A) (A) (A) (A) (A) (A)
       Virtual   (A) (A) (A) (A) (A) (A) (A) (A) (A) (A) (A) (A)
                 (A) (A) (A) (A) (A) (A) (A) (A) (A) (A) (A) (A)
                 (A) (A) (A) (A) (A) (A)
 The electronic state is 1-A.
 Alpha  occ. eigenvalues --  -10.18504 -10.18377  -0.74615  -0.59061  -0.47214
 Alpha  occ. eigenvalues --   -0.40292  -0.37179  -0.25529
 Alpha virt. eigenvalues --    0.00465   0.12297   0.16145   0.16666   0.24341
 Alpha virt. eigenvalues --    0.30818   0.49325   0.55775   0.55825   0.63247
 Alpha virt. eigenvalues --    0.65220   0.65542   0.87578   0.88175   0.95909
 Alpha virt. eigenvalues --    0.97669   1.08177   1.23203   1.44747   1.56045
 Alpha virt. eigenvalues --    1.79994   1.91911   2.00296   2.07258   2.30817
 Alpha virt. eigenvalues --    2.31833   2.64050   2.66125   4.08126   4.27053
          Condensed to atoms (all electrons):
               1          2          3          4          5          6
     1  C    4.940736   0.662772   0.377070   0.384824  -0.035760  -0.033596
     2  C    0.662772   4.939935  -0.032465  -0.037425   0.385158   0.378040
     3  H    0.377070  -0.032465   0.555816  -0.042310   0.004863  -0.007516
     4  H    0.384824  -0.037425  -0.042310   0.546776  -0.008316   0.005116
     5  H   -0.035760   0.385158   0.004863  -0.008316   0.545086  -0.043409
     6  H   -0.033596   0.378040  -0.007516   0.005116  -0.043409   0.557558
 Mulliken charges:
               1
     1  C   -0.296047
     2  C   -0.296016
     3  H    0.144542
     4  H    0.151336
     5  H    0.152378
     6  H    0.143807
 Sum of Mulliken charges =  -0.00000
 Mulliken charges with hydrogens summed into heavy atoms:
               1
     1  C   -0.000169
     2  C    0.000169
 Electronic spatial extent (au):  <R**2>=             83.2998
 Charge=              0.0000 electrons
 Dipole moment (field-independent basis, Debye):
    X=              0.0036    Y=             -0.0481    Z=              0.0118  Tot=              0.0497
 Quadrupole moment (field-independent basis, Debye-Ang):
   XX=            -11.9955   YY=            -11.9485   ZZ=            -15.0694
   XY=             -0.0454   XZ=             -0.0157   YZ=             -0.0003
 Traceless Quadrupole moment (field-independent basis, Debye-Ang):
   XX=              1.0090   YY=              1.0560   ZZ=             -2.0649
   XY=             -0.0454   XZ=             -0.0157   YZ=             -0.0003
 Octapole moment (field-independent basis, Debye-Ang**2):
  XXX=              0.0645  YYY=             -0.1863  ZZZ=              0.0180  XYY=             -0.0178
  XXY=             -0.0168  XXZ=              0.0272  XZZ=              0.0171  YZZ=             -0.1374
  YYZ=              0.0156  XYZ=             -0.0259
 Hexadecapole moment (field-independent basis, Debye-Ang**3):
 XXXX=            -68.5330 YYYY=            -24.9636 ZZZZ=            -15.7851 XXXY=             -0.2206
 XXXZ=             -0.0405 YYYX=             -0.0158 YYYZ=             -0.0007 ZZZX=             -0.0134
 ZZZY=             -0.0014 XXYY=            -13.3505 XXZZ=            -14.8518 YYZZ=             -7.3460
 XXYZ=              0.0011 YYXZ=             -0.0225 ZZXY=             -0.0073
 N-N= 3.302757234574D+01 E-N=-2.474304676205D+02  KE= 7.780802778574D+01
 1\1\GINC-NODE60\SP\RB3LYP\6-31G(d)\C2H4\YANZ\22-Sep-2023\0\\# b3lyp/6-
 31g(d)\\tmpdir/M2_ref_73.gjf\\0,1\C,0,-0.202984,-0.39175,30.53635\C,0,
 -0.735392,0.854981,30.882185\H,0,0.78087335,-0.70009793,30.90562524\H,
 0,-0.73338975,-0.99896729,29.9201073\H,0,-1.63591125,1.1468417,30.5269
 7921\H,0,-0.176028,1.513463,31.543208\\Version=ES64L-G16RevA.03\State=
 1-A\HF=-78.5743815\RMSD=2.338e-09\Dipole=-0.0138168,-0.0005006,-0.0138
 038\Quadrupole=0.3494031,0.3412427,-0.6906458,-0.4373056,0.8167846,0.7
 43741\PG=C01 [X(C2H4)]\\@


 Ideas are like rabbits. You get a couple and learn
 how to handle them, and pretty soon you have a dozen.
                                    -- John Steinbeck
 Job cpu time:       0 days  0 hours  0 minutes  6.1 seconds.
 Elapsed time:       0 days  0 hours  0 minutes  3.1 seconds.
 File lengths (MBytes):  RWF=      6 Int=      0 D2E=      0 Chk=      1 Scr=      1
 Normal termination of Gaussian 16 at Fri Sep 22 17:01:55 2023.
