 Entering Gaussian System, Link 0=g16
 Initial command:
 /share/apps/gaussian/g16/l1.exe "/tmp/55621.mgr/Gau-118457.inp" -scrdir="/tmp/55621.mgr/"
 Entering Link 1 = /share/apps/gaussian/g16/l1.exe PID=    118458.
  
 Copyright (c) 1988,1990,1992,1993,1995,1998,2003,2009,2016,
            Gaussian, Inc.  All Rights Reserved.
  
 This is part of the Gaussian(R) 16 program.  It is based on
 the Gaussian(R) 09 system (copyright 2009, Gaussian, Inc.),
 the Gaussian(R) 03 system (copyright 2003, Gaussian, Inc.),
 the Gaussian(R) 98 system (copyright 1998, Gaussian, Inc.),
 the Gaussian(R) 94 system (copyright 1995, Gaussian, Inc.),
 the Gaussian 92(TM) system (copyright 1992, Gaussian, Inc.),
 the Gaussian 90(TM) system (copyright 1990, Gaussian, Inc.),
 the Gaussian 88(TM) system (copyright 1988, Gaussian, Inc.),
 the Gaussian 86(TM) system (copyright 1986, Carnegie Mellon
 University), and the Gaussian 82(TM) system (copyright 1983,
 Carnegie Mellon University). Gaussian is a federally registered
 trademark of Gaussian, Inc.
  
 This software contains proprietary and confidential information,
 including trade secrets, belonging to Gaussian, Inc.
  
 This software is provided under written license and may be
 used, copied, transmitted, or stored only in accord with that
 written license.
  
 The following legend is applicable only to US Government
 contracts under FAR:
  
                    RESTRICTED RIGHTS LEGEND
  
 Use, reproduction and disclosure by the US Government is
 subject to restrictions as set forth in subparagraphs (a)
 and (c) of the Commercial Computer Software - Restricted
 Rights clause in FAR 52.227-19.
  
 Gaussian, Inc.
 340 Quinnipiac St., Bldg. 40, Wallingford CT 06492
  
  
 ---------------------------------------------------------------
 Warning -- This program may not be used in any manner that
 competes with the business of Gaussian, Inc. or will provide
 assistance to any competitor of Gaussian, Inc.  The licensee
 of this program is prohibited from giving any competitor of
 Gaussian, Inc. access to this program.  By using this program,
 the user acknowledges that Gaussian, Inc. is engaged in the
 business of creating and licensing software in the field of
 computational chemistry and represents and warrants to the
 licensee that it is not a competitor of Gaussian, Inc. and that
 it will not use this program in any manner prohibited above.
 ---------------------------------------------------------------
  

 Cite this work as:
 Gaussian 16, Revision A.03,
 M. J. Frisch, G. W. Trucks, H. B. Schlegel, G. E. Scuseria, 
 M. A. Robb, J. R. Cheeseman, G. Scalmani, V. Barone, 
 G. A. Petersson, H. Nakatsuji, X. Li, M. Caricato, A. V. Marenich, 
 J. Bloino, B. G. Janesko, R. Gomperts, B. Mennucci, H. P. Hratchian, 
 J. V. Ortiz, A. F. Izmaylov, J. L. Sonnenberg, D. Williams-Young, 
 F. Ding, F. Lipparini, F. Egidi, J. Goings, B. Peng, A. Petrone, 
 T. Henderson, D. Ranasinghe, V. G. Zakrzewski, J. Gao, N. Rega, 
 G. Zheng, W. Liang, M. Hada, M. Ehara, K. Toyota, R. Fukuda, 
 J. Hasegawa, M. Ishida, T. Nakajima, Y. Honda, O. Kitao, H. Nakai, 
 T. Vreven, K. Throssell, J. A. Montgomery, Jr., J. E. Peralta, 
 F. Ogliaro, M. J. Bearpark, J. J. Heyd, E. N. Brothers, K. N. Kudin, 
 V. N. Staroverov, T. A. Keith, R. Kobayashi, J. Normand, 
 K. Raghavachari, A. P. Rendell, J. C. Burant, S. S. Iyengar, 
 J. Tomasi, M. Cossi, J. M. Millam, M. Klene, C. Adamo, R. Cammi, 
 J. W. Ochterski, R. L. Martin, K. Morokuma, O. Farkas, 
 J. B. Foresman, and D. J. Fox, Gaussian, Inc., Wallingford CT, 2016.
 
 ******************************************
 Gaussian 16:  ES64L-G16RevA.03 25-Dec-2016
                22-Sep-2023 
 ******************************************
 %nprocshared=2
 Will use up to    2 processors via shared memory.
 %mem=2GB
 ----------------
 # b3lyp/6-31g(d)
 ----------------
 1/38=1,172=1/1;
 2/12=2,17=6,18=5,40=1/2;
 3/5=1,6=6,7=1,11=2,25=1,30=1,74=-5/1,2,3;
 4//1;
 5/5=2,38=5/2;
 6/7=2,8=2,9=2,10=2,28=1/1;
 99/5=1,9=1/99;
 --------------------
 tmpdir/M2_ref_72.gjf
 --------------------
 Symbolic Z-matrix:
 Charge =  0 Multiplicity = 1
 C                    -0.20298  -0.39175   30.53635 
 C                    -0.9357   -1.23058   29.68505 
 H                     0.78087  -0.7001    30.90563 
 C                    -0.73539   0.85498   30.88218 
 C                    -2.1763   -0.83018   29.19302 
 H                    -0.52576  -2.19821   29.40544 
 
                          Input orientation:                          
 ---------------------------------------------------------------------
 Center     Atomic      Atomic             Coordinates (Angstroms)
 Number     Number       Type             X           Y           Z
 ---------------------------------------------------------------------
      1          6           0       -0.202984   -0.391750   30.536350
      2          6           0       -0.935704   -1.230580   29.685052
      3          1           0        0.780873   -0.700098   30.905625
      4          6           0       -0.735392    0.854981   30.882185
      5          6           0       -2.176300   -0.830175   29.193023
      6          1           0       -0.525758   -2.198205   29.405435
 ---------------------------------------------------------------------
                    Distance matrix (angstroms):
                    1          2          3          4          5
     1  C    0.000000
     2  C    1.401864   0.000000
     3  H    1.095179   2.172061   0.000000
     4  C    1.399071   2.413051   2.172068   0.000000
     5  C    2.427081   1.393375   3.419766   2.787335   0.000000
     6  H    2.155558   1.087446   2.490418   3.398041   2.154278
                    6
     6  H    0.000000
 Stoichiometry    C4H2
 Framework group  C1[X(C4H2)]
 Deg. of freedom    12
 Full point group                 C1      NOp   1
 Largest Abelian subgroup         C1      NOp   1
 Largest concise Abelian subgroup C1      NOp   1
                         Standard orientation:                         
 ---------------------------------------------------------------------
 Center     Atomic      Atomic             Coordinates (Angstroms)
 Number     Number       Type             X           Y           Z
 ---------------------------------------------------------------------
      1          6           0        0.705985    0.488276   -0.003452
      2          6           0       -0.695874    0.485133   -0.001618
      3          1           0        1.257869    1.434067    0.014466
      4          6           0        1.386472   -0.734147    0.000692
      5          6           0       -1.400808   -0.716763    0.001533
      6          1           0       -1.232519    1.430932    0.002600
 ---------------------------------------------------------------------
 Rotational constants (GHZ):          22.6699485           8.2131749           6.0289879
 Standard basis: 6-31G(d) (6D, 7F)
 There are    64 symmetry adapted cartesian basis functions of A   symmetry.
 There are    64 symmetry adapted basis functions of A   symmetry.
    64 basis functions,   120 primitive gaussians,    64 cartesian basis functions
    13 alpha electrons       13 beta electrons
       nuclear repulsion energy        77.2208534926 Hartrees.
 NAtoms=    6 NActive=    6 NUniq=    6 SFac= 1.00D+00 NAtFMM=   60 NAOKFM=F Big=F
 Integral buffers will be    131072 words long.
 Raffenetti 2 integral format.
 Two-electron integral symmetry is turned on.
 One-electron integrals computed using PRISM.
 NBasis=    64 RedAO= T EigKep=  3.11D-03  NBF=    64
 NBsUse=    64 1.00D-06 EigRej= -1.00D+00 NBFU=    64
 ExpMin= 1.61D-01 ExpMax= 3.05D+03 ExpMxC= 4.57D+02 IAcc=3 IRadAn=         5 AccDes= 0.00D+00
 Harris functional with IExCor=  402 and IRadAn=       5 diagonalized for initial guess.
 HarFok:  IExCor=  402 AccDes= 0.00D+00 IRadAn=         5 IDoV= 1 UseB2=F ITyADJ=14
 ICtDFT=  3500011 ScaDFX=  1.000000  1.000000  1.000000  1.000000
 FoFCou: FMM=F IPFlag=           0 FMFlag=      100000 FMFlg1=           0
         NFxFlg=           0 DoJE=T BraDBF=F KetDBF=T FulRan=T
         wScrn=  0.000000 ICntrl=       500 IOpCl=  0 I1Cent=   200000004 NGrid=           0
         NMat0=    1 NMatS0=      1 NMatT0=    0 NMatD0=    1 NMtDS0=    0 NMtDT0=    0
 Petite list used in FoFCou.
 Keep R1 ints in memory in canonical form, NReq=3940480.
 Requested convergence on RMS density matrix=1.00D-08 within 128 cycles.
 Requested convergence on MAX density matrix=1.00D-06.
 Requested convergence on             energy=1.00D-06.
 No special actions if energy rises.
 Integral accuracy reduced to 1.0D-05 until final iterations.
 Initial convergence to 1.0D-05 achieved.  Increase integral accuracy.
 SCF Done:  E(RB3LYP) =  -153.300160148     A.U. after   16 cycles
            NFock= 16  Conv=0.57D-08     -V/T= 2.0102

 **********************************************************************

            Population analysis using the SCF density.

 **********************************************************************

 Orbital symmetries:
       Occupied  (A) (A) (A) (A) (A) (A) (A) (A) (A) (A) (A) (A)
                 (A)
       Virtual   (A) (A) (A) (A) (A) (A) (A) (A) (A) (A) (A) (A)
                 (A) (A) (A) (A) (A) (A) (A) (A) (A) (A) (A) (A)
                 (A) (A) (A) (A) (A) (A) (A) (A) (A) (A) (A) (A)
                 (A) (A) (A) (A) (A) (A) (A) (A) (A) (A) (A) (A)
                 (A) (A) (A)
 The electronic state is 1-A.
 Alpha  occ. eigenvalues --  -10.27393 -10.27208 -10.23142 -10.22957  -0.84701
 Alpha  occ. eigenvalues --   -0.71955  -0.60646  -0.49579  -0.48907  -0.35843
 Alpha  occ. eigenvalues --   -0.31684  -0.29662  -0.23995
 Alpha virt. eigenvalues --   -0.13191  -0.09886  -0.06208   0.06676   0.10603
 Alpha virt. eigenvalues --    0.14541   0.25566   0.35156   0.37790   0.48229
 Alpha virt. eigenvalues --    0.50316   0.52979   0.55097   0.55904   0.58376
 Alpha virt. eigenvalues --    0.58850   0.60152   0.61010   0.66321   0.69317
 Alpha virt. eigenvalues --    0.72447   0.81240   0.85191   0.93281   0.95424
 Alpha virt. eigenvalues --    1.12362   1.23281   1.30707   1.40515   1.48876
 Alpha virt. eigenvalues --    1.64189   1.66862   1.73151   1.73274   1.74275
 Alpha virt. eigenvalues --    1.85577   1.86659   1.97019   2.13803   2.19669
 Alpha virt. eigenvalues --    2.20678   2.26352   2.46236   2.51198   2.55987
 Alpha virt. eigenvalues --    2.76525   2.92959   3.92624   3.99737   4.11113
 Alpha virt. eigenvalues --    4.38916
          Condensed to atoms (all electrons):
               1          2          3          4          5          6
     1  C    5.045781   0.408199   0.333255   0.486548  -0.045722  -0.017849
     2  C    0.408199   5.044990  -0.017606  -0.045561   0.490217   0.334239
     3  H    0.333255  -0.017606   0.504491  -0.020105   0.004199  -0.010414
     4  C    0.486548  -0.045561  -0.020105   5.566270   0.002306   0.004229
     5  C   -0.045722   0.490217   0.004199   0.002306   5.564234  -0.019885
     6  H   -0.017849   0.334239  -0.010414   0.004229  -0.019885   0.502137
 Mulliken charges:
               1
     1  C   -0.210211
     2  C   -0.214476
     3  H    0.206181
     4  C    0.006313
     5  C    0.004651
     6  H    0.207543
 Sum of Mulliken charges =  -0.00000
 Mulliken charges with hydrogens summed into heavy atoms:
               1
     1  C   -0.004031
     2  C   -0.006933
     4  C    0.006313
     5  C    0.004651
 Electronic spatial extent (au):  <R**2>=            216.9585
 Charge=             -0.0000 electrons
 Dipole moment (field-independent basis, Debye):
    X=              0.0724    Y=              3.4966    Z=              0.0168  Tot=              3.4974
 Quadrupole moment (field-independent basis, Debye-Ang):
   XX=            -24.2262   YY=            -23.4105   ZZ=            -25.3072
   XY=             -0.0322   XZ=              0.0312   YZ=              0.0406
 Traceless Quadrupole moment (field-independent basis, Debye-Ang):
   XX=              0.0884   YY=              0.9041   ZZ=             -0.9925
   XY=             -0.0322   XZ=              0.0312   YZ=              0.0406
 Octapole moment (field-independent basis, Debye-Ang**2):
  XXX=              0.6363  YYY=             14.3963  ZZZ=              0.0193  XYY=              0.0007
  XXY=             13.3147  XXZ=              0.0702  XZZ=              0.0099  YZZ=              1.7135
  YYZ=              0.0348  XYZ=              0.0199
 Hexadecapole moment (field-independent basis, Debye-Ang**3):
 XXXX=           -197.8494 YYYY=            -93.2459 ZZZZ=            -26.9704 XXXY=             -0.5418
 XXXZ=              0.1226 YYYX=              0.2746 YYYZ=              0.1144 ZZZX=              0.0327
 ZZZY=              0.0354 XXYY=            -57.6124 XXZZ=            -41.1148 YYZZ=            -21.0085
 XXYZ=              0.0677 YYXZ=              0.0489 ZZXY=             -0.0053
 N-N= 7.722085349258D+01 E-N=-5.091468196409D+02  KE= 1.517484613350D+02
 1\1\GINC-NODE60\SP\RB3LYP\6-31G(d)\C4H2\YANZ\22-Sep-2023\0\\# b3lyp/6-
 31g(d)\\tmpdir/M2_ref_72.gjf\\0,1\C,0,-0.202984,-0.39175,30.53635\C,0,
 -0.935704,-1.23058,29.685052\H,0,0.78087335,-0.70009793,30.90562524\C,
 0,-0.735392,0.854981,30.882185\C,0,-2.1763,-0.830175,29.193023\H,0,-0.
 525758,-2.198205,29.405435\\Version=ES64L-G16RevA.03\State=1-A\HF=-153
 .3001601\RMSD=5.710e-09\Dipole=1.0184968,-0.9214439,0.0832836\Quadrupo
 le=0.2391229,0.2261016,-0.4652245,-0.4409535,0.2759354,0.2635075\PG=C0
 1 [X(C4H2)]\\@


 ONE BIG VICE IN A MAN IS APT TO KEEP OUT MANY SMALLER ONES.

                           -- BRET HARTE
 Job cpu time:       0 days  0 hours  0 minutes 13.2 seconds.
 Elapsed time:       0 days  0 hours  0 minutes  6.7 seconds.
 File lengths (MBytes):  RWF=      6 Int=      0 D2E=      0 Chk=      1 Scr=      1
 Normal termination of Gaussian 16 at Fri Sep 22 17:01:52 2023.
