 Entering Gaussian System, Link 0=g16
 Initial command:
 /share/apps/gaussian/g16/l1.exe "/tmp/55621.mgr/Gau-117907.inp" -scrdir="/tmp/55621.mgr/"
 Entering Link 1 = /share/apps/gaussian/g16/l1.exe PID=    117909.
  
 Copyright (c) 1988,1990,1992,1993,1995,1998,2003,2009,2016,
            Gaussian, Inc.  All Rights Reserved.
  
 This is part of the Gaussian(R) 16 program.  It is based on
 the Gaussian(R) 09 system (copyright 2009, Gaussian, Inc.),
 the Gaussian(R) 03 system (copyright 2003, Gaussian, Inc.),
 the Gaussian(R) 98 system (copyright 1998, Gaussian, Inc.),
 the Gaussian(R) 94 system (copyright 1995, Gaussian, Inc.),
 the Gaussian 92(TM) system (copyright 1992, Gaussian, Inc.),
 the Gaussian 90(TM) system (copyright 1990, Gaussian, Inc.),
 the Gaussian 88(TM) system (copyright 1988, Gaussian, Inc.),
 the Gaussian 86(TM) system (copyright 1986, Carnegie Mellon
 University), and the Gaussian 82(TM) system (copyright 1983,
 Carnegie Mellon University). Gaussian is a federally registered
 trademark of Gaussian, Inc.
  
 This software contains proprietary and confidential information,
 including trade secrets, belonging to Gaussian, Inc.
  
 This software is provided under written license and may be
 used, copied, transmitted, or stored only in accord with that
 written license.
  
 The following legend is applicable only to US Government
 contracts under FAR:
  
                    RESTRICTED RIGHTS LEGEND
  
 Use, reproduction and disclosure by the US Government is
 subject to restrictions as set forth in subparagraphs (a)
 and (c) of the Commercial Computer Software - Restricted
 Rights clause in FAR 52.227-19.
  
 Gaussian, Inc.
 340 Quinnipiac St., Bldg. 40, Wallingford CT 06492
  
  
 ---------------------------------------------------------------
 Warning -- This program may not be used in any manner that
 competes with the business of Gaussian, Inc. or will provide
 assistance to any competitor of Gaussian, Inc.  The licensee
 of this program is prohibited from giving any competitor of
 Gaussian, Inc. access to this program.  By using this program,
 the user acknowledges that Gaussian, Inc. is engaged in the
 business of creating and licensing software in the field of
 computational chemistry and represents and warrants to the
 licensee that it is not a competitor of Gaussian, Inc. and that
 it will not use this program in any manner prohibited above.
 ---------------------------------------------------------------
  

 Cite this work as:
 Gaussian 16, Revision A.03,
 M. J. Frisch, G. W. Trucks, H. B. Schlegel, G. E. Scuseria, 
 M. A. Robb, J. R. Cheeseman, G. Scalmani, V. Barone, 
 G. A. Petersson, H. Nakatsuji, X. Li, M. Caricato, A. V. Marenich, 
 J. Bloino, B. G. Janesko, R. Gomperts, B. Mennucci, H. P. Hratchian, 
 J. V. Ortiz, A. F. Izmaylov, J. L. Sonnenberg, D. Williams-Young, 
 F. Ding, F. Lipparini, F. Egidi, J. Goings, B. Peng, A. Petrone, 
 T. Henderson, D. Ranasinghe, V. G. Zakrzewski, J. Gao, N. Rega, 
 G. Zheng, W. Liang, M. Hada, M. Ehara, K. Toyota, R. Fukuda, 
 J. Hasegawa, M. Ishida, T. Nakajima, Y. Honda, O. Kitao, H. Nakai, 
 T. Vreven, K. Throssell, J. A. Montgomery, Jr., J. E. Peralta, 
 F. Ogliaro, M. J. Bearpark, J. J. Heyd, E. N. Brothers, K. N. Kudin, 
 V. N. Staroverov, T. A. Keith, R. Kobayashi, J. Normand, 
 K. Raghavachari, A. P. Rendell, J. C. Burant, S. S. Iyengar, 
 J. Tomasi, M. Cossi, J. M. Millam, M. Klene, C. Adamo, R. Cammi, 
 J. W. Ochterski, R. L. Martin, K. Morokuma, O. Farkas, 
 J. B. Foresman, and D. J. Fox, Gaussian, Inc., Wallingford CT, 2016.
 
 ******************************************
 Gaussian 16:  ES64L-G16RevA.03 25-Dec-2016
                22-Sep-2023 
 ******************************************
 %nprocshared=2
 Will use up to    2 processors via shared memory.
 %mem=2GB
 ----------------
 # b3lyp/6-31g(d)
 ----------------
 1/38=1,172=1/1;
 2/12=2,17=6,18=5,40=1/2;
 3/5=1,6=6,7=1,11=2,25=1,30=1,74=-5/1,2,3;
 4//1;
 5/5=2,38=5/2;
 6/7=2,8=2,9=2,10=2,28=1/1;
 99/5=1,9=1/99;
 --------------------
 tmpdir/M2_ref_13.gjf
 --------------------
 Symbolic Z-matrix:
 Charge =  0 Multiplicity = 1
 C                    -0.60648   1.61121   0.34595 
 C                    -1.8997    1.18402  -0.42363 
 C                    -2.80943   0.09913   0.20928 
 H                     0.38882   1.27502  -0.05069 
 H                    -0.69479   1.32204   1.40231 
 H                    -0.58315   2.70806   0.34805 
 H                    -1.63877   0.88728  -1.44823 
 H                    -2.52023   2.08295  -0.52774 
 H                    -2.53801  -0.96539  -0.03583 
 H                    -2.80456   0.21851   1.30042 
 H                    -3.84544   0.26372  -0.1157 
 
                          Input orientation:                          
 ---------------------------------------------------------------------
 Center     Atomic      Atomic             Coordinates (Angstroms)
 Number     Number       Type             X           Y           Z
 ---------------------------------------------------------------------
      1          6           0       -0.606482    1.611214    0.345947
      2          6           0       -1.899702    1.184016   -0.423626
      3          6           0       -2.809433    0.099125    0.209283
      4          1           0        0.388816    1.275017   -0.050690
      5          1           0       -0.694786    1.322041    1.402307
      6          1           0       -0.583150    2.708055    0.348052
      7          1           0       -1.638771    0.887282   -1.448230
      8          1           0       -2.520225    2.082946   -0.527744
      9          1           0       -2.538006   -0.965386   -0.035831
     10          1           0       -2.804560    0.218507    1.300420
     11          1           0       -3.845443    0.263720   -0.115704
 ---------------------------------------------------------------------
                    Distance matrix (angstroms):
                    1          2          3          4          5
     1  C    0.000000
     2  C    1.564340   0.000000
     3  C    2.675459   1.550862   0.000000
     4  H    1.122929   2.320491   3.417471   0.000000
     5  H    1.098779   2.192009   2.718559   1.813176   0.000000
     6  H    1.097091   2.156732   3.432508   1.776883   1.744979
     7  H    2.192891   1.098157   2.176922   2.492903   3.034087
     8  H    2.155987   1.097253   2.135977   3.056608   2.763386
     9  H    3.242747   2.275466   1.125583   3.685908   3.270783
    10  H    2.771678   2.173318   1.097659   3.624826   2.383131
    11  H    3.538323   2.174320   1.098192   4.353837   3.653908
                    6          7          8          9         10
     6  H    0.000000
     7  H    2.766980   0.000000
     8  H    2.215861   1.747532   0.000000
     9  H    4.178875   2.497174   3.087819   0.000000
    10  H    3.469801   3.059641   2.626626   1.805054   0.000000
    11  H    4.102731   2.652142   2.288135   1.796239   1.758092
                   11
    11  H    0.000000
 Stoichiometry    C3H8
 Framework group  C1[X(C3H8)]
 Deg. of freedom    27
 Full point group                 C1      NOp   1
 Largest Abelian subgroup         C1      NOp   1
 Largest concise Abelian subgroup C1      NOp   1
                         Standard orientation:                         
 ---------------------------------------------------------------------
 Center     Atomic      Atomic             Coordinates (Angstroms)
 Number     Number       Type             X           Y           Z
 ---------------------------------------------------------------------
      1          6           0       -1.340124   -0.247425    0.014357
      2          6           0        0.007028    0.547772    0.013299
      3          6           0        1.335327   -0.252720    0.010708
      4          1           0       -1.948136   -0.270304    0.958161
      5          1           0       -1.160446   -1.275639   -0.328871
      6          1           0       -1.979497    0.205494   -0.753547
      7          1           0        0.014774    1.262410    0.847075
      8          1           0        0.015201    1.159702   -0.897437
      9          1           0        1.726788   -0.546874    1.024202
     10          1           0        1.205488   -1.161595   -0.590909
     11          1           0        2.112442    0.341039   -0.488859
 ---------------------------------------------------------------------
 Rotational constants (GHZ):          30.8304073           7.6754271           6.9569488
 Standard basis: 6-31G(d) (6D, 7F)
 There are    61 symmetry adapted cartesian basis functions of A   symmetry.
 There are    61 symmetry adapted basis functions of A   symmetry.
    61 basis functions,   116 primitive gaussians,    61 cartesian basis functions
    13 alpha electrons       13 beta electrons
       nuclear repulsion energy        80.8999447938 Hartrees.
 NAtoms=   11 NActive=   11 NUniq=   11 SFac= 1.00D+00 NAtFMM=   60 NAOKFM=F Big=F
 Integral buffers will be    131072 words long.
 Raffenetti 2 integral format.
 Two-electron integral symmetry is turned on.
 One-electron integrals computed using PRISM.
 NBasis=    61 RedAO= T EigKep=  6.15D-03  NBF=    61
 NBsUse=    61 1.00D-06 EigRej= -1.00D+00 NBFU=    61
 ExpMin= 1.61D-01 ExpMax= 3.05D+03 ExpMxC= 4.57D+02 IAcc=3 IRadAn=         5 AccDes= 0.00D+00
 Harris functional with IExCor=  402 and IRadAn=       5 diagonalized for initial guess.
 HarFok:  IExCor=  402 AccDes= 0.00D+00 IRadAn=         5 IDoV= 1 UseB2=F ITyADJ=14
 ICtDFT=  3500011 ScaDFX=  1.000000  1.000000  1.000000  1.000000
 FoFCou: FMM=F IPFlag=           0 FMFlag=      100000 FMFlg1=           0
         NFxFlg=           0 DoJE=T BraDBF=F KetDBF=T FulRan=T
         wScrn=  0.000000 ICntrl=       500 IOpCl=  0 I1Cent=   200000004 NGrid=           0
         NMat0=    1 NMatS0=      1 NMatT0=    0 NMatD0=    1 NMtDS0=    0 NMtDT0=    0
 Petite list used in FoFCou.
 Keep R1 ints in memory in canonical form, NReq=3557582.
 Requested convergence on RMS density matrix=1.00D-08 within 128 cycles.
 Requested convergence on MAX density matrix=1.00D-06.
 Requested convergence on             energy=1.00D-06.
 No special actions if energy rises.
 Integral accuracy reduced to 1.0D-05 until final iterations.
 Initial convergence to 1.0D-05 achieved.  Increase integral accuracy.
 SCF Done:  E(RB3LYP) =  -119.133420269     A.U. after   11 cycles
            NFock= 11  Conv=0.35D-08     -V/T= 2.0117

 **********************************************************************

            Population analysis using the SCF density.

 **********************************************************************

 Orbital symmetries:
       Occupied  (A) (A) (A) (A) (A) (A) (A) (A) (A) (A) (A) (A)
                 (A)
       Virtual   (A) (A) (A) (A) (A) (A) (A) (A) (A) (A) (A) (A)
                 (A) (A) (A) (A) (A) (A) (A) (A) (A) (A) (A) (A)
                 (A) (A) (A) (A) (A) (A) (A) (A) (A) (A) (A) (A)
                 (A) (A) (A) (A) (A) (A) (A) (A) (A) (A) (A) (A)
 The electronic state is 1-A.
 Alpha  occ. eigenvalues --  -10.18131 -10.17479 -10.17465  -0.76561  -0.67489
 Alpha  occ. eigenvalues --   -0.57920  -0.44524  -0.42728  -0.39026  -0.37792
 Alpha  occ. eigenvalues --   -0.33543  -0.32639  -0.31864
 Alpha virt. eigenvalues --    0.09488   0.12230   0.13746   0.14208   0.17011
 Alpha virt. eigenvalues --    0.18232   0.18646   0.23419   0.24978   0.28303
 Alpha virt. eigenvalues --    0.50765   0.52554   0.53695   0.60226   0.62032
 Alpha virt. eigenvalues --    0.65098   0.70327   0.71517   0.78223   0.86039
 Alpha virt. eigenvalues --    0.87701   0.88155   0.90101   0.90989   0.94565
 Alpha virt. eigenvalues --    0.96902   0.98123   1.01967   1.28548   1.45394
 Alpha virt. eigenvalues --    1.47389   1.61577   1.72824   1.87953   1.90369
 Alpha virt. eigenvalues --    1.95704   2.04509   2.08963   2.18355   2.26570
 Alpha virt. eigenvalues --    2.31598   2.34398   2.42612   2.58932   2.64309
 Alpha virt. eigenvalues --    4.09788   4.27139   4.47301
          Condensed to atoms (all electrons):
               1          2          3          4          5          6
     1  C    5.076090   0.363628  -0.036713   0.376444   0.376366   0.376436
     2  C    0.363628   4.930865   0.375237  -0.024020  -0.039851  -0.033470
     3  C   -0.036713   0.375237   5.062029   0.001627  -0.008460   0.003393
     4  H    0.376444  -0.024020   0.001627   0.568089  -0.028338  -0.033213
     5  H    0.376366  -0.039851  -0.008460  -0.028338   0.575163  -0.032712
     6  H    0.376436  -0.033470   0.003393  -0.033213  -0.032712   0.583132
     7  H   -0.037805   0.379630  -0.038491  -0.007296   0.004187   0.002744
     8  H   -0.042941   0.389095  -0.043942   0.003862   0.002217  -0.011236
     9  H    0.000789  -0.029040   0.376463   0.000195   0.000254  -0.000084
    10  H   -0.008074  -0.039166   0.375186  -0.000050   0.007296   0.000309
    11  H    0.003899  -0.031576   0.375281  -0.000081   0.000149  -0.000228
               7          8          9         10         11
     1  C   -0.037805  -0.042941   0.000789  -0.008074   0.003899
     2  C    0.379630   0.389095  -0.029040  -0.039166  -0.031576
     3  C   -0.038491  -0.043942   0.376463   0.375186   0.375281
     4  H   -0.007296   0.003862   0.000195  -0.000050  -0.000081
     5  H    0.004187   0.002217   0.000254   0.007296   0.000149
     6  H    0.002744  -0.011236  -0.000084   0.000309  -0.000228
     7  H    0.598379  -0.037923  -0.006832   0.004957   0.000790
     8  H   -0.037923   0.608047   0.004610  -0.000186  -0.008073
     9  H   -0.006832   0.004610   0.575282  -0.029978  -0.031378
    10  H    0.004957  -0.000186  -0.029978   0.579986  -0.032355
    11  H    0.000790  -0.008073  -0.031378  -0.032355   0.579871
 Mulliken charges:
               1
     1  C   -0.448120
     2  C   -0.241331
     3  C   -0.441609
     4  H    0.142781
     5  H    0.143728
     6  H    0.144928
     7  H    0.137660
     8  H    0.136470
     9  H    0.139717
    10  H    0.142074
    11  H    0.143701
 Sum of Mulliken charges =  -0.00000
 Mulliken charges with hydrogens summed into heavy atoms:
               1
     1  C   -0.016682
     2  C    0.032799
     3  C   -0.016117
 Electronic spatial extent (au):  <R**2>=            238.0173
 Charge=             -0.0000 electrons
 Dipole moment (field-independent basis, Debye):
    X=             -0.0096    Y=              0.1012    Z=             -0.1074  Tot=              0.1478
 Quadrupole moment (field-independent basis, Debye-Ang):
   XX=            -21.7940   YY=            -21.6908   ZZ=            -21.1915
   XY=              0.0301   XZ=             -0.0619   YZ=             -0.0023
 Traceless Quadrupole moment (field-independent basis, Debye-Ang):
   XX=             -0.2352   YY=             -0.1320   ZZ=              0.3673
   XY=              0.0301   XZ=             -0.0619   YZ=             -0.0023
 Octapole moment (field-independent basis, Debye-Ang**2):
  XXX=             -0.2283  YYY=             -0.2082  ZZZ=              0.3979  XYY=              0.1419
  XXY=              0.8329  XXZ=              0.2726  XZZ=             -0.1606  YZZ=              0.4321
  YYZ=             -0.5749  XYZ=             -0.1145
 Hexadecapole moment (field-independent basis, Debye-Ang**3):
 XXXX=           -220.0961 YYYY=            -65.3930 ZZZZ=            -42.9005 XXXY=              0.6449
 XXXZ=             -1.2415 YYYX=              0.2742 YYYZ=              1.1507 ZZZX=              0.2713
 ZZZY=             -0.4811 XXYY=            -48.2965 XXZZ=            -41.4125 YYZZ=            -17.3565
 XXYZ=             -1.5054 YYXZ=              0.0230 ZZXY=             -0.5045
 N-N= 8.089994479380D+01 E-N=-4.362844231556D+02  KE= 1.177513543939D+02
 1\1\GINC-NODE60\SP\RB3LYP\6-31G(d)\C3H8\YANZ\22-Sep-2023\0\\# b3lyp/6-
 31g(d)\\tmpdir/M2_ref_13.gjf\\0,1\C,0,-0.606482,1.611214,0.345947\C,0,
 -1.899702,1.184016,-0.423626\C,0,-2.809433,0.099125,0.209283\H,0,0.388
 81637,1.27501673,-0.05069041\H,0,-0.694786,1.322041,1.402307\H,0,-0.58
 315,2.708055,0.348052\H,0,-1.638771,0.887282,-1.44823\H,0,-2.520225,2.
 082946,-0.527744\H,0,-2.53800615,-0.96538628,-0.03583059\H,0,-2.80456,
 0.218507,1.30042\H,0,-3.845443,0.26372,-0.115704\\Version=ES64L-G16Rev
 A.03\State=1-A\HF=-119.1334203\RMSD=3.478e-09\Dipole=-0.0279987,0.0488
 339,-0.0146255\Quadrupole=-0.0020714,0.0180285,-0.0159571,-0.1913248,-
 0.0947526,0.1189246\PG=C01 [X(C3H8)]\\@


 The theorems and results in mathematical physics are
 not theorems and results about Nature, but about our
 description of it.
                   --Gerard 't Hooft
 Job cpu time:       0 days  0 hours  0 minutes 16.2 seconds.
 Elapsed time:       0 days  0 hours  0 minutes  8.2 seconds.
 File lengths (MBytes):  RWF=      6 Int=      0 D2E=      0 Chk=      1 Scr=      1
 Normal termination of Gaussian 16 at Fri Sep 22 17:01:39 2023.
