 Entering Gaussian System, Link 0=g16
 Initial command:
 /share/apps/gaussian/g16/l1.exe "/tmp/55621.mgr/Gau-119007.inp" -scrdir="/tmp/55621.mgr/"
 Entering Link 1 = /share/apps/gaussian/g16/l1.exe PID=    119008.
  
 Copyright (c) 1988,1990,1992,1993,1995,1998,2003,2009,2016,
            Gaussian, Inc.  All Rights Reserved.
  
 This is part of the Gaussian(R) 16 program.  It is based on
 the Gaussian(R) 09 system (copyright 2009, Gaussian, Inc.),
 the Gaussian(R) 03 system (copyright 2003, Gaussian, Inc.),
 the Gaussian(R) 98 system (copyright 1998, Gaussian, Inc.),
 the Gaussian(R) 94 system (copyright 1995, Gaussian, Inc.),
 the Gaussian 92(TM) system (copyright 1992, Gaussian, Inc.),
 the Gaussian 90(TM) system (copyright 1990, Gaussian, Inc.),
 the Gaussian 88(TM) system (copyright 1988, Gaussian, Inc.),
 the Gaussian 86(TM) system (copyright 1986, Carnegie Mellon
 University), and the Gaussian 82(TM) system (copyright 1983,
 Carnegie Mellon University). Gaussian is a federally registered
 trademark of Gaussian, Inc.
  
 This software contains proprietary and confidential information,
 including trade secrets, belonging to Gaussian, Inc.
  
 This software is provided under written license and may be
 used, copied, transmitted, or stored only in accord with that
 written license.
  
 The following legend is applicable only to US Government
 contracts under FAR:
  
                    RESTRICTED RIGHTS LEGEND
  
 Use, reproduction and disclosure by the US Government is
 subject to restrictions as set forth in subparagraphs (a)
 and (c) of the Commercial Computer Software - Restricted
 Rights clause in FAR 52.227-19.
  
 Gaussian, Inc.
 340 Quinnipiac St., Bldg. 40, Wallingford CT 06492
  
  
 ---------------------------------------------------------------
 Warning -- This program may not be used in any manner that
 competes with the business of Gaussian, Inc. or will provide
 assistance to any competitor of Gaussian, Inc.  The licensee
 of this program is prohibited from giving any competitor of
 Gaussian, Inc. access to this program.  By using this program,
 the user acknowledges that Gaussian, Inc. is engaged in the
 business of creating and licensing software in the field of
 computational chemistry and represents and warrants to the
 licensee that it is not a competitor of Gaussian, Inc. and that
 it will not use this program in any manner prohibited above.
 ---------------------------------------------------------------
  

 Cite this work as:
 Gaussian 16, Revision A.03,
 M. J. Frisch, G. W. Trucks, H. B. Schlegel, G. E. Scuseria, 
 M. A. Robb, J. R. Cheeseman, G. Scalmani, V. Barone, 
 G. A. Petersson, H. Nakatsuji, X. Li, M. Caricato, A. V. Marenich, 
 J. Bloino, B. G. Janesko, R. Gomperts, B. Mennucci, H. P. Hratchian, 
 J. V. Ortiz, A. F. Izmaylov, J. L. Sonnenberg, D. Williams-Young, 
 F. Ding, F. Lipparini, F. Egidi, J. Goings, B. Peng, A. Petrone, 
 T. Henderson, D. Ranasinghe, V. G. Zakrzewski, J. Gao, N. Rega, 
 G. Zheng, W. Liang, M. Hada, M. Ehara, K. Toyota, R. Fukuda, 
 J. Hasegawa, M. Ishida, T. Nakajima, Y. Honda, O. Kitao, H. Nakai, 
 T. Vreven, K. Throssell, J. A. Montgomery, Jr., J. E. Peralta, 
 F. Ogliaro, M. J. Bearpark, J. J. Heyd, E. N. Brothers, K. N. Kudin, 
 V. N. Staroverov, T. A. Keith, R. Kobayashi, J. Normand, 
 K. Raghavachari, A. P. Rendell, J. C. Burant, S. S. Iyengar, 
 J. Tomasi, M. Cossi, J. M. Millam, M. Klene, C. Adamo, R. Cammi, 
 J. W. Ochterski, R. L. Martin, K. Morokuma, O. Farkas, 
 J. B. Foresman, and D. J. Fox, Gaussian, Inc., Wallingford CT, 2016.
 
 ******************************************
 Gaussian 16:  ES64L-G16RevA.03 25-Dec-2016
                22-Sep-2023 
 ******************************************
 %nprocshared=2
 Will use up to    2 processors via shared memory.
 %mem=2GB
 ----------------
 # b3lyp/6-31g(d)
 ----------------
 1/38=1,172=1/1;
 2/12=2,17=6,18=5,40=1/2;
 3/5=1,6=6,7=1,11=2,25=1,30=1,74=-5/1,2,3;
 4//1;
 5/5=2,38=5/2;
 6/7=2,8=2,9=2,10=2,28=1/1;
 99/5=1,9=1/99;
 --------------------
 tmpdir/M2_ref_77.gjf
 --------------------
 Symbolic Z-matrix:
 Charge =  0 Multiplicity = 1
 C                    -0.9357   -1.23058   29.68505 
 C                    -2.1763   -0.83018   29.19302 
 H                    -0.4053   -0.62336   30.30129 
 H                    -0.52576  -2.19821   29.40544 
 H                    -2.55646   0.07208   29.44859 
 H                    -2.73599  -1.49051   28.53601 
 
                          Input orientation:                          
 ---------------------------------------------------------------------
 Center     Atomic      Atomic             Coordinates (Angstroms)
 Number     Number       Type             X           Y           Z
 ---------------------------------------------------------------------
      1          6           0       -0.935704   -1.230580   29.685052
      2          6           0       -2.176300   -0.830175   29.193023
      3          1           0       -0.405298   -0.623363   30.301295
      4          1           0       -0.525758   -2.198205   29.405435
      5          1           0       -2.556463    0.072079   29.448593
      6          1           0       -2.735985   -1.490513   28.536011
 ---------------------------------------------------------------------
                    Distance matrix (angstroms):
                    1          2          3          4          5
     1  C    0.000000
     2  C    1.393375   0.000000
     3  H    1.014790   2.099401   0.000000
     4  H    1.087446   2.154278   1.815820   0.000000
     5  H    2.092772   1.011880   2.416247   3.046279   0.000000
     6  H    2.151481   1.086719   3.049636   2.478271   1.818441
                    6
     6  H    0.000000
 Stoichiometry    C2H4
 Framework group  C1[X(C2H4)]
 Deg. of freedom    12
 Full point group                 C1      NOp   1
 Largest Abelian subgroup         C1      NOp   1
 Largest concise Abelian subgroup C1      NOp   1
                         Standard orientation:                         
 ---------------------------------------------------------------------
 Center     Atomic      Atomic             Coordinates (Angstroms)
 Number     Number       Type             X           Y           Z
 ---------------------------------------------------------------------
      1          6           0        0.695965   -0.008114   -0.000737
      2          6           0       -0.697410   -0.008704    0.000421
      3          1           0        1.211700   -0.882080   -0.000568
      4          1           0        1.239889    0.933517    0.003440
      5          1           0       -1.204545   -0.884326    0.001547
      6          1           0       -1.238376    0.933796   -0.002524
 ---------------------------------------------------------------------
 Rotational constants (GHZ):         151.7315008          28.5752231          24.0466527
 Standard basis: 6-31G(d) (6D, 7F)
 There are    38 symmetry adapted cartesian basis functions of A   symmetry.
 There are    38 symmetry adapted basis functions of A   symmetry.
    38 basis functions,    72 primitive gaussians,    38 cartesian basis functions
     8 alpha electrons        8 beta electrons
       nuclear repulsion energy        33.1214434975 Hartrees.
 NAtoms=    6 NActive=    6 NUniq=    6 SFac= 1.00D+00 NAtFMM=   60 NAOKFM=F Big=F
 Integral buffers will be    131072 words long.
 Raffenetti 2 integral format.
 Two-electron integral symmetry is turned on.
 One-electron integrals computed using PRISM.
 NBasis=    38 RedAO= T EigKep=  9.00D-03  NBF=    38
 NBsUse=    38 1.00D-06 EigRej= -1.00D+00 NBFU=    38
 ExpMin= 1.61D-01 ExpMax= 3.05D+03 ExpMxC= 4.57D+02 IAcc=3 IRadAn=         5 AccDes= 0.00D+00
 Harris functional with IExCor=  402 and IRadAn=       5 diagonalized for initial guess.
 HarFok:  IExCor=  402 AccDes= 0.00D+00 IRadAn=         5 IDoV= 1 UseB2=F ITyADJ=14
 ICtDFT=  3500011 ScaDFX=  1.000000  1.000000  1.000000  1.000000
 FoFCou: FMM=F IPFlag=           0 FMFlag=      100000 FMFlg1=           0
         NFxFlg=           0 DoJE=T BraDBF=F KetDBF=T FulRan=T
         wScrn=  0.000000 ICntrl=       500 IOpCl=  0 I1Cent=   200000004 NGrid=           0
         NMat0=    1 NMatS0=      1 NMatT0=    0 NMatD0=    1 NMtDS0=    0 NMtDT0=    0
 Petite list used in FoFCou.
 Keep R1 ints in memory in canonical form, NReq=2001149.
 Requested convergence on RMS density matrix=1.00D-08 within 128 cycles.
 Requested convergence on MAX density matrix=1.00D-06.
 Requested convergence on             energy=1.00D-06.
 No special actions if energy rises.
 Integral accuracy reduced to 1.0D-05 until final iterations.
 Initial convergence to 1.0D-05 achieved.  Increase integral accuracy.
 SCF Done:  E(RB3LYP) =  -78.5753424669     A.U. after   10 cycles
            NFock= 10  Conv=0.72D-08     -V/T= 2.0096

 **********************************************************************

            Population analysis using the SCF density.

 **********************************************************************

 Orbital symmetries:
       Occupied  (A) (A) (A) (A) (A) (A) (A) (A)
       Virtual   (A) (A) (A) (A) (A) (A) (A) (A) (A) (A) (A) (A)
                 (A) (A) (A) (A) (A) (A) (A) (A) (A) (A) (A) (A)
                 (A) (A) (A) (A) (A) (A)
 The electronic state is 1-A.
 Alpha  occ. eigenvalues --  -10.18360 -10.18298  -0.74732  -0.59097  -0.47263
 Alpha  occ. eigenvalues --   -0.40434  -0.37129  -0.25610
 Alpha virt. eigenvalues --    0.00578   0.12405   0.16191   0.16756   0.24409
 Alpha virt. eigenvalues --    0.31053   0.49228   0.55686   0.55775   0.63309
 Alpha virt. eigenvalues --    0.65254   0.65880   0.87985   0.88175   0.96086
 Alpha virt. eigenvalues --    0.97776   1.08322   1.23290   1.44806   1.55843
 Alpha virt. eigenvalues --    1.80208   1.92140   2.01161   2.06998   2.31119
 Alpha virt. eigenvalues --    2.32349   2.64700   2.67018   4.08468   4.27076
          Condensed to atoms (all electrons):
               1          2          3          4          5          6
     1  C    4.937232   0.665752   0.385002   0.378004  -0.036671  -0.033270
     2  C    0.665752   4.935226  -0.036325  -0.033161   0.385487   0.378194
     3  H    0.385002  -0.036325   0.546757  -0.043687  -0.008315   0.005069
     4  H    0.378004  -0.033161  -0.043687   0.557785   0.005100  -0.007876
     5  H   -0.036671   0.385487  -0.008315   0.005100   0.546023  -0.043240
     6  H   -0.033270   0.378194   0.005069  -0.007876  -0.043240   0.556848
 Mulliken charges:
               1
     1  C   -0.296050
     2  C   -0.295174
     3  H    0.151498
     4  H    0.143834
     5  H    0.151616
     6  H    0.144275
 Sum of Mulliken charges =  -0.00000
 Mulliken charges with hydrogens summed into heavy atoms:
               1
     1  C   -0.000717
     2  C    0.000717
 Electronic spatial extent (au):  <R**2>=             82.9764
 Charge=             -0.0000 electrons
 Dipole moment (field-independent basis, Debye):
    X=              0.0016    Y=             -0.0439    Z=              0.0017  Tot=              0.0440
 Quadrupole moment (field-independent basis, Debye-Ang):
   XX=            -11.9818   YY=            -11.9601   ZZ=            -15.0449
   XY=             -0.0045   XZ=              0.0045   YZ=             -0.0001
 Traceless Quadrupole moment (field-independent basis, Debye-Ang):
   XX=              1.0138   YY=              1.0355   ZZ=             -2.0493
   XY=             -0.0045   XZ=              0.0045   YZ=             -0.0001
 Octapole moment (field-independent basis, Debye-Ang**2):
  XXX=              0.0226  YYY=             -0.1584  ZZZ=              0.0026  XYY=             -0.0134
  XXY=             -0.0577  XXZ=              0.0038  XZZ=             -0.0023  YZZ=             -0.1274
  YYZ=              0.0023  XYZ=              0.0100
 Hexadecapole moment (field-independent basis, Debye-Ang**3):
 XXXX=            -68.1063 YYYY=            -24.8937 ZZZZ=            -15.7384 XXXY=             -0.0179
 XXXZ=              0.0116 YYYX=             -0.0015 YYYZ=             -0.0001 ZZZX=              0.0037
 ZZZY=             -0.0002 XXYY=            -13.3124 XXZZ=            -14.7662 YYZZ=             -7.3173
 XXYZ=              0.0000 YYXZ=              0.0066 ZZXY=              0.0009
 N-N= 3.312144349755D+01 E-N=-2.476371733364D+02  KE= 7.783149907514D+01
 1\1\GINC-NODE60\SP\RB3LYP\6-31G(d)\C2H4\YANZ\22-Sep-2023\0\\# b3lyp/6-
 31g(d)\\tmpdir/M2_ref_77.gjf\\0,1\C,0,-0.935704,-1.23058,29.685052\C,0
 ,-2.1763,-0.830175,29.193023\H,0,-0.40529825,-0.62336271,30.3012947\H,
 0,-0.525758,-2.198205,29.405435\H,0,-2.55646321,0.07207868,29.44859312
 \H,0,-2.735985,-1.490513,28.536011\\Version=ES64L-G16RevA.03\State=1-A
 \HF=-78.5753425\RMSD=7.173e-09\Dipole=0.0022509,0.0150213,0.0082661\Qu
 adrupole=0.3016464,0.372612,-0.6742584,-0.4173905,0.8076962,0.7564954\
 PG=C01 [X(C2H4)]\\@


 EDUCATION IS NOT TRAINING BUT RATHER THE PROCESS THAT EQUIPS YOU TO
 ENTERTAIN YOURSELF, A FRIEND, OR AN IDEA.  -- WALLACE STERLING
 Job cpu time:       0 days  0 hours  0 minutes  5.4 seconds.
 Elapsed time:       0 days  0 hours  0 minutes  2.8 seconds.
 File lengths (MBytes):  RWF=      6 Int=      0 D2E=      0 Chk=      1 Scr=      1
 Normal termination of Gaussian 16 at Fri Sep 22 17:02:04 2023.
