 Entering Gaussian System, Link 0=g16
 Initial command:
 /share/apps/gaussian/g16/l1.exe "/tmp/55621.mgr/Gau-118537.inp" -scrdir="/tmp/55621.mgr/"
 Entering Link 1 = /share/apps/gaussian/g16/l1.exe PID=    118539.
  
 Copyright (c) 1988,1990,1992,1993,1995,1998,2003,2009,2016,
            Gaussian, Inc.  All Rights Reserved.
  
 This is part of the Gaussian(R) 16 program.  It is based on
 the Gaussian(R) 09 system (copyright 2009, Gaussian, Inc.),
 the Gaussian(R) 03 system (copyright 2003, Gaussian, Inc.),
 the Gaussian(R) 98 system (copyright 1998, Gaussian, Inc.),
 the Gaussian(R) 94 system (copyright 1995, Gaussian, Inc.),
 the Gaussian 92(TM) system (copyright 1992, Gaussian, Inc.),
 the Gaussian 90(TM) system (copyright 1990, Gaussian, Inc.),
 the Gaussian 88(TM) system (copyright 1988, Gaussian, Inc.),
 the Gaussian 86(TM) system (copyright 1986, Carnegie Mellon
 University), and the Gaussian 82(TM) system (copyright 1983,
 Carnegie Mellon University). Gaussian is a federally registered
 trademark of Gaussian, Inc.
  
 This software contains proprietary and confidential information,
 including trade secrets, belonging to Gaussian, Inc.
  
 This software is provided under written license and may be
 used, copied, transmitted, or stored only in accord with that
 written license.
  
 The following legend is applicable only to US Government
 contracts under FAR:
  
                    RESTRICTED RIGHTS LEGEND
  
 Use, reproduction and disclosure by the US Government is
 subject to restrictions as set forth in subparagraphs (a)
 and (c) of the Commercial Computer Software - Restricted
 Rights clause in FAR 52.227-19.
  
 Gaussian, Inc.
 340 Quinnipiac St., Bldg. 40, Wallingford CT 06492
  
  
 ---------------------------------------------------------------
 Warning -- This program may not be used in any manner that
 competes with the business of Gaussian, Inc. or will provide
 assistance to any competitor of Gaussian, Inc.  The licensee
 of this program is prohibited from giving any competitor of
 Gaussian, Inc. access to this program.  By using this program,
 the user acknowledges that Gaussian, Inc. is engaged in the
 business of creating and licensing software in the field of
 computational chemistry and represents and warrants to the
 licensee that it is not a competitor of Gaussian, Inc. and that
 it will not use this program in any manner prohibited above.
 ---------------------------------------------------------------
  

 Cite this work as:
 Gaussian 16, Revision A.03,
 M. J. Frisch, G. W. Trucks, H. B. Schlegel, G. E. Scuseria, 
 M. A. Robb, J. R. Cheeseman, G. Scalmani, V. Barone, 
 G. A. Petersson, H. Nakatsuji, X. Li, M. Caricato, A. V. Marenich, 
 J. Bloino, B. G. Janesko, R. Gomperts, B. Mennucci, H. P. Hratchian, 
 J. V. Ortiz, A. F. Izmaylov, J. L. Sonnenberg, D. Williams-Young, 
 F. Ding, F. Lipparini, F. Egidi, J. Goings, B. Peng, A. Petrone, 
 T. Henderson, D. Ranasinghe, V. G. Zakrzewski, J. Gao, N. Rega, 
 G. Zheng, W. Liang, M. Hada, M. Ehara, K. Toyota, R. Fukuda, 
 J. Hasegawa, M. Ishida, T. Nakajima, Y. Honda, O. Kitao, H. Nakai, 
 T. Vreven, K. Throssell, J. A. Montgomery, Jr., J. E. Peralta, 
 F. Ogliaro, M. J. Bearpark, J. J. Heyd, E. N. Brothers, K. N. Kudin, 
 V. N. Staroverov, T. A. Keith, R. Kobayashi, J. Normand, 
 K. Raghavachari, A. P. Rendell, J. C. Burant, S. S. Iyengar, 
 J. Tomasi, M. Cossi, J. M. Millam, M. Klene, C. Adamo, R. Cammi, 
 J. W. Ochterski, R. L. Martin, K. Morokuma, O. Farkas, 
 J. B. Foresman, and D. J. Fox, Gaussian, Inc., Wallingford CT, 2016.
 
 ******************************************
 Gaussian 16:  ES64L-G16RevA.03 25-Dec-2016
                22-Sep-2023 
 ******************************************
 %nprocshared=2
 Will use up to    2 processors via shared memory.
 %mem=2GB
 ----------------
 # b3lyp/6-31g(d)
 ----------------
 1/38=1,172=1/1;
 2/12=2,17=6,18=5,40=1/2;
 3/5=1,6=6,7=1,11=2,25=1,30=1,74=-5/1,2,3;
 4//1;
 5/5=2,38=5/2;
 6/7=2,8=2,9=2,10=2,28=1/1;
 99/5=1,9=1/99;
 --------------------
 tmpdir/M2_ref_75.gjf
 --------------------
 Symbolic Z-matrix:
 Charge =  0 Multiplicity = 1
 C                     1.15615  -0.81771   31.04648 
 C                    -0.20298  -0.39175   30.53635 
 C                    -0.73539   0.85498   30.88218 
 H                     1.99543  -0.79709   30.2269 
 H                     1.14246  -1.85736   31.38093 
 H                     1.45905  -0.19669   31.89954 
 H                    -0.73339  -0.99897   29.92011 
 H                    -1.63591   1.14684   30.52698 
 H                    -0.17603   1.51346   31.54321 
 
                          Input orientation:                          
 ---------------------------------------------------------------------
 Center     Atomic      Atomic             Coordinates (Angstroms)
 Number     Number       Type             X           Y           Z
 ---------------------------------------------------------------------
      1          6           0        1.156149   -0.817712   31.046479
      2          6           0       -0.202984   -0.391750   30.536350
      3          6           0       -0.735392    0.854981   30.882185
      4          1           0        1.995427   -0.797087   30.226904
      5          1           0        1.142456   -1.857358   31.380926
      6          1           0        1.459053   -0.196692   31.899535
      7          1           0       -0.733390   -0.998967   29.920107
      8          1           0       -1.635911    1.146842   30.526979
      9          1           0       -0.176028    1.513463   31.543208
 ---------------------------------------------------------------------
                    Distance matrix (angstroms):
                    1          2          3          4          5
     1  C    0.000000
     2  C    1.512917   0.000000
     3  C    2.530380   1.399071   0.000000
     4  H    1.173251   2.256782   3.258235   0.000000
     5  H    1.092202   2.161371   3.336441   1.784237   0.000000
     6  H    1.097780   2.158399   2.637538   1.856305   1.768333
     7  H    2.207243   1.014790   2.088713   2.753420   2.527770
     8  H    3.453252   2.102530   1.011083   4.129833   4.180163
     9  H    2.730533   2.155070   1.087859   3.433150   3.623144
                    6          7          8          9
     6  H    0.000000
     7  H    3.060814   0.000000
     8  H    3.642499   2.405688   0.000000
     9  H    2.392716   3.042600   1.816147   0.000000
 Stoichiometry    C3H6
 Framework group  C1[X(C3H6)]
 Deg. of freedom    21
 Full point group                 C1      NOp   1
 Largest Abelian subgroup         C1      NOp   1
 Largest concise Abelian subgroup C1      NOp   1
                         Standard orientation:                         
 ---------------------------------------------------------------------
 Center     Atomic      Atomic             Coordinates (Angstroms)
 Number     Number       Type             X           Y           Z
 ---------------------------------------------------------------------
      1          6           0        1.225956   -0.178685   -0.004304
      2          6           0       -0.119704    0.512752   -0.009925
      3          6           0       -1.303828   -0.232180    0.008170
      4          1           0        1.790123   -0.104740    1.021739
      5          1           0        1.911455    0.289338   -0.714200
      6          1           0        1.118109   -1.233093   -0.290162
      7          1           0       -0.176227    1.525957   -0.005693
      8          1           0       -2.202908    0.230148    0.022200
      9          1           0       -1.255093   -1.318932    0.002469
 ---------------------------------------------------------------------
 Rotational constants (GHZ):          43.5276693           9.2037953           7.9947975
 Standard basis: 6-31G(d) (6D, 7F)
 There are    57 symmetry adapted cartesian basis functions of A   symmetry.
 There are    57 symmetry adapted basis functions of A   symmetry.
    57 basis functions,   108 primitive gaussians,    57 cartesian basis functions
    12 alpha electrons       12 beta electrons
       nuclear repulsion energy        69.9931427537 Hartrees.
 NAtoms=    9 NActive=    9 NUniq=    9 SFac= 1.00D+00 NAtFMM=   60 NAOKFM=F Big=F
 Integral buffers will be    131072 words long.
 Raffenetti 2 integral format.
 Two-electron integral symmetry is turned on.
 One-electron integrals computed using PRISM.
 NBasis=    57 RedAO= T EigKep=  5.81D-03  NBF=    57
 NBsUse=    57 1.00D-06 EigRej= -1.00D+00 NBFU=    57
 ExpMin= 1.61D-01 ExpMax= 3.05D+03 ExpMxC= 4.57D+02 IAcc=3 IRadAn=         5 AccDes= 0.00D+00
 Harris functional with IExCor=  402 and IRadAn=       5 diagonalized for initial guess.
 HarFok:  IExCor=  402 AccDes= 0.00D+00 IRadAn=         5 IDoV= 1 UseB2=F ITyADJ=14
 ICtDFT=  3500011 ScaDFX=  1.000000  1.000000  1.000000  1.000000
 FoFCou: FMM=F IPFlag=           0 FMFlag=      100000 FMFlg1=           0
         NFxFlg=           0 DoJE=T BraDBF=F KetDBF=T FulRan=T
         wScrn=  0.000000 ICntrl=       500 IOpCl=  0 I1Cent=   200000004 NGrid=           0
         NMat0=    1 NMatS0=      1 NMatT0=    0 NMatD0=    1 NMtDS0=    0 NMtDT0=    0
 Petite list used in FoFCou.
 Keep R1 ints in memory in canonical form, NReq=3127177.
 Requested convergence on RMS density matrix=1.00D-08 within 128 cycles.
 Requested convergence on MAX density matrix=1.00D-06.
 Requested convergence on             energy=1.00D-06.
 No special actions if energy rises.
 Integral accuracy reduced to 1.0D-05 until final iterations.
 Initial convergence to 1.0D-05 achieved.  Increase integral accuracy.
 SCF Done:  E(RB3LYP) =  -117.890576660     A.U. after   12 cycles
            NFock= 12  Conv=0.79D-08     -V/T= 2.0107

 **********************************************************************

            Population analysis using the SCF density.

 **********************************************************************

 Orbital symmetries:
       Occupied  (A) (A) (A) (A) (A) (A) (A) (A) (A) (A) (A) (A)
       Virtual   (A) (A) (A) (A) (A) (A) (A) (A) (A) (A) (A) (A)
                 (A) (A) (A) (A) (A) (A) (A) (A) (A) (A) (A) (A)
                 (A) (A) (A) (A) (A) (A) (A) (A) (A) (A) (A) (A)
                 (A) (A) (A) (A) (A) (A) (A) (A) (A)
 The electronic state is 1-A.
 Alpha  occ. eigenvalues --  -10.18868 -10.18730 -10.17326  -0.77249  -0.67414
 Alpha  occ. eigenvalues --   -0.56518  -0.46796  -0.40934  -0.39526  -0.36448
 Alpha  occ. eigenvalues --   -0.35965  -0.23960
 Alpha virt. eigenvalues --    0.01081   0.11402   0.14322   0.14846   0.17267
 Alpha virt. eigenvalues --    0.18597   0.20446   0.28329   0.34850   0.50594
 Alpha virt. eigenvalues --    0.52814   0.54941   0.59736   0.64145   0.64933
 Alpha virt. eigenvalues --    0.65976   0.73076   0.76555   0.84269   0.87606
 Alpha virt. eigenvalues --    0.90949   0.94257   0.95276   0.98962   1.08286
 Alpha virt. eigenvalues --    1.23766   1.31136   1.40912   1.51546   1.70572
 Alpha virt. eigenvalues --    1.78629   1.88448   1.95723   2.03406   2.10405
 Alpha virt. eigenvalues --    2.20257   2.24051   2.30337   2.38410   2.52462
 Alpha virt. eigenvalues --    2.71119   2.80207   4.08738   4.20530   4.39283
          Condensed to atoms (all electrons):
               1          2          3          4          5          6
     1  C    5.089306   0.388002  -0.038169   0.358936   0.365595   0.375501
     2  C    0.388002   4.774789   0.673534  -0.029436  -0.031736  -0.033802
     3  C   -0.038169   0.673534   5.005368  -0.002212   0.002048  -0.007903
     4  H    0.358936  -0.029436  -0.002212   0.594473  -0.037694  -0.024654
     5  H    0.365595  -0.031736   0.002048  -0.037694   0.580876  -0.030932
     6  H    0.375501  -0.033802  -0.007903  -0.024654  -0.030932   0.553988
     7  H   -0.056291   0.377882  -0.046647   0.000806  -0.002044   0.004606
     8  H    0.005657  -0.030297   0.375931  -0.000143  -0.000208   0.000110
     9  H   -0.012130  -0.033130   0.370712   0.000237   0.000151   0.006829
               7          8          9
     1  C   -0.056291   0.005657  -0.012130
     2  C    0.377882  -0.030297  -0.033130
     3  C   -0.046647   0.375931   0.370712
     4  H    0.000806  -0.000143   0.000237
     5  H   -0.002044  -0.000208   0.000151
     6  H    0.004606   0.000110   0.006829
     7  H    0.587833  -0.007484   0.005917
     8  H   -0.007484   0.556083  -0.044207
     9  H    0.005917  -0.044207   0.570614
 Mulliken charges:
               1
     1  C   -0.476408
     2  C   -0.055806
     3  C   -0.332661
     4  H    0.139687
     5  H    0.153945
     6  H    0.156258
     7  H    0.135422
     8  H    0.144558
     9  H    0.135006
 Sum of Mulliken charges =  -0.00000
 Mulliken charges with hydrogens summed into heavy atoms:
               1
     1  C   -0.026519
     2  C    0.079616
     3  C   -0.053097
 Electronic spatial extent (au):  <R**2>=            198.5377
 Charge=             -0.0000 electrons
 Dipole moment (field-independent basis, Debye):
    X=              0.2692    Y=              0.1309    Z=             -0.0340  Tot=              0.3013
 Quadrupole moment (field-independent basis, Debye-Ang):
   XX=            -18.9121   YY=            -18.5377   ZZ=            -21.4206
   XY=              0.0671   XZ=             -0.0369   YZ=              0.0713
 Traceless Quadrupole moment (field-independent basis, Debye-Ang):
   XX=              0.7114   YY=              1.0858   ZZ=             -1.7972
   XY=              0.0671   XZ=             -0.0369   YZ=              0.0713
 Octapole moment (field-independent basis, Debye-Ang**2):
  XXX=             -2.2882  YYY=              0.2797  ZZZ=              0.1882  XYY=             -0.7874
  XXY=              0.9021  XXZ=              0.1068  XZZ=              1.9581  YZZ=              0.1780
  YYZ=             -0.4231  XYZ=             -0.0552
 Hexadecapole moment (field-independent basis, Debye-Ang**3):
 XXXX=           -179.9495 YYYY=            -50.7715 ZZZZ=            -29.7337 XXXY=             -0.7471
 XXXZ=             -0.3846 YYYX=              0.0804 YYYZ=              0.4981 ZZZX=              0.4032
 ZZZY=             -0.0356 XXYY=            -40.0289 XXZZ=            -36.1851 YYZZ=            -14.7217
 XXYZ=             -0.3002 YYXZ=             -0.5589 ZZXY=              0.1865
 N-N= 6.999314275369D+01 E-N=-4.120692260374D+02  KE= 1.166475226962D+02
 1\1\GINC-NODE60\SP\RB3LYP\6-31G(d)\C3H6\YANZ\22-Sep-2023\0\\# b3lyp/6-
 31g(d)\\tmpdir/M2_ref_75.gjf\\0,1\C,0,1.156149,-0.817712,31.046479\C,0
 ,-0.202984,-0.39175,30.53635\C,0,-0.735392,0.854981,30.882185\H,0,1.99
 542718,-0.79708707,30.22690376\H,0,1.142456,-1.857358,31.380926\H,0,1.
 459053,-0.196692,31.899535\H,0,-0.73338975,-0.99896729,29.9201073\H,0,
 -1.63591125,1.1468417,30.52697921\H,0,-0.176028,1.513463,31.543208\\Ve
 rsion=ES64L-G16RevA.03\State=1-A\HF=-117.8905767\RMSD=7.864e-09\Dipole
 =0.0498034,-0.1068447,-0.0124821\Quadrupole=0.1641354,0.3387625,-0.502
 8979,-0.2909792,0.7240485,0.747107\PG=C01 [X(C3H6)]\\@


 THE ENLIGHTENED ONE, BECAUSE HE SAW MANKIND DROWNING  
 IN THE GREAT SEA OF BIRTH, DEATH, AND SORROW, LONGED TO SAVE 
 THEM, FOR THIS HE WAS MOVED TO PITY.                         
 BECAUSE HE SAW MEN OF THE WORLD STRAYING IN FALSE PATHS, AND 
 NONE TO GUIDE THEM, FOR THIS HE WAS MOVED TO PITY.           
                     ..................                       
 BECAUSE HE SAW THE MEN OF THE WORLD PLOUGHING THEIR FIELDS,  
 SOWING THE SEED, TRAFFICKING, HUCKSTERING, BUYING, SELLING,  
 AND AT THE END WINNOWING NOTHING BUT BITTERNESS,             
 FOR THIS HE WAS MOVED TO PITY......                   
                   BUDAH'S PITY - UPSAKA SILA SUTRA           
 Job cpu time:       0 days  0 hours  0 minutes 12.4 seconds.
 Elapsed time:       0 days  0 hours  0 minutes  6.3 seconds.
 File lengths (MBytes):  RWF=      6 Int=      0 D2E=      0 Chk=      1 Scr=      1
 Normal termination of Gaussian 16 at Fri Sep 22 17:01:54 2023.
