 Entering Gaussian System, Link 0=g16
 Initial command:
 /share/apps/gaussian/g16/l1.exe "/tmp/55621.mgr/Gau-118015.inp" -scrdir="/tmp/55621.mgr/"
 Entering Link 1 = /share/apps/gaussian/g16/l1.exe PID=    118016.
  
 Copyright (c) 1988,1990,1992,1993,1995,1998,2003,2009,2016,
            Gaussian, Inc.  All Rights Reserved.
  
 This is part of the Gaussian(R) 16 program.  It is based on
 the Gaussian(R) 09 system (copyright 2009, Gaussian, Inc.),
 the Gaussian(R) 03 system (copyright 2003, Gaussian, Inc.),
 the Gaussian(R) 98 system (copyright 1998, Gaussian, Inc.),
 the Gaussian(R) 94 system (copyright 1995, Gaussian, Inc.),
 the Gaussian 92(TM) system (copyright 1992, Gaussian, Inc.),
 the Gaussian 90(TM) system (copyright 1990, Gaussian, Inc.),
 the Gaussian 88(TM) system (copyright 1988, Gaussian, Inc.),
 the Gaussian 86(TM) system (copyright 1986, Carnegie Mellon
 University), and the Gaussian 82(TM) system (copyright 1983,
 Carnegie Mellon University). Gaussian is a federally registered
 trademark of Gaussian, Inc.
  
 This software contains proprietary and confidential information,
 including trade secrets, belonging to Gaussian, Inc.
  
 This software is provided under written license and may be
 used, copied, transmitted, or stored only in accord with that
 written license.
  
 The following legend is applicable only to US Government
 contracts under FAR:
  
                    RESTRICTED RIGHTS LEGEND
  
 Use, reproduction and disclosure by the US Government is
 subject to restrictions as set forth in subparagraphs (a)
 and (c) of the Commercial Computer Software - Restricted
 Rights clause in FAR 52.227-19.
  
 Gaussian, Inc.
 340 Quinnipiac St., Bldg. 40, Wallingford CT 06492
  
  
 ---------------------------------------------------------------
 Warning -- This program may not be used in any manner that
 competes with the business of Gaussian, Inc. or will provide
 assistance to any competitor of Gaussian, Inc.  The licensee
 of this program is prohibited from giving any competitor of
 Gaussian, Inc. access to this program.  By using this program,
 the user acknowledges that Gaussian, Inc. is engaged in the
 business of creating and licensing software in the field of
 computational chemistry and represents and warrants to the
 licensee that it is not a competitor of Gaussian, Inc. and that
 it will not use this program in any manner prohibited above.
 ---------------------------------------------------------------
  

 Cite this work as:
 Gaussian 16, Revision A.03,
 M. J. Frisch, G. W. Trucks, H. B. Schlegel, G. E. Scuseria, 
 M. A. Robb, J. R. Cheeseman, G. Scalmani, V. Barone, 
 G. A. Petersson, H. Nakatsuji, X. Li, M. Caricato, A. V. Marenich, 
 J. Bloino, B. G. Janesko, R. Gomperts, B. Mennucci, H. P. Hratchian, 
 J. V. Ortiz, A. F. Izmaylov, J. L. Sonnenberg, D. Williams-Young, 
 F. Ding, F. Lipparini, F. Egidi, J. Goings, B. Peng, A. Petrone, 
 T. Henderson, D. Ranasinghe, V. G. Zakrzewski, J. Gao, N. Rega, 
 G. Zheng, W. Liang, M. Hada, M. Ehara, K. Toyota, R. Fukuda, 
 J. Hasegawa, M. Ishida, T. Nakajima, Y. Honda, O. Kitao, H. Nakai, 
 T. Vreven, K. Throssell, J. A. Montgomery, Jr., J. E. Peralta, 
 F. Ogliaro, M. J. Bearpark, J. J. Heyd, E. N. Brothers, K. N. Kudin, 
 V. N. Staroverov, T. A. Keith, R. Kobayashi, J. Normand, 
 K. Raghavachari, A. P. Rendell, J. C. Burant, S. S. Iyengar, 
 J. Tomasi, M. Cossi, J. M. Millam, M. Klene, C. Adamo, R. Cammi, 
 J. W. Ochterski, R. L. Martin, K. Morokuma, O. Farkas, 
 J. B. Foresman, and D. J. Fox, Gaussian, Inc., Wallingford CT, 2016.
 
 ******************************************
 Gaussian 16:  ES64L-G16RevA.03 25-Dec-2016
                22-Sep-2023 
 ******************************************
 %nprocshared=2
 Will use up to    2 processors via shared memory.
 %mem=2GB
 ----------------
 # b3lyp/6-31g(d)
 ----------------
 1/38=1,172=1/1;
 2/12=2,17=6,18=5,40=1/2;
 3/5=1,6=6,7=1,11=2,25=1,30=1,74=-5/1,2,3;
 4//1;
 5/5=2,38=5/2;
 6/7=2,8=2,9=2,10=2,28=1/1;
 99/5=1,9=1/99;
 --------------------
 tmpdir/M2_ref_31.gjf
 --------------------
 Symbolic Z-matrix:
 Charge =  0 Multiplicity = 1
 C                    -2.80943   0.09913   0.20928 
 C                    -2.43448  -1.37143  -0.12933 
 H                    -3.01433  -2.06339   0.49447 
 H                    -2.15089   0.88446  -0.24887 
 H                    -2.80456   0.21851   1.30042 
 H                    -3.84544   0.26372  -0.1157 
 H                    -2.69653  -1.59376  -1.17314 
 H                    -1.39075  -1.46204   0.00759 
 
                          Input orientation:                          
 ---------------------------------------------------------------------
 Center     Atomic      Atomic             Coordinates (Angstroms)
 Number     Number       Type             X           Y           Z
 ---------------------------------------------------------------------
      1          6           0       -2.809433    0.099125    0.209283
      2          6           0       -2.434475   -1.371426   -0.129325
      3          1           0       -3.014333   -2.063392    0.494468
      4          1           0       -2.150891    0.884462   -0.248871
      5          1           0       -2.804560    0.218507    1.300420
      6          1           0       -3.845443    0.263720   -0.115704
      7          1           0       -2.696534   -1.593761   -1.173141
      8          1           0       -1.390748   -1.462041    0.007588
 ---------------------------------------------------------------------
                    Distance matrix (angstroms):
                    1          2          3          4          5
     1  C    0.000000
     2  C    1.554918   0.000000
     3  H    2.190843   1.097347   0.000000
     4  H    1.122647   2.276784   3.160369   0.000000
     5  H    1.097659   2.170028   2.429120   1.808613   0.000000
     6  H    1.098192   2.159796   2.545291   1.809574   1.758092
     7  H    2.188540   1.098936   1.761383   2.700665   3.068304
     8  H    2.119100   1.056562   1.798528   2.479852   2.548435
                    6          7          8
     6  H    0.000000
     7  H    2.426603   0.000000
     8  H    3.003161   1.765375   0.000000
 Stoichiometry    C2H6
 Framework group  C1[X(C2H6)]
 Deg. of freedom    18
 Full point group                 C1      NOp   1
 Largest Abelian subgroup         C1      NOp   1
 Largest concise Abelian subgroup C1      NOp   1
                         Standard orientation:                         
 ---------------------------------------------------------------------
 Center     Atomic      Atomic             Coordinates (Angstroms)
 Number     Number       Type             X           Y           Z
 ---------------------------------------------------------------------
      1          6           0        0.771520    0.000704    0.004129
      2          6           0       -0.783260    0.014345   -0.011521
      3          1           0       -1.167343   -0.961210   -0.335471
      4          1           0        1.262965    0.998882    0.153989
      5          1           0        1.126543   -0.436305   -0.938122
      6          1           0        1.092246   -0.681886    0.802396
      7          1           0       -1.166439    0.181706    1.004758
      8          1           0       -1.077532    0.808520   -0.643195
 ---------------------------------------------------------------------
 Rotational constants (GHZ):          78.9621024          19.7276245          19.5882375
 Standard basis: 6-31G(d) (6D, 7F)
 There are    42 symmetry adapted cartesian basis functions of A   symmetry.
 There are    42 symmetry adapted basis functions of A   symmetry.
    42 basis functions,    80 primitive gaussians,    42 cartesian basis functions
     9 alpha electrons        9 beta electrons
       nuclear repulsion energy        41.9347731420 Hartrees.
 NAtoms=    8 NActive=    8 NUniq=    8 SFac= 1.00D+00 NAtFMM=   60 NAOKFM=F Big=F
 Integral buffers will be    131072 words long.
 Raffenetti 2 integral format.
 Two-electron integral symmetry is turned on.
 One-electron integrals computed using PRISM.
 NBasis=    42 RedAO= T EigKep=  8.55D-03  NBF=    42
 NBsUse=    42 1.00D-06 EigRej= -1.00D+00 NBFU=    42
 ExpMin= 1.61D-01 ExpMax= 3.05D+03 ExpMxC= 4.57D+02 IAcc=3 IRadAn=         5 AccDes= 0.00D+00
 Harris functional with IExCor=  402 and IRadAn=       5 diagonalized for initial guess.
 HarFok:  IExCor=  402 AccDes= 0.00D+00 IRadAn=         5 IDoV= 1 UseB2=F ITyADJ=14
 ICtDFT=  3500011 ScaDFX=  1.000000  1.000000  1.000000  1.000000
 FoFCou: FMM=F IPFlag=           0 FMFlag=      100000 FMFlg1=           0
         NFxFlg=           0 DoJE=T BraDBF=F KetDBF=T FulRan=T
         wScrn=  0.000000 ICntrl=       500 IOpCl=  0 I1Cent=   200000004 NGrid=           0
         NMat0=    1 NMatS0=      1 NMatT0=    0 NMatD0=    1 NMtDS0=    0 NMtDT0=    0
 Petite list used in FoFCou.
 Keep R1 ints in memory in canonical form, NReq=2135132.
 Requested convergence on RMS density matrix=1.00D-08 within 128 cycles.
 Requested convergence on MAX density matrix=1.00D-06.
 Requested convergence on             energy=1.00D-06.
 No special actions if energy rises.
 Integral accuracy reduced to 1.0D-05 until final iterations.
 Initial convergence to 1.0D-05 achieved.  Increase integral accuracy.
 SCF Done:  E(RB3LYP) =  -79.8259441430     A.U. after   10 cycles
            NFock= 10  Conv=0.91D-08     -V/T= 2.0110

 **********************************************************************

            Population analysis using the SCF density.

 **********************************************************************

 Orbital symmetries:
       Occupied  (A) (A) (A) (A) (A) (A) (A) (A) (A)
       Virtual   (A) (A) (A) (A) (A) (A) (A) (A) (A) (A) (A) (A)
                 (A) (A) (A) (A) (A) (A) (A) (A) (A) (A) (A) (A)
                 (A) (A) (A) (A) (A) (A) (A) (A) (A)
 The electronic state is 1-A.
 Alpha  occ. eigenvalues --  -10.17499 -10.17026  -0.74490  -0.60999  -0.43696
 Alpha  occ. eigenvalues --   -0.42687  -0.35720  -0.34152  -0.33789
 Alpha virt. eigenvalues --    0.10256   0.15001   0.15759   0.16884   0.19137
 Alpha virt. eigenvalues --    0.20133   0.23069   0.51689   0.54219   0.54966
 Alpha virt. eigenvalues --    0.61812   0.65287   0.65851   0.87913   0.88597
 Alpha virt. eigenvalues --    0.89113   0.91475   0.94145   0.98394   1.06685
 Alpha virt. eigenvalues --    1.42823   1.51333   1.53251   1.91061   1.97407
 Alpha virt. eigenvalues --    2.03956   2.22552   2.27322   2.30663   2.34100
 Alpha virt. eigenvalues --    2.58133   4.13790   4.36608
          Condensed to atoms (all electrons):
               1          2          3          4          5          6
     1  C    5.033393   0.368173  -0.032681   0.380485   0.381416   0.381080
     2  C    0.368173   5.014298   0.384195  -0.028503  -0.037337  -0.038538
     3  H   -0.032681   0.384195   0.567949   0.003805  -0.005931  -0.001478
     4  H    0.380485  -0.028503   0.003805   0.570848  -0.030680  -0.029820
     5  H    0.381416  -0.037337  -0.005931  -0.030680   0.578804  -0.033309
     6  H    0.381080  -0.038538  -0.001478  -0.029820  -0.033309   0.580144
     7  H   -0.034680   0.383409  -0.034498  -0.001415   0.004789  -0.006166
     8  H   -0.040412   0.387750  -0.026551  -0.004679  -0.001868   0.005223
               7          8
     1  C   -0.034680  -0.040412
     2  C    0.383409   0.387750
     3  H   -0.034498  -0.026551
     4  H   -0.001415  -0.004679
     5  H    0.004789  -0.001868
     6  H   -0.006166   0.005223
     7  H    0.576210  -0.030521
     8  H   -0.030521   0.555843
 Mulliken charges:
               1
     1  C   -0.436774
     2  C   -0.433445
     3  H    0.145190
     4  H    0.139959
     5  H    0.144116
     6  H    0.142866
     7  H    0.142873
     8  H    0.155215
 Sum of Mulliken charges =  -0.00000
 Mulliken charges with hydrogens summed into heavy atoms:
               1
     1  C   -0.009833
     2  C    0.009833
 Electronic spatial extent (au):  <R**2>=            110.1962
 Charge=              0.0000 electrons
 Dipole moment (field-independent basis, Debye):
    X=             -0.0234    Y=             -0.0268    Z=             -0.0129  Tot=              0.0379
 Quadrupole moment (field-independent basis, Debye-Ang):
   XX=            -15.4579   YY=            -14.5132   ZZ=            -14.7700
   XY=              0.1632   XZ=             -0.0558   YZ=             -0.0483
 Traceless Quadrupole moment (field-independent basis, Debye-Ang):
   XX=             -0.5442   YY=              0.4005   ZZ=              0.1437
   XY=              0.1632   XZ=             -0.0558   YZ=             -0.0483
 Octapole moment (field-independent basis, Debye-Ang**2):
  XXX=             -0.0346  YYY=              0.1457  ZZZ=              0.1544  XYY=             -0.0483
  XXY=              0.0929  XXZ=              0.0752  XZZ=             -0.1464  YZZ=             -0.2164
  YYZ=             -0.2719  XYZ=              0.0918
 Hexadecapole moment (field-independent basis, Debye-Ang**3):
 XXXX=            -93.9377 YYYY=            -28.8639 ZZZZ=            -28.5042 XXXY=              0.7033
 XXXZ=             -0.1652 YYYX=              0.9157 YYYZ=             -0.1564 ZZZX=             -0.7913
 ZZZY=             -0.0957 XXYY=            -19.0665 XXZZ=            -19.5704 YYZZ=             -9.5086
 XXYZ=              0.0932 YYXZ=              0.7738 ZZXY=             -0.8365
 N-N= 4.193477314197D+01 E-N=-2.676666666402D+02  KE= 7.895931480191D+01
 1\1\GINC-NODE60\SP\RB3LYP\6-31G(d)\C2H6\YANZ\22-Sep-2023\0\\# b3lyp/6-
 31g(d)\\tmpdir/M2_ref_31.gjf\\0,1\C,0,-2.809433,0.099125,0.209283\C,0,
 -2.434475,-1.371426,-0.129325\H,0,-3.014333,-2.063392,0.494468\H,0,-2.
 15089147,0.88446241,-0.24887096\H,0,-2.80456,0.218507,1.30042\H,0,-3.8
 45443,0.26372,-0.115704\H,0,-2.696534,-1.593761,-1.173141\H,0,-1.39074
 793,-1.4620406,0.0075879\\Version=ES64L-G16RevA.03\State=1-A\HF=-79.82
 59441\RMSD=9.085e-09\Dipole=-0.0043509,-0.0124219,0.0069926\Quadrupole
 =0.1895538,-0.2727123,0.0831585,0.2715814,0.0054299,-0.1312208\PG=C01 
 [X(C2H6)]\\@


 I LOVE THOSE WHO LONG FOR THE IMPOSSIBLE.

                                 -- GOETHE
 Job cpu time:       0 days  0 hours  0 minutes  7.6 seconds.
 Elapsed time:       0 days  0 hours  0 minutes  3.9 seconds.
 File lengths (MBytes):  RWF=      6 Int=      0 D2E=      0 Chk=      1 Scr=      1
 Normal termination of Gaussian 16 at Fri Sep 22 17:01:37 2023.
