 Entering Gaussian System, Link 0=g16
 Initial command:
 /share/apps/gaussian/g16/l1.exe "/tmp/55621.mgr/Gau-118346.inp" -scrdir="/tmp/55621.mgr/"
 Entering Link 1 = /share/apps/gaussian/g16/l1.exe PID=    118347.
  
 Copyright (c) 1988,1990,1992,1993,1995,1998,2003,2009,2016,
            Gaussian, Inc.  All Rights Reserved.
  
 This is part of the Gaussian(R) 16 program.  It is based on
 the Gaussian(R) 09 system (copyright 2009, Gaussian, Inc.),
 the Gaussian(R) 03 system (copyright 2003, Gaussian, Inc.),
 the Gaussian(R) 98 system (copyright 1998, Gaussian, Inc.),
 the Gaussian(R) 94 system (copyright 1995, Gaussian, Inc.),
 the Gaussian 92(TM) system (copyright 1992, Gaussian, Inc.),
 the Gaussian 90(TM) system (copyright 1990, Gaussian, Inc.),
 the Gaussian 88(TM) system (copyright 1988, Gaussian, Inc.),
 the Gaussian 86(TM) system (copyright 1986, Carnegie Mellon
 University), and the Gaussian 82(TM) system (copyright 1983,
 Carnegie Mellon University). Gaussian is a federally registered
 trademark of Gaussian, Inc.
  
 This software contains proprietary and confidential information,
 including trade secrets, belonging to Gaussian, Inc.
  
 This software is provided under written license and may be
 used, copied, transmitted, or stored only in accord with that
 written license.
  
 The following legend is applicable only to US Government
 contracts under FAR:
  
                    RESTRICTED RIGHTS LEGEND
  
 Use, reproduction and disclosure by the US Government is
 subject to restrictions as set forth in subparagraphs (a)
 and (c) of the Commercial Computer Software - Restricted
 Rights clause in FAR 52.227-19.
  
 Gaussian, Inc.
 340 Quinnipiac St., Bldg. 40, Wallingford CT 06492
  
  
 ---------------------------------------------------------------
 Warning -- This program may not be used in any manner that
 competes with the business of Gaussian, Inc. or will provide
 assistance to any competitor of Gaussian, Inc.  The licensee
 of this program is prohibited from giving any competitor of
 Gaussian, Inc. access to this program.  By using this program,
 the user acknowledges that Gaussian, Inc. is engaged in the
 business of creating and licensing software in the field of
 computational chemistry and represents and warrants to the
 licensee that it is not a competitor of Gaussian, Inc. and that
 it will not use this program in any manner prohibited above.
 ---------------------------------------------------------------
  

 Cite this work as:
 Gaussian 16, Revision A.03,
 M. J. Frisch, G. W. Trucks, H. B. Schlegel, G. E. Scuseria, 
 M. A. Robb, J. R. Cheeseman, G. Scalmani, V. Barone, 
 G. A. Petersson, H. Nakatsuji, X. Li, M. Caricato, A. V. Marenich, 
 J. Bloino, B. G. Janesko, R. Gomperts, B. Mennucci, H. P. Hratchian, 
 J. V. Ortiz, A. F. Izmaylov, J. L. Sonnenberg, D. Williams-Young, 
 F. Ding, F. Lipparini, F. Egidi, J. Goings, B. Peng, A. Petrone, 
 T. Henderson, D. Ranasinghe, V. G. Zakrzewski, J. Gao, N. Rega, 
 G. Zheng, W. Liang, M. Hada, M. Ehara, K. Toyota, R. Fukuda, 
 J. Hasegawa, M. Ishida, T. Nakajima, Y. Honda, O. Kitao, H. Nakai, 
 T. Vreven, K. Throssell, J. A. Montgomery, Jr., J. E. Peralta, 
 F. Ogliaro, M. J. Bearpark, J. J. Heyd, E. N. Brothers, K. N. Kudin, 
 V. N. Staroverov, T. A. Keith, R. Kobayashi, J. Normand, 
 K. Raghavachari, A. P. Rendell, J. C. Burant, S. S. Iyengar, 
 J. Tomasi, M. Cossi, J. M. Millam, M. Klene, C. Adamo, R. Cammi, 
 J. W. Ochterski, R. L. Martin, K. Morokuma, O. Farkas, 
 J. B. Foresman, and D. J. Fox, Gaussian, Inc., Wallingford CT, 2016.
 
 ******************************************
 Gaussian 16:  ES64L-G16RevA.03 25-Dec-2016
                22-Sep-2023 
 ******************************************
 %nprocshared=2
 Will use up to    2 processors via shared memory.
 %mem=2GB
 ----------------
 # b3lyp/6-31g(d)
 ----------------
 1/38=1,172=1/1;
 2/12=2,17=6,18=5,40=1/2;
 3/5=1,6=6,7=1,11=2,25=1,30=1,74=-5/1,2,3;
 4//1;
 5/5=2,38=5/2;
 6/7=2,8=2,9=2,10=2,28=1/1;
 99/5=1,9=1/99;
 --------------------
 tmpdir/M2_ref_47.gjf
 --------------------
 Symbolic Z-matrix:
 Charge =  0 Multiplicity = 1
 C                     1.27729  -0.2263    0.32118 
 C                     0.16749  -1.16448   0.15455 
 H                     0.90895   0.76765  -0.05753 
 H                     1.51941  -0.13441   1.39535 
 H                     2.22785  -0.59522  -0.25126 
 N                    -0.90094  -1.47035   0.0673 
 
                          Input orientation:                          
 ---------------------------------------------------------------------
 Center     Atomic      Atomic             Coordinates (Angstroms)
 Number     Number       Type             X           Y           Z
 ---------------------------------------------------------------------
      1          6           0        1.277293   -0.226303    0.321176
      2          6           0        0.167485   -1.164485    0.154552
      3          1           0        0.908953    0.767653   -0.057530
      4          1           0        1.519410   -0.134405    1.395353
      5          1           0        2.227847   -0.595220   -0.251257
      6          7           0       -0.900941   -1.470354    0.067299
 ---------------------------------------------------------------------
                    Distance matrix (angstroms):
                    1          2          3          4          5
     1  C    0.000000
     2  C    1.462745   0.000000
     3  H    1.125629   2.080363   0.000000
     4  H    1.104953   2.104365   1.815829   0.000000
     5  H    1.169330   2.175737   1.906419   1.850826   0.000000
     6  N    2.521273   1.114766   2.880967   3.067016   3.264452
                    6
     6  N    0.000000
 Stoichiometry    C2H3N
 Framework group  C1[X(C2H3N)]
 Deg. of freedom    12
 Full point group                 C1      NOp   1
 Largest Abelian subgroup         C1      NOp   1
 Largest concise Abelian subgroup C1      NOp   1
                         Standard orientation:                         
 ---------------------------------------------------------------------
 Center     Atomic      Atomic             Coordinates (Angstroms)
 Number     Number       Type             X           Y           Z
 ---------------------------------------------------------------------
      1          6           0        1.146299    0.046264   -0.003509
      2          6           0       -0.295812   -0.197526    0.018948
      3          1           0        1.294971    1.003418   -0.576913
      4          1           0        1.508871    0.186799    1.030761
      5          1           0        1.716292   -0.853630   -0.485827
      6          7           0       -1.374722    0.081570   -0.008665
 ---------------------------------------------------------------------
 Rotational constants (GHZ):         125.7885411           9.8336090           9.6976119
 Standard basis: 6-31G(d) (6D, 7F)
 There are    51 symmetry adapted cartesian basis functions of A   symmetry.
 There are    51 symmetry adapted basis functions of A   symmetry.
    51 basis functions,    96 primitive gaussians,    51 cartesian basis functions
    11 alpha electrons       11 beta electrons
       nuclear repulsion energy        59.1631451212 Hartrees.
 NAtoms=    6 NActive=    6 NUniq=    6 SFac= 1.00D+00 NAtFMM=   60 NAOKFM=F Big=F
 Integral buffers will be    131072 words long.
 Raffenetti 2 integral format.
 Two-electron integral symmetry is turned on.
 One-electron integrals computed using PRISM.
 NBasis=    51 RedAO= T EigKep=  2.35D-03  NBF=    51
 NBsUse=    51 1.00D-06 EigRej= -1.00D+00 NBFU=    51
 ExpMin= 1.61D-01 ExpMax= 4.17D+03 ExpMxC= 6.27D+02 IAcc=3 IRadAn=         5 AccDes= 0.00D+00
 Harris functional with IExCor=  402 and IRadAn=       5 diagonalized for initial guess.
 HarFok:  IExCor=  402 AccDes= 0.00D+00 IRadAn=         5 IDoV= 1 UseB2=F ITyADJ=14
 ICtDFT=  3500011 ScaDFX=  1.000000  1.000000  1.000000  1.000000
 FoFCou: FMM=F IPFlag=           0 FMFlag=      100000 FMFlg1=           0
         NFxFlg=           0 DoJE=T BraDBF=F KetDBF=T FulRan=T
         wScrn=  0.000000 ICntrl=       500 IOpCl=  0 I1Cent=   200000004 NGrid=           0
         NMat0=    1 NMatS0=      1 NMatT0=    0 NMatD0=    1 NMtDS0=    0 NMtDT0=    0
 Petite list used in FoFCou.
 Keep R1 ints in memory in canonical form, NReq=2623252.
 Requested convergence on RMS density matrix=1.00D-08 within 128 cycles.
 Requested convergence on MAX density matrix=1.00D-06.
 Requested convergence on             energy=1.00D-06.
 No special actions if energy rises.
 Integral accuracy reduced to 1.0D-05 until final iterations.
 Initial convergence to 1.0D-05 achieved.  Increase integral accuracy.
 SCF Done:  E(RB3LYP) =  -132.737024628     A.U. after   13 cycles
            NFock= 13  Conv=0.39D-08     -V/T= 2.0087

 **********************************************************************

            Population analysis using the SCF density.

 **********************************************************************

 Orbital symmetries:
       Occupied  (A) (A) (A) (A) (A) (A) (A) (A) (A) (A) (A)
       Virtual   (A) (A) (A) (A) (A) (A) (A) (A) (A) (A) (A) (A)
                 (A) (A) (A) (A) (A) (A) (A) (A) (A) (A) (A) (A)
                 (A) (A) (A) (A) (A) (A) (A) (A) (A) (A) (A) (A)
                 (A) (A) (A) (A)
 The electronic state is 1-A.
 Alpha  occ. eigenvalues --  -14.32367 -10.24791 -10.21951  -0.92152  -0.76474
 Alpha  occ. eigenvalues --   -0.50179  -0.46135  -0.45459  -0.35879  -0.33525
 Alpha  occ. eigenvalues --   -0.33187
 Alpha virt. eigenvalues --    0.01979   0.04875   0.08191   0.13670   0.15847
 Alpha virt. eigenvalues --    0.23336   0.30768   0.52850   0.53566   0.56644
 Alpha virt. eigenvalues --    0.61550   0.62575   0.68798   0.74440   0.79748
 Alpha virt. eigenvalues --    0.81875   0.83723   0.85011   0.87855   1.01355
 Alpha virt. eigenvalues --    1.33205   1.40886   1.41897   1.51078   1.52516
 Alpha virt. eigenvalues --    1.64973   1.84937   1.87575   1.98533   2.05967
 Alpha virt. eigenvalues --    2.16836   2.18458   2.26200   2.69252   2.76165
 Alpha virt. eigenvalues --    2.84373   3.19750   3.91962   4.06274   4.48204
          Condensed to atoms (all electrons):
               1          2          3          4          5          6
     1  C    5.152642   0.337312   0.381279   0.368763   0.350498  -0.072279
     2  C    0.337312   4.551057  -0.036798  -0.029332  -0.021916   0.915479
     3  H    0.381279  -0.036798   0.496108  -0.025057  -0.020757  -0.005788
     4  H    0.368763  -0.029332  -0.025057   0.505098  -0.024224  -0.001067
     5  H    0.350498  -0.021916  -0.020757  -0.024224   0.531777   0.001840
     6  N   -0.072279   0.915479  -0.005788  -0.001067   0.001840   6.527409
 Mulliken charges:
               1
     1  C   -0.518214
     2  C    0.284198
     3  H    0.211012
     4  H    0.205818
     5  H    0.182781
     6  N   -0.365595
 Sum of Mulliken charges =  -0.00000
 Mulliken charges with hydrogens summed into heavy atoms:
               1
     1  C    0.081397
     2  C    0.284198
     6  N   -0.365595
 Electronic spatial extent (au):  <R**2>=            155.8236
 Charge=             -0.0000 electrons
 Dipole moment (field-independent basis, Debye):
    X=              3.5340    Y=             -0.0796    Z=              0.0485  Tot=              3.5353
 Quadrupole moment (field-independent basis, Debye-Ang):
   XX=            -20.5288   YY=            -17.0191   ZZ=            -17.2070
   XY=              0.3226   XZ=              0.0450   YZ=             -0.0195
 Traceless Quadrupole moment (field-independent basis, Debye-Ang):
   XX=             -2.2772   YY=              1.2325   ZZ=              1.0447
   XY=              0.3226   XZ=              0.0450   YZ=             -0.0195
 Octapole moment (field-independent basis, Debye-Ang**2):
  XXX=              9.0005  YYY=              0.6508  ZZZ=              0.8662  XYY=              1.3946
  XXY=             -0.7858  XXZ=              0.2046  XZZ=              1.1593  YZZ=              0.3941
  YYZ=             -0.8130  XYZ=              0.1639
 Hexadecapole moment (field-independent basis, Debye-Ang**3):
 XXXX=           -167.7674 YYYY=            -24.4433 ZZZZ=            -22.6083 XXXY=              0.2654
 XXXZ=              0.1935 YYYX=              0.1222 YYYZ=             -0.3961 ZZZX=              1.4648
 ZZZY=              0.0561 XXYY=            -28.5211 XXZZ=            -28.4334 YYZZ=             -7.7631
 XXYZ=              0.5817 YYXZ=             -1.2011 ZZXY=              0.3370
 N-N= 5.916314512119D+01 E-N=-4.266087003916D+02  KE= 1.315918307849D+02
 1\1\GINC-NODE60\SP\RB3LYP\6-31G(d)\C2H3N1\YANZ\22-Sep-2023\0\\# b3lyp/
 6-31g(d)\\tmpdir/M2_ref_47.gjf\\0,1\C,0,1.277293,-0.226303,0.321176\C,
 0,0.167485,-1.164485,0.154552\H,0,0.90895302,0.76765256,-0.05753003\H,
 0,1.51941,-0.134405,1.395353\H,0,2.22784672,-0.59522038,-0.25125675\N,
 0,-0.9009412,-1.47035365,0.06729923\\Version=ES64L-G16RevA.03\State=1-
 A\HF=-132.7370246\RMSD=3.877e-09\Dipole=1.2075138,0.6728888,0.1538489\
 Quadrupole=-1.2108533,0.4449829,0.7658704,-1.0278338,-0.1677527,-0.059
 7202\PG=C01 [X(C2H3N1)]\\@


 It is also a good rule not to put too much confidence in
 experimental results until they have been confirmed by
 Theory.
                             -- Sir Arthur Eddington
 Job cpu time:       0 days  0 hours  0 minutes  8.7 seconds.
 Elapsed time:       0 days  0 hours  0 minutes  4.4 seconds.
 File lengths (MBytes):  RWF=      6 Int=      0 D2E=      0 Chk=      1 Scr=      1
 Normal termination of Gaussian 16 at Fri Sep 22 17:01:47 2023.
