 Entering Gaussian System, Link 0=g16
 Initial command:
 /share/apps/gaussian/g16/l1.exe "/tmp/55621.mgr/Gau-117761.inp" -scrdir="/tmp/55621.mgr/"
 Entering Link 1 = /share/apps/gaussian/g16/l1.exe PID=    117771.
  
 Copyright (c) 1988,1990,1992,1993,1995,1998,2003,2009,2016,
            Gaussian, Inc.  All Rights Reserved.
  
 This is part of the Gaussian(R) 16 program.  It is based on
 the Gaussian(R) 09 system (copyright 2009, Gaussian, Inc.),
 the Gaussian(R) 03 system (copyright 2003, Gaussian, Inc.),
 the Gaussian(R) 98 system (copyright 1998, Gaussian, Inc.),
 the Gaussian(R) 94 system (copyright 1995, Gaussian, Inc.),
 the Gaussian 92(TM) system (copyright 1992, Gaussian, Inc.),
 the Gaussian 90(TM) system (copyright 1990, Gaussian, Inc.),
 the Gaussian 88(TM) system (copyright 1988, Gaussian, Inc.),
 the Gaussian 86(TM) system (copyright 1986, Carnegie Mellon
 University), and the Gaussian 82(TM) system (copyright 1983,
 Carnegie Mellon University). Gaussian is a federally registered
 trademark of Gaussian, Inc.
  
 This software contains proprietary and confidential information,
 including trade secrets, belonging to Gaussian, Inc.
  
 This software is provided under written license and may be
 used, copied, transmitted, or stored only in accord with that
 written license.
  
 The following legend is applicable only to US Government
 contracts under FAR:
  
                    RESTRICTED RIGHTS LEGEND
  
 Use, reproduction and disclosure by the US Government is
 subject to restrictions as set forth in subparagraphs (a)
 and (c) of the Commercial Computer Software - Restricted
 Rights clause in FAR 52.227-19.
  
 Gaussian, Inc.
 340 Quinnipiac St., Bldg. 40, Wallingford CT 06492
  
  
 ---------------------------------------------------------------
 Warning -- This program may not be used in any manner that
 competes with the business of Gaussian, Inc. or will provide
 assistance to any competitor of Gaussian, Inc.  The licensee
 of this program is prohibited from giving any competitor of
 Gaussian, Inc. access to this program.  By using this program,
 the user acknowledges that Gaussian, Inc. is engaged in the
 business of creating and licensing software in the field of
 computational chemistry and represents and warrants to the
 licensee that it is not a competitor of Gaussian, Inc. and that
 it will not use this program in any manner prohibited above.
 ---------------------------------------------------------------
  

 Cite this work as:
 Gaussian 16, Revision A.03,
 M. J. Frisch, G. W. Trucks, H. B. Schlegel, G. E. Scuseria, 
 M. A. Robb, J. R. Cheeseman, G. Scalmani, V. Barone, 
 G. A. Petersson, H. Nakatsuji, X. Li, M. Caricato, A. V. Marenich, 
 J. Bloino, B. G. Janesko, R. Gomperts, B. Mennucci, H. P. Hratchian, 
 J. V. Ortiz, A. F. Izmaylov, J. L. Sonnenberg, D. Williams-Young, 
 F. Ding, F. Lipparini, F. Egidi, J. Goings, B. Peng, A. Petrone, 
 T. Henderson, D. Ranasinghe, V. G. Zakrzewski, J. Gao, N. Rega, 
 G. Zheng, W. Liang, M. Hada, M. Ehara, K. Toyota, R. Fukuda, 
 J. Hasegawa, M. Ishida, T. Nakajima, Y. Honda, O. Kitao, H. Nakai, 
 T. Vreven, K. Throssell, J. A. Montgomery, Jr., J. E. Peralta, 
 F. Ogliaro, M. J. Bearpark, J. J. Heyd, E. N. Brothers, K. N. Kudin, 
 V. N. Staroverov, T. A. Keith, R. Kobayashi, J. Normand, 
 K. Raghavachari, A. P. Rendell, J. C. Burant, S. S. Iyengar, 
 J. Tomasi, M. Cossi, J. M. Millam, M. Klene, C. Adamo, R. Cammi, 
 J. W. Ochterski, R. L. Martin, K. Morokuma, O. Farkas, 
 J. B. Foresman, and D. J. Fox, Gaussian, Inc., Wallingford CT, 2016.
 
 ******************************************
 Gaussian 16:  ES64L-G16RevA.03 25-Dec-2016
                22-Sep-2023 
 ******************************************
 %nprocshared=2
 Will use up to    2 processors via shared memory.
 %mem=2GB
 ----------------
 # b3lyp/6-31g(d)
 ----------------
 1/38=1,172=1/1;
 2/12=2,17=6,18=5,40=1/2;
 3/5=1,6=6,7=1,11=2,25=1,30=1,74=-5/1,2,3;
 4//1;
 5/5=2,38=5/2;
 6/7=2,8=2,9=2,10=2,28=1/1;
 99/5=1,9=1/99;
 --------------------
 tmpdir/M2_ref_21.gjf
 --------------------
 Symbolic Z-matrix:
 Charge =  0 Multiplicity = 1
 C                    -2.80943   0.09913   0.20928 
 H                    -3.84544   0.26372  -0.1157 
 H                    -2.15089   0.88446  -0.24887 
 H                    -2.53801  -0.96539  -0.03583 
 H                    -2.80456   0.21851   1.30042 
 
                          Input orientation:                          
 ---------------------------------------------------------------------
 Center     Atomic      Atomic             Coordinates (Angstroms)
 Number     Number       Type             X           Y           Z
 ---------------------------------------------------------------------
      1          6           0       -2.809433    0.099125    0.209283
      2          1           0       -3.845443    0.263720   -0.115704
      3          1           0       -2.150891    0.884462   -0.248871
      4          1           0       -2.538006   -0.965386   -0.035831
      5          1           0       -2.804560    0.218507    1.300420
 ---------------------------------------------------------------------
                    Distance matrix (angstroms):
                    1          2          3          4          5
     1  C    0.000000
     2  H    1.098192   0.000000
     3  H    1.122647   1.809574   0.000000
     4  H    1.125583   1.796239   1.901890   0.000000
     5  H    1.097659   1.758092   1.808613   1.805054   0.000000
 Stoichiometry    CH4
 Framework group  C1[X(CH4)]
 Deg. of freedom     9
 Full point group                 C1      NOp   1
 Largest Abelian subgroup         C1      NOp   1
 Largest concise Abelian subgroup C1      NOp   1
                         Standard orientation:                         
 ---------------------------------------------------------------------
 Center     Atomic      Atomic             Coordinates (Angstroms)
 Number     Number       Type             X           Y           Z
 ---------------------------------------------------------------------
      1          6           0       -0.002850   -0.011314   -0.002447
      2          1           0        0.067698    0.515862    0.958351
      3          1           0       -0.977753   -0.566218   -0.046982
      4          1           0        0.921321   -0.643843   -0.115374
      5          1           0        0.005837    0.762085   -0.781314
 ---------------------------------------------------------------------
 Rotational constants (GHZ):         160.3254450         149.5098201         147.7999643
 Standard basis: 6-31G(d) (6D, 7F)
 There are    23 symmetry adapted cartesian basis functions of A   symmetry.
 There are    23 symmetry adapted basis functions of A   symmetry.
    23 basis functions,    44 primitive gaussians,    23 cartesian basis functions
     5 alpha electrons        5 beta electrons
       nuclear repulsion energy        13.1847791503 Hartrees.
 NAtoms=    5 NActive=    5 NUniq=    5 SFac= 1.00D+00 NAtFMM=   60 NAOKFM=F Big=F
 Integral buffers will be    131072 words long.
 Raffenetti 2 integral format.
 Two-electron integral symmetry is turned on.
 One-electron integrals computed using PRISM.
 NBasis=    23 RedAO= T EigKep=  1.89D-02  NBF=    23
 NBsUse=    23 1.00D-06 EigRej= -1.00D+00 NBFU=    23
 ExpMin= 1.61D-01 ExpMax= 3.05D+03 ExpMxC= 4.57D+02 IAcc=3 IRadAn=         5 AccDes= 0.00D+00
 Harris functional with IExCor=  402 and IRadAn=       5 diagonalized for initial guess.
 HarFok:  IExCor=  402 AccDes= 0.00D+00 IRadAn=         5 IDoV= 1 UseB2=F ITyADJ=14
 ICtDFT=  3500011 ScaDFX=  1.000000  1.000000  1.000000  1.000000
 FoFCou: FMM=F IPFlag=           0 FMFlag=      100000 FMFlg1=           0
         NFxFlg=           0 DoJE=T BraDBF=F KetDBF=T FulRan=T
         wScrn=  0.000000 ICntrl=       500 IOpCl=  0 I1Cent=   200000004 NGrid=           0
         NMat0=    1 NMatS0=      1 NMatT0=    0 NMatD0=    1 NMtDS0=    0 NMtDT0=    0
 Petite list used in FoFCou.
 Keep R1 ints in memory in canonical form, NReq=1762518.
 Requested convergence on RMS density matrix=1.00D-08 within 128 cycles.
 Requested convergence on MAX density matrix=1.00D-06.
 Requested convergence on             energy=1.00D-06.
 No special actions if energy rises.
 Integral accuracy reduced to 1.0D-05 until final iterations.
 Initial convergence to 1.0D-05 achieved.  Increase integral accuracy.
 SCF Done:  E(RB3LYP) =  -40.5161350746     A.U. after    9 cycles
            NFock=  9  Conv=0.60D-08     -V/T= 2.0133

 **********************************************************************

            Population analysis using the SCF density.

 **********************************************************************

 Orbital symmetries:
       Occupied  (A) (A) (A) (A) (A)
       Virtual   (A) (A) (A) (A) (A) (A) (A) (A) (A) (A) (A) (A)
                 (A) (A) (A) (A) (A) (A)
 The electronic state is 1-A.
 Alpha  occ. eigenvalues --  -10.17428  -0.68547  -0.39279  -0.38382  -0.38119
 Alpha virt. eigenvalues --    0.11236   0.16776   0.17093   0.17399   0.53142
 Alpha virt. eigenvalues --    0.53484   0.55113   0.87133   0.88425   0.88940
 Alpha virt. eigenvalues --    0.93304   1.09584   1.65852   1.66208   2.18090
 Alpha virt. eigenvalues --    2.22871   2.24651   4.16578
          Condensed to atoms (all electrons):
               1          2          3          4          5
     1  C    5.099789   0.379944   0.381007   0.380097   0.380318
     2  H    0.379944   0.548411  -0.026900  -0.028333  -0.029985
     3  H    0.381007  -0.026900   0.538517  -0.019757  -0.027126
     4  H    0.380097  -0.028333  -0.019757   0.542608  -0.027392
     5  H    0.380318  -0.029985  -0.027126  -0.027392   0.546930
 Mulliken charges:
               1
     1  C   -0.621155
     2  H    0.156863
     3  H    0.154259
     4  H    0.152778
     5  H    0.157254
 Sum of Mulliken charges =   0.00000
 Mulliken charges with hydrogens summed into heavy atoms:
               1
     1  C    0.000000
 Electronic spatial extent (au):  <R**2>=             36.1405
 Charge=              0.0000 electrons
 Dipole moment (field-independent basis, Debye):
    X=              0.0074    Y=              0.0689    Z=              0.0126  Tot=              0.0704
 Quadrupole moment (field-independent basis, Debye-Ang):
   XX=             -8.0890   YY=             -8.3842   ZZ=             -8.4248
   XY=              0.0087   XZ=              0.0028   YZ=             -0.0046
 Traceless Quadrupole moment (field-independent basis, Debye-Ang):
   XX=              0.2104   YY=             -0.0849   ZZ=             -0.1255
   XY=              0.0087   XZ=              0.0028   YZ=             -0.0046
 Octapole moment (field-independent basis, Debye-Ang**2):
  XXX=             -0.1087  YYY=              0.2880  ZZZ=              0.2779  XYY=              0.0621
  XXY=             -0.7139  XXZ=             -0.0866  XZZ=              0.0559  YZZ=              0.6460
  YYZ=             -0.1550  XYZ=              0.0479
 Hexadecapole moment (field-independent basis, Debye-Ang**3):
 XXXX=            -15.7278 YYYY=            -15.9818 ZZZZ=            -15.2336 XXXY=              0.0429
 XXXZ=             -0.0432 YYYX=             -0.0403 YYYZ=             -0.1957 ZZZX=              0.0647
 ZZZY=              0.0868 XXYY=             -5.0112 XXZZ=             -5.6474 YYZZ=             -4.8977
 XXYZ=              0.0904 YYXZ=             -0.0126 ZZXY=              0.0363
 N-N= 1.318477915029D+01 E-N=-1.193447204692D+02  KE= 3.998351383536D+01
 1\1\GINC-NODE60\SP\RB3LYP\6-31G(d)\C1H4\YANZ\22-Sep-2023\0\\# b3lyp/6-
 31g(d)\\tmpdir/M2_ref_21.gjf\\0,1\C,0,-2.809433,0.099125,0.209283\H,0,
 -3.845443,0.26372,-0.115704\H,0,-2.15089147,0.88446241,-0.24887096\H,0
 ,-2.53800615,-0.96538628,-0.03583059\H,0,-2.80456,0.218507,1.30042\\Ve
 rsion=ES64L-G16RevA.03\State=1-A\HF=-40.5161351\RMSD=6.002e-09\Dipole=
 -0.0226153,0.0048047,0.0152669\Quadrupole=-0.0630734,0.1349808,-0.0719
 073,0.0619819,-0.0228701,-0.0241075\PG=C01 [X(C1H4)]\\@


      HUMANKIND PERIODICALLY GOES THROUGH A SPEEDUP OF ITS AFFAIRS, 
      THEREBY EXPERIENCING THE RACE BETWEEN THE RENEWABLE VITALITY
      OF THE LIVING, AND THE BECKONING VITIATION OF DECADENCE.
      IN THIS PERIODIC RACE, ANY PAUSE BECOMES A LUXURY.
      ONLY THEN CAN ONE REFLECT THAT ALL IS PERMITTED;
      ALL IS POSSIBLE.

                              -- THE APOCRYPHA OF MUAD'DIB
                                 CHILDREN OF DUNE, BY FRANK HERBERT
 Job cpu time:       0 days  0 hours  0 minutes  3.8 seconds.
 Elapsed time:       0 days  0 hours  0 minutes  2.0 seconds.
 File lengths (MBytes):  RWF=      6 Int=      0 D2E=      0 Chk=      1 Scr=      1
 Normal termination of Gaussian 16 at Fri Sep 22 17:01:30 2023.
