 Entering Gaussian System, Link 0=g16
 Initial command:
 /share/apps/gaussian/g16/l1.exe "/tmp/55621.mgr/Gau-118997.inp" -scrdir="/tmp/55621.mgr/"
 Entering Link 1 = /share/apps/gaussian/g16/l1.exe PID=    118998.
  
 Copyright (c) 1988,1990,1992,1993,1995,1998,2003,2009,2016,
            Gaussian, Inc.  All Rights Reserved.
  
 This is part of the Gaussian(R) 16 program.  It is based on
 the Gaussian(R) 09 system (copyright 2009, Gaussian, Inc.),
 the Gaussian(R) 03 system (copyright 2003, Gaussian, Inc.),
 the Gaussian(R) 98 system (copyright 1998, Gaussian, Inc.),
 the Gaussian(R) 94 system (copyright 1995, Gaussian, Inc.),
 the Gaussian 92(TM) system (copyright 1992, Gaussian, Inc.),
 the Gaussian 90(TM) system (copyright 1990, Gaussian, Inc.),
 the Gaussian 88(TM) system (copyright 1988, Gaussian, Inc.),
 the Gaussian 86(TM) system (copyright 1986, Carnegie Mellon
 University), and the Gaussian 82(TM) system (copyright 1983,
 Carnegie Mellon University). Gaussian is a federally registered
 trademark of Gaussian, Inc.
  
 This software contains proprietary and confidential information,
 including trade secrets, belonging to Gaussian, Inc.
  
 This software is provided under written license and may be
 used, copied, transmitted, or stored only in accord with that
 written license.
  
 The following legend is applicable only to US Government
 contracts under FAR:
  
                    RESTRICTED RIGHTS LEGEND
  
 Use, reproduction and disclosure by the US Government is
 subject to restrictions as set forth in subparagraphs (a)
 and (c) of the Commercial Computer Software - Restricted
 Rights clause in FAR 52.227-19.
  
 Gaussian, Inc.
 340 Quinnipiac St., Bldg. 40, Wallingford CT 06492
  
  
 ---------------------------------------------------------------
 Warning -- This program may not be used in any manner that
 competes with the business of Gaussian, Inc. or will provide
 assistance to any competitor of Gaussian, Inc.  The licensee
 of this program is prohibited from giving any competitor of
 Gaussian, Inc. access to this program.  By using this program,
 the user acknowledges that Gaussian, Inc. is engaged in the
 business of creating and licensing software in the field of
 computational chemistry and represents and warrants to the
 licensee that it is not a competitor of Gaussian, Inc. and that
 it will not use this program in any manner prohibited above.
 ---------------------------------------------------------------
  

 Cite this work as:
 Gaussian 16, Revision A.03,
 M. J. Frisch, G. W. Trucks, H. B. Schlegel, G. E. Scuseria, 
 M. A. Robb, J. R. Cheeseman, G. Scalmani, V. Barone, 
 G. A. Petersson, H. Nakatsuji, X. Li, M. Caricato, A. V. Marenich, 
 J. Bloino, B. G. Janesko, R. Gomperts, B. Mennucci, H. P. Hratchian, 
 J. V. Ortiz, A. F. Izmaylov, J. L. Sonnenberg, D. Williams-Young, 
 F. Ding, F. Lipparini, F. Egidi, J. Goings, B. Peng, A. Petrone, 
 T. Henderson, D. Ranasinghe, V. G. Zakrzewski, J. Gao, N. Rega, 
 G. Zheng, W. Liang, M. Hada, M. Ehara, K. Toyota, R. Fukuda, 
 J. Hasegawa, M. Ishida, T. Nakajima, Y. Honda, O. Kitao, H. Nakai, 
 T. Vreven, K. Throssell, J. A. Montgomery, Jr., J. E. Peralta, 
 F. Ogliaro, M. J. Bearpark, J. J. Heyd, E. N. Brothers, K. N. Kudin, 
 V. N. Staroverov, T. A. Keith, R. Kobayashi, J. Normand, 
 K. Raghavachari, A. P. Rendell, J. C. Burant, S. S. Iyengar, 
 J. Tomasi, M. Cossi, J. M. Millam, M. Klene, C. Adamo, R. Cammi, 
 J. W. Ochterski, R. L. Martin, K. Morokuma, O. Farkas, 
 J. B. Foresman, and D. J. Fox, Gaussian, Inc., Wallingford CT, 2016.
 
 ******************************************
 Gaussian 16:  ES64L-G16RevA.03 25-Dec-2016
                22-Sep-2023 
 ******************************************
 %nprocshared=2
 Will use up to    2 processors via shared memory.
 %mem=2GB
 ----------------
 # b3lyp/6-31g(d)
 ----------------
 1/38=1,172=1/1;
 2/12=2,17=6,18=5,40=1/2;
 3/5=1,6=6,7=1,11=2,25=1,30=1,74=-5/1,2,3;
 4//1;
 5/5=2,38=5/2;
 6/7=2,8=2,9=2,10=2,28=1/1;
 99/5=1,9=1/99;
 ---------------------
 tmpdir/M2_ref_106.gjf
 ---------------------
 Symbolic Z-matrix:
 Charge =  0 Multiplicity = 1
 O                     2.43497  -0.67561  -0.37599 
 C                     3.63468  -0.04736   0.02949 
 H                     4.44739  -0.55819  -0.49361 
 H                     1.63987  -0.36702   0.10283 
 H                     3.66711   1.02057  -0.23268 
 H                     3.79547  -0.14356   1.11572 
 
                          Input orientation:                          
 ---------------------------------------------------------------------
 Center     Atomic      Atomic             Coordinates (Angstroms)
 Number     Number       Type             X           Y           Z
 ---------------------------------------------------------------------
      1          8           0        2.434966   -0.675605   -0.375986
      2          6           0        3.634684   -0.047362    0.029488
      3          1           0        4.447390   -0.558189   -0.493610
      4          1           0        1.639866   -0.367020    0.102831
      5          1           0        3.667109    1.020568   -0.232683
      6          1           0        3.795474   -0.143555    1.115716
 ---------------------------------------------------------------------
                    Distance matrix (angstroms):
                    1          2          3          4          5
     1  O    0.000000
     2  C    1.413655   0.000000
     3  H    2.019275   1.093191   0.000000
     4  H    0.978098   2.021598   2.876540   0.000000
     5  H    2.101360   1.100118   1.780279   2.479453   0.000000
     6  H    2.087878   1.102269   1.785174   2.392179   1.786012
                    6
     6  H    0.000000
 Stoichiometry    CH4O
 Framework group  C1[X(CH4O)]
 Deg. of freedom    12
 Full point group                 C1      NOp   1
 Largest Abelian subgroup         C1      NOp   1
 Largest concise Abelian subgroup C1      NOp   1
                         Standard orientation:                         
 ---------------------------------------------------------------------
 Center     Atomic      Atomic             Coordinates (Angstroms)
 Number     Number       Type             X           Y           Z
 ---------------------------------------------------------------------
      1          8           0       -0.739441    0.123072    0.000815
      2          6           0        0.666675   -0.022730    0.000630
      3          1           0        1.084925    0.979583   -0.123883
      4          1           0       -1.229643   -0.723284    0.008395
      5          1           0        1.051906   -0.448035    0.939231
      6          1           0        1.008292   -0.656464   -0.834041
 ---------------------------------------------------------------------
 Rotational constants (GHZ):         128.6676526          24.7038056          23.8679377
 Standard basis: 6-31G(d) (6D, 7F)
 There are    38 symmetry adapted cartesian basis functions of A   symmetry.
 There are    38 symmetry adapted basis functions of A   symmetry.
    38 basis functions,    72 primitive gaussians,    38 cartesian basis functions
     9 alpha electrons        9 beta electrons
       nuclear repulsion energy        40.1850290043 Hartrees.
 NAtoms=    6 NActive=    6 NUniq=    6 SFac= 1.00D+00 NAtFMM=   60 NAOKFM=F Big=F
 Integral buffers will be    131072 words long.
 Raffenetti 2 integral format.
 Two-electron integral symmetry is turned on.
 One-electron integrals computed using PRISM.
 NBasis=    38 RedAO= T EigKep=  9.73D-03  NBF=    38
 NBsUse=    38 1.00D-06 EigRej= -1.00D+00 NBFU=    38
 ExpMin= 1.61D-01 ExpMax= 5.48D+03 ExpMxC= 8.25D+02 IAcc=3 IRadAn=         5 AccDes= 0.00D+00
 Harris functional with IExCor=  402 and IRadAn=       5 diagonalized for initial guess.
 HarFok:  IExCor=  402 AccDes= 0.00D+00 IRadAn=         5 IDoV= 1 UseB2=F ITyADJ=14
 ICtDFT=  3500011 ScaDFX=  1.000000  1.000000  1.000000  1.000000
 FoFCou: FMM=F IPFlag=           0 FMFlag=      100000 FMFlg1=           0
         NFxFlg=           0 DoJE=T BraDBF=F KetDBF=T FulRan=T
         wScrn=  0.000000 ICntrl=       500 IOpCl=  0 I1Cent=   200000004 NGrid=           0
         NMat0=    1 NMatS0=      1 NMatT0=    0 NMatD0=    1 NMtDS0=    0 NMtDT0=    0
 Petite list used in FoFCou.
 Keep R1 ints in memory in canonical form, NReq=2001161.
 Requested convergence on RMS density matrix=1.00D-08 within 128 cycles.
 Requested convergence on MAX density matrix=1.00D-06.
 Requested convergence on             energy=1.00D-06.
 No special actions if energy rises.
 Integral accuracy reduced to 1.0D-05 until final iterations.
 Initial convergence to 1.0D-05 achieved.  Increase integral accuracy.
 SCF Done:  E(RB3LYP) =  -115.713023273     A.U. after   11 cycles
            NFock= 11  Conv=0.56D-08     -V/T= 2.0090

 **********************************************************************

            Population analysis using the SCF density.

 **********************************************************************

 Orbital symmetries:
       Occupied  (A) (A) (A) (A) (A) (A) (A) (A) (A)
       Virtual   (A) (A) (A) (A) (A) (A) (A) (A) (A) (A) (A) (A)
                 (A) (A) (A) (A) (A) (A) (A) (A) (A) (A) (A) (A)
                 (A) (A) (A) (A) (A)
 The electronic state is 1-A.
 Alpha  occ. eigenvalues --  -19.13668 -10.22470  -1.00461  -0.67937  -0.50237
 Alpha  occ. eigenvalues --   -0.43277  -0.42192  -0.31993  -0.26164
 Alpha virt. eigenvalues --    0.07361   0.12942   0.16863   0.17619   0.20911
 Alpha virt. eigenvalues --    0.53726   0.56282   0.57797   0.78398   0.84996
 Alpha virt. eigenvalues --    0.86954   0.90242   0.95765   0.97677   1.01571
 Alpha virt. eigenvalues --    1.12316   1.46236   1.50263   1.60962   1.74926
 Alpha virt. eigenvalues --    2.03234   2.09716   2.14201   2.32728   2.40216
 Alpha virt. eigenvalues --    2.47913   2.78653   3.70582   4.21649
          Condensed to atoms (all electrons):
               1          2          3          4          5          6
     1  O    8.226437   0.268594  -0.038966   0.235929  -0.038613  -0.037116
     2  C    0.268594   4.826400   0.389413  -0.027161   0.366573   0.368275
     3  H   -0.038966   0.389413   0.555988   0.006366  -0.039349  -0.034876
     4  H    0.235929  -0.027161   0.006366   0.403115  -0.003441  -0.005770
     5  H   -0.038613   0.366573  -0.039349  -0.003441   0.635811  -0.049881
     6  H   -0.037116   0.368275  -0.034876  -0.005770  -0.049881   0.632294
 Mulliken charges:
               1
     1  O   -0.616265
     2  C   -0.192095
     3  H    0.161423
     4  H    0.390961
     5  H    0.128901
     6  H    0.127074
 Sum of Mulliken charges =   0.00000
 Mulliken charges with hydrogens summed into heavy atoms:
               1
     1  O   -0.225303
     2  C    0.225303
 Electronic spatial extent (au):  <R**2>=             84.1635
 Charge=              0.0000 electrons
 Dipole moment (field-independent basis, Debye):
    X=              0.5946    Y=             -1.4913    Z=             -0.0070  Tot=              1.6055
 Quadrupole moment (field-independent basis, Debye-Ang):
   XX=            -12.1369   YY=            -12.1406   ZZ=            -13.5868
   XY=              2.3274   XZ=             -0.0290   YZ=             -0.0282
 Traceless Quadrupole moment (field-independent basis, Debye-Ang):
   XX=              0.4845   YY=              0.4808   ZZ=             -0.9654
   XY=              2.3274   XZ=             -0.0290   YZ=             -0.0282
 Octapole moment (field-independent basis, Debye-Ang**2):
  XXX=             -5.5574  YYY=             -0.3881  ZZZ=              0.0946  XYY=             -1.8300
  XXY=             -2.3698  XXZ=              0.0159  XZZ=             -0.6728  YZZ=             -0.4626
  YYZ=             -0.1534  XYZ=             -0.0183
 Hexadecapole moment (field-independent basis, Debye-Ang**3):
 XXXX=            -58.7903 YYYY=            -19.4835 ZZZZ=            -19.1048 XXXY=              4.2000
 XXXZ=             -0.0426 YYYX=              2.6825 YYYZ=             -0.0516 ZZZX=              0.1072
 ZZZY=             -0.0115 XXYY=            -12.1023 XXZZ=            -13.8138 YYZZ=             -6.5433
 XXYZ=             -0.0875 YYXZ=             -0.1952 ZZXY=              0.0249
 N-N= 4.018502900430D+01 E-N=-3.514958538177D+02  KE= 1.146785110727D+02
 1\1\GINC-NODE60\SP\RB3LYP\6-31G(d)\C1H4O1\YANZ\22-Sep-2023\0\\# b3lyp/
 6-31g(d)\\tmpdir/M2_ref_106.gjf\\0,1\O,0,2.434966,-0.675605,-0.375986\
 C,0,3.634684,-0.047362,0.029488\H,0,4.44739,-0.558189,-0.49361\H,0,1.6
 3986576,-0.36702034,0.10283114\H,0,3.667109,1.020568,-0.232683\H,0,3.7
 95474,-0.143555,1.115716\\Version=ES64L-G16RevA.03\State=1-A\HF=-115.7
 130233\RMSD=5.592e-09\Dipole=-0.035582,0.4299682,0.4613488\Quadrupole=
 1.6451931,-0.9654156,-0.6797776,-0.5321372,-1.0120968,-0.1530205\PG=C0
 1 [X(C1H4O1)]\\@


 COLLEGE PROFESSOR: SOMEONE WHO TALKS IN OTHER PEOPLE'S SLEEP.
 Job cpu time:       0 days  0 hours  0 minutes  6.1 seconds.
 Elapsed time:       0 days  0 hours  0 minutes  3.1 seconds.
 File lengths (MBytes):  RWF=      6 Int=      0 D2E=      0 Chk=      1 Scr=      1
 Normal termination of Gaussian 16 at Fri Sep 22 17:02:05 2023.
