 Entering Gaussian System, Link 0=g16
 Initial command:
 /share/apps/gaussian/g16/l1.exe "/tmp/55622.mgr/Gau-177124.inp" -scrdir="/tmp/55622.mgr/"
 Entering Link 1 = /share/apps/gaussian/g16/l1.exe PID=    177125.
  
 Copyright (c) 1988,1990,1992,1993,1995,1998,2003,2009,2016,
            Gaussian, Inc.  All Rights Reserved.
  
 This is part of the Gaussian(R) 16 program.  It is based on
 the Gaussian(R) 09 system (copyright 2009, Gaussian, Inc.),
 the Gaussian(R) 03 system (copyright 2003, Gaussian, Inc.),
 the Gaussian(R) 98 system (copyright 1998, Gaussian, Inc.),
 the Gaussian(R) 94 system (copyright 1995, Gaussian, Inc.),
 the Gaussian 92(TM) system (copyright 1992, Gaussian, Inc.),
 the Gaussian 90(TM) system (copyright 1990, Gaussian, Inc.),
 the Gaussian 88(TM) system (copyright 1988, Gaussian, Inc.),
 the Gaussian 86(TM) system (copyright 1986, Carnegie Mellon
 University), and the Gaussian 82(TM) system (copyright 1983,
 Carnegie Mellon University). Gaussian is a federally registered
 trademark of Gaussian, Inc.
  
 This software contains proprietary and confidential information,
 including trade secrets, belonging to Gaussian, Inc.
  
 This software is provided under written license and may be
 used, copied, transmitted, or stored only in accord with that
 written license.
  
 The following legend is applicable only to US Government
 contracts under FAR:
  
                    RESTRICTED RIGHTS LEGEND
  
 Use, reproduction and disclosure by the US Government is
 subject to restrictions as set forth in subparagraphs (a)
 and (c) of the Commercial Computer Software - Restricted
 Rights clause in FAR 52.227-19.
  
 Gaussian, Inc.
 340 Quinnipiac St., Bldg. 40, Wallingford CT 06492
  
  
 ---------------------------------------------------------------
 Warning -- This program may not be used in any manner that
 competes with the business of Gaussian, Inc. or will provide
 assistance to any competitor of Gaussian, Inc.  The licensee
 of this program is prohibited from giving any competitor of
 Gaussian, Inc. access to this program.  By using this program,
 the user acknowledges that Gaussian, Inc. is engaged in the
 business of creating and licensing software in the field of
 computational chemistry and represents and warrants to the
 licensee that it is not a competitor of Gaussian, Inc. and that
 it will not use this program in any manner prohibited above.
 ---------------------------------------------------------------
  

 Cite this work as:
 Gaussian 16, Revision A.03,
 M. J. Frisch, G. W. Trucks, H. B. Schlegel, G. E. Scuseria, 
 M. A. Robb, J. R. Cheeseman, G. Scalmani, V. Barone, 
 G. A. Petersson, H. Nakatsuji, X. Li, M. Caricato, A. V. Marenich, 
 J. Bloino, B. G. Janesko, R. Gomperts, B. Mennucci, H. P. Hratchian, 
 J. V. Ortiz, A. F. Izmaylov, J. L. Sonnenberg, D. Williams-Young, 
 F. Ding, F. Lipparini, F. Egidi, J. Goings, B. Peng, A. Petrone, 
 T. Henderson, D. Ranasinghe, V. G. Zakrzewski, J. Gao, N. Rega, 
 G. Zheng, W. Liang, M. Hada, M. Ehara, K. Toyota, R. Fukuda, 
 J. Hasegawa, M. Ishida, T. Nakajima, Y. Honda, O. Kitao, H. Nakai, 
 T. Vreven, K. Throssell, J. A. Montgomery, Jr., J. E. Peralta, 
 F. Ogliaro, M. J. Bearpark, J. J. Heyd, E. N. Brothers, K. N. Kudin, 
 V. N. Staroverov, T. A. Keith, R. Kobayashi, J. Normand, 
 K. Raghavachari, A. P. Rendell, J. C. Burant, S. S. Iyengar, 
 J. Tomasi, M. Cossi, J. M. Millam, M. Klene, C. Adamo, R. Cammi, 
 J. W. Ochterski, R. L. Martin, K. Morokuma, O. Farkas, 
 J. B. Foresman, and D. J. Fox, Gaussian, Inc., Wallingford CT, 2016.
 
 ******************************************
 Gaussian 16:  ES64L-G16RevA.03 25-Dec-2016
                22-Sep-2023 
 ******************************************
 %nprocshared=4
 Will use up to    4 processors via shared memory.
 %mem=4GB
 ----------------
 # b3lyp/6-31g(d)
 ----------------
 1/38=1,172=1/1;
 2/12=2,17=6,18=5,40=1/2;
 3/5=1,6=6,7=1,11=2,25=1,30=1,74=-5/1,2,3;
 4//1;
 5/5=2,38=5/2;
 6/7=2,8=2,9=2,10=2,28=1/1;
 99/5=1,9=1/99;
 -----------------------
 tmpdir/M3_conf_0_71.gjf
 -----------------------
 Symbolic Z-matrix:
 Charge =  0 Multiplicity = 1
 H                     0.        0.        0. 
 C                     1.0978    0.        0. 
 C                     1.62119   0.        1.41948 
 C                     2.95818   0.32967   1.68238 
 C                     0.78864  -0.35624   2.48598 
 C                     3.44977   0.30558   2.98596 
 H                     3.61385   0.60057   0.85827 
 C                     1.27845  -0.37972   3.79377 
 H                    -0.25097  -0.6127    2.2937 
 C                     2.60963  -0.04891   4.04561 
 H                     4.48734   0.56587   3.17729 
 H                     0.61975  -0.65599   4.6126 
 H                     2.99288  -0.06563   5.06224 
 H                     1.49139  -0.89308  -0.65125 
 H                     1.42986   0.88688  -0.54412 
 
                          Input orientation:                          
 ---------------------------------------------------------------------
 Center     Atomic      Atomic             Coordinates (Angstroms)
 Number     Number       Type             X           Y           Z
 ---------------------------------------------------------------------
      1          1           0        0.000000    0.000000    0.000000
      2          6           0        1.097800    0.000000    0.000000
      3          6           0        1.621190    0.000000    1.419480
      4          6           0        2.958180    0.329670    1.682380
      5          6           0        0.788640   -0.356240    2.485980
      6          6           0        3.449770    0.305580    2.985960
      7          1           0        3.613850    0.600570    0.858270
      8          6           0        1.278450   -0.379720    3.793770
      9          1           0       -0.250970   -0.612700    2.293700
     10          6           0        2.609630   -0.048910    4.045610
     11          1           0        4.487340    0.565870    3.177290
     12          1           0        0.619750   -0.655990    4.612600
     13          1           0        2.992880   -0.065630    5.062240
     14          1           0        1.491390   -0.893080   -0.651250
     15          1           0        1.429860    0.886880   -0.544120
 ---------------------------------------------------------------------
                    Distance matrix (angstroms):
                    1          2          3          4          5
     1  H    0.000000
     2  C    1.097800   0.000000
     3  C    2.154804   1.512898   0.000000
     4  C    3.419052   2.529842   1.401906   0.000000
     5  C    2.632291   2.530333   1.399096   2.413120   0.000000
     6  C    4.572773   3.813279   2.427127   1.393399   2.787400
     7  H    3.762609   2.725403   2.155536   1.087404   3.398049
     8  C    4.021357   3.817003   2.428767   2.789748   1.396703
     9  H    2.387351   2.730502   2.155144   3.400061   1.087903
    10  C    4.814512   4.319141   2.806415   2.418608   2.417210
    11  H    5.527350   4.680210   3.409534   2.151482   3.874091
    12  H    4.700052   4.683475   3.410164   3.876335   2.154272
    13  H    5.881149   5.405729   3.893012   3.403075   3.402976
    14  H    1.856330   1.173299   2.258841   3.015364   3.259489
    15  H    1.768367   1.092193   2.163074   2.757453   3.337367
                    6          7          8          9         10
     6  C    0.000000
     7  H    2.154299   0.000000
     8  C    2.415952   3.877141   0.000000
     9  H    3.875299   4.297594   2.154905   0.000000
    10  C    1.397983   3.404323   1.394596   3.401482   0.000000
    11  H    1.086697   2.478314   3.401641   4.961990   2.158177
    12  H    3.402879   4.963726   1.086597   2.477362   2.156304
    13  H    2.158120   4.301487   2.155676   4.299612   1.086599
    14  H    4.301318   3.002412   4.479630   3.433244   4.901385
    15  H    4.108456   2.611223   4.521558   3.623141   4.830443
                   11         12         13         14         15
    11  H    0.000000
    12  H    4.302477   0.000000
    13  H    2.487014   2.486453   0.000000
    14  H    5.075625   5.340794   5.965158   0.000000
    15  H    4.827020   5.443206   5.897591   1.784242   0.000000
 Stoichiometry    C7H8
 Framework group  C1[X(C7H8)]
 Deg. of freedom    39
 Full point group                 C1      NOp   1
 Largest Abelian subgroup         C1      NOp   1
 Largest concise Abelian subgroup C1      NOp   1
                         Standard orientation:                         
 ---------------------------------------------------------------------
 Center     Atomic      Atomic             Coordinates (Angstroms)
 Number     Number       Type             X           Y           Z
 ---------------------------------------------------------------------
      1          1           0       -2.799057    0.999813   -0.281728
      2          6           0       -2.418727    0.010513    0.004277
      3          6           0       -0.905934    0.006291   -0.013064
      4          6           0       -0.200024   -1.204915   -0.009488
      5          6           0       -0.189799    1.208177   -0.003675
      6          6           0        1.193322   -1.211855    0.000547
      7          1           0       -0.749072   -2.143527   -0.009332
      8          6           0        1.206872    1.204055    0.004855
      9          1           0       -0.727305    2.154012   -0.007658
     10          6           0        1.900382   -0.005878    0.007022
     11          1           0        1.729185   -2.157244    0.000427
     12          1           0        1.749981    2.145173    0.009633
     13          1           0        2.986949   -0.011757    0.012831
     14          1           0       -2.882714   -0.306891    1.034133
     15          1           0       -2.824519   -0.717907   -0.701148
 ---------------------------------------------------------------------
 Rotational constants (GHZ):           5.5007421           2.5156309           1.7459702
 Standard basis: 6-31G(d) (6D, 7F)
 There are   121 symmetry adapted cartesian basis functions of A   symmetry.
 There are   121 symmetry adapted basis functions of A   symmetry.
   121 basis functions,   228 primitive gaussians,   121 cartesian basis functions
    25 alpha electrons       25 beta electrons
       nuclear repulsion energy       268.4164031840 Hartrees.
 NAtoms=   15 NActive=   15 NUniq=   15 SFac= 1.00D+00 NAtFMM=   60 NAOKFM=F Big=F
 Integral buffers will be    131072 words long.
 Raffenetti 2 integral format.
 Two-electron integral symmetry is turned on.
 One-electron integrals computed using PRISM.
 NBasis=   121 RedAO= T EigKep=  4.75D-04  NBF=   121
 NBsUse=   121 1.00D-06 EigRej= -1.00D+00 NBFU=   121
 ExpMin= 1.61D-01 ExpMax= 3.05D+03 ExpMxC= 4.57D+02 IAcc=3 IRadAn=         5 AccDes= 0.00D+00
 Harris functional with IExCor=  402 and IRadAn=       5 diagonalized for initial guess.
 HarFok:  IExCor=  402 AccDes= 0.00D+00 IRadAn=         5 IDoV= 1 UseB2=F ITyADJ=14
 ICtDFT=  3500011 ScaDFX=  1.000000  1.000000  1.000000  1.000000
 FoFCou: FMM=F IPFlag=           0 FMFlag=      100000 FMFlg1=           0
         NFxFlg=           0 DoJE=T BraDBF=F KetDBF=T FulRan=T
         wScrn=  0.000000 ICntrl=       500 IOpCl=  0 I1Cent=   200000004 NGrid=           0
         NMat0=    1 NMatS0=      1 NMatT0=    0 NMatD0=    1 NMtDS0=    0 NMtDT0=    0
 Petite list used in FoFCou.
 Keep R1 ints in memory in canonical form, NReq=31029057.
 Requested convergence on RMS density matrix=1.00D-08 within 128 cycles.
 Requested convergence on MAX density matrix=1.00D-06.
 Requested convergence on             energy=1.00D-06.
 No special actions if energy rises.
 Integral accuracy reduced to 1.0D-05 until final iterations.
 Initial convergence to 1.0D-05 achieved.  Increase integral accuracy.
 SCF Done:  E(RB3LYP) =  -271.563095831     A.U. after   13 cycles
            NFock= 13  Conv=0.43D-08     -V/T= 2.0104

 **********************************************************************

            Population analysis using the SCF density.

 **********************************************************************

 Orbital symmetries:
       Occupied  (A) (A) (A) (A) (A) (A) (A) (A) (A) (A) (A) (A)
                 (A) (A) (A) (A) (A) (A) (A) (A) (A) (A) (A) (A)
                 (A)
       Virtual   (A) (A) (A) (A) (A) (A) (A) (A) (A) (A) (A) (A)
                 (A) (A) (A) (A) (A) (A) (A) (A) (A) (A) (A) (A)
                 (A) (A) (A) (A) (A) (A) (A) (A) (A) (A) (A) (A)
                 (A) (A) (A) (A) (A) (A) (A) (A) (A) (A) (A) (A)
                 (A) (A) (A) (A) (A) (A) (A) (A) (A) (A) (A) (A)
                 (A) (A) (A) (A) (A) (A) (A) (A) (A) (A) (A) (A)
                 (A) (A) (A) (A) (A) (A) (A) (A) (A) (A) (A) (A)
                 (A) (A) (A) (A) (A) (A) (A) (A) (A) (A) (A) (A)
 The electronic state is 1-A.
 Alpha  occ. eigenvalues --  -10.19319 -10.18801 -10.18518 -10.18495 -10.18331
 Alpha  occ. eigenvalues --  -10.18276 -10.18235  -0.84828  -0.76339  -0.73806
 Alpha  occ. eigenvalues --   -0.67621  -0.59913  -0.57696  -0.50502  -0.45223
 Alpha  occ. eigenvalues --   -0.45083  -0.41520  -0.40511  -0.40173  -0.38148
 Alpha  occ. eigenvalues --   -0.34603  -0.33572  -0.33484  -0.24456  -0.23519
 Alpha virt. eigenvalues --    0.00294   0.00645   0.09513   0.11624   0.13586
 Alpha virt. eigenvalues --    0.14070   0.16253   0.17468   0.18838   0.19251
 Alpha virt. eigenvalues --    0.20370   0.24080   0.31057   0.32050   0.32953
 Alpha virt. eigenvalues --    0.35158   0.45711   0.51592   0.52405   0.54858
 Alpha virt. eigenvalues --    0.55570   0.56961   0.57823   0.60022   0.60479
 Alpha virt. eigenvalues --    0.61580   0.62083   0.63302   0.65372   0.66828
 Alpha virt. eigenvalues --    0.72132   0.72611   0.74785   0.76762   0.83541
 Alpha virt. eigenvalues --    0.84236   0.84500   0.85406   0.87032   0.90810
 Alpha virt. eigenvalues --    0.92459   0.94020   0.95379   0.96938   1.00916
 Alpha virt. eigenvalues --    1.08995   1.11895   1.13937   1.18933   1.19671
 Alpha virt. eigenvalues --    1.26433   1.36179   1.38541   1.44494   1.45068
 Alpha virt. eigenvalues --    1.47545   1.48856   1.50086   1.51891   1.79120
 Alpha virt. eigenvalues --    1.80448   1.82992   1.89428   1.90302   1.91044
 Alpha virt. eigenvalues --    1.92255   1.97947   2.05850   2.07916   2.10237
 Alpha virt. eigenvalues --    2.14356   2.16230   2.17898   2.24412   2.28599
 Alpha virt. eigenvalues --    2.31487   2.33002   2.35489   2.41842   2.57455
 Alpha virt. eigenvalues --    2.58008   2.66397   2.72585   2.73905   2.74396
 Alpha virt. eigenvalues --    2.77393   2.87062   3.05399   3.41404   4.09020
 Alpha virt. eigenvalues --    4.11767   4.12113   4.22763   4.33387   4.39734
 Alpha virt. eigenvalues --    4.69625
          Condensed to atoms (all electrons):
               1          2          3          4          5          6
     1  H    0.559283   0.361732  -0.029992   0.003696  -0.003018  -0.000190
     2  C    0.361732   5.232377   0.346005  -0.067153  -0.057744   0.006801
     3  C   -0.029992   0.346005   4.602499   0.546610   0.562733  -0.017403
     4  C    0.003696  -0.067153   0.546610   4.956029  -0.032585   0.526810
     5  C   -0.003018  -0.057744   0.562733  -0.032585   4.943976  -0.047077
     6  C   -0.000190   0.006801  -0.017403   0.526810  -0.047077   4.867078
     7  H    0.000054  -0.009331  -0.048231   0.357625   0.005963  -0.046450
     8  C    0.000110   0.007463  -0.021659  -0.047962   0.522426  -0.026078
     9  H    0.006970  -0.010937  -0.043131   0.006342   0.353438   0.000349
    10  C    0.000007   0.000381  -0.035154  -0.035506  -0.036188   0.547818
    11  H    0.000003  -0.000194   0.003665  -0.040195   0.000888   0.355828
    12  H   -0.000007  -0.000196   0.003806   0.000891  -0.039799   0.004524
    13  H   -0.000000   0.000008   0.000770   0.004643   0.004683  -0.043169
    14  H   -0.024539   0.354565  -0.023989  -0.002419  -0.000792  -0.000081
    15  H   -0.028662   0.361227  -0.028181  -0.003262   0.002075   0.000046
               7          8          9         10         11         12
     1  H    0.000054   0.000110   0.006970   0.000007   0.000003  -0.000007
     2  C   -0.009331   0.007463  -0.010937   0.000381  -0.000194  -0.000196
     3  C   -0.048231  -0.021659  -0.043131  -0.035154   0.003665   0.003806
     4  C    0.357625  -0.047962   0.006342  -0.035506  -0.040195   0.000891
     5  C    0.005963   0.522426   0.353438  -0.036188   0.000888  -0.039799
     6  C   -0.046450  -0.026078   0.000349   0.547818   0.355828   0.004524
     7  H    0.614815   0.000382  -0.000177   0.004890  -0.005662   0.000019
     8  C    0.000382   4.869560  -0.047326   0.553813   0.004563   0.355621
     9  H   -0.000177  -0.047326   0.613665   0.004855   0.000018  -0.005593
    10  C    0.004890   0.553813   0.004855   4.855460  -0.043194  -0.043355
    11  H   -0.005662   0.004563   0.000018  -0.043194   0.602986  -0.000190
    12  H    0.000019   0.355621  -0.005593  -0.043355  -0.000190   0.602786
    13  H   -0.000185  -0.043486  -0.000185   0.358362  -0.005583  -0.005686
    14  H    0.001060  -0.000131   0.000206   0.000034   0.000001   0.000002
    15  H    0.003550  -0.000200   0.000083   0.000020  -0.000003   0.000003
              13         14         15
     1  H   -0.000000  -0.024539  -0.028662
     2  C    0.000008   0.354565   0.361227
     3  C    0.000770  -0.023989  -0.028181
     4  C    0.004643  -0.002419  -0.003262
     5  C    0.004683  -0.000792   0.002075
     6  C   -0.043169  -0.000081   0.000046
     7  H   -0.000185   0.001060   0.003550
     8  C   -0.043486  -0.000131  -0.000200
     9  H   -0.000185   0.000206   0.000083
    10  C    0.358362   0.000034   0.000020
    11  H   -0.005583   0.000001  -0.000003
    12  H   -0.005686   0.000002   0.000003
    13  H    0.603806  -0.000000  -0.000000
    14  H   -0.000000   0.585816  -0.035131
    15  H   -0.000000  -0.035131   0.567716
 Mulliken charges:
               1
     1  H    0.154554
     2  C   -0.525004
     3  C    0.181653
     4  C   -0.173564
     5  C   -0.178977
     6  C   -0.128807
     7  H    0.121678
     8  C   -0.127095
     9  H    0.121423
    10  C   -0.132244
    11  H    0.127069
    12  H    0.127174
    13  H    0.126023
    14  H    0.145398
    15  H    0.160720
 Sum of Mulliken charges =  -0.00000
 Mulliken charges with hydrogens summed into heavy atoms:
               1
     2  C   -0.064333
     3  C    0.181653
     4  C   -0.051886
     5  C   -0.057554
     6  C   -0.001738
     8  C    0.000079
    10  C   -0.006221
 Electronic spatial extent (au):  <R**2>=            719.8202
 Charge=             -0.0000 electrons
 Dipole moment (field-independent basis, Debye):
    X=             -0.2482    Y=             -0.0418    Z=             -0.0292  Tot=              0.2534
 Quadrupole moment (field-independent basis, Debye-Ang):
   XX=            -38.0551   YY=            -38.1753   ZZ=            -44.9378
   XY=              0.1445   XZ=              0.1018   YZ=             -0.0785
 Traceless Quadrupole moment (field-independent basis, Debye-Ang):
   XX=              2.3343   YY=              2.2141   ZZ=             -4.5484
   XY=              0.1445   XZ=              0.1018   YZ=             -0.0785
 Octapole moment (field-independent basis, Debye-Ang**2):
  XXX=              5.2989  YYY=              0.3494  ZZZ=              0.2387  XYY=              1.1608
  XXY=             -0.4811  XXZ=             -0.1005  XZZ=             -2.8668  YZZ=             -0.3961
  YYZ=             -0.4048  XYZ=              0.2656
 Hexadecapole moment (field-independent basis, Debye-Ang**3):
 XXXX=           -607.9163 YYYY=           -285.5889 ZZZZ=            -53.9203 XXXY=              1.5432
 XXXZ=              0.6716 YYYX=             -0.9352 YYYZ=             -0.0138 ZZZX=             -0.7451
 ZZZY=             -0.1296 XXYY=           -145.6838 XXZZ=           -117.1045 YYZZ=            -65.0720
 XXYZ=             -0.7044 YYXZ=              1.3186 ZZXY=              1.1683
 N-N= 2.684164031840D+02 E-N=-1.164894637808D+03  KE= 2.687701721441D+02
 1\1\GINC-NODE56\SP\RB3LYP\6-31G(d)\C7H8\YANZ\22-Sep-2023\0\\# b3lyp/6-
 31g(d)\\tmpdir/M3_conf_0_71.gjf\\0,1\H,0,0.,0.,0.\C,0,1.0978,0.,0.\C,0
 ,1.62119,0.,1.41948\C,0,2.95818,0.32967,1.68238\C,0,0.78864,-0.35624,2
 .48598\C,0,3.44977,0.30558,2.98596\H,0,3.61385,0.60057,0.85827\C,0,1.2
 7845,-0.37972,3.79377\H,0,-0.25097,-0.6127,2.2937\C,0,2.60963,-0.04891
 ,4.04561\H,0,4.48734,0.56587,3.17729\H,0,0.61975,-0.65599,4.6126\H,0,2
 .99288,-0.06563,5.06224\H,0,1.49139,-0.89308,-0.65125\H,0,1.42986,0.88
 688,-0.54412\\Version=ES64L-G16RevA.03\State=1-A\HF=-271.5630958\RMSD=
 4.277e-09\Dipole=-0.0219985,0.0168142,-0.0957777\Quadrupole=1.2896007,
 -3.0105839,1.7209832,1.1753412,0.0972847,-0.6034603\PG=C01 [X(C7H8)]\\
 @


 The hours that make us happy make us wise.
                         -- John Masefield
 Job cpu time:       0 days  0 hours  0 minutes 51.9 seconds.
 Elapsed time:       0 days  0 hours  0 minutes 13.5 seconds.
 File lengths (MBytes):  RWF=     10 Int=      0 D2E=      0 Chk=      2 Scr=      1
 Normal termination of Gaussian 16 at Fri Sep 22 17:02:18 2023.
