 Entering Gaussian System, Link 0=g16
 Initial command:
 /share/apps/gaussian/g16/l1.exe "/tmp/55622.mgr/Gau-174646.inp" -scrdir="/tmp/55622.mgr/"
 Entering Link 1 = /share/apps/gaussian/g16/l1.exe PID=    174647.
  
 Copyright (c) 1988,1990,1992,1993,1995,1998,2003,2009,2016,
            Gaussian, Inc.  All Rights Reserved.
  
 This is part of the Gaussian(R) 16 program.  It is based on
 the Gaussian(R) 09 system (copyright 2009, Gaussian, Inc.),
 the Gaussian(R) 03 system (copyright 2003, Gaussian, Inc.),
 the Gaussian(R) 98 system (copyright 1998, Gaussian, Inc.),
 the Gaussian(R) 94 system (copyright 1995, Gaussian, Inc.),
 the Gaussian 92(TM) system (copyright 1992, Gaussian, Inc.),
 the Gaussian 90(TM) system (copyright 1990, Gaussian, Inc.),
 the Gaussian 88(TM) system (copyright 1988, Gaussian, Inc.),
 the Gaussian 86(TM) system (copyright 1986, Carnegie Mellon
 University), and the Gaussian 82(TM) system (copyright 1983,
 Carnegie Mellon University). Gaussian is a federally registered
 trademark of Gaussian, Inc.
  
 This software contains proprietary and confidential information,
 including trade secrets, belonging to Gaussian, Inc.
  
 This software is provided under written license and may be
 used, copied, transmitted, or stored only in accord with that
 written license.
  
 The following legend is applicable only to US Government
 contracts under FAR:
  
                    RESTRICTED RIGHTS LEGEND
  
 Use, reproduction and disclosure by the US Government is
 subject to restrictions as set forth in subparagraphs (a)
 and (c) of the Commercial Computer Software - Restricted
 Rights clause in FAR 52.227-19.
  
 Gaussian, Inc.
 340 Quinnipiac St., Bldg. 40, Wallingford CT 06492
  
  
 ---------------------------------------------------------------
 Warning -- This program may not be used in any manner that
 competes with the business of Gaussian, Inc. or will provide
 assistance to any competitor of Gaussian, Inc.  The licensee
 of this program is prohibited from giving any competitor of
 Gaussian, Inc. access to this program.  By using this program,
 the user acknowledges that Gaussian, Inc. is engaged in the
 business of creating and licensing software in the field of
 computational chemistry and represents and warrants to the
 licensee that it is not a competitor of Gaussian, Inc. and that
 it will not use this program in any manner prohibited above.
 ---------------------------------------------------------------
  

 Cite this work as:
 Gaussian 16, Revision A.03,
 M. J. Frisch, G. W. Trucks, H. B. Schlegel, G. E. Scuseria, 
 M. A. Robb, J. R. Cheeseman, G. Scalmani, V. Barone, 
 G. A. Petersson, H. Nakatsuji, X. Li, M. Caricato, A. V. Marenich, 
 J. Bloino, B. G. Janesko, R. Gomperts, B. Mennucci, H. P. Hratchian, 
 J. V. Ortiz, A. F. Izmaylov, J. L. Sonnenberg, D. Williams-Young, 
 F. Ding, F. Lipparini, F. Egidi, J. Goings, B. Peng, A. Petrone, 
 T. Henderson, D. Ranasinghe, V. G. Zakrzewski, J. Gao, N. Rega, 
 G. Zheng, W. Liang, M. Hada, M. Ehara, K. Toyota, R. Fukuda, 
 J. Hasegawa, M. Ishida, T. Nakajima, Y. Honda, O. Kitao, H. Nakai, 
 T. Vreven, K. Throssell, J. A. Montgomery, Jr., J. E. Peralta, 
 F. Ogliaro, M. J. Bearpark, J. J. Heyd, E. N. Brothers, K. N. Kudin, 
 V. N. Staroverov, T. A. Keith, R. Kobayashi, J. Normand, 
 K. Raghavachari, A. P. Rendell, J. C. Burant, S. S. Iyengar, 
 J. Tomasi, M. Cossi, J. M. Millam, M. Klene, C. Adamo, R. Cammi, 
 J. W. Ochterski, R. L. Martin, K. Morokuma, O. Farkas, 
 J. B. Foresman, and D. J. Fox, Gaussian, Inc., Wallingford CT, 2016.
 
 ******************************************
 Gaussian 16:  ES64L-G16RevA.03 25-Dec-2016
                22-Sep-2023 
 ******************************************
 %nprocshared=4
 Will use up to    4 processors via shared memory.
 %mem=4GB
 ----------------
 # b3lyp/6-31g(d)
 ----------------
 1/38=1,172=1/1;
 2/12=2,17=6,18=5,40=1/2;
 3/5=1,6=6,7=1,11=2,25=1,30=1,74=-5/1,2,3;
 4//1;
 5/5=2,38=5/2;
 6/7=2,8=2,9=2,10=2,28=1/1;
 99/5=1,9=1/99;
 -----------------------
 tmpdir/M3_conf_0_17.gjf
 -----------------------
 Symbolic Z-matrix:
 Charge =  0 Multiplicity = 1
 C                     0.        0.        0. 
 C                     1.5509    0.        0. 
 H                     1.86035   0.        1.05276 
 H                    -0.48547   0.46561  -0.9025 
 H                    -0.35901  -1.0329    0.09582 
 H                    -0.35989   0.53671   0.88796 
 H                     2.08898  -0.86203  -0.4997 
 H                     1.91459   0.95093  -0.4117 
 
                          Input orientation:                          
 ---------------------------------------------------------------------
 Center     Atomic      Atomic             Coordinates (Angstroms)
 Number     Number       Type             X           Y           Z
 ---------------------------------------------------------------------
      1          6           0        0.000000    0.000000    0.000000
      2          6           0        1.550900    0.000000    0.000000
      3          1           0        1.860350    0.000000    1.052760
      4          1           0       -0.485470    0.465610   -0.902500
      5          1           0       -0.359010   -1.032900    0.095820
      6          1           0       -0.359890    0.536710    0.887960
      7          1           0        2.088980   -0.862030   -0.499700
      8          1           0        1.914590    0.950930   -0.411700
 ---------------------------------------------------------------------
                    Distance matrix (angstroms):
                    1          2          3          4          5
     1  C    0.000000
     2  C    1.550900   0.000000
     3  H    2.137570   1.097298   0.000000
     4  H    1.125602   2.275544   3.089127   0.000000
     5  H    1.097703   2.173435   2.628341   1.805039   0.000000
     6  H    1.098204   2.174316   2.290127   1.796266   1.758170
     7  H    2.314440   1.132398   1.790391   2.924495   2.525172
     8  H    2.177021   1.098196   1.746955   2.497340   3.059806
                    6          7          8
     6  H    0.000000
     7  H    3.143094   0.000000
     8  H    2.652160   1.823453   0.000000
 Stoichiometry    C2H6
 Framework group  C1[X(C2H6)]
 Deg. of freedom    18
 Full point group                 C1      NOp   1
 Largest Abelian subgroup         C1      NOp   1
 Largest concise Abelian subgroup C1      NOp   1
                         Standard orientation:                         
 ---------------------------------------------------------------------
 Center     Atomic      Atomic             Coordinates (Angstroms)
 Number     Number       Type             X           Y           Z
 ---------------------------------------------------------------------
      1          6           0        0.775831    0.007390   -0.010367
      2          6           0       -0.775034   -0.002073   -0.014646
      3          1           0       -1.087680    0.045442    1.036096
      4          1           0        1.266814   -0.497088   -0.888671
      5          1           0        1.128380    1.045820    0.037848
      6          1           0        1.136214   -0.484853    0.902800
      7          1           0       -1.316724    0.832258   -0.555745
      8          1           0       -1.131790   -0.973477   -0.382252
 ---------------------------------------------------------------------
 Rotational constants (GHZ):          78.8869652          19.4183840          19.3575870
 Standard basis: 6-31G(d) (6D, 7F)
 There are    42 symmetry adapted cartesian basis functions of A   symmetry.
 There are    42 symmetry adapted basis functions of A   symmetry.
    42 basis functions,    80 primitive gaussians,    42 cartesian basis functions
     9 alpha electrons        9 beta electrons
       nuclear repulsion energy        41.6327756641 Hartrees.
 NAtoms=    8 NActive=    8 NUniq=    8 SFac= 1.00D+00 NAtFMM=   60 NAOKFM=F Big=F
 Integral buffers will be    131072 words long.
 Raffenetti 2 integral format.
 Two-electron integral symmetry is turned on.
 One-electron integrals computed using PRISM.
 NBasis=    42 RedAO= T EigKep=  8.82D-03  NBF=    42
 NBsUse=    42 1.00D-06 EigRej= -1.00D+00 NBFU=    42
 ExpMin= 1.61D-01 ExpMax= 3.05D+03 ExpMxC= 4.57D+02 IAcc=3 IRadAn=         5 AccDes= 0.00D+00
 Harris functional with IExCor=  402 and IRadAn=       5 diagonalized for initial guess.
 HarFok:  IExCor=  402 AccDes= 0.00D+00 IRadAn=         5 IDoV= 1 UseB2=F ITyADJ=14
 ICtDFT=  3500011 ScaDFX=  1.000000  1.000000  1.000000  1.000000
 FoFCou: FMM=F IPFlag=           0 FMFlag=      100000 FMFlg1=           0
         NFxFlg=           0 DoJE=T BraDBF=F KetDBF=T FulRan=T
         wScrn=  0.000000 ICntrl=       500 IOpCl=  0 I1Cent=   200000004 NGrid=           0
         NMat0=    1 NMatS0=      1 NMatT0=    0 NMatD0=    1 NMtDS0=    0 NMtDT0=    0
 Petite list used in FoFCou.
 Keep R1 ints in memory in canonical form, NReq=3861446.
 Requested convergence on RMS density matrix=1.00D-08 within 128 cycles.
 Requested convergence on MAX density matrix=1.00D-06.
 Requested convergence on             energy=1.00D-06.
 No special actions if energy rises.
 Integral accuracy reduced to 1.0D-05 until final iterations.
 Initial convergence to 1.0D-05 achieved.  Increase integral accuracy.
 SCF Done:  E(RB3LYP) =  -79.8245675401     A.U. after   10 cycles
            NFock= 10  Conv=0.29D-08     -V/T= 2.0122

 **********************************************************************

            Population analysis using the SCF density.

 **********************************************************************

 Orbital symmetries:
       Occupied  (A) (A) (A) (A) (A) (A) (A) (A) (A)
       Virtual   (A) (A) (A) (A) (A) (A) (A) (A) (A) (A) (A) (A)
                 (A) (A) (A) (A) (A) (A) (A) (A) (A) (A) (A) (A)
                 (A) (A) (A) (A) (A) (A) (A) (A) (A)
 The electronic state is 1-A.
 Alpha  occ. eigenvalues --  -10.17765 -10.17741  -0.74253  -0.60947  -0.42768
 Alpha  occ. eigenvalues --   -0.42588  -0.36227  -0.33833  -0.33564
 Alpha virt. eigenvalues --    0.10223   0.13761   0.14355   0.15783   0.20302
 Alpha virt. eigenvalues --    0.21306   0.23580   0.51804   0.54119   0.54437
 Alpha virt. eigenvalues --    0.64943   0.65816   0.66800   0.86581   0.86924
 Alpha virt. eigenvalues --    0.89355   0.90323   0.91483   0.97073   1.05492
 Alpha virt. eigenvalues --    1.42838   1.51099   1.52657   1.90137   1.96927
 Alpha virt. eigenvalues --    2.01371   2.18274   2.22823   2.34193   2.36037
 Alpha virt. eigenvalues --    2.57724   4.12480   4.36484
          Condensed to atoms (all electrons):
               1          2          3          4          5          6
     1  C    5.028154   0.363536  -0.039375   0.380188   0.380213   0.383652
     2  C    0.363536   5.028848   0.381925  -0.029437  -0.036821  -0.035414
     3  H   -0.039375   0.381925   0.583122   0.004276   0.000093  -0.009308
     4  H    0.380188  -0.029437   0.004276   0.573083  -0.029703  -0.032438
     5  H    0.380213  -0.036821   0.000093  -0.029703   0.573987  -0.032893
     6  H    0.383652  -0.035414  -0.009308  -0.032438  -0.032893   0.575713
     7  H   -0.025941   0.379665  -0.032812   0.000069  -0.006068   0.003719
     8  H   -0.036999   0.381178  -0.033693  -0.006472   0.004516   0.000200
               7          8
     1  C   -0.025941  -0.036999
     2  C    0.379665   0.381178
     3  H   -0.032812  -0.033693
     4  H    0.000069  -0.006472
     5  H   -0.006068   0.004516
     6  H    0.003719   0.000200
     7  H    0.569611  -0.029054
     8  H   -0.029054   0.573880
 Mulliken charges:
               1
     1  C   -0.433429
     2  C   -0.433481
     3  H    0.145773
     4  H    0.140435
     5  H    0.146677
     6  H    0.146771
     7  H    0.140811
     8  H    0.146444
 Sum of Mulliken charges =   0.00000
 Mulliken charges with hydrogens summed into heavy atoms:
               1
     1  C    0.000453
     2  C   -0.000453
 Electronic spatial extent (au):  <R**2>=            111.6446
 Charge=              0.0000 electrons
 Dipole moment (field-independent basis, Debye):
    X=              0.0022    Y=             -0.0188    Z=              0.1032  Tot=              0.1049
 Quadrupole moment (field-independent basis, Debye-Ang):
   XX=            -15.2477   YY=            -14.7165   ZZ=            -14.8308
   XY=             -0.1349   XZ=              0.0294   YZ=             -0.0036
 Traceless Quadrupole moment (field-independent basis, Debye-Ang):
   XX=             -0.3160   YY=              0.2152   ZZ=              0.1008
   XY=             -0.1349   XZ=              0.0294   YZ=             -0.0036
 Octapole moment (field-independent basis, Debye-Ang**2):
  XXX=             -0.0494  YYY=              0.2827  ZZZ=              0.7537  XYY=             -0.1470
  XXY=              0.1135  XXZ=             -0.2310  XZZ=              0.1933  YZZ=             -0.3956
  YYZ=             -0.3519  XYZ=              0.2001
 Hexadecapole moment (field-independent basis, Debye-Ang**3):
 XXXX=            -95.0928 YYYY=            -29.0100 ZZZZ=            -28.9043 XXXY=             -0.7394
 XXXZ=              0.1447 YYYX=              0.7736 YYYZ=              0.0784 ZZZX=             -0.5658
 ZZZY=             -0.0481 XXYY=            -19.5013 XXZZ=            -19.7006 YYZZ=             -9.7796
 XXYZ=             -0.0772 YYXZ=              0.6178 ZZXY=             -0.7885
 N-N= 4.163277566412D+01 E-N=-2.669838645036D+02  KE= 7.886064155089D+01
 1\1\GINC-NODE56\SP\RB3LYP\6-31G(d)\C2H6\YANZ\22-Sep-2023\0\\# b3lyp/6-
 31g(d)\\tmpdir/M3_conf_0_17.gjf\\0,1\C,0,0.,0.,0.\C,0,1.5509,0.,0.\H,0
 ,1.86035,0.,1.05276\H,0,-0.48547,0.46561,-0.9025\H,0,-0.35901,-1.0329,
 0.09582\H,0,-0.35989,0.53671,0.88796\H,0,2.08898,-0.86203,-0.4997\H,0,
 1.91459,0.95093,-0.4117\\Version=ES64L-G16RevA.03\State=1-A\HF=-79.824
 5675\RMSD=2.908e-09\Dipole=-0.0009401,0.0093129,0.0402127\Quadrupole=-
 0.2360273,0.1612168,0.0748105,-0.0988113,-0.0180536,-0.0015513\PG=C01 
 [X(C2H6)]\\@


 NOTHING RESEMBLES A NEW PHENOMENON AS MUCH AS A MISTAKE.

                               -- ENRICO FERMI (?)
 Job cpu time:       0 days  0 hours  0 minutes  9.6 seconds.
 Elapsed time:       0 days  0 hours  0 minutes  2.5 seconds.
 File lengths (MBytes):  RWF=      6 Int=      0 D2E=      0 Chk=      1 Scr=      1
 Normal termination of Gaussian 16 at Fri Sep 22 17:01:05 2023.
