 Entering Gaussian System, Link 0=g16
 Initial command:
 /share/apps/gaussian/g16/l1.exe "/tmp/55622.mgr/Gau-176325.inp" -scrdir="/tmp/55622.mgr/"
 Entering Link 1 = /share/apps/gaussian/g16/l1.exe PID=    176326.
  
 Copyright (c) 1988,1990,1992,1993,1995,1998,2003,2009,2016,
            Gaussian, Inc.  All Rights Reserved.
  
 This is part of the Gaussian(R) 16 program.  It is based on
 the Gaussian(R) 09 system (copyright 2009, Gaussian, Inc.),
 the Gaussian(R) 03 system (copyright 2003, Gaussian, Inc.),
 the Gaussian(R) 98 system (copyright 1998, Gaussian, Inc.),
 the Gaussian(R) 94 system (copyright 1995, Gaussian, Inc.),
 the Gaussian 92(TM) system (copyright 1992, Gaussian, Inc.),
 the Gaussian 90(TM) system (copyright 1990, Gaussian, Inc.),
 the Gaussian 88(TM) system (copyright 1988, Gaussian, Inc.),
 the Gaussian 86(TM) system (copyright 1986, Carnegie Mellon
 University), and the Gaussian 82(TM) system (copyright 1983,
 Carnegie Mellon University). Gaussian is a federally registered
 trademark of Gaussian, Inc.
  
 This software contains proprietary and confidential information,
 including trade secrets, belonging to Gaussian, Inc.
  
 This software is provided under written license and may be
 used, copied, transmitted, or stored only in accord with that
 written license.
  
 The following legend is applicable only to US Government
 contracts under FAR:
  
                    RESTRICTED RIGHTS LEGEND
  
 Use, reproduction and disclosure by the US Government is
 subject to restrictions as set forth in subparagraphs (a)
 and (c) of the Commercial Computer Software - Restricted
 Rights clause in FAR 52.227-19.
  
 Gaussian, Inc.
 340 Quinnipiac St., Bldg. 40, Wallingford CT 06492
  
  
 ---------------------------------------------------------------
 Warning -- This program may not be used in any manner that
 competes with the business of Gaussian, Inc. or will provide
 assistance to any competitor of Gaussian, Inc.  The licensee
 of this program is prohibited from giving any competitor of
 Gaussian, Inc. access to this program.  By using this program,
 the user acknowledges that Gaussian, Inc. is engaged in the
 business of creating and licensing software in the field of
 computational chemistry and represents and warrants to the
 licensee that it is not a competitor of Gaussian, Inc. and that
 it will not use this program in any manner prohibited above.
 ---------------------------------------------------------------
  

 Cite this work as:
 Gaussian 16, Revision A.03,
 M. J. Frisch, G. W. Trucks, H. B. Schlegel, G. E. Scuseria, 
 M. A. Robb, J. R. Cheeseman, G. Scalmani, V. Barone, 
 G. A. Petersson, H. Nakatsuji, X. Li, M. Caricato, A. V. Marenich, 
 J. Bloino, B. G. Janesko, R. Gomperts, B. Mennucci, H. P. Hratchian, 
 J. V. Ortiz, A. F. Izmaylov, J. L. Sonnenberg, D. Williams-Young, 
 F. Ding, F. Lipparini, F. Egidi, J. Goings, B. Peng, A. Petrone, 
 T. Henderson, D. Ranasinghe, V. G. Zakrzewski, J. Gao, N. Rega, 
 G. Zheng, W. Liang, M. Hada, M. Ehara, K. Toyota, R. Fukuda, 
 J. Hasegawa, M. Ishida, T. Nakajima, Y. Honda, O. Kitao, H. Nakai, 
 T. Vreven, K. Throssell, J. A. Montgomery, Jr., J. E. Peralta, 
 F. Ogliaro, M. J. Bearpark, J. J. Heyd, E. N. Brothers, K. N. Kudin, 
 V. N. Staroverov, T. A. Keith, R. Kobayashi, J. Normand, 
 K. Raghavachari, A. P. Rendell, J. C. Burant, S. S. Iyengar, 
 J. Tomasi, M. Cossi, J. M. Millam, M. Klene, C. Adamo, R. Cammi, 
 J. W. Ochterski, R. L. Martin, K. Morokuma, O. Farkas, 
 J. B. Foresman, and D. J. Fox, Gaussian, Inc., Wallingford CT, 2016.
 
 ******************************************
 Gaussian 16:  ES64L-G16RevA.03 25-Dec-2016
                22-Sep-2023 
 ******************************************
 %nprocshared=4
 Will use up to    4 processors via shared memory.
 %mem=4GB
 ----------------
 # b3lyp/6-31g(d)
 ----------------
 1/38=1,172=1/1;
 2/12=2,17=6,18=5,40=1/2;
 3/5=1,6=6,7=1,11=2,25=1,30=1,74=-5/1,2,3;
 4//1;
 5/5=2,38=5/2;
 6/7=2,8=2,9=2,10=2,28=1/1;
 99/5=1,9=1/99;
 -----------------------
 tmpdir/M3_conf_0_68.gjf
 -----------------------
 Symbolic Z-matrix:
 Charge = -1 Multiplicity = 1
 N                     0.        0.        0. 
 C                     1.4927    0.        0. 
 C                     2.13016   0.        1.37204 
 C                     2.09136  -1.15055   2.17208 
 C                     2.74146   1.15413   1.87381 
 C                     2.65504  -1.1457    3.44637 
 H                     1.61181  -2.04961   1.7924 
 C                     3.30857   1.16125   3.15017 
 H                     2.7786    2.05228   1.26104 
 C                     3.26605   0.01147   3.93828 
 H                     2.62105  -2.04471   4.05591 
 H                     3.78221   2.0641    3.52598 
 H                     3.70725   0.01423   4.93128 
 H                    -0.40584   0.7597    0.39245 
 H                     1.75434  -0.90999  -0.5444 
 H                     1.86096   0.85475  -0.5822 
 
                          Input orientation:                          
 ---------------------------------------------------------------------
 Center     Atomic      Atomic             Coordinates (Angstroms)
 Number     Number       Type             X           Y           Z
 ---------------------------------------------------------------------
      1          7           0        0.000000    0.000000    0.000000
      2          6           0        1.492700    0.000000    0.000000
      3          6           0        2.130160    0.000000    1.372040
      4          6           0        2.091360   -1.150550    2.172080
      5          6           0        2.741460    1.154130    1.873810
      6          6           0        2.655040   -1.145700    3.446370
      7          1           0        1.611810   -2.049610    1.792400
      8          6           0        3.308570    1.161250    3.150170
      9          1           0        2.778600    2.052280    1.261040
     10          6           0        3.266050    0.011470    3.938280
     11          1           0        2.621050   -2.044710    4.055910
     12          1           0        3.782210    2.064100    3.525980
     13          1           0        3.707250    0.014230    4.931280
     14          1           0       -0.405840    0.759700    0.392450
     15          1           0        1.754340   -0.909990   -0.544400
     16          1           0        1.860960    0.854750   -0.582200
 ---------------------------------------------------------------------
                    Distance matrix (angstroms):
                    1          2          3          4          5
     1  N    0.000000
     2  C    1.492700   0.000000
     3  C    2.533787   1.512894   0.000000
     4  C    3.227303   2.529840   1.401904   0.000000
     5  C    3.515506   2.530332   1.399099   2.413119   0.000000
     6  C    4.498815   3.813283   2.427133   1.393404   2.787406
     7  H    3.164100   2.725397   2.155526   1.087398   3.398042
     8  C    4.713672   3.816996   2.428765   2.789745   1.396696
     9  H    3.677321   2.730497   2.155145   3.400061   1.087906
    10  C    5.116372   4.319138   2.806415   2.418605   2.417210
    11  H    5.244154   4.680216   3.409541   2.151490   3.874098
    12  H    5.567599   4.683471   3.410166   3.876338   2.154268
    13  H    6.169394   5.405734   3.893020   3.403086   3.402976
    14  H    0.946503   2.082214   2.822771   3.612775   3.500786
    15  H    2.049918   1.092204   2.154545   2.747856   3.329074
    16  H    2.129020   1.097802   2.149912   3.414728   2.626194
                    6          7          8          9         10
     6  C    0.000000
     7  H    2.154298   0.000000
     8  C    2.415958   3.877132   0.000000
     9  H    3.875308   4.297586   2.154905   0.000000
    10  C    1.397981   3.404315   1.394604   3.401489   0.000000
    11  H    1.086698   2.478319   3.401651   4.962000   2.158179
    12  H    3.402891   4.963723   1.086603   2.477363   2.156317
    13  H    2.158134   4.301496   2.155679   4.299616   1.086607
    14  H    4.725036   3.731353   4.643609   3.544837   5.159025
    15  H    4.097934   2.603782   4.511708   3.617149   4.819624
    16  H    4.567465   3.759802   4.014985   2.381948   4.808341
                   11         12         13         14         15
    11  H    0.000000
    12  H    4.302492   0.000000
    13  H    2.487034   2.486454   0.000000
    14  H    5.517945   5.390754   6.170431   0.000000
    15  H    4.816807   5.433734   5.886519   2.886508   0.000000
    16  H    5.522379   4.693706   5.874838   2.469283   1.768362
                   16
    16  H    0.000000
 Stoichiometry    C7H8N(1-)
 Framework group  C1[X(C7H8N)]
 Deg. of freedom    42
 Full point group                 C1      NOp   1
 Largest Abelian subgroup         C1      NOp   1
 Largest concise Abelian subgroup C1      NOp   1
                         Standard orientation:                         
 ---------------------------------------------------------------------
 Center     Atomic      Atomic             Coordinates (Angstroms)
 Number     Number       Type             X           Y           Z
 ---------------------------------------------------------------------
      1          7           0       -2.822683   -0.229766    0.678534
      2          6           0       -1.987979    0.169449   -0.492812
      3          6           0       -0.494090    0.080636   -0.270877
      4          6           0        0.138782   -1.168045   -0.196018
      5          6           0        0.272409    1.239786   -0.108618
      6          6           0        1.510416   -1.253535    0.033951
      7          1           0       -0.450908   -2.074028   -0.313895
      8          6           0        1.647694    1.156967    0.120493
      9          1           0       -0.208045    2.214149   -0.166240
     10          6           0        2.268601   -0.089726    0.192243
     11          1           0        1.989947   -2.227257    0.087120
     12          1           0        2.230900    2.065682    0.242211
     13          1           0        3.338539   -0.156787    0.369586
     14          1           0       -2.718558    0.305335    1.452286
     15          1           0       -2.299839   -0.517504   -1.282589
     16          1           0       -2.258258    1.185584   -0.808388
 ---------------------------------------------------------------------
 Rotational constants (GHZ):           4.6981721           1.4889118           1.2190479
 Standard basis: 6-31G(d) (6D, 7F)
 There are   136 symmetry adapted cartesian basis functions of A   symmetry.
 There are   136 symmetry adapted basis functions of A   symmetry.
   136 basis functions,   256 primitive gaussians,   136 cartesian basis functions
    29 alpha electrons       29 beta electrons
       nuclear repulsion energy       328.8635148992 Hartrees.
 NAtoms=   16 NActive=   16 NUniq=   16 SFac= 1.00D+00 NAtFMM=   60 NAOKFM=F Big=F
 Integral buffers will be    131072 words long.
 Raffenetti 2 integral format.
 Two-electron integral symmetry is turned on.
 One-electron integrals computed using PRISM.
 NBasis=   136 RedAO= T EigKep=  4.74D-04  NBF=   136
 NBsUse=   136 1.00D-06 EigRej= -1.00D+00 NBFU=   136
 ExpMin= 1.61D-01 ExpMax= 4.17D+03 ExpMxC= 6.27D+02 IAcc=3 IRadAn=         5 AccDes= 0.00D+00
 Harris functional with IExCor=  402 and IRadAn=       5 diagonalized for initial guess.
 HarFok:  IExCor=  402 AccDes= 0.00D+00 IRadAn=         5 IDoV= 1 UseB2=F ITyADJ=14
 ICtDFT=  3500011 ScaDFX=  1.000000  1.000000  1.000000  1.000000
 FoFCou: FMM=F IPFlag=           0 FMFlag=      100000 FMFlg1=           0
         NFxFlg=           0 DoJE=T BraDBF=F KetDBF=T FulRan=T
         wScrn=  0.000000 ICntrl=       500 IOpCl=  0 I1Cent=   200000004 NGrid=           0
         NMat0=    1 NMatS0=      1 NMatT0=    0 NMatD0=    1 NMtDS0=    0 NMtDT0=    0
 Petite list used in FoFCou.
 Keep R1 ints in memory in canonical form, NReq=47250618.
 Requested convergence on RMS density matrix=1.00D-08 within 128 cycles.
 Requested convergence on MAX density matrix=1.00D-06.
 Requested convergence on             energy=1.00D-06.
 No special actions if energy rises.
 Integral accuracy reduced to 1.0D-05 until final iterations.
 EnCoef did     3 forward-backward iterations
 EnCoef did     2 forward-backward iterations
 Initial convergence to 1.0D-05 achieved.  Increase integral accuracy.
 SCF Done:  E(RB3LYP) =  -326.228479712     A.U. after   21 cycles
            NFock= 21  Conv=0.88D-08     -V/T= 2.0088

 **********************************************************************

            Population analysis using the SCF density.

 **********************************************************************

 Orbital symmetries:
       Occupied  (A) (A) (A) (A) (A) (A) (A) (A) (A) (A) (A) (A)
                 (A) (A) (A) (A) (A) (A) (A) (A) (A) (A) (A) (A)
                 (A) (A) (A) (A) (A)
       Virtual   (A) (A) (A) (A) (A) (A) (A) (A) (A) (A) (A) (A)
                 (A) (A) (A) (A) (A) (A) (A) (A) (A) (A) (A) (A)
                 (A) (A) (A) (A) (A) (A) (A) (A) (A) (A) (A) (A)
                 (A) (A) (A) (A) (A) (A) (A) (A) (A) (A) (A) (A)
                 (A) (A) (A) (A) (A) (A) (A) (A) (A) (A) (A) (A)
                 (A) (A) (A) (A) (A) (A) (A) (A) (A) (A) (A) (A)
                 (A) (A) (A) (A) (A) (A) (A) (A) (A) (A) (A) (A)
                 (A) (A) (A) (A) (A) (A) (A) (A) (A) (A) (A) (A)
                 (A) (A) (A) (A) (A) (A) (A) (A) (A) (A) (A)
 The electronic state is 1-A.
 Alpha  occ. eigenvalues --  -13.99445 -10.03748 -10.03393 -10.03269 -10.02261
 Alpha  occ. eigenvalues --  -10.02083 -10.01621  -9.99387  -0.69099  -0.60600
 Alpha  occ. eigenvalues --   -0.58485  -0.54852  -0.45162  -0.44403  -0.40106
 Alpha  occ. eigenvalues --   -0.34850  -0.29848  -0.28984  -0.26532  -0.24041
 Alpha  occ. eigenvalues --   -0.20928  -0.20512  -0.17867  -0.17243  -0.15920
 Alpha  occ. eigenvalues --   -0.09363  -0.07733   0.02608   0.08229
 Alpha virt. eigenvalues --    0.15756   0.16633   0.23147   0.27525   0.29139
 Alpha virt. eigenvalues --    0.30167   0.31612   0.32885   0.34708   0.35600
 Alpha virt. eigenvalues --    0.37419   0.42218   0.45354   0.47925   0.48575
 Alpha virt. eigenvalues --    0.50848   0.51820   0.62913   0.67919   0.69986
 Alpha virt. eigenvalues --    0.70475   0.71962   0.74044   0.74494   0.74799
 Alpha virt. eigenvalues --    0.75156   0.76711   0.77390   0.79765   0.80455
 Alpha virt. eigenvalues --    0.82249   0.85470   0.91389   0.93801   0.96622
 Alpha virt. eigenvalues --    0.98098   0.98394   0.99002   1.00410   1.01549
 Alpha virt. eigenvalues --    1.04135   1.06583   1.07308   1.08892   1.10840
 Alpha virt. eigenvalues --    1.13830   1.16466   1.20130   1.24568   1.26121
 Alpha virt. eigenvalues --    1.28156   1.32202   1.34058   1.38888   1.42085
 Alpha virt. eigenvalues --    1.52145   1.55776   1.59221   1.60497   1.63554
 Alpha virt. eigenvalues --    1.64589   1.64911   1.67364   1.70084   1.90954
 Alpha virt. eigenvalues --    1.96037   1.97074   1.98184   1.99069   2.05056
 Alpha virt. eigenvalues --    2.06923   2.12513   2.13562   2.20286   2.22475
 Alpha virt. eigenvalues --    2.23771   2.28217   2.30367   2.30561   2.33101
 Alpha virt. eigenvalues --    2.39906   2.42412   2.45444   2.47059   2.53318
 Alpha virt. eigenvalues --    2.57594   2.64781   2.73190   2.74425   2.76261
 Alpha virt. eigenvalues --    2.82442   2.88216   2.89753   2.90252   2.93397
 Alpha virt. eigenvalues --    2.96175   3.06275   3.22044   3.57243   3.97052
 Alpha virt. eigenvalues --    4.24566   4.27436   4.30706   4.48232   4.50431
 Alpha virt. eigenvalues --    4.60827   4.86694
          Condensed to atoms (all electrons):
               1          2          3          4          5          6
     1  N    7.382214   0.418960  -0.062882   0.010408  -0.002890  -0.000158
     2  C    0.418960   4.972756   0.323869  -0.054720  -0.038563   0.006633
     3  C   -0.062882   0.323869   4.809169   0.489761   0.505475  -0.019384
     4  C    0.010408  -0.054720   0.489761   5.051376  -0.064832   0.505349
     5  C   -0.002890  -0.038563   0.505475  -0.064832   5.096869  -0.042954
     6  C   -0.000158   0.006633  -0.019384   0.505349  -0.042954   4.955571
     7  H    0.009525  -0.008104  -0.049134   0.343569   0.007431  -0.060899
     8  C   -0.000131   0.006075  -0.013137  -0.045081   0.501243  -0.028240
     9  H    0.000377  -0.011816  -0.040991   0.009308   0.331151   0.000391
    10  C    0.000048   0.000378  -0.035125  -0.033518  -0.041672   0.531041
    11  H    0.000009  -0.000157   0.003953  -0.045628   0.001085   0.341573
    12  H    0.000004  -0.000153   0.004062   0.001014  -0.045226   0.005235
    13  H    0.000000   0.000010   0.000721   0.005006   0.005204  -0.050992
    14  H    0.213133  -0.056084  -0.005529  -0.003035   0.003543   0.000016
    15  H   -0.066816   0.343446  -0.045130  -0.017379   0.007991  -0.000008
    16  H   -0.058368   0.262212  -0.052678   0.013199  -0.022464  -0.000257
               7          8          9         10         11         12
     1  N    0.009525  -0.000131   0.000377   0.000048   0.000009   0.000004
     2  C   -0.008104   0.006075  -0.011816   0.000378  -0.000157  -0.000153
     3  C   -0.049134  -0.013137  -0.040991  -0.035125   0.003953   0.004062
     4  C    0.343569  -0.045081   0.009308  -0.033518  -0.045628   0.001014
     5  C    0.007431   0.501243   0.331151  -0.041672   0.001085  -0.045226
     6  C   -0.060899  -0.028240   0.000391   0.531041   0.341573   0.005235
     7  H    0.657870   0.000455  -0.000117   0.005086  -0.005507   0.000028
     8  C    0.000455   4.921185  -0.065562   0.561046   0.005265   0.337773
     9  H   -0.000117  -0.065562   0.687202   0.004961   0.000026  -0.005372
    10  C    0.005086   0.561046   0.004961   4.920562  -0.053164  -0.053342
    11  H   -0.005507   0.005265   0.000026  -0.053164   0.694631  -0.000220
    12  H    0.000028   0.337773  -0.005372  -0.053342  -0.000220   0.699885
    13  H   -0.000195  -0.050283  -0.000209   0.344734  -0.006886  -0.006954
    14  H   -0.000128  -0.000084   0.000090  -0.000009   0.000001   0.000001
    15  H    0.003917  -0.000365   0.000139  -0.000014   0.000008   0.000005
    16  H    0.000948   0.000050   0.016858  -0.000013   0.000005   0.000018
              13         14         15         16
     1  N    0.000000   0.213133  -0.066816  -0.058368
     2  C    0.000010  -0.056084   0.343446   0.262212
     3  C    0.000721  -0.005529  -0.045130  -0.052678
     4  C    0.005006  -0.003035  -0.017379   0.013199
     5  C    0.005204   0.003543   0.007991  -0.022464
     6  C   -0.050992   0.000016  -0.000008  -0.000257
     7  H   -0.000195  -0.000128   0.003917   0.000948
     8  C   -0.050283  -0.000084  -0.000365   0.000050
     9  H   -0.000209   0.000090   0.000139   0.016858
    10  C    0.344734  -0.000009  -0.000014  -0.000013
    11  H   -0.006886   0.000001   0.000008   0.000005
    12  H   -0.006954   0.000001   0.000005   0.000018
    13  H    0.701407  -0.000000  -0.000000   0.000000
    14  H   -0.000000   0.661720   0.013255  -0.010342
    15  H   -0.000000   0.013255   0.772920  -0.069044
    16  H    0.000000  -0.010342  -0.069044   0.904386
 Mulliken charges:
               1
     1  N   -0.843436
     2  C   -0.164743
     3  C    0.186980
     4  C   -0.164798
     5  C   -0.201392
     6  C   -0.142919
     7  H    0.095255
     8  C   -0.130209
     9  H    0.073563
    10  C   -0.151000
    11  H    0.065004
    12  H    0.063242
    13  H    0.058437
    14  H    0.183451
    15  H    0.057074
    16  H    0.015491
 Sum of Mulliken charges =  -1.00000
 Mulliken charges with hydrogens summed into heavy atoms:
               1
     1  N   -0.659985
     2  C   -0.092178
     3  C    0.186980
     4  C   -0.069543
     5  C   -0.127828
     6  C   -0.077915
     8  C   -0.066967
    10  C   -0.092563
 Electronic spatial extent (au):  <R**2>=           1021.1688
 Charge=             -1.0000 electrons
 Dipole moment (field-independent basis, Debye):
    X=              7.7007    Y=              1.1731    Z=             -1.4348  Tot=              7.9206
 Quadrupole moment (field-independent basis, Debye-Ang):
   XX=            -83.4492   YY=            -51.2452   ZZ=            -54.0041
   XY=             -4.0329   XZ=              5.1589   YZ=              2.2672
 Traceless Quadrupole moment (field-independent basis, Debye-Ang):
   XX=            -20.5497   YY=             11.6543   ZZ=              8.8954
   XY=             -4.0329   XZ=              5.1589   YZ=              2.2672
 Octapole moment (field-independent basis, Debye-Ang**2):
  XXX=             92.6014  YYY=             -0.5545  ZZZ=              2.0180  XYY=              4.2203
  XXY=             12.4711  XXZ=            -13.4059  XZZ=             -0.3025  YZZ=              0.9465
  YYZ=             -0.4339  XYZ=             -5.5999
 Hexadecapole moment (field-independent basis, Debye-Ang**3):
 XXXX=          -1311.4101 YYYY=           -329.4099 ZZZZ=           -108.5697 XXXY=            -38.2566
 XXXZ=             49.9303 YYYX=             -1.7486 YYYZ=              3.9081 ZZZX=             -6.0860
 ZZZY=              2.9840 XXYY=           -233.8673 XXZZ=           -198.0603 YYZZ=            -80.0418
 XXYZ=             15.3535 YYXZ=              3.2841 ZZXY=             -3.0115
 N-N= 3.288635148992D+02 E-N=-1.424943911765D+03  KE= 3.233900048038D+02
 1\1\GINC-NODE56\SP\RB3LYP\6-31G(d)\C7H8N1(1-)\YANZ\22-Sep-2023\0\\# b3
 lyp/6-31g(d)\\tmpdir/M3_conf_0_68.gjf\\-1,1\N,0,0.,0.,0.\C,0,1.4927,0.
 ,0.\C,0,2.13016,0.,1.37204\C,0,2.09136,-1.15055,2.17208\C,0,2.74146,1.
 15413,1.87381\C,0,2.65504,-1.1457,3.44637\H,0,1.61181,-2.04961,1.7924\
 C,0,3.30857,1.16125,3.15017\H,0,2.7786,2.05228,1.26104\C,0,3.26605,0.0
 1147,3.93828\H,0,2.62105,-2.04471,4.05591\H,0,3.78221,2.0641,3.52598\H
 ,0,3.70725,0.01423,4.93128\H,0,-0.40584,0.7597,0.39245\H,0,1.75434,-0.
 90999,-0.5444\H,0,1.86096,0.85475,-0.5822\\Version=ES64L-G16RevA.03\St
 ate=1-A\HF=-326.2284797\RMSD=8.778e-09\Dipole=2.2605657,0.2741098,2.12
 72815\Quadrupole=-5.0556078,9.4625546,-4.4069468,-1.586826,-11.4789366
 ,-1.0571365\PG=C01 [X(C7H8N1)]\\@


 LOVE IS BLIND, THAT'S WHY ALL THE WORLD LOVES A LOUVER.
 Job cpu time:       0 days  0 hours  1 minutes 36.0 seconds.
 Elapsed time:       0 days  0 hours  0 minutes 25.4 seconds.
 File lengths (MBytes):  RWF=     11 Int=      0 D2E=      0 Chk=      2 Scr=      1
 Normal termination of Gaussian 16 at Fri Sep 22 17:01:49 2023.
