 Entering Gaussian System, Link 0=g16
 Initial command:
 /share/apps/gaussian/g16/l1.exe "/tmp/55622.mgr/Gau-175800.inp" -scrdir="/tmp/55622.mgr/"
 Entering Link 1 = /share/apps/gaussian/g16/l1.exe PID=    175801.
  
 Copyright (c) 1988,1990,1992,1993,1995,1998,2003,2009,2016,
            Gaussian, Inc.  All Rights Reserved.
  
 This is part of the Gaussian(R) 16 program.  It is based on
 the Gaussian(R) 09 system (copyright 2009, Gaussian, Inc.),
 the Gaussian(R) 03 system (copyright 2003, Gaussian, Inc.),
 the Gaussian(R) 98 system (copyright 1998, Gaussian, Inc.),
 the Gaussian(R) 94 system (copyright 1995, Gaussian, Inc.),
 the Gaussian 92(TM) system (copyright 1992, Gaussian, Inc.),
 the Gaussian 90(TM) system (copyright 1990, Gaussian, Inc.),
 the Gaussian 88(TM) system (copyright 1988, Gaussian, Inc.),
 the Gaussian 86(TM) system (copyright 1986, Carnegie Mellon
 University), and the Gaussian 82(TM) system (copyright 1983,
 Carnegie Mellon University). Gaussian is a federally registered
 trademark of Gaussian, Inc.
  
 This software contains proprietary and confidential information,
 including trade secrets, belonging to Gaussian, Inc.
  
 This software is provided under written license and may be
 used, copied, transmitted, or stored only in accord with that
 written license.
  
 The following legend is applicable only to US Government
 contracts under FAR:
  
                    RESTRICTED RIGHTS LEGEND
  
 Use, reproduction and disclosure by the US Government is
 subject to restrictions as set forth in subparagraphs (a)
 and (c) of the Commercial Computer Software - Restricted
 Rights clause in FAR 52.227-19.
  
 Gaussian, Inc.
 340 Quinnipiac St., Bldg. 40, Wallingford CT 06492
  
  
 ---------------------------------------------------------------
 Warning -- This program may not be used in any manner that
 competes with the business of Gaussian, Inc. or will provide
 assistance to any competitor of Gaussian, Inc.  The licensee
 of this program is prohibited from giving any competitor of
 Gaussian, Inc. access to this program.  By using this program,
 the user acknowledges that Gaussian, Inc. is engaged in the
 business of creating and licensing software in the field of
 computational chemistry and represents and warrants to the
 licensee that it is not a competitor of Gaussian, Inc. and that
 it will not use this program in any manner prohibited above.
 ---------------------------------------------------------------
  

 Cite this work as:
 Gaussian 16, Revision A.03,
 M. J. Frisch, G. W. Trucks, H. B. Schlegel, G. E. Scuseria, 
 M. A. Robb, J. R. Cheeseman, G. Scalmani, V. Barone, 
 G. A. Petersson, H. Nakatsuji, X. Li, M. Caricato, A. V. Marenich, 
 J. Bloino, B. G. Janesko, R. Gomperts, B. Mennucci, H. P. Hratchian, 
 J. V. Ortiz, A. F. Izmaylov, J. L. Sonnenberg, D. Williams-Young, 
 F. Ding, F. Lipparini, F. Egidi, J. Goings, B. Peng, A. Petrone, 
 T. Henderson, D. Ranasinghe, V. G. Zakrzewski, J. Gao, N. Rega, 
 G. Zheng, W. Liang, M. Hada, M. Ehara, K. Toyota, R. Fukuda, 
 J. Hasegawa, M. Ishida, T. Nakajima, Y. Honda, O. Kitao, H. Nakai, 
 T. Vreven, K. Throssell, J. A. Montgomery, Jr., J. E. Peralta, 
 F. Ogliaro, M. J. Bearpark, J. J. Heyd, E. N. Brothers, K. N. Kudin, 
 V. N. Staroverov, T. A. Keith, R. Kobayashi, J. Normand, 
 K. Raghavachari, A. P. Rendell, J. C. Burant, S. S. Iyengar, 
 J. Tomasi, M. Cossi, J. M. Millam, M. Klene, C. Adamo, R. Cammi, 
 J. W. Ochterski, R. L. Martin, K. Morokuma, O. Farkas, 
 J. B. Foresman, and D. J. Fox, Gaussian, Inc., Wallingford CT, 2016.
 
 ******************************************
 Gaussian 16:  ES64L-G16RevA.03 25-Dec-2016
                22-Sep-2023 
 ******************************************
 %nprocshared=4
 Will use up to    4 processors via shared memory.
 %mem=4GB
 ----------------
 # b3lyp/6-31g(d)
 ----------------
 1/38=1,172=1/1;
 2/12=2,17=6,18=5,40=1/2;
 3/5=1,6=6,7=1,11=2,25=1,30=1,74=-5/1,2,3;
 4//1;
 5/5=2,38=5/2;
 6/7=2,8=2,9=2,10=2,28=1/1;
 99/5=1,9=1/99;
 -----------------------
 tmpdir/M3_conf_0_34.gjf
 -----------------------
 Symbolic Z-matrix:
 Charge =  0 Multiplicity = 1
 H                     0.        0.        0. 
 C                     1.0973    0.        0. 
 H                     1.39964   0.        1.05649 
 H                     1.48578  -0.92165  -0.51636 
 H                     1.51388   0.83188  -0.50083 
 
                          Input orientation:                          
 ---------------------------------------------------------------------
 Center     Atomic      Atomic             Coordinates (Angstroms)
 Number     Number       Type             X           Y           Z
 ---------------------------------------------------------------------
      1          1           0        0.000000    0.000000    0.000000
      2          6           0        1.097300    0.000000    0.000000
      3          1           0        1.399640    0.000000    1.056490
      4          1           0        1.485780   -0.921650   -0.516360
      5          1           0        1.513880    0.831880   -0.500830
 ---------------------------------------------------------------------
                    Distance matrix (angstroms):
                    1          2          3          4          5
     1  H    0.000000
     2  C    1.097300   0.000000
     3  H    1.753614   1.098900   0.000000
     4  H    1.823077   1.125603   1.825025   0.000000
     5  H    1.798524   1.056595   1.769271   1.753824   0.000000
 Stoichiometry    CH4
 Framework group  C1[X(CH4)]
 Deg. of freedom     9
 Full point group                 C1      NOp   1
 Largest Abelian subgroup         C1      NOp   1
 Largest concise Abelian subgroup C1      NOp   1
                         Standard orientation:                         
 ---------------------------------------------------------------------
 Center     Atomic      Atomic             Coordinates (Angstroms)
 Number     Number       Type             X           Y           Z
 ---------------------------------------------------------------------
      1          1           0       -0.682706    0.760706    0.402018
      2          6           0       -0.000139   -0.003422    0.009237
      3          1           0       -0.589467   -0.598168   -0.702486
      4          1           0        0.868113    0.484078   -0.515612
      5          1           0        0.404894   -0.626085    0.760657
 ---------------------------------------------------------------------
 Rotational constants (GHZ):         163.6978406         155.1768531         152.2317049
 Standard basis: 6-31G(d) (6D, 7F)
 There are    23 symmetry adapted cartesian basis functions of A   symmetry.
 There are    23 symmetry adapted basis functions of A   symmetry.
    23 basis functions,    44 primitive gaussians,    23 cartesian basis functions
     5 alpha electrons        5 beta electrons
       nuclear repulsion energy        13.3856299351 Hartrees.
 NAtoms=    5 NActive=    5 NUniq=    5 SFac= 1.00D+00 NAtFMM=   60 NAOKFM=F Big=F
 Integral buffers will be    131072 words long.
 Raffenetti 2 integral format.
 Two-electron integral symmetry is turned on.
 One-electron integrals computed using PRISM.
 NBasis=    23 RedAO= T EigKep=  1.80D-02  NBF=    23
 NBsUse=    23 1.00D-06 EigRej= -1.00D+00 NBFU=    23
 ExpMin= 1.61D-01 ExpMax= 3.05D+03 ExpMxC= 4.57D+02 IAcc=3 IRadAn=         5 AccDes= 0.00D+00
 Harris functional with IExCor=  402 and IRadAn=       5 diagonalized for initial guess.
 HarFok:  IExCor=  402 AccDes= 0.00D+00 IRadAn=         5 IDoV= 1 UseB2=F ITyADJ=14
 ICtDFT=  3500011 ScaDFX=  1.000000  1.000000  1.000000  1.000000
 FoFCou: FMM=F IPFlag=           0 FMFlag=      100000 FMFlg1=           0
         NFxFlg=           0 DoJE=T BraDBF=F KetDBF=T FulRan=T
         wScrn=  0.000000 ICntrl=       500 IOpCl=  0 I1Cent=   200000004 NGrid=           0
         NMat0=    1 NMatS0=      1 NMatT0=    0 NMatD0=    1 NMtDS0=    0 NMtDT0=    0
 Petite list used in FoFCou.
 Keep R1 ints in memory in canonical form, NReq=3486400.
 Requested convergence on RMS density matrix=1.00D-08 within 128 cycles.
 Requested convergence on MAX density matrix=1.00D-06.
 Requested convergence on             energy=1.00D-06.
 No special actions if energy rises.
 Integral accuracy reduced to 1.0D-05 until final iterations.
 Initial convergence to 1.0D-05 achieved.  Increase integral accuracy.
 SCF Done:  E(RB3LYP) =  -40.5162037987     A.U. after    9 cycles
            NFock=  9  Conv=0.13D-08     -V/T= 2.0112

 **********************************************************************

            Population analysis using the SCF density.

 **********************************************************************

 Orbital symmetries:
       Occupied  (A) (A) (A) (A) (A)
       Virtual   (A) (A) (A) (A) (A) (A) (A) (A) (A) (A) (A) (A)
                 (A) (A) (A) (A) (A) (A)
 The electronic state is 1-A.
 Alpha  occ. eigenvalues --  -10.16753  -0.69038  -0.40211  -0.38375  -0.38072
 Alpha virt. eigenvalues --    0.11687   0.16926   0.17218   0.18664   0.52526
 Alpha virt. eigenvalues --    0.53213   0.54513   0.87825   0.88779   0.91708
 Alpha virt. eigenvalues --    0.95447   1.09640   1.65640   1.66186   2.20916
 Alpha virt. eigenvalues --    2.24108   2.27365   4.17785
          Condensed to atoms (all electrons):
               1          2          3          4          5
     1  H    0.539344   0.383507  -0.031268  -0.024579  -0.023785
     2  C    0.383507   5.093424   0.382406   0.379941   0.388016
     3  H   -0.031268   0.382406   0.544570  -0.023886  -0.026961
     4  H   -0.024579   0.379941  -0.023886   0.551049  -0.030636
     5  H   -0.023785   0.388016  -0.026961  -0.030636   0.526101
 Mulliken charges:
               1
     1  H    0.156780
     2  C   -0.627295
     3  H    0.155139
     4  H    0.148112
     5  H    0.167265
 Sum of Mulliken charges =   0.00000
 Mulliken charges with hydrogens summed into heavy atoms:
               1
     2  C    0.000000
 Electronic spatial extent (au):  <R**2>=             35.5339
 Charge=              0.0000 electrons
 Dipole moment (field-independent basis, Debye):
    X=             -0.0090    Y=             -0.0246    Z=              0.0137  Tot=              0.0295
 Quadrupole moment (field-independent basis, Debye-Ang):
   XX=             -8.1033   YY=             -8.2938   ZZ=             -8.3703
   XY=             -0.0582   XZ=              0.0558   YZ=             -0.0344
 Traceless Quadrupole moment (field-independent basis, Debye-Ang):
   XX=              0.1525   YY=             -0.0380   ZZ=             -0.1145
   XY=             -0.0582   XZ=              0.0558   YZ=             -0.0344
 Octapole moment (field-independent basis, Debye-Ang**2):
  XXX=              0.0931  YYY=             -0.0609  ZZZ=              0.1424  XYY=             -0.1709
  XXY=              0.2336  XXZ=             -0.1633  XZZ=              0.0416  YZZ=             -0.3137
  YYZ=              0.1600  XYZ=             -0.5734
 Hexadecapole moment (field-independent basis, Debye-Ang**3):
 XXXX=            -16.0200 YYYY=            -15.6058 ZZZZ=            -15.3679 XXXY=              0.0411
 XXXZ=             -0.1662 YYYX=             -0.3072 YYYZ=              0.0119 ZZZX=              0.3467
 ZZZY=             -0.1572 XXYY=             -4.8821 XXZZ=             -4.9439 YYZZ=             -4.8185
 XXYZ=             -0.0011 YYXZ=              0.0459 ZZXY=              0.0199
 N-N= 1.338562993511D+01 E-N=-1.198049160123D+02  KE= 4.006890323021D+01
 1\1\GINC-NODE56\SP\RB3LYP\6-31G(d)\C1H4\YANZ\22-Sep-2023\0\\# b3lyp/6-
 31g(d)\\tmpdir/M3_conf_0_34.gjf\\0,1\H,0,0.,0.,0.\C,0,1.0973,0.,0.\H,0
 ,1.39964,0.,1.05649\H,0,1.48578,-0.92165,-0.51636\H,0,1.51388,0.83188,
 -0.50083\\Version=ES64L-G16RevA.03\State=1-A\HF=-40.5162038\RMSD=1.259
 e-09\Dipole=0.0025885,0.0109095,0.0030538\Quadrupole=0.0255024,-0.0565
 018,0.0309994,0.0305778,-0.1061712,0.0095931\PG=C01 [X(C1H4)]\\@


 SLITHERY-DITHERY
 FRIEDRICH A. KEKULE
 DREAMT ON A BUS OF THINGS
 FREUD WOULD THINK KEEN.
 MOST OF THE TIME THEY WERE
 HERPETOLOGICAL
 BITING THEIR TAILS IN THE
 SHAPE OF BENZENE.
 Job cpu time:       0 days  0 hours  0 minutes  5.1 seconds.
 Elapsed time:       0 days  0 hours  0 minutes  1.4 seconds.
 File lengths (MBytes):  RWF=      6 Int=      0 D2E=      0 Chk=      1 Scr=      1
 Normal termination of Gaussian 16 at Fri Sep 22 17:01:18 2023.
