 Entering Gaussian System, Link 0=g16
 Initial command:
 /share/apps/gaussian/g16/l1.exe "/tmp/55622.mgr/Gau-175422.inp" -scrdir="/tmp/55622.mgr/"
 Entering Link 1 = /share/apps/gaussian/g16/l1.exe PID=    175423.
  
 Copyright (c) 1988,1990,1992,1993,1995,1998,2003,2009,2016,
            Gaussian, Inc.  All Rights Reserved.
  
 This is part of the Gaussian(R) 16 program.  It is based on
 the Gaussian(R) 09 system (copyright 2009, Gaussian, Inc.),
 the Gaussian(R) 03 system (copyright 2003, Gaussian, Inc.),
 the Gaussian(R) 98 system (copyright 1998, Gaussian, Inc.),
 the Gaussian(R) 94 system (copyright 1995, Gaussian, Inc.),
 the Gaussian 92(TM) system (copyright 1992, Gaussian, Inc.),
 the Gaussian 90(TM) system (copyright 1990, Gaussian, Inc.),
 the Gaussian 88(TM) system (copyright 1988, Gaussian, Inc.),
 the Gaussian 86(TM) system (copyright 1986, Carnegie Mellon
 University), and the Gaussian 82(TM) system (copyright 1983,
 Carnegie Mellon University). Gaussian is a federally registered
 trademark of Gaussian, Inc.
  
 This software contains proprietary and confidential information,
 including trade secrets, belonging to Gaussian, Inc.
  
 This software is provided under written license and may be
 used, copied, transmitted, or stored only in accord with that
 written license.
  
 The following legend is applicable only to US Government
 contracts under FAR:
  
                    RESTRICTED RIGHTS LEGEND
  
 Use, reproduction and disclosure by the US Government is
 subject to restrictions as set forth in subparagraphs (a)
 and (c) of the Commercial Computer Software - Restricted
 Rights clause in FAR 52.227-19.
  
 Gaussian, Inc.
 340 Quinnipiac St., Bldg. 40, Wallingford CT 06492
  
  
 ---------------------------------------------------------------
 Warning -- This program may not be used in any manner that
 competes with the business of Gaussian, Inc. or will provide
 assistance to any competitor of Gaussian, Inc.  The licensee
 of this program is prohibited from giving any competitor of
 Gaussian, Inc. access to this program.  By using this program,
 the user acknowledges that Gaussian, Inc. is engaged in the
 business of creating and licensing software in the field of
 computational chemistry and represents and warrants to the
 licensee that it is not a competitor of Gaussian, Inc. and that
 it will not use this program in any manner prohibited above.
 ---------------------------------------------------------------
  

 Cite this work as:
 Gaussian 16, Revision A.03,
 M. J. Frisch, G. W. Trucks, H. B. Schlegel, G. E. Scuseria, 
 M. A. Robb, J. R. Cheeseman, G. Scalmani, V. Barone, 
 G. A. Petersson, H. Nakatsuji, X. Li, M. Caricato, A. V. Marenich, 
 J. Bloino, B. G. Janesko, R. Gomperts, B. Mennucci, H. P. Hratchian, 
 J. V. Ortiz, A. F. Izmaylov, J. L. Sonnenberg, D. Williams-Young, 
 F. Ding, F. Lipparini, F. Egidi, J. Goings, B. Peng, A. Petrone, 
 T. Henderson, D. Ranasinghe, V. G. Zakrzewski, J. Gao, N. Rega, 
 G. Zheng, W. Liang, M. Hada, M. Ehara, K. Toyota, R. Fukuda, 
 J. Hasegawa, M. Ishida, T. Nakajima, Y. Honda, O. Kitao, H. Nakai, 
 T. Vreven, K. Throssell, J. A. Montgomery, Jr., J. E. Peralta, 
 F. Ogliaro, M. J. Bearpark, J. J. Heyd, E. N. Brothers, K. N. Kudin, 
 V. N. Staroverov, T. A. Keith, R. Kobayashi, J. Normand, 
 K. Raghavachari, A. P. Rendell, J. C. Burant, S. S. Iyengar, 
 J. Tomasi, M. Cossi, J. M. Millam, M. Klene, C. Adamo, R. Cammi, 
 J. W. Ochterski, R. L. Martin, K. Morokuma, O. Farkas, 
 J. B. Foresman, and D. J. Fox, Gaussian, Inc., Wallingford CT, 2016.
 
 ******************************************
 Gaussian 16:  ES64L-G16RevA.03 25-Dec-2016
                22-Sep-2023 
 ******************************************
 %nprocshared=4
 Will use up to    4 processors via shared memory.
 %mem=4GB
 ----------------
 # b3lyp/6-31g(d)
 ----------------
 1/38=1,172=1/1;
 2/12=2,17=6,18=5,40=1/2;
 3/5=1,6=6,7=1,11=2,25=1,30=1,74=-5/1,2,3;
 4//1;
 5/5=2,38=5/2;
 6/7=2,8=2,9=2,10=2,28=1/1;
 99/5=1,9=1/99;
 -----------------------
 tmpdir/M3_conf_0_33.gjf
 -----------------------
 Symbolic Z-matrix:
 Charge =  0 Multiplicity = 1
 C                     0.        0.        0. 
 C                     1.5549    0.        0. 
 C                     2.08249   0.        1.36091 
 H                    -0.48418   0.73686   0.69487 
 H                    -0.3494   -1.01053   0.2484 
 H                    -0.3348    0.19975  -1.02667 
 H                     1.93362  -0.85949  -0.56738 
 H                     1.9293    0.9008   -0.50592 
 N                     2.11402   0.15316   2.46469 
 
                          Input orientation:                          
 ---------------------------------------------------------------------
 Center     Atomic      Atomic             Coordinates (Angstroms)
 Number     Number       Type             X           Y           Z
 ---------------------------------------------------------------------
      1          6           0        0.000000    0.000000    0.000000
      2          6           0        1.554900    0.000000    0.000000
      3          6           0        2.082490    0.000000    1.360910
      4          1           0       -0.484180    0.736860    0.694870
      5          1           0       -0.349400   -1.010530    0.248400
      6          1           0       -0.334800    0.199750   -1.026670
      7          1           0        1.933620   -0.859490   -0.567380
      8          1           0        1.929300    0.900800   -0.505920
      9          7           0        2.114020    0.153160    2.464690
 ---------------------------------------------------------------------
                    Distance matrix (angstroms):
                    1          2          3          4          5
     1  C    0.000000
     2  C    1.554900   0.000000
     3  C    2.487738   1.459598   0.000000
     4  H    1.122603   2.276764   2.752157   0.000000
     5  H    1.097704   2.170076   2.858835   1.808555   0.000000
     6  H    1.098200   2.159842   3.403488   1.809558   1.758066
     7  H    2.190783   1.097302   2.116409   3.160279   2.429093
     8  H    2.188514   1.098895   2.078452   2.700677   3.068331
     9  N    3.250728   2.531950   1.114802   3.197438   3.512058
                    6          7          8          9
     6  H    0.000000
     7  H    2.545322   0.000000
     8  H    2.426685   1.761368   0.000000
     9  N    4.264796   3.201789   3.068813   0.000000
 Stoichiometry    C3H5N
 Framework group  C1[X(C3H5N)]
 Deg. of freedom    21
 Full point group                 C1      NOp   1
 Largest Abelian subgroup         C1      NOp   1
 Largest concise Abelian subgroup C1      NOp   1
                         Standard orientation:                         
 ---------------------------------------------------------------------
 Center     Atomic      Atomic             Coordinates (Angstroms)
 Number     Number       Type             X           Y           Z
 ---------------------------------------------------------------------
      1          6           0        1.455192   -0.505202    0.001197
      2          6           0        0.473346    0.700253   -0.022717
      3          6           0       -0.913549    0.252780    0.059248
      4          1           0        1.192215   -1.357459   -0.680520
      5          1           0        1.525561   -0.878140    1.031206
      6          1           0        2.453232   -0.129349   -0.260898
      7          1           0        0.709307    1.397100    0.791408
      8          1           0        0.591157    1.260537   -0.960679
      9          7           0       -1.794487   -0.425668   -0.020984
 ---------------------------------------------------------------------
 Rotational constants (GHZ):          23.3303162           5.2418689           4.5273102
 Standard basis: 6-31G(d) (6D, 7F)
 There are    70 symmetry adapted cartesian basis functions of A   symmetry.
 There are    70 symmetry adapted basis functions of A   symmetry.
    70 basis functions,   132 primitive gaussians,    70 cartesian basis functions
    15 alpha electrons       15 beta electrons
       nuclear repulsion energy       104.1725117163 Hartrees.
 NAtoms=    9 NActive=    9 NUniq=    9 SFac= 1.00D+00 NAtFMM=   60 NAOKFM=F Big=F
 Integral buffers will be    131072 words long.
 Raffenetti 2 integral format.
 Two-electron integral symmetry is turned on.
 One-electron integrals computed using PRISM.
 NBasis=    70 RedAO= T EigKep=  1.90D-03  NBF=    70
 NBsUse=    70 1.00D-06 EigRej= -1.00D+00 NBFU=    70
 ExpMin= 1.61D-01 ExpMax= 4.17D+03 ExpMxC= 6.27D+02 IAcc=3 IRadAn=         5 AccDes= 0.00D+00
 Harris functional with IExCor=  402 and IRadAn=       5 diagonalized for initial guess.
 HarFok:  IExCor=  402 AccDes= 0.00D+00 IRadAn=         5 IDoV= 1 UseB2=F ITyADJ=14
 ICtDFT=  3500011 ScaDFX=  1.000000  1.000000  1.000000  1.000000
 FoFCou: FMM=F IPFlag=           0 FMFlag=      100000 FMFlg1=           0
         NFxFlg=           0 DoJE=T BraDBF=F KetDBF=T FulRan=T
         wScrn=  0.000000 ICntrl=       500 IOpCl=  0 I1Cent=   200000004 NGrid=           0
         NMat0=    1 NMatS0=      1 NMatT0=    0 NMatD0=    1 NMtDS0=    0 NMtDT0=    0
 Petite list used in FoFCou.
 Keep R1 ints in memory in canonical form, NReq=6658320.
 Requested convergence on RMS density matrix=1.00D-08 within 128 cycles.
 Requested convergence on MAX density matrix=1.00D-06.
 Requested convergence on             energy=1.00D-06.
 No special actions if energy rises.
 Integral accuracy reduced to 1.0D-05 until final iterations.
 Initial convergence to 1.0D-05 achieved.  Increase integral accuracy.
 SCF Done:  E(RB3LYP) =  -172.055440795     A.U. after   13 cycles
            NFock= 13  Conv=0.29D-08     -V/T= 2.0086

 **********************************************************************

            Population analysis using the SCF density.

 **********************************************************************

 Orbital symmetries:
       Occupied  (A) (A) (A) (A) (A) (A) (A) (A) (A) (A) (A) (A)
                 (A) (A) (A)
       Virtual   (A) (A) (A) (A) (A) (A) (A) (A) (A) (A) (A) (A)
                 (A) (A) (A) (A) (A) (A) (A) (A) (A) (A) (A) (A)
                 (A) (A) (A) (A) (A) (A) (A) (A) (A) (A) (A) (A)
                 (A) (A) (A) (A) (A) (A) (A) (A) (A) (A) (A) (A)
                 (A) (A) (A) (A) (A) (A) (A)
 The electronic state is 1-A.
 Alpha  occ. eigenvalues --  -14.31984 -10.23974 -10.21361 -10.20831  -0.91827
 Alpha  occ. eigenvalues --   -0.80007  -0.66972  -0.51344  -0.48209  -0.42650
 Alpha  occ. eigenvalues --   -0.39726  -0.38781  -0.35226  -0.33023  -0.32804
 Alpha virt. eigenvalues --    0.03207   0.05317   0.08253   0.12446   0.13428
 Alpha virt. eigenvalues --    0.15888   0.18145   0.21763   0.24694   0.33234
 Alpha virt. eigenvalues --    0.50817   0.52728   0.54164   0.57252   0.58692
 Alpha virt. eigenvalues --    0.60915   0.66840   0.72883   0.76253   0.77919
 Alpha virt. eigenvalues --    0.81378   0.84071   0.85212   0.88006   0.89618
 Alpha virt. eigenvalues --    0.91447   0.94316   1.04463   1.20178   1.39302
 Alpha virt. eigenvalues --    1.44235   1.48493   1.50866   1.54784   1.63309
 Alpha virt. eigenvalues --    1.72056   1.81339   1.87998   1.94018   1.97331
 Alpha virt. eigenvalues --    2.04487   2.10792   2.18004   2.25847   2.28968
 Alpha virt. eigenvalues --    2.31810   2.49910   2.74274   2.79197   2.89210
 Alpha virt. eigenvalues --    3.23508   3.98954   4.08440   4.25526   4.57804
          Condensed to atoms (all electrons):
               1          2          3          4          5          6
     1  C    5.056479   0.370113  -0.046513   0.379788   0.380959   0.368563
     2  C    0.370113   5.081517   0.333160  -0.027833  -0.034283  -0.033781
     3  C   -0.046513   0.333160   4.561357  -0.003466  -0.003090   0.005780
     4  H    0.379788  -0.027833  -0.003466   0.525651  -0.026211  -0.026168
     5  H    0.380959  -0.034283  -0.003090  -0.026211   0.544440  -0.030571
     6  H    0.368563  -0.033781   0.005780  -0.026168  -0.030571   0.563231
     7  H   -0.033141   0.361405  -0.024689   0.003522  -0.005575  -0.000707
     8  H   -0.034176   0.374872  -0.034456  -0.001657   0.004385  -0.004585
     9  N   -0.006625  -0.080102   0.918963   0.001044   0.000296   0.000187
               7          8          9
     1  C   -0.033141  -0.034176  -0.006625
     2  C    0.361405   0.374872  -0.080102
     3  C   -0.024689  -0.034456   0.918963
     4  H    0.003522  -0.001657   0.001044
     5  H   -0.005575   0.004385   0.000296
     6  H   -0.000707  -0.004585   0.000187
     7  H    0.544378  -0.032226   0.001958
     8  H   -0.032226   0.537113  -0.001132
     9  N    0.001958  -0.001132   6.557819
 Mulliken charges:
               1
     1  C   -0.435447
     2  C   -0.345068
     3  C    0.292954
     4  H    0.175330
     5  H    0.169649
     6  H    0.158051
     7  H    0.185076
     8  H    0.191862
     9  N   -0.392408
 Sum of Mulliken charges =  -0.00000
 Mulliken charges with hydrogens summed into heavy atoms:
               1
     1  C    0.067583
     2  C    0.031871
     3  C    0.292954
     9  N   -0.392408
 Electronic spatial extent (au):  <R**2>=            298.6400
 Charge=             -0.0000 electrons
 Dipole moment (field-independent basis, Debye):
    X=              3.3898    Y=              1.4818    Z=              0.0307  Tot=              3.6997
 Quadrupole moment (field-independent basis, Debye-Ang):
   XX=            -29.5144   YY=            -23.5626   ZZ=            -23.4949
   XY=             -1.7238   XZ=             -0.0638   YZ=              0.0756
 Traceless Quadrupole moment (field-independent basis, Debye-Ang):
   XX=             -3.9904   YY=              1.9613   ZZ=              2.0291
   XY=             -1.7238   XZ=             -0.0638   YZ=              0.0756
 Octapole moment (field-independent basis, Debye-Ang**2):
  XXX=             14.5758  YYY=              1.2316  ZZZ=              0.2164  XYY=              1.9834
  XXY=              4.2191  XXZ=              0.1436  XZZ=              0.7735  YZZ=              0.5829
  YYZ=             -0.3573  XYZ=              0.0751
 Hexadecapole moment (field-independent basis, Debye-Ang**3):
 XXXX=           -301.8161 YYYY=            -79.8074 ZZZZ=            -35.5258 XXXY=             -6.6822
 XXXZ=             -1.2943 YYYX=             -0.4078 YYYZ=              1.2563 ZZZX=              0.9133
 ZZZY=             -0.6567 XXYY=            -62.7006 XXZZ=            -52.4947 YYZZ=            -17.4124
 XXYZ=             -0.4019 YYXZ=             -0.1570 ZZXY=              0.1052
 N-N= 1.041725117163D+02 E-N=-6.073126834438D+02  KE= 1.705813248380D+02
 1\1\GINC-NODE56\SP\RB3LYP\6-31G(d)\C3H5N1\YANZ\22-Sep-2023\0\\# b3lyp/
 6-31g(d)\\tmpdir/M3_conf_0_33.gjf\\0,1\C,0,0.,0.,0.\C,0,1.5549,0.,0.\C
 ,0,2.08249,0.,1.36091\H,0,-0.48418,0.73686,0.69487\H,0,-0.3494,-1.0105
 3,0.2484\H,0,-0.3348,0.19975,-1.02667\H,0,1.93362,-0.85949,-0.56738\H,
 0,1.9293,0.9008,-0.50592\N,0,2.11402,0.15316,2.46469\\Version=ES64L-G1
 6RevA.03\State=1-A\HF=-172.0554408\RMSD=2.927e-09\Dipole=-0.3903715,-0
 .098879,-1.3987513\Quadrupole=0.9463547,1.4970053,-2.44336,-0.190999,-
 1.8987152,-0.2343091\PG=C01 [X(C3H5N1)]\\@


 Where a calculator on the ENIAC is equipped with 18,000
 vacuum tubes and weighs 30 tons, computers inthe future
 may  have only 1,000 vacuum tubes and weigh only 1 1/2 tons.
              ---Popular Mechanics, March 1949
 Job cpu time:       0 days  0 hours  0 minutes 19.4 seconds.
 Elapsed time:       0 days  0 hours  0 minutes  5.1 seconds.
 File lengths (MBytes):  RWF=      6 Int=      0 D2E=      0 Chk=      1 Scr=      1
 Normal termination of Gaussian 16 at Fri Sep 22 17:01:16 2023.
