 Entering Gaussian System, Link 0=g16
 Initial command:
 /share/apps/gaussian/g16/l1.exe "/tmp/55622.mgr/Gau-175329.inp" -scrdir="/tmp/55622.mgr/"
 Entering Link 1 = /share/apps/gaussian/g16/l1.exe PID=    175330.
  
 Copyright (c) 1988,1990,1992,1993,1995,1998,2003,2009,2016,
            Gaussian, Inc.  All Rights Reserved.
  
 This is part of the Gaussian(R) 16 program.  It is based on
 the Gaussian(R) 09 system (copyright 2009, Gaussian, Inc.),
 the Gaussian(R) 03 system (copyright 2003, Gaussian, Inc.),
 the Gaussian(R) 98 system (copyright 1998, Gaussian, Inc.),
 the Gaussian(R) 94 system (copyright 1995, Gaussian, Inc.),
 the Gaussian 92(TM) system (copyright 1992, Gaussian, Inc.),
 the Gaussian 90(TM) system (copyright 1990, Gaussian, Inc.),
 the Gaussian 88(TM) system (copyright 1988, Gaussian, Inc.),
 the Gaussian 86(TM) system (copyright 1986, Carnegie Mellon
 University), and the Gaussian 82(TM) system (copyright 1983,
 Carnegie Mellon University). Gaussian is a federally registered
 trademark of Gaussian, Inc.
  
 This software contains proprietary and confidential information,
 including trade secrets, belonging to Gaussian, Inc.
  
 This software is provided under written license and may be
 used, copied, transmitted, or stored only in accord with that
 written license.
  
 The following legend is applicable only to US Government
 contracts under FAR:
  
                    RESTRICTED RIGHTS LEGEND
  
 Use, reproduction and disclosure by the US Government is
 subject to restrictions as set forth in subparagraphs (a)
 and (c) of the Commercial Computer Software - Restricted
 Rights clause in FAR 52.227-19.
  
 Gaussian, Inc.
 340 Quinnipiac St., Bldg. 40, Wallingford CT 06492
  
  
 ---------------------------------------------------------------
 Warning -- This program may not be used in any manner that
 competes with the business of Gaussian, Inc. or will provide
 assistance to any competitor of Gaussian, Inc.  The licensee
 of this program is prohibited from giving any competitor of
 Gaussian, Inc. access to this program.  By using this program,
 the user acknowledges that Gaussian, Inc. is engaged in the
 business of creating and licensing software in the field of
 computational chemistry and represents and warrants to the
 licensee that it is not a competitor of Gaussian, Inc. and that
 it will not use this program in any manner prohibited above.
 ---------------------------------------------------------------
  

 Cite this work as:
 Gaussian 16, Revision A.03,
 M. J. Frisch, G. W. Trucks, H. B. Schlegel, G. E. Scuseria, 
 M. A. Robb, J. R. Cheeseman, G. Scalmani, V. Barone, 
 G. A. Petersson, H. Nakatsuji, X. Li, M. Caricato, A. V. Marenich, 
 J. Bloino, B. G. Janesko, R. Gomperts, B. Mennucci, H. P. Hratchian, 
 J. V. Ortiz, A. F. Izmaylov, J. L. Sonnenberg, D. Williams-Young, 
 F. Ding, F. Lipparini, F. Egidi, J. Goings, B. Peng, A. Petrone, 
 T. Henderson, D. Ranasinghe, V. G. Zakrzewski, J. Gao, N. Rega, 
 G. Zheng, W. Liang, M. Hada, M. Ehara, K. Toyota, R. Fukuda, 
 J. Hasegawa, M. Ishida, T. Nakajima, Y. Honda, O. Kitao, H. Nakai, 
 T. Vreven, K. Throssell, J. A. Montgomery, Jr., J. E. Peralta, 
 F. Ogliaro, M. J. Bearpark, J. J. Heyd, E. N. Brothers, K. N. Kudin, 
 V. N. Staroverov, T. A. Keith, R. Kobayashi, J. Normand, 
 K. Raghavachari, A. P. Rendell, J. C. Burant, S. S. Iyengar, 
 J. Tomasi, M. Cossi, J. M. Millam, M. Klene, C. Adamo, R. Cammi, 
 J. W. Ochterski, R. L. Martin, K. Morokuma, O. Farkas, 
 J. B. Foresman, and D. J. Fox, Gaussian, Inc., Wallingford CT, 2016.
 
 ******************************************
 Gaussian 16:  ES64L-G16RevA.03 25-Dec-2016
                22-Sep-2023 
 ******************************************
 %nprocshared=4
 Will use up to    4 processors via shared memory.
 %mem=4GB
 ----------------
 # b3lyp/6-31g(d)
 ----------------
 1/38=1,172=1/1;
 2/12=2,17=6,18=5,40=1/2;
 3/5=1,6=6,7=1,11=2,25=1,30=1,74=-5/1,2,3;
 4//1;
 5/5=2,38=5/2;
 6/7=2,8=2,9=2,10=2,28=1/1;
 99/5=1,9=1/99;
 -----------------------
 tmpdir/M3_conf_0_25.gjf
 -----------------------
 Symbolic Z-matrix:
 Charge =  0 Multiplicity = 1
 C                     0.        0.        0. 
 C                     1.5549    0.        0. 
 H                     1.91046   0.        1.03852 
 H                    -0.37872   0.75626   0.69908 
 H                    -0.3744    0.27627  -0.99553 
 H                    -0.30751  -0.98164   0.2413 
 H                     2.03908  -0.85067  -0.54969 
 H                     1.8897    0.94931  -0.43905 
 
                          Input orientation:                          
 ---------------------------------------------------------------------
 Center     Atomic      Atomic             Coordinates (Angstroms)
 Number     Number       Type             X           Y           Z
 ---------------------------------------------------------------------
      1          6           0        0.000000    0.000000    0.000000
      2          6           0        1.554900    0.000000    0.000000
      3          1           0        1.910460    0.000000    1.038520
      4          1           0       -0.378720    0.756260    0.699080
      5          1           0       -0.374400    0.276270   -0.995530
      6          1           0       -0.307510   -0.981640    0.241300
      7          1           0        2.039080   -0.850670   -0.549690
      8          1           0        1.889700    0.949310   -0.439050
 ---------------------------------------------------------------------
                    Distance matrix (angstroms):
                    1          2          3          4          5
     1  C    0.000000
     2  C    1.554900   0.000000
     3  H    2.174484   1.097701   0.000000
     4  H    1.097302   2.190783   2.434644   0.000000
     5  H    1.098900   2.188516   3.071526   1.761281   0.000000
     6  H    1.056601   2.119060   2.553149   1.798591   1.765378
     7  H    2.276762   1.122599   1.806265   3.160286   2.700676
     8  H    2.159843   1.098201   1.756369   2.545258   2.426685
                    6          7          8
     6  H    0.000000
     7  H    2.479779   0.000000
     8  H    3.003194   1.809553   0.000000
 Stoichiometry    C2H6
 Framework group  C1[X(C2H6)]
 Deg. of freedom    18
 Full point group                 C1      NOp   1
 Largest Abelian subgroup         C1      NOp   1
 Largest concise Abelian subgroup C1      NOp   1
                         Standard orientation:                         
 ---------------------------------------------------------------------
 Center     Atomic      Atomic             Coordinates (Angstroms)
 Number     Number       Type             X           Y           Z
 ---------------------------------------------------------------------
      1          6           0       -0.783604    0.014287   -0.011727
      2          6           0        0.771154    0.000748    0.004274
      3          1           0        1.132749   -0.426140   -0.940164
      4          1           0       -1.167393   -0.958087   -0.345293
      5          1           0       -1.167143    0.171586    1.005984
      6          1           0       -1.077751    0.814643   -0.635676
      7          1           0        1.262413    0.997429    0.164024
      8          1           0        1.091826   -0.689636    0.795845
 ---------------------------------------------------------------------
 Rotational constants (GHZ):          79.0185046          19.7200146          19.5783184
 Standard basis: 6-31G(d) (6D, 7F)
 There are    42 symmetry adapted cartesian basis functions of A   symmetry.
 There are    42 symmetry adapted basis functions of A   symmetry.
    42 basis functions,    80 primitive gaussians,    42 cartesian basis functions
     9 alpha electrons        9 beta electrons
       nuclear repulsion energy        41.9316995762 Hartrees.
 NAtoms=    8 NActive=    8 NUniq=    8 SFac= 1.00D+00 NAtFMM=   60 NAOKFM=F Big=F
 Integral buffers will be    131072 words long.
 Raffenetti 2 integral format.
 Two-electron integral symmetry is turned on.
 One-electron integrals computed using PRISM.
 NBasis=    42 RedAO= T EigKep=  8.56D-03  NBF=    42
 NBsUse=    42 1.00D-06 EigRej= -1.00D+00 NBFU=    42
 ExpMin= 1.61D-01 ExpMax= 3.05D+03 ExpMxC= 4.57D+02 IAcc=3 IRadAn=         5 AccDes= 0.00D+00
 Harris functional with IExCor=  402 and IRadAn=       5 diagonalized for initial guess.
 HarFok:  IExCor=  402 AccDes= 0.00D+00 IRadAn=         5 IDoV= 1 UseB2=F ITyADJ=14
 ICtDFT=  3500011 ScaDFX=  1.000000  1.000000  1.000000  1.000000
 FoFCou: FMM=F IPFlag=           0 FMFlag=      100000 FMFlg1=           0
         NFxFlg=           0 DoJE=T BraDBF=F KetDBF=T FulRan=T
         wScrn=  0.000000 ICntrl=       500 IOpCl=  0 I1Cent=   200000004 NGrid=           0
         NMat0=    1 NMatS0=      1 NMatT0=    0 NMatD0=    1 NMtDS0=    0 NMtDT0=    0
 Petite list used in FoFCou.
 Keep R1 ints in memory in canonical form, NReq=3861446.
 Requested convergence on RMS density matrix=1.00D-08 within 128 cycles.
 Requested convergence on MAX density matrix=1.00D-06.
 Requested convergence on             energy=1.00D-06.
 No special actions if energy rises.
 Integral accuracy reduced to 1.0D-05 until final iterations.
 Initial convergence to 1.0D-05 achieved.  Increase integral accuracy.
 SCF Done:  E(RB3LYP) =  -79.8259894224     A.U. after   10 cycles
            NFock= 10  Conv=0.94D-08     -V/T= 2.0110

 **********************************************************************

            Population analysis using the SCF density.

 **********************************************************************

 Orbital symmetries:
       Occupied  (A) (A) (A) (A) (A) (A) (A) (A) (A)
       Virtual   (A) (A) (A) (A) (A) (A) (A) (A) (A) (A) (A) (A)
                 (A) (A) (A) (A) (A) (A) (A) (A) (A) (A) (A) (A)
                 (A) (A) (A) (A) (A) (A) (A) (A) (A)
 The electronic state is 1-A.
 Alpha  occ. eigenvalues --  -10.17498 -10.17033  -0.74485  -0.61015  -0.43697
 Alpha  occ. eigenvalues --   -0.42660  -0.35736  -0.34165  -0.33780
 Alpha virt. eigenvalues --    0.10265   0.15003   0.15739   0.16882   0.19150
 Alpha virt. eigenvalues --    0.20132   0.23083   0.51704   0.54176   0.54959
 Alpha virt. eigenvalues --    0.61859   0.65297   0.65847   0.87910   0.88605
 Alpha virt. eigenvalues --    0.89139   0.91450   0.94148   0.98381   1.06672
 Alpha virt. eigenvalues --    1.42781   1.51439   1.53247   1.91046   1.97302
 Alpha virt. eigenvalues --    2.03861   2.22596   2.27284   2.30732   2.34149
 Alpha virt. eigenvalues --    2.58114   4.13782   4.36608
          Condensed to atoms (all electrons):
               1          2          3          4          5          6
     1  C    5.013612   0.368268  -0.036876   0.384147   0.383471   0.387774
     2  C    0.368268   5.033606   0.381350  -0.032677  -0.034614  -0.040422
     3  H   -0.036876   0.381350   0.578886  -0.005884   0.004753  -0.001856
     4  H    0.384147  -0.032677  -0.005884   0.567835  -0.034509  -0.026513
     5  H    0.383471  -0.034614   0.004753  -0.034509   0.576037  -0.030547
     6  H    0.387774  -0.040422  -0.001856  -0.026513  -0.030547   0.555770
     7  H   -0.028523   0.380459  -0.030942   0.003805  -0.001423  -0.004670
     8  H   -0.038554   0.381034  -0.033521  -0.001469  -0.006174   0.005221
               7          8
     1  C   -0.028523  -0.038554
     2  C    0.380459   0.381034
     3  H   -0.030942  -0.033521
     4  H    0.003805  -0.001469
     5  H   -0.001423  -0.006174
     6  H   -0.004670   0.005221
     7  H    0.571128  -0.029737
     8  H   -0.029737   0.580384
 Mulliken charges:
               1
     1  C   -0.433318
     2  C   -0.437003
     3  H    0.144090
     4  H    0.145263
     5  H    0.143006
     6  H    0.155244
     7  H    0.139903
     8  H    0.142816
 Sum of Mulliken charges =   0.00000
 Mulliken charges with hydrogens summed into heavy atoms:
               1
     1  C    0.010195
     2  C   -0.010195
 Electronic spatial extent (au):  <R**2>=            110.2255
 Charge=              0.0000 electrons
 Dipole moment (field-independent basis, Debye):
    X=             -0.0232    Y=             -0.0269    Z=             -0.0128  Tot=              0.0378
 Quadrupole moment (field-independent basis, Debye-Ang):
   XX=            -15.4464   YY=            -14.5136   ZZ=            -14.7760
   XY=              0.1602   XZ=             -0.0620   YZ=             -0.0479
 Traceless Quadrupole moment (field-independent basis, Debye-Ang):
   XX=             -0.5344   YY=              0.3984   ZZ=              0.1360
   XY=              0.1602   XZ=             -0.0620   YZ=             -0.0479
 Octapole moment (field-independent basis, Debye-Ang**2):
  XXX=             -0.0215  YYY=              0.1515  ZZZ=              0.1518  XYY=             -0.0522
  XXY=              0.0859  XXZ=              0.0658  XZZ=             -0.1479  YZZ=             -0.2201
  YYZ=             -0.2665  XYZ=              0.0923
 Hexadecapole moment (field-independent basis, Debye-Ang**3):
 XXXX=            -93.9579 YYYY=            -28.8574 ZZZZ=            -28.5045 XXXY=              0.6906
 XXXZ=             -0.1892 YYYX=              0.8885 YYYZ=             -0.1572 ZZZX=             -0.8236
 ZZZY=             -0.0966 XXYY=            -19.0766 XXZZ=            -19.5679 YYZZ=             -9.5092
 XXYZ=              0.1022 YYXZ=              0.7962 ZZXY=             -0.8135
 N-N= 4.193169957621D+01 E-N=-2.676601312966D+02  KE= 7.895901998362D+01
 1\1\GINC-NODE56\SP\RB3LYP\6-31G(d)\C2H6\YANZ\22-Sep-2023\0\\# b3lyp/6-
 31g(d)\\tmpdir/M3_conf_0_25.gjf\\0,1\C,0,0.,0.,0.\C,0,1.5549,0.,0.\H,0
 ,1.91046,0.,1.03852\H,0,-0.37872,0.75626,0.69908\H,0,-0.3744,0.27627,-
 0.99553\H,0,-0.30751,-0.98164,0.2413\H,0,2.03908,-0.85067,-0.54969\H,0
 ,1.8897,0.94931,-0.43905\\Version=ES64L-G16RevA.03\State=1-A\HF=-79.82
 59894\RMSD=9.381e-09\Dipole=-0.0090841,0.0077216,0.0088571\Quadrupole=
 -0.4002169,0.2932604,0.1069566,-0.1194503,-0.0089116,0.0483131\PG=C01 
 [X(C2H6)]\\@


 A COMPLEXITY IS MERELY A DISARRANGEMENT OF SIMPLICITIES.

                                    -- G. O. ABELL IN "EXPLORATION OF THE UNIVERSE"
 Job cpu time:       0 days  0 hours  0 minutes  9.1 seconds.
 Elapsed time:       0 days  0 hours  0 minutes  2.4 seconds.
 File lengths (MBytes):  RWF=      6 Int=      0 D2E=      0 Chk=      1 Scr=      1
 Normal termination of Gaussian 16 at Fri Sep 22 17:01:13 2023.
