 Entering Gaussian System, Link 0=g16
 Initial command:
 /share/apps/gaussian/g16/l1.exe "/tmp/55622.mgr/Gau-176139.inp" -scrdir="/tmp/55622.mgr/"
 Entering Link 1 = /share/apps/gaussian/g16/l1.exe PID=    176140.
  
 Copyright (c) 1988,1990,1992,1993,1995,1998,2003,2009,2016,
            Gaussian, Inc.  All Rights Reserved.
  
 This is part of the Gaussian(R) 16 program.  It is based on
 the Gaussian(R) 09 system (copyright 2009, Gaussian, Inc.),
 the Gaussian(R) 03 system (copyright 2003, Gaussian, Inc.),
 the Gaussian(R) 98 system (copyright 1998, Gaussian, Inc.),
 the Gaussian(R) 94 system (copyright 1995, Gaussian, Inc.),
 the Gaussian 92(TM) system (copyright 1992, Gaussian, Inc.),
 the Gaussian 90(TM) system (copyright 1990, Gaussian, Inc.),
 the Gaussian 88(TM) system (copyright 1988, Gaussian, Inc.),
 the Gaussian 86(TM) system (copyright 1986, Carnegie Mellon
 University), and the Gaussian 82(TM) system (copyright 1983,
 Carnegie Mellon University). Gaussian is a federally registered
 trademark of Gaussian, Inc.
  
 This software contains proprietary and confidential information,
 including trade secrets, belonging to Gaussian, Inc.
  
 This software is provided under written license and may be
 used, copied, transmitted, or stored only in accord with that
 written license.
  
 The following legend is applicable only to US Government
 contracts under FAR:
  
                    RESTRICTED RIGHTS LEGEND
  
 Use, reproduction and disclosure by the US Government is
 subject to restrictions as set forth in subparagraphs (a)
 and (c) of the Commercial Computer Software - Restricted
 Rights clause in FAR 52.227-19.
  
 Gaussian, Inc.
 340 Quinnipiac St., Bldg. 40, Wallingford CT 06492
  
  
 ---------------------------------------------------------------
 Warning -- This program may not be used in any manner that
 competes with the business of Gaussian, Inc. or will provide
 assistance to any competitor of Gaussian, Inc.  The licensee
 of this program is prohibited from giving any competitor of
 Gaussian, Inc. access to this program.  By using this program,
 the user acknowledges that Gaussian, Inc. is engaged in the
 business of creating and licensing software in the field of
 computational chemistry and represents and warrants to the
 licensee that it is not a competitor of Gaussian, Inc. and that
 it will not use this program in any manner prohibited above.
 ---------------------------------------------------------------
  

 Cite this work as:
 Gaussian 16, Revision A.03,
 M. J. Frisch, G. W. Trucks, H. B. Schlegel, G. E. Scuseria, 
 M. A. Robb, J. R. Cheeseman, G. Scalmani, V. Barone, 
 G. A. Petersson, H. Nakatsuji, X. Li, M. Caricato, A. V. Marenich, 
 J. Bloino, B. G. Janesko, R. Gomperts, B. Mennucci, H. P. Hratchian, 
 J. V. Ortiz, A. F. Izmaylov, J. L. Sonnenberg, D. Williams-Young, 
 F. Ding, F. Lipparini, F. Egidi, J. Goings, B. Peng, A. Petrone, 
 T. Henderson, D. Ranasinghe, V. G. Zakrzewski, J. Gao, N. Rega, 
 G. Zheng, W. Liang, M. Hada, M. Ehara, K. Toyota, R. Fukuda, 
 J. Hasegawa, M. Ishida, T. Nakajima, Y. Honda, O. Kitao, H. Nakai, 
 T. Vreven, K. Throssell, J. A. Montgomery, Jr., J. E. Peralta, 
 F. Ogliaro, M. J. Bearpark, J. J. Heyd, E. N. Brothers, K. N. Kudin, 
 V. N. Staroverov, T. A. Keith, R. Kobayashi, J. Normand, 
 K. Raghavachari, A. P. Rendell, J. C. Burant, S. S. Iyengar, 
 J. Tomasi, M. Cossi, J. M. Millam, M. Klene, C. Adamo, R. Cammi, 
 J. W. Ochterski, R. L. Martin, K. Morokuma, O. Farkas, 
 J. B. Foresman, and D. J. Fox, Gaussian, Inc., Wallingford CT, 2016.
 
 ******************************************
 Gaussian 16:  ES64L-G16RevA.03 25-Dec-2016
                22-Sep-2023 
 ******************************************
 %nprocshared=4
 Will use up to    4 processors via shared memory.
 %mem=4GB
 ----------------
 # b3lyp/6-31g(d)
 ----------------
 1/38=1,172=1/1;
 2/12=2,17=6,18=5,40=1/2;
 3/5=1,6=6,7=1,11=2,25=1,30=1,74=-5/1,2,3;
 4//1;
 5/5=2,38=5/2;
 6/7=2,8=2,9=2,10=2,28=1/1;
 99/5=1,9=1/99;
 -----------------------
 tmpdir/M3_conf_0_50.gjf
 -----------------------
 Symbolic Z-matrix:
 Charge =  0 Multiplicity = 1
 C                     0.        0.        0. 
 C                     1.555     0.        0. 
 C                     2.03024   0.        1.38334 
 H                    -0.48907   0.76781   0.6574 
 H                    -0.3396    0.15214  -1.03281 
 H                    -0.31976  -1.00724   0.29358 
 H                     1.91457   0.92554  -0.48489 
 H                     1.99926  -0.92154  -0.56627 
 N                     1.97306   0.2027    2.47807 
 
                          Input orientation:                          
 ---------------------------------------------------------------------
 Center     Atomic      Atomic             Coordinates (Angstroms)
 Number     Number       Type             X           Y           Z
 ---------------------------------------------------------------------
      1          6           0        0.000000    0.000000    0.000000
      2          6           0        1.555000    0.000000    0.000000
      3          6           0        2.030240    0.000000    1.383340
      4          1           0       -0.489070    0.767810    0.657400
      5          1           0       -0.339600    0.152140   -1.032810
      6          1           0       -0.319760   -1.007240    0.293580
      7          1           0        1.914570    0.925540   -0.484890
      8          1           0        1.999260   -0.921540   -0.566270
      9          7           0        1.973060    0.202700    2.478070
 ---------------------------------------------------------------------
                    Distance matrix (angstroms):
                    1          2          3          4          5
     1  C    0.000000
     2  C    1.555000   0.000000
     3  C    2.456726   1.462697   0.000000
     4  H    1.122896   2.280335   2.731930   0.000000
     5  H    1.097803   2.163181   3.387782   1.805049   0.000000
     6  H    1.096799   2.148359   2.779318   1.819844   1.761779
     7  H    2.181128   1.105004   2.088130   2.665931   2.445332
     8  H    2.273090   1.169301   2.156658   3.247008   2.615476
     9  N    3.174096   2.521248   1.114805   3.113884   4.204430
                    6          7          8          9
     6  H    0.000000
     7  H    3.055141   0.000000
     8  H    2.474781   1.850811   0.000000
     9  N    3.390129   3.050418   3.245398   0.000000
 Stoichiometry    C3H5N
 Framework group  C1[X(C3H5N)]
 Deg. of freedom    21
 Full point group                 C1      NOp   1
 Largest Abelian subgroup         C1      NOp   1
 Largest concise Abelian subgroup C1      NOp   1
                         Standard orientation:                         
 ---------------------------------------------------------------------
 Center     Atomic      Atomic             Coordinates (Angstroms)
 Number     Number       Type             X           Y           Z
 ---------------------------------------------------------------------
      1          6           0        1.415628   -0.526765    0.009182
      2          6           0        0.484346    0.717475   -0.041847
      3          6           0       -0.905408    0.275906    0.072543
      4          1           0        1.140581   -1.371993   -0.676992
      5          1           0        2.435640   -0.197462   -0.228106
      6          1           0        1.428688   -0.873947    1.049501
      7          1           0        0.604830    1.216907   -1.020154
      8          1           0        0.721988    1.485389    0.807328
      9          7           0       -1.757018   -0.436941   -0.024407
 ---------------------------------------------------------------------
 Rotational constants (GHZ):          22.0608269           5.4397013           4.6378953
 Standard basis: 6-31G(d) (6D, 7F)
 There are    70 symmetry adapted cartesian basis functions of A   symmetry.
 There are    70 symmetry adapted basis functions of A   symmetry.
    70 basis functions,   132 primitive gaussians,    70 cartesian basis functions
    15 alpha electrons       15 beta electrons
       nuclear repulsion energy       104.2684390645 Hartrees.
 NAtoms=    9 NActive=    9 NUniq=    9 SFac= 1.00D+00 NAtFMM=   60 NAOKFM=F Big=F
 Integral buffers will be    131072 words long.
 Raffenetti 2 integral format.
 Two-electron integral symmetry is turned on.
 One-electron integrals computed using PRISM.
 NBasis=    70 RedAO= T EigKep=  2.10D-03  NBF=    70
 NBsUse=    70 1.00D-06 EigRej= -1.00D+00 NBFU=    70
 ExpMin= 1.61D-01 ExpMax= 4.17D+03 ExpMxC= 6.27D+02 IAcc=3 IRadAn=         5 AccDes= 0.00D+00
 Harris functional with IExCor=  402 and IRadAn=       5 diagonalized for initial guess.
 HarFok:  IExCor=  402 AccDes= 0.00D+00 IRadAn=         5 IDoV= 1 UseB2=F ITyADJ=14
 ICtDFT=  3500011 ScaDFX=  1.000000  1.000000  1.000000  1.000000
 FoFCou: FMM=F IPFlag=           0 FMFlag=      100000 FMFlg1=           0
         NFxFlg=           0 DoJE=T BraDBF=F KetDBF=T FulRan=T
         wScrn=  0.000000 ICntrl=       500 IOpCl=  0 I1Cent=   200000004 NGrid=           0
         NMat0=    1 NMatS0=      1 NMatT0=    0 NMatD0=    1 NMtDS0=    0 NMtDT0=    0
 Petite list used in FoFCou.
 Keep R1 ints in memory in canonical form, NReq=6658320.
 Requested convergence on RMS density matrix=1.00D-08 within 128 cycles.
 Requested convergence on MAX density matrix=1.00D-06.
 Requested convergence on             energy=1.00D-06.
 No special actions if energy rises.
 Integral accuracy reduced to 1.0D-05 until final iterations.
 Initial convergence to 1.0D-05 achieved.  Increase integral accuracy.
 SCF Done:  E(RB3LYP) =  -172.049727598     A.U. after   13 cycles
            NFock= 13  Conv=0.37D-08     -V/T= 2.0091

 **********************************************************************

            Population analysis using the SCF density.

 **********************************************************************

 Orbital symmetries:
       Occupied  (A) (A) (A) (A) (A) (A) (A) (A) (A) (A) (A) (A)
                 (A) (A) (A)
       Virtual   (A) (A) (A) (A) (A) (A) (A) (A) (A) (A) (A) (A)
                 (A) (A) (A) (A) (A) (A) (A) (A) (A) (A) (A) (A)
                 (A) (A) (A) (A) (A) (A) (A) (A) (A) (A) (A) (A)
                 (A) (A) (A) (A) (A) (A) (A) (A) (A) (A) (A) (A)
                 (A) (A) (A) (A) (A) (A) (A)
 The electronic state is 1-A.
 Alpha  occ. eigenvalues --  -14.32007 -10.24690 -10.21327 -10.20795  -0.91905
 Alpha  occ. eigenvalues --   -0.79675  -0.66627  -0.50738  -0.47898  -0.42603
 Alpha  occ. eigenvalues --   -0.39487  -0.38703  -0.35260  -0.32957  -0.32687
 Alpha virt. eigenvalues --    0.02736   0.05120   0.07547   0.11759   0.13607
 Alpha virt. eigenvalues --    0.15716   0.17732   0.21580   0.25018   0.33839
 Alpha virt. eigenvalues --    0.51337   0.52958   0.53835   0.56908   0.58579
 Alpha virt. eigenvalues --    0.60616   0.66299   0.73300   0.74987   0.77838
 Alpha virt. eigenvalues --    0.80657   0.83249   0.84401   0.87223   0.89493
 Alpha virt. eigenvalues --    0.92152   0.94403   1.02770   1.19602   1.39199
 Alpha virt. eigenvalues --    1.43582   1.47436   1.50886   1.55941   1.64242
 Alpha virt. eigenvalues --    1.72532   1.80818   1.86768   1.93988   1.96980
 Alpha virt. eigenvalues --    2.05491   2.10342   2.16946   2.25673   2.28279
 Alpha virt. eigenvalues --    2.30321   2.50449   2.72102   2.78490   2.89170
 Alpha virt. eigenvalues --    3.21708   3.95938   4.08003   4.24975   4.55706
          Condensed to atoms (all electrons):
               1          2          3          4          5          6
     1  C    5.059500   0.369612  -0.050445   0.379450   0.367378   0.380898
     2  C    0.369612   5.087735   0.330764  -0.026932  -0.034354  -0.036099
     3  C   -0.050445   0.330764   4.584710  -0.003704   0.006200  -0.003697
     4  H    0.379450  -0.026932  -0.003704   0.523656  -0.027223  -0.024897
     5  H    0.367378  -0.034354   0.006200  -0.027223   0.565007  -0.029635
     6  H    0.380898  -0.036099  -0.003697  -0.024897  -0.029635   0.543113
     7  H   -0.036451   0.375069  -0.035674  -0.001750  -0.004086   0.004559
     8  H   -0.030136   0.354482  -0.026804   0.003105  -0.000944  -0.004944
     9  N   -0.008006  -0.075316   0.909444   0.001307   0.000261   0.000344
               7          8          9
     1  C   -0.036451  -0.030136  -0.008006
     2  C    0.375069   0.354482  -0.075316
     3  C   -0.035674  -0.026804   0.909444
     4  H   -0.001750   0.003105   0.001307
     5  H   -0.004086  -0.000944   0.000261
     6  H    0.004559  -0.004944   0.000344
     7  H    0.534700  -0.027615  -0.001577
     8  H   -0.027615   0.560370   0.002047
     9  N   -0.001577   0.002047   6.551945
 Mulliken charges:
               1
     1  C   -0.431801
     2  C   -0.344962
     3  C    0.289206
     4  H    0.176990
     5  H    0.157396
     6  H    0.170358
     7  H    0.192825
     8  H    0.170439
     9  N   -0.380450
 Sum of Mulliken charges =  -0.00000
 Mulliken charges with hydrogens summed into heavy atoms:
               1
     1  C    0.072942
     2  C    0.018302
     3  C    0.289206
     9  N   -0.380450
 Electronic spatial extent (au):  <R**2>=            294.0119
 Charge=             -0.0000 electrons
 Dipole moment (field-independent basis, Debye):
    X=              3.2981    Y=              1.4632    Z=             -0.0082  Tot=              3.6081
 Quadrupole moment (field-independent basis, Debye-Ang):
   XX=            -29.4292   YY=            -23.7087   ZZ=            -23.4259
   XY=             -1.7950   XZ=             -0.1588   YZ=              0.1398
 Traceless Quadrupole moment (field-independent basis, Debye-Ang):
   XX=             -3.9080   YY=              1.8126   ZZ=              2.0954
   XY=             -1.7950   XZ=             -0.1588   YZ=              0.1398
 Octapole moment (field-independent basis, Debye-Ang**2):
  XXX=             13.4794  YYY=              0.9378  ZZZ=             -0.0352  XYY=              1.8978
  XXY=              4.0008  XXZ=              0.0002  XZZ=              0.7852  YZZ=              0.6011
  YYZ=             -0.2878  XYZ=              0.1635
 Hexadecapole moment (field-independent basis, Debye-Ang**3):
 XXXX=           -289.7729 YYYY=            -83.7677 ZZZZ=            -36.1861 XXXY=             -6.8676
 XXXZ=             -1.6258 YYYX=             -0.6431 YYYZ=              1.6889 ZZZX=              0.6761
 ZZZY=             -0.8461 XXYY=            -61.9714 XXZZ=            -51.0793 YYZZ=            -18.0296
 XXYZ=             -0.2796 YYXZ=             -0.1786 ZZXY=              0.1976
 N-N= 1.042684390645D+02 E-N=-6.074501482405D+02  KE= 1.704966323772D+02
 1\1\GINC-NODE56\SP\RB3LYP\6-31G(d)\C3H5N1\YANZ\22-Sep-2023\0\\# b3lyp/
 6-31g(d)\\tmpdir/M3_conf_0_50.gjf\\0,1\C,0,0.,0.,0.\C,0,1.555,0.,0.\C,
 0,2.03024,0.,1.38334\H,0,-0.48907,0.76781,0.6574\H,0,-0.3396,0.15214,-
 1.03281\H,0,-0.31976,-1.00724,0.29358\H,0,1.91457,0.92554,-0.48489\H,0
 ,1.99926,-0.92154,-0.56627\N,0,1.97306,0.2027,2.47807\\Version=ES64L-G
 16RevA.03\State=1-A\HF=-172.0497276\RMSD=3.722e-09\Dipole=-0.316388,-0
 .116538,-1.3789294\Quadrupole=1.0912781,1.5343128,-2.6255908,-0.294458
 3,-1.643914,-0.3735623\PG=C01 [X(C3H5N1)]\\@


 "TIGER, TIGER BURNING BRIGHT
 IN THE FOREST OF THE NIGHT.
 WHAT IMMORTAL HAND OR EYE
 CAN FRAME THY FEARFUL SYMMETRYE?"
                     - WILLIAM BLAKE
 Job cpu time:       0 days  0 hours  0 minutes 19.1 seconds.
 Elapsed time:       0 days  0 hours  0 minutes  5.0 seconds.
 File lengths (MBytes):  RWF=      6 Int=      0 D2E=      0 Chk=      1 Scr=      1
 Normal termination of Gaussian 16 at Fri Sep 22 17:01:26 2023.
