 Entering Gaussian System, Link 0=g16
 Initial command:
 /share/apps/gaussian/g16/l1.exe "/tmp/55622.mgr/Gau-176790.inp" -scrdir="/tmp/55622.mgr/"
 Entering Link 1 = /share/apps/gaussian/g16/l1.exe PID=    176791.
  
 Copyright (c) 1988,1990,1992,1993,1995,1998,2003,2009,2016,
            Gaussian, Inc.  All Rights Reserved.
  
 This is part of the Gaussian(R) 16 program.  It is based on
 the Gaussian(R) 09 system (copyright 2009, Gaussian, Inc.),
 the Gaussian(R) 03 system (copyright 2003, Gaussian, Inc.),
 the Gaussian(R) 98 system (copyright 1998, Gaussian, Inc.),
 the Gaussian(R) 94 system (copyright 1995, Gaussian, Inc.),
 the Gaussian 92(TM) system (copyright 1992, Gaussian, Inc.),
 the Gaussian 90(TM) system (copyright 1990, Gaussian, Inc.),
 the Gaussian 88(TM) system (copyright 1988, Gaussian, Inc.),
 the Gaussian 86(TM) system (copyright 1986, Carnegie Mellon
 University), and the Gaussian 82(TM) system (copyright 1983,
 Carnegie Mellon University). Gaussian is a federally registered
 trademark of Gaussian, Inc.
  
 This software contains proprietary and confidential information,
 including trade secrets, belonging to Gaussian, Inc.
  
 This software is provided under written license and may be
 used, copied, transmitted, or stored only in accord with that
 written license.
  
 The following legend is applicable only to US Government
 contracts under FAR:
  
                    RESTRICTED RIGHTS LEGEND
  
 Use, reproduction and disclosure by the US Government is
 subject to restrictions as set forth in subparagraphs (a)
 and (c) of the Commercial Computer Software - Restricted
 Rights clause in FAR 52.227-19.
  
 Gaussian, Inc.
 340 Quinnipiac St., Bldg. 40, Wallingford CT 06492
  
  
 ---------------------------------------------------------------
 Warning -- This program may not be used in any manner that
 competes with the business of Gaussian, Inc. or will provide
 assistance to any competitor of Gaussian, Inc.  The licensee
 of this program is prohibited from giving any competitor of
 Gaussian, Inc. access to this program.  By using this program,
 the user acknowledges that Gaussian, Inc. is engaged in the
 business of creating and licensing software in the field of
 computational chemistry and represents and warrants to the
 licensee that it is not a competitor of Gaussian, Inc. and that
 it will not use this program in any manner prohibited above.
 ---------------------------------------------------------------
  

 Cite this work as:
 Gaussian 16, Revision A.03,
 M. J. Frisch, G. W. Trucks, H. B. Schlegel, G. E. Scuseria, 
 M. A. Robb, J. R. Cheeseman, G. Scalmani, V. Barone, 
 G. A. Petersson, H. Nakatsuji, X. Li, M. Caricato, A. V. Marenich, 
 J. Bloino, B. G. Janesko, R. Gomperts, B. Mennucci, H. P. Hratchian, 
 J. V. Ortiz, A. F. Izmaylov, J. L. Sonnenberg, D. Williams-Young, 
 F. Ding, F. Lipparini, F. Egidi, J. Goings, B. Peng, A. Petrone, 
 T. Henderson, D. Ranasinghe, V. G. Zakrzewski, J. Gao, N. Rega, 
 G. Zheng, W. Liang, M. Hada, M. Ehara, K. Toyota, R. Fukuda, 
 J. Hasegawa, M. Ishida, T. Nakajima, Y. Honda, O. Kitao, H. Nakai, 
 T. Vreven, K. Throssell, J. A. Montgomery, Jr., J. E. Peralta, 
 F. Ogliaro, M. J. Bearpark, J. J. Heyd, E. N. Brothers, K. N. Kudin, 
 V. N. Staroverov, T. A. Keith, R. Kobayashi, J. Normand, 
 K. Raghavachari, A. P. Rendell, J. C. Burant, S. S. Iyengar, 
 J. Tomasi, M. Cossi, J. M. Millam, M. Klene, C. Adamo, R. Cammi, 
 J. W. Ochterski, R. L. Martin, K. Morokuma, O. Farkas, 
 J. B. Foresman, and D. J. Fox, Gaussian, Inc., Wallingford CT, 2016.
 
 ******************************************
 Gaussian 16:  ES64L-G16RevA.03 25-Dec-2016
                22-Sep-2023 
 ******************************************
 %nprocshared=4
 Will use up to    4 processors via shared memory.
 %mem=4GB
 ----------------
 # b3lyp/6-31g(d)
 ----------------
 1/38=1,172=1/1;
 2/12=2,17=6,18=5,40=1/2;
 3/5=1,6=6,7=1,11=2,25=1,30=1,74=-5/1,2,3;
 4//1;
 5/5=2,38=5/2;
 6/7=2,8=2,9=2,10=2,28=1/1;
 99/5=1,9=1/99;
 -----------------------
 tmpdir/M3_conf_0_78.gjf
 -----------------------
 Symbolic Z-matrix:
 Charge =  0 Multiplicity = 1
 O                     0.        0.        0. 
 C                     1.4137    0.        0. 
 H                     1.84036   0.        1.01399 
 H                    -0.40032  -0.8233    0.34439 
 H                     1.72638   0.91583  -0.50849 
 H                     1.81895  -0.86648  -0.54777 
 
                          Input orientation:                          
 ---------------------------------------------------------------------
 Center     Atomic      Atomic             Coordinates (Angstroms)
 Number     Number       Type             X           Y           Z
 ---------------------------------------------------------------------
      1          8           0        0.000000    0.000000    0.000000
      2          6           0        1.413700    0.000000    0.000000
      3          1           0        1.840360    0.000000    1.013990
      4          1           0       -0.400320   -0.823300    0.344390
      5          1           0        1.726380    0.915830   -0.508490
      6          1           0        1.818950   -0.866480   -0.547770
 ---------------------------------------------------------------------
                    Distance matrix (angstroms):
                    1          2          3          4          5
     1  O    0.000000
     2  C    1.413700   0.000000
     3  H    2.101214   1.100097   0.000000
     4  H    0.978102   2.021657   2.479281   0.000000
     5  H    2.019330   1.093195   1.780360   2.876600   0.000000
     6  H    2.087922   1.102301   1.786152   2.392274   1.785145
                    6
     6  H    0.000000
 Stoichiometry    CH4O
 Framework group  C1[X(CH4O)]
 Deg. of freedom    12
 Full point group                 C1      NOp   1
 Largest Abelian subgroup         C1      NOp   1
 Largest concise Abelian subgroup C1      NOp   1
                         Standard orientation:                         
 ---------------------------------------------------------------------
 Center     Atomic      Atomic             Coordinates (Angstroms)
 Number     Number       Type             X           Y           Z
 ---------------------------------------------------------------------
      1          8           0       -0.739447    0.123082    0.000810
      2          6           0        0.666712   -0.022742    0.000648
      3          1           0        1.051645   -0.448219    0.939270
      4          1           0       -1.229682   -0.723261    0.008284
      5          1           0        1.084999    0.979576   -0.123731
      6          1           0        1.008337   -0.656306   -0.834191
 ---------------------------------------------------------------------
 Rotational constants (GHZ):         128.6600644          24.7028026          23.8673846
 Standard basis: 6-31G(d) (6D, 7F)
 There are    38 symmetry adapted cartesian basis functions of A   symmetry.
 There are    38 symmetry adapted basis functions of A   symmetry.
    38 basis functions,    72 primitive gaussians,    38 cartesian basis functions
     9 alpha electrons        9 beta electrons
       nuclear repulsion energy        40.1843690887 Hartrees.
 NAtoms=    6 NActive=    6 NUniq=    6 SFac= 1.00D+00 NAtFMM=   60 NAOKFM=F Big=F
 Integral buffers will be    131072 words long.
 Raffenetti 2 integral format.
 Two-electron integral symmetry is turned on.
 One-electron integrals computed using PRISM.
 NBasis=    38 RedAO= T EigKep=  9.73D-03  NBF=    38
 NBsUse=    38 1.00D-06 EigRej= -1.00D+00 NBFU=    38
 ExpMin= 1.61D-01 ExpMax= 5.48D+03 ExpMxC= 8.25D+02 IAcc=3 IRadAn=         5 AccDes= 0.00D+00
 Harris functional with IExCor=  402 and IRadAn=       5 diagonalized for initial guess.
 HarFok:  IExCor=  402 AccDes= 0.00D+00 IRadAn=         5 IDoV= 1 UseB2=F ITyADJ=14
 ICtDFT=  3500011 ScaDFX=  1.000000  1.000000  1.000000  1.000000
 FoFCou: FMM=F IPFlag=           0 FMFlag=      100000 FMFlg1=           0
         NFxFlg=           0 DoJE=T BraDBF=F KetDBF=T FulRan=T
         wScrn=  0.000000 ICntrl=       500 IOpCl=  0 I1Cent=   200000004 NGrid=           0
         NMat0=    1 NMatS0=      1 NMatT0=    0 NMatD0=    1 NMtDS0=    0 NMtDT0=    0
 Petite list used in FoFCou.
 Keep R1 ints in memory in canonical form, NReq=3726891.
 Requested convergence on RMS density matrix=1.00D-08 within 128 cycles.
 Requested convergence on MAX density matrix=1.00D-06.
 Requested convergence on             energy=1.00D-06.
 No special actions if energy rises.
 Integral accuracy reduced to 1.0D-05 until final iterations.
 Initial convergence to 1.0D-05 achieved.  Increase integral accuracy.
 SCF Done:  E(RB3LYP) =  -115.713022379     A.U. after   11 cycles
            NFock= 11  Conv=0.56D-08     -V/T= 2.0090

 **********************************************************************

            Population analysis using the SCF density.

 **********************************************************************

 Orbital symmetries:
       Occupied  (A) (A) (A) (A) (A) (A) (A) (A) (A)
       Virtual   (A) (A) (A) (A) (A) (A) (A) (A) (A) (A) (A) (A)
                 (A) (A) (A) (A) (A) (A) (A) (A) (A) (A) (A) (A)
                 (A) (A) (A) (A) (A)
 The electronic state is 1-A.
 Alpha  occ. eigenvalues --  -19.13667 -10.22470  -1.00459  -0.67937  -0.50235
 Alpha  occ. eigenvalues --   -0.43278  -0.42192  -0.31991  -0.26163
 Alpha virt. eigenvalues --    0.07361   0.12942   0.16863   0.17619   0.20909
 Alpha virt. eigenvalues --    0.53725   0.56282   0.57799   0.78398   0.84997
 Alpha virt. eigenvalues --    0.86954   0.90239   0.95764   0.97676   1.01572
 Alpha virt. eigenvalues --    1.12318   1.46236   1.50260   1.60964   1.74928
 Alpha virt. eigenvalues --    2.03238   2.09711   2.14205   2.32725   2.40204
 Alpha virt. eigenvalues --    2.47912   2.78652   3.70581   4.21649
          Condensed to atoms (all electrons):
               1          2          3          4          5          6
     1  O    8.226500   0.268568  -0.038626   0.235926  -0.038959  -0.037113
     2  C    0.268568   4.826410   0.366595  -0.027157   0.389406   0.368265
     3  H   -0.038626   0.366595   0.635744  -0.003441  -0.039335  -0.049858
     4  H    0.235926  -0.027157  -0.003441   0.403118   0.006365  -0.005769
     5  H   -0.038959   0.389406  -0.039335   0.006365   0.555981  -0.034886
     6  H   -0.037113   0.368265  -0.049858  -0.005769  -0.034886   0.632285
 Mulliken charges:
               1
     1  O   -0.616295
     2  C   -0.192087
     3  H    0.128922
     4  H    0.390957
     5  H    0.161428
     6  H    0.127075
 Sum of Mulliken charges =   0.00000
 Mulliken charges with hydrogens summed into heavy atoms:
               1
     1  O   -0.225338
     2  C    0.225338
 Electronic spatial extent (au):  <R**2>=             84.1647
 Charge=              0.0000 electrons
 Dipole moment (field-independent basis, Debye):
    X=              0.5948    Y=             -1.4913    Z=             -0.0071  Tot=              1.6055
 Quadrupole moment (field-independent basis, Debye-Ang):
   XX=            -12.1369   YY=            -12.1408   ZZ=            -13.5864
   XY=              2.3275   XZ=             -0.0288   YZ=             -0.0282
 Traceless Quadrupole moment (field-independent basis, Debye-Ang):
   XX=              0.4844   YY=              0.4806   ZZ=             -0.9650
   XY=              2.3275   XZ=             -0.0288   YZ=             -0.0282
 Octapole moment (field-independent basis, Debye-Ang**2):
  XXX=             -5.5578  YYY=             -0.3879  ZZZ=              0.0947  XYY=             -1.8298
  XXY=             -2.3696  XXZ=              0.0153  XZZ=             -0.6724  YZZ=             -0.4628
  YYZ=             -0.1533  XYZ=             -0.0185
 Hexadecapole moment (field-independent basis, Debye-Ang**3):
 XXXX=            -58.7910 YYYY=            -19.4835 ZZZZ=            -19.1049 XXXY=              4.2006
 XXXZ=             -0.0424 YYYX=              2.6827 YYYZ=             -0.0516 ZZZX=              0.1073
 ZZZY=             -0.0117 XXYY=            -12.1024 XXZZ=            -13.8139 YYZZ=             -6.5433
 XXYZ=             -0.0872 YYXZ=             -0.1948 ZZXY=              0.0247
 N-N= 4.018436908869D+01 E-N=-3.514945809793D+02  KE= 1.146784234436D+02
 1\1\GINC-NODE56\SP\RB3LYP\6-31G(d)\C1H4O1\YANZ\22-Sep-2023\0\\# b3lyp/
 6-31g(d)\\tmpdir/M3_conf_0_78.gjf\\0,1\O,0,0.,0.,0.\C,0,1.4137,0.,0.\H
 ,0,1.84036,0.,1.01399\H,0,-0.40032,-0.8233,0.34439\H,0,1.72638,0.91583
 ,-0.50849\H,0,1.81895,-0.86648,-0.54777\\Version=ES64L-G16RevA.03\Stat
 e=1-A\HF=-115.7130224\RMSD=5.594e-09\Dipole=0.2932837,-0.51894,0.20902
 71\Quadrupole=0.0050516,0.4918842,-0.4969358,1.5608898,-0.6583164,-0.5
 169631\PG=C01 [X(C1H4O1)]\\@


 DO YOU KNOW THAT THE LETTERS IN "EPISCOPAL", WHEN
 REARRANGED, SPELL "PEPSI COLA"?
 Job cpu time:       0 days  0 hours  0 minutes  7.7 seconds.
 Elapsed time:       0 days  0 hours  0 minutes  2.1 seconds.
 File lengths (MBytes):  RWF=      6 Int=      0 D2E=      0 Chk=      1 Scr=      1
 Normal termination of Gaussian 16 at Fri Sep 22 17:01:34 2023.
