 Entering Gaussian System, Link 0=g16
 Initial command:
 /share/apps/gaussian/g16/l1.exe "/tmp/55622.mgr/Gau-176061.inp" -scrdir="/tmp/55622.mgr/"
 Entering Link 1 = /share/apps/gaussian/g16/l1.exe PID=    176062.
  
 Copyright (c) 1988,1990,1992,1993,1995,1998,2003,2009,2016,
            Gaussian, Inc.  All Rights Reserved.
  
 This is part of the Gaussian(R) 16 program.  It is based on
 the Gaussian(R) 09 system (copyright 2009, Gaussian, Inc.),
 the Gaussian(R) 03 system (copyright 2003, Gaussian, Inc.),
 the Gaussian(R) 98 system (copyright 1998, Gaussian, Inc.),
 the Gaussian(R) 94 system (copyright 1995, Gaussian, Inc.),
 the Gaussian 92(TM) system (copyright 1992, Gaussian, Inc.),
 the Gaussian 90(TM) system (copyright 1990, Gaussian, Inc.),
 the Gaussian 88(TM) system (copyright 1988, Gaussian, Inc.),
 the Gaussian 86(TM) system (copyright 1986, Carnegie Mellon
 University), and the Gaussian 82(TM) system (copyright 1983,
 Carnegie Mellon University). Gaussian is a federally registered
 trademark of Gaussian, Inc.
  
 This software contains proprietary and confidential information,
 including trade secrets, belonging to Gaussian, Inc.
  
 This software is provided under written license and may be
 used, copied, transmitted, or stored only in accord with that
 written license.
  
 The following legend is applicable only to US Government
 contracts under FAR:
  
                    RESTRICTED RIGHTS LEGEND
  
 Use, reproduction and disclosure by the US Government is
 subject to restrictions as set forth in subparagraphs (a)
 and (c) of the Commercial Computer Software - Restricted
 Rights clause in FAR 52.227-19.
  
 Gaussian, Inc.
 340 Quinnipiac St., Bldg. 40, Wallingford CT 06492
  
  
 ---------------------------------------------------------------
 Warning -- This program may not be used in any manner that
 competes with the business of Gaussian, Inc. or will provide
 assistance to any competitor of Gaussian, Inc.  The licensee
 of this program is prohibited from giving any competitor of
 Gaussian, Inc. access to this program.  By using this program,
 the user acknowledges that Gaussian, Inc. is engaged in the
 business of creating and licensing software in the field of
 computational chemistry and represents and warrants to the
 licensee that it is not a competitor of Gaussian, Inc. and that
 it will not use this program in any manner prohibited above.
 ---------------------------------------------------------------
  

 Cite this work as:
 Gaussian 16, Revision A.03,
 M. J. Frisch, G. W. Trucks, H. B. Schlegel, G. E. Scuseria, 
 M. A. Robb, J. R. Cheeseman, G. Scalmani, V. Barone, 
 G. A. Petersson, H. Nakatsuji, X. Li, M. Caricato, A. V. Marenich, 
 J. Bloino, B. G. Janesko, R. Gomperts, B. Mennucci, H. P. Hratchian, 
 J. V. Ortiz, A. F. Izmaylov, J. L. Sonnenberg, D. Williams-Young, 
 F. Ding, F. Lipparini, F. Egidi, J. Goings, B. Peng, A. Petrone, 
 T. Henderson, D. Ranasinghe, V. G. Zakrzewski, J. Gao, N. Rega, 
 G. Zheng, W. Liang, M. Hada, M. Ehara, K. Toyota, R. Fukuda, 
 J. Hasegawa, M. Ishida, T. Nakajima, Y. Honda, O. Kitao, H. Nakai, 
 T. Vreven, K. Throssell, J. A. Montgomery, Jr., J. E. Peralta, 
 F. Ogliaro, M. J. Bearpark, J. J. Heyd, E. N. Brothers, K. N. Kudin, 
 V. N. Staroverov, T. A. Keith, R. Kobayashi, J. Normand, 
 K. Raghavachari, A. P. Rendell, J. C. Burant, S. S. Iyengar, 
 J. Tomasi, M. Cossi, J. M. Millam, M. Klene, C. Adamo, R. Cammi, 
 J. W. Ochterski, R. L. Martin, K. Morokuma, O. Farkas, 
 J. B. Foresman, and D. J. Fox, Gaussian, Inc., Wallingford CT, 2016.
 
 ******************************************
 Gaussian 16:  ES64L-G16RevA.03 25-Dec-2016
                22-Sep-2023 
 ******************************************
 %nprocshared=4
 Will use up to    4 processors via shared memory.
 %mem=4GB
 ----------------
 # b3lyp/6-31g(d)
 ----------------
 1/38=1,172=1/1;
 2/12=2,17=6,18=5,40=1/2;
 3/5=1,6=6,7=1,11=2,25=1,30=1,74=-5/1,2,3;
 4//1;
 5/5=2,38=5/2;
 6/7=2,8=2,9=2,10=2,28=1/1;
 99/5=1,9=1/99;
 -----------------------
 tmpdir/M3_conf_0_53.gjf
 -----------------------
 Symbolic Z-matrix:
 Charge =  0 Multiplicity = 1
 H                     0.        0.        0. 
 C                     1.105     0.        0. 
 O                     1.54862   0.        1.35324 
 H                     1.47127   0.89414  -0.57734 
 H                     1.45481  -0.85281  -0.52117 
 H                     1.05376   0.60075   1.93365 
 
                          Input orientation:                          
 ---------------------------------------------------------------------
 Center     Atomic      Atomic             Coordinates (Angstroms)
 Number     Number       Type             X           Y           Z
 ---------------------------------------------------------------------
      1          1           0        0.000000    0.000000    0.000000
      2          6           0        1.105000    0.000000    0.000000
      3          8           0        1.548620    0.000000    1.353240
      4          1           0        1.471270    0.894140   -0.577340
      5          1           0        1.454810   -0.852810   -0.521170
      6          1           0        1.053760    0.600750    1.933650
 ---------------------------------------------------------------------
                    Distance matrix (angstroms):
                    1          2          3          4          5
     1  H    0.000000
     2  C    1.105000   0.000000
     3  O    2.056571   1.424099   0.000000
     4  H    1.815886   1.125594   2.128992   0.000000
     5  H    1.765043   1.058900   2.061431   1.747930   0.000000
     6  H    2.282611   2.025470   0.970908   2.562316   2.880941
                    6
     6  H    0.000000
 Stoichiometry    CH4O
 Framework group  C1[X(CH4O)]
 Deg. of freedom    12
 Full point group                 C1      NOp   1
 Largest Abelian subgroup         C1      NOp   1
 Largest concise Abelian subgroup C1      NOp   1
                         Standard orientation:                         
 ---------------------------------------------------------------------
 Center     Atomic      Atomic             Coordinates (Angstroms)
 Number     Number       Type             X           Y           Z
 ---------------------------------------------------------------------
      1          1           0        0.929055    0.874298   -0.652663
      2          6           0        0.671185    0.016527   -0.005549
      3          8           0       -0.745562   -0.127976   -0.004138
      4          1           0        1.090786    0.194924    1.023564
      5          1           0        1.147950   -0.854647   -0.373002
      6          1           0       -1.230406    0.710066    0.068494
 ---------------------------------------------------------------------
 Rotational constants (GHZ):         129.9985160          24.3316352          23.6194178
 Standard basis: 6-31G(d) (6D, 7F)
 There are    38 symmetry adapted cartesian basis functions of A   symmetry.
 There are    38 symmetry adapted basis functions of A   symmetry.
    38 basis functions,    72 primitive gaussians,    38 cartesian basis functions
     9 alpha electrons        9 beta electrons
       nuclear repulsion energy        40.0732151585 Hartrees.
 NAtoms=    6 NActive=    6 NUniq=    6 SFac= 1.00D+00 NAtFMM=   60 NAOKFM=F Big=F
 Integral buffers will be    131072 words long.
 Raffenetti 2 integral format.
 Two-electron integral symmetry is turned on.
 One-electron integrals computed using PRISM.
 NBasis=    38 RedAO= T EigKep=  9.93D-03  NBF=    38
 NBsUse=    38 1.00D-06 EigRej= -1.00D+00 NBFU=    38
 ExpMin= 1.61D-01 ExpMax= 5.48D+03 ExpMxC= 8.25D+02 IAcc=3 IRadAn=         5 AccDes= 0.00D+00
 Harris functional with IExCor=  402 and IRadAn=       5 diagonalized for initial guess.
 HarFok:  IExCor=  402 AccDes= 0.00D+00 IRadAn=         5 IDoV= 1 UseB2=F ITyADJ=14
 ICtDFT=  3500011 ScaDFX=  1.000000  1.000000  1.000000  1.000000
 FoFCou: FMM=F IPFlag=           0 FMFlag=      100000 FMFlg1=           0
         NFxFlg=           0 DoJE=T BraDBF=F KetDBF=T FulRan=T
         wScrn=  0.000000 ICntrl=       500 IOpCl=  0 I1Cent=   200000004 NGrid=           0
         NMat0=    1 NMatS0=      1 NMatT0=    0 NMatD0=    1 NMtDS0=    0 NMtDT0=    0
 Petite list used in FoFCou.
 Keep R1 ints in memory in canonical form, NReq=3726891.
 Requested convergence on RMS density matrix=1.00D-08 within 128 cycles.
 Requested convergence on MAX density matrix=1.00D-06.
 Requested convergence on             energy=1.00D-06.
 No special actions if energy rises.
 Integral accuracy reduced to 1.0D-05 until final iterations.
 Initial convergence to 1.0D-05 achieved.  Increase integral accuracy.
 SCF Done:  E(RB3LYP) =  -115.710081827     A.U. after   11 cycles
            NFock= 11  Conv=0.56D-08     -V/T= 2.0090

 **********************************************************************

            Population analysis using the SCF density.

 **********************************************************************

 Orbital symmetries:
       Occupied  (A) (A) (A) (A) (A) (A) (A) (A) (A)
       Virtual   (A) (A) (A) (A) (A) (A) (A) (A) (A) (A) (A) (A)
                 (A) (A) (A) (A) (A) (A) (A) (A) (A) (A) (A) (A)
                 (A) (A) (A) (A) (A)
 The electronic state is 1-A.
 Alpha  occ. eigenvalues --  -19.13534 -10.22563  -1.00245  -0.68176  -0.49910
 Alpha  occ. eigenvalues --   -0.43288  -0.42688  -0.31804  -0.26050
 Alpha virt. eigenvalues --    0.07188   0.12808   0.17169   0.17893   0.20337
 Alpha virt. eigenvalues --    0.53332   0.55722   0.58021   0.79295   0.84044
 Alpha virt. eigenvalues --    0.87684   0.90224   0.95842   0.97594   1.02223
 Alpha virt. eigenvalues --    1.13896   1.43941   1.49981   1.61697   1.75526
 Alpha virt. eigenvalues --    2.02007   2.06855   2.16092   2.32394   2.39139
 Alpha virt. eigenvalues --    2.49063   2.78238   3.70416   4.21887
          Condensed to atoms (all electrons):
               1          2          3          4          5          6
     1  H    0.622350   0.373312  -0.036807  -0.043382  -0.034241  -0.007934
     2  C    0.373312   4.823285   0.266414   0.364742   0.388776  -0.026055
     3  O   -0.036807   0.266414   8.227437  -0.039750  -0.033573   0.238953
     4  H   -0.043382   0.364742  -0.039750   0.644681  -0.047904  -0.001450
     5  H   -0.034241   0.388776  -0.033573  -0.047904   0.552768   0.005632
     6  H   -0.007934  -0.026055   0.238953  -0.001450   0.005632   0.396010
 Mulliken charges:
               1
     1  H    0.126701
     2  C   -0.190474
     3  O   -0.622675
     4  H    0.123063
     5  H    0.168542
     6  H    0.394843
 Sum of Mulliken charges =  -0.00000
 Mulliken charges with hydrogens summed into heavy atoms:
               1
     2  C    0.227832
     3  O   -0.227832
 Electronic spatial extent (au):  <R**2>=             84.6315
 Charge=              0.0000 electrons
 Dipole moment (field-independent basis, Debye):
    X=              0.6404    Y=              1.4900    Z=              0.0378  Tot=              1.6223
 Quadrupole moment (field-independent basis, Debye-Ang):
   XX=            -12.0497   YY=            -12.2089   ZZ=            -13.5777
   XY=             -2.4280   XZ=             -0.2602   YZ=              0.1118
 Traceless Quadrupole moment (field-independent basis, Debye-Ang):
   XX=              0.5624   YY=              0.4032   ZZ=             -0.9656
   XY=             -2.4280   XZ=             -0.2602   YZ=              0.1118
 Octapole moment (field-independent basis, Debye-Ang**2):
  XXX=             -5.4080  YYY=              0.6325  ZZZ=              0.1619  XYY=             -1.8498
  XXY=              2.2024  XXZ=              0.1217  XZZ=             -0.6560  YZZ=              0.2512
  YYZ=             -0.3803  XYZ=             -0.0579
 Hexadecapole moment (field-independent basis, Debye-Ang**3):
 XXXX=            -59.0661 YYYY=            -19.2659 ZZZZ=            -19.3154 XXXY=             -4.6367
 XXXZ=             -0.6033 YYYX=             -2.4419 YYYZ=              0.0808 ZZZX=              0.0777
 ZZZY=              0.1023 XXYY=            -12.2553 XXZZ=            -13.8751 YYZZ=             -6.4818
 XXYZ=              0.3623 YYXZ=             -0.6110 ZZXY=             -0.3232
 N-N= 4.007321515854D+01 E-N=-3.512684437406D+02  KE= 1.146784085788D+02
 1\1\GINC-NODE56\SP\RB3LYP\6-31G(d)\C1H4O1\YANZ\22-Sep-2023\0\\# b3lyp/
 6-31g(d)\\tmpdir/M3_conf_0_53.gjf\\0,1\H,0,0.,0.,0.\C,0,1.105,0.,0.\O,
 0,1.54862,0.,1.35324\H,0,1.47127,0.89414,-0.57734\H,0,1.45481,-0.85281
 ,-0.52117\H,0,1.05376,0.60075,1.93365\\Version=ES64L-G16RevA.03\State=
 1-A\HF=-115.7100818\RMSD=5.627e-09\Dipole=-0.5051598,0.3554283,-0.1607
 767\Quadrupole=-0.719475,-0.0957058,0.8151808,-0.2745332,-1.0361893,1.
 3957902\PG=C01 [X(C1H4O1)]\\@


 ALL MEN WHO EXPLORE
 DEPLORE
 THAT FRUSTRATING HURDLE
 THE GIRDLE.

         -- COLIN FLETCHER
 Job cpu time:       0 days  0 hours  0 minutes  7.3 seconds.
 Elapsed time:       0 days  0 hours  0 minutes  2.0 seconds.
 File lengths (MBytes):  RWF=      6 Int=      0 D2E=      0 Chk=      1 Scr=      1
 Normal termination of Gaussian 16 at Fri Sep 22 17:01:21 2023.
