 Entering Gaussian System, Link 0=g16
 Initial command:
 /share/apps/gaussian/g16/l1.exe "/tmp/55622.mgr/Gau-176337.inp" -scrdir="/tmp/55622.mgr/"
 Entering Link 1 = /share/apps/gaussian/g16/l1.exe PID=    176338.
  
 Copyright (c) 1988,1990,1992,1993,1995,1998,2003,2009,2016,
            Gaussian, Inc.  All Rights Reserved.
  
 This is part of the Gaussian(R) 16 program.  It is based on
 the Gaussian(R) 09 system (copyright 2009, Gaussian, Inc.),
 the Gaussian(R) 03 system (copyright 2003, Gaussian, Inc.),
 the Gaussian(R) 98 system (copyright 1998, Gaussian, Inc.),
 the Gaussian(R) 94 system (copyright 1995, Gaussian, Inc.),
 the Gaussian 92(TM) system (copyright 1992, Gaussian, Inc.),
 the Gaussian 90(TM) system (copyright 1990, Gaussian, Inc.),
 the Gaussian 88(TM) system (copyright 1988, Gaussian, Inc.),
 the Gaussian 86(TM) system (copyright 1986, Carnegie Mellon
 University), and the Gaussian 82(TM) system (copyright 1983,
 Carnegie Mellon University). Gaussian is a federally registered
 trademark of Gaussian, Inc.
  
 This software contains proprietary and confidential information,
 including trade secrets, belonging to Gaussian, Inc.
  
 This software is provided under written license and may be
 used, copied, transmitted, or stored only in accord with that
 written license.
  
 The following legend is applicable only to US Government
 contracts under FAR:
  
                    RESTRICTED RIGHTS LEGEND
  
 Use, reproduction and disclosure by the US Government is
 subject to restrictions as set forth in subparagraphs (a)
 and (c) of the Commercial Computer Software - Restricted
 Rights clause in FAR 52.227-19.
  
 Gaussian, Inc.
 340 Quinnipiac St., Bldg. 40, Wallingford CT 06492
  
  
 ---------------------------------------------------------------
 Warning -- This program may not be used in any manner that
 competes with the business of Gaussian, Inc. or will provide
 assistance to any competitor of Gaussian, Inc.  The licensee
 of this program is prohibited from giving any competitor of
 Gaussian, Inc. access to this program.  By using this program,
 the user acknowledges that Gaussian, Inc. is engaged in the
 business of creating and licensing software in the field of
 computational chemistry and represents and warrants to the
 licensee that it is not a competitor of Gaussian, Inc. and that
 it will not use this program in any manner prohibited above.
 ---------------------------------------------------------------
  

 Cite this work as:
 Gaussian 16, Revision A.03,
 M. J. Frisch, G. W. Trucks, H. B. Schlegel, G. E. Scuseria, 
 M. A. Robb, J. R. Cheeseman, G. Scalmani, V. Barone, 
 G. A. Petersson, H. Nakatsuji, X. Li, M. Caricato, A. V. Marenich, 
 J. Bloino, B. G. Janesko, R. Gomperts, B. Mennucci, H. P. Hratchian, 
 J. V. Ortiz, A. F. Izmaylov, J. L. Sonnenberg, D. Williams-Young, 
 F. Ding, F. Lipparini, F. Egidi, J. Goings, B. Peng, A. Petrone, 
 T. Henderson, D. Ranasinghe, V. G. Zakrzewski, J. Gao, N. Rega, 
 G. Zheng, W. Liang, M. Hada, M. Ehara, K. Toyota, R. Fukuda, 
 J. Hasegawa, M. Ishida, T. Nakajima, Y. Honda, O. Kitao, H. Nakai, 
 T. Vreven, K. Throssell, J. A. Montgomery, Jr., J. E. Peralta, 
 F. Ogliaro, M. J. Bearpark, J. J. Heyd, E. N. Brothers, K. N. Kudin, 
 V. N. Staroverov, T. A. Keith, R. Kobayashi, J. Normand, 
 K. Raghavachari, A. P. Rendell, J. C. Burant, S. S. Iyengar, 
 J. Tomasi, M. Cossi, J. M. Millam, M. Klene, C. Adamo, R. Cammi, 
 J. W. Ochterski, R. L. Martin, K. Morokuma, O. Farkas, 
 J. B. Foresman, and D. J. Fox, Gaussian, Inc., Wallingford CT, 2016.
 
 ******************************************
 Gaussian 16:  ES64L-G16RevA.03 25-Dec-2016
                22-Sep-2023 
 ******************************************
 %nprocshared=4
 Will use up to    4 processors via shared memory.
 %mem=4GB
 ----------------
 # b3lyp/6-31g(d)
 ----------------
 1/38=1,172=1/1;
 2/12=2,17=6,18=5,40=1/2;
 3/5=1,6=6,7=1,11=2,25=1,30=1,74=-5/1,2,3;
 4//1;
 5/5=2,38=5/2;
 6/7=2,8=2,9=2,10=2,28=1/1;
 99/5=1,9=1/99;
 -----------------------
 tmpdir/M3_conf_0_58.gjf
 -----------------------
 Symbolic Z-matrix:
 Charge =  0 Multiplicity = 1
 N                     0.        0.        0. 
 N                     1.2564    0.        0. 
 H                    -0.44812   0.       -0.94415 
 N                     2.39127   0.00079   0.13271 
 
                          Input orientation:                          
 ---------------------------------------------------------------------
 Center     Atomic      Atomic             Coordinates (Angstroms)
 Number     Number       Type             X           Y           Z
 ---------------------------------------------------------------------
      1          7           0        0.000000    0.000000    0.000000
      2          7           0        1.256400    0.000000    0.000000
      3          1           0       -0.448120    0.000000   -0.944150
      4          7           0        2.391270    0.000790    0.132710
 ---------------------------------------------------------------------
                    Distance matrix (angstroms):
                    1          2          3          4
     1  N    0.000000
     2  N    1.256400   0.000000
     3  H    1.045098   1.948540   0.000000
     4  N    2.394950   1.142603   3.036736   0.000000
 Stoichiometry    HN3
 Framework group  C1[X(HN3)]
 Deg. of freedom     6
 Full point group                 C1      NOp   1
 Largest Abelian subgroup         C1      NOp   1
 Largest concise Abelian subgroup C1      NOp   1
                         Standard orientation:                         
 ---------------------------------------------------------------------
 Center     Atomic      Atomic             Coordinates (Angstroms)
 Number     Number       Type             X           Y           Z
 ---------------------------------------------------------------------
      1          7           0       -1.131901   -0.137761    0.000111
      2          7           0        0.115387    0.013278   -0.000288
      3          1           0       -1.690272    0.745671    0.000153
      4          7           0        1.257981    0.017959    0.000156
 ---------------------------------------------------------------------
 Rotational constants (GHZ):         646.5402978          11.7148800          11.5063927
 Standard basis: 6-31G(d) (6D, 7F)
 There are    47 symmetry adapted cartesian basis functions of A   symmetry.
 There are    47 symmetry adapted basis functions of A   symmetry.
    47 basis functions,    88 primitive gaussians,    47 cartesian basis functions
    11 alpha electrons       11 beta electrons
       nuclear repulsion energy        60.8236461233 Hartrees.
 NAtoms=    4 NActive=    4 NUniq=    4 SFac= 1.00D+00 NAtFMM=   60 NAOKFM=F Big=F
 Integral buffers will be    131072 words long.
 Raffenetti 2 integral format.
 Two-electron integral symmetry is turned on.
 One-electron integrals computed using PRISM.
 NBasis=    47 RedAO= T EigKep=  1.80D-03  NBF=    47
 NBsUse=    47 1.00D-06 EigRej= -1.00D+00 NBFU=    47
 ExpMin= 1.61D-01 ExpMax= 4.17D+03 ExpMxC= 6.27D+02 IAcc=3 IRadAn=         5 AccDes= 0.00D+00
 Harris functional with IExCor=  402 and IRadAn=       5 diagonalized for initial guess.
 HarFok:  IExCor=  402 AccDes= 0.00D+00 IRadAn=         5 IDoV= 1 UseB2=F ITyADJ=14
 ICtDFT=  3500011 ScaDFX=  1.000000  1.000000  1.000000  1.000000
 FoFCou: FMM=F IPFlag=           0 FMFlag=      100000 FMFlg1=           0
         NFxFlg=           0 DoJE=T BraDBF=F KetDBF=T FulRan=T
         wScrn=  0.000000 ICntrl=       500 IOpCl=  0 I1Cent=   200000004 NGrid=           0
         NMat0=    1 NMatS0=      1 NMatT0=    0 NMatD0=    1 NMtDS0=    0 NMtDT0=    0
 Petite list used in FoFCou.
 Keep R1 ints in memory in canonical form, NReq=4106183.
 Requested convergence on RMS density matrix=1.00D-08 within 128 cycles.
 Requested convergence on MAX density matrix=1.00D-06.
 Requested convergence on             energy=1.00D-06.
 No special actions if energy rises.
 Integral accuracy reduced to 1.0D-05 until final iterations.
 Initial convergence to 1.0D-05 achieved.  Increase integral accuracy.
 SCF Done:  E(RB3LYP) =  -164.780302755     A.U. after   13 cycles
            NFock= 13  Conv=0.95D-08     -V/T= 2.0102

 **********************************************************************

            Population analysis using the SCF density.

 **********************************************************************

 Orbital symmetries:
       Occupied  (A) (A) (A) (A) (A) (A) (A) (A) (A) (A) (A)
       Virtual   (A) (A) (A) (A) (A) (A) (A) (A) (A) (A) (A) (A)
                 (A) (A) (A) (A) (A) (A) (A) (A) (A) (A) (A) (A)
                 (A) (A) (A) (A) (A) (A) (A) (A) (A) (A) (A) (A)
 The electronic state is 1-A.
 Alpha  occ. eigenvalues --  -14.52752 -14.42008 -14.39059  -1.14285  -0.97241
 Alpha  occ. eigenvalues --   -0.62753  -0.50949  -0.50906  -0.45833  -0.32075
 Alpha  occ. eigenvalues --   -0.27461
 Alpha virt. eigenvalues --   -0.03788   0.00436   0.07641   0.21669   0.44226
 Alpha virt. eigenvalues --    0.51037   0.60614   0.60694   0.65093   0.70767
 Alpha virt. eigenvalues --    0.71028   0.74463   0.81740   0.86230   0.92004
 Alpha virt. eigenvalues --    1.00867   1.30592   1.33823   1.37710   1.39704
 Alpha virt. eigenvalues --    1.46376   1.49947   1.67414   1.86974   1.96697
 Alpha virt. eigenvalues --    1.99933   2.06802   2.27295   2.29203   2.59473
 Alpha virt. eigenvalues --    2.85271   2.87019   3.01910   3.48990   3.53407
 Alpha virt. eigenvalues --    4.09586
          Condensed to atoms (all electrons):
               1          2          3          4
     1  N    6.922718   0.388732   0.275272  -0.092114
     2  N    0.388732   5.703963  -0.037584   0.569373
     3  H    0.275272  -0.037584   0.405211  -0.001595
     4  N   -0.092114   0.569373  -0.001595   6.763941
 Mulliken charges:
               1
     1  N   -0.494608
     2  N    0.375516
     3  H    0.358697
     4  N   -0.239605
 Sum of Mulliken charges =   0.00000
 Mulliken charges with hydrogens summed into heavy atoms:
               1
     1  N   -0.135911
     2  N    0.375516
     4  N   -0.239605
 Electronic spatial extent (au):  <R**2>=            122.0777
 Charge=              0.0000 electrons
 Dipole moment (field-independent basis, Debye):
    X=             -1.1750    Y=              1.6269    Z=             -0.0005  Tot=              2.0068
 Quadrupole moment (field-independent basis, Debye-Ang):
   XX=            -17.8485   YY=            -15.6187   ZZ=            -16.9504
   XY=             -2.9640   XZ=             -0.0005   YZ=              0.0002
 Traceless Quadrupole moment (field-independent basis, Debye-Ang):
   XX=             -1.0426   YY=              1.1871   ZZ=             -0.1445
   XY=             -2.9640   XZ=             -0.0005   YZ=              0.0002
 Octapole moment (field-independent basis, Debye-Ang**2):
  XXX=             -7.9253  YYY=              1.8057  ZZZ=             -0.0007  XYY=             -0.8270
  XXY=              4.9520  XXZ=              0.0009  XZZ=              0.3986  YZZ=              0.4053
  YYZ=             -0.0000  XYZ=             -0.0004
 Hexadecapole moment (field-independent basis, Debye-Ang**3):
 XXXX=           -117.3871 YYYY=            -15.3523 ZZZZ=            -14.1683 XXXY=             -9.3680
 XXXZ=             -0.0026 YYYX=             -3.1906 YYYZ=              0.0003 ZZZX=             -0.0002
 ZZZY=              0.0001 XXYY=            -20.7837 XXZZ=            -23.7045 YYZZ=             -5.0389
 XXYZ=              0.0005 YYXZ=             -0.0003 ZZXY=             -0.6855
 N-N= 6.082364612332D+01 E-N=-5.058398766951D+02  KE= 1.631167989761D+02
 1\1\GINC-NODE56\SP\RB3LYP\6-31G(d)\H1N3\YANZ\22-Sep-2023\0\\# b3lyp/6-
 31g(d)\\tmpdir/M3_conf_0_58.gjf\\0,1\N,0,0.,0.,0.\N,0,1.2564,0.,0.\H,0
 ,-0.44812,0.,-0.94415\N,0,2.39127,0.00079,0.13271\\Version=ES64L-G16Re
 vA.03\State=1-A\HF=-164.7803028\RMSD=9.538e-09\Dipole=-0.3819706,-0.00
 02369,-0.6910079\Quadrupole=-1.2772031,-0.1074475,1.3846506,-0.000906,
 1.9421511,0.0002551\PG=C01 [X(H1N3)]\\@


 "TIGER, TIGER BURNING BRIGHT
 IN THE FOREST OF THE NIGHT.
 WHAT IMMORTAL HAND OR EYE
 CAN FRAME THY FEARFUL SYMMETRYE?"
                     - WILLIAM BLAKE
 Job cpu time:       0 days  0 hours  0 minutes  7.3 seconds.
 Elapsed time:       0 days  0 hours  0 minutes  2.0 seconds.
 File lengths (MBytes):  RWF=      6 Int=      0 D2E=      0 Chk=      1 Scr=      1
 Normal termination of Gaussian 16 at Fri Sep 22 17:01:26 2023.
