 Entering Gaussian System, Link 0=g16
 Initial command:
 /share/apps/gaussian/g16/l1.exe "/tmp/55622.mgr/Gau-175896.inp" -scrdir="/tmp/55622.mgr/"
 Entering Link 1 = /share/apps/gaussian/g16/l1.exe PID=    175897.
  
 Copyright (c) 1988,1990,1992,1993,1995,1998,2003,2009,2016,
            Gaussian, Inc.  All Rights Reserved.
  
 This is part of the Gaussian(R) 16 program.  It is based on
 the Gaussian(R) 09 system (copyright 2009, Gaussian, Inc.),
 the Gaussian(R) 03 system (copyright 2003, Gaussian, Inc.),
 the Gaussian(R) 98 system (copyright 1998, Gaussian, Inc.),
 the Gaussian(R) 94 system (copyright 1995, Gaussian, Inc.),
 the Gaussian 92(TM) system (copyright 1992, Gaussian, Inc.),
 the Gaussian 90(TM) system (copyright 1990, Gaussian, Inc.),
 the Gaussian 88(TM) system (copyright 1988, Gaussian, Inc.),
 the Gaussian 86(TM) system (copyright 1986, Carnegie Mellon
 University), and the Gaussian 82(TM) system (copyright 1983,
 Carnegie Mellon University). Gaussian is a federally registered
 trademark of Gaussian, Inc.
  
 This software contains proprietary and confidential information,
 including trade secrets, belonging to Gaussian, Inc.
  
 This software is provided under written license and may be
 used, copied, transmitted, or stored only in accord with that
 written license.
  
 The following legend is applicable only to US Government
 contracts under FAR:
  
                    RESTRICTED RIGHTS LEGEND
  
 Use, reproduction and disclosure by the US Government is
 subject to restrictions as set forth in subparagraphs (a)
 and (c) of the Commercial Computer Software - Restricted
 Rights clause in FAR 52.227-19.
  
 Gaussian, Inc.
 340 Quinnipiac St., Bldg. 40, Wallingford CT 06492
  
  
 ---------------------------------------------------------------
 Warning -- This program may not be used in any manner that
 competes with the business of Gaussian, Inc. or will provide
 assistance to any competitor of Gaussian, Inc.  The licensee
 of this program is prohibited from giving any competitor of
 Gaussian, Inc. access to this program.  By using this program,
 the user acknowledges that Gaussian, Inc. is engaged in the
 business of creating and licensing software in the field of
 computational chemistry and represents and warrants to the
 licensee that it is not a competitor of Gaussian, Inc. and that
 it will not use this program in any manner prohibited above.
 ---------------------------------------------------------------
  

 Cite this work as:
 Gaussian 16, Revision A.03,
 M. J. Frisch, G. W. Trucks, H. B. Schlegel, G. E. Scuseria, 
 M. A. Robb, J. R. Cheeseman, G. Scalmani, V. Barone, 
 G. A. Petersson, H. Nakatsuji, X. Li, M. Caricato, A. V. Marenich, 
 J. Bloino, B. G. Janesko, R. Gomperts, B. Mennucci, H. P. Hratchian, 
 J. V. Ortiz, A. F. Izmaylov, J. L. Sonnenberg, D. Williams-Young, 
 F. Ding, F. Lipparini, F. Egidi, J. Goings, B. Peng, A. Petrone, 
 T. Henderson, D. Ranasinghe, V. G. Zakrzewski, J. Gao, N. Rega, 
 G. Zheng, W. Liang, M. Hada, M. Ehara, K. Toyota, R. Fukuda, 
 J. Hasegawa, M. Ishida, T. Nakajima, Y. Honda, O. Kitao, H. Nakai, 
 T. Vreven, K. Throssell, J. A. Montgomery, Jr., J. E. Peralta, 
 F. Ogliaro, M. J. Bearpark, J. J. Heyd, E. N. Brothers, K. N. Kudin, 
 V. N. Staroverov, T. A. Keith, R. Kobayashi, J. Normand, 
 K. Raghavachari, A. P. Rendell, J. C. Burant, S. S. Iyengar, 
 J. Tomasi, M. Cossi, J. M. Millam, M. Klene, C. Adamo, R. Cammi, 
 J. W. Ochterski, R. L. Martin, K. Morokuma, O. Farkas, 
 J. B. Foresman, and D. J. Fox, Gaussian, Inc., Wallingford CT, 2016.
 
 ******************************************
 Gaussian 16:  ES64L-G16RevA.03 25-Dec-2016
                22-Sep-2023 
 ******************************************
 %nprocshared=4
 Will use up to    4 processors via shared memory.
 %mem=4GB
 ----------------
 # b3lyp/6-31g(d)
 ----------------
 1/38=1,172=1/1;
 2/12=2,17=6,18=5,40=1/2;
 3/5=1,6=6,7=1,11=2,25=1,30=1,74=-5/1,2,3;
 4//1;
 5/5=2,38=5/2;
 6/7=2,8=2,9=2,10=2,28=1/1;
 99/5=1,9=1/99;
 -----------------------
 tmpdir/M3_conf_0_47.gjf
 -----------------------
 Symbolic Z-matrix:
 Charge =  0 Multiplicity = 1
 C                     0.        0.        0. 
 C                     1.4694    0.        0. 
 H                    -0.31498   0.       -1.08063 
 H                    -0.36504  -0.92554   0.48078 
 H                    -0.41942   0.92157   0.58485 
 N                     2.48615  -0.2027   -0.40977 
 
                          Input orientation:                          
 ---------------------------------------------------------------------
 Center     Atomic      Atomic             Coordinates (Angstroms)
 Number     Number       Type             X           Y           Z
 ---------------------------------------------------------------------
      1          6           0        0.000000    0.000000    0.000000
      2          6           0        1.469400    0.000000    0.000000
      3          1           0       -0.314980    0.000000   -1.080630
      4          1           0       -0.365040   -0.925540    0.480780
      5          1           0       -0.419420    0.921570    0.584850
      6          7           0        2.486150   -0.202700   -0.409770
 ---------------------------------------------------------------------
                    Distance matrix (angstroms):
                    1          2          3          4          5
     1  C    0.000000
     2  C    1.469400   0.000000
     3  H    1.125599   2.086090   0.000000
     4  H    1.105001   2.110200   1.815801   0.000000
     5  H    1.169296   2.181509   1.906311   1.850838   0.000000
     6  N    2.527833   1.114800   2.887468   3.073249   3.270411
                    6
     6  N    0.000000
 Stoichiometry    C2H3N
 Framework group  C1[X(C2H3N)]
 Deg. of freedom    12
 Full point group                 C1      NOp   1
 Largest Abelian subgroup         C1      NOp   1
 Largest concise Abelian subgroup C1      NOp   1
                         Standard orientation:                         
 ---------------------------------------------------------------------
 Center     Atomic      Atomic             Coordinates (Angstroms)
 Number     Number       Type             X           Y           Z
 ---------------------------------------------------------------------
      1          6           0        1.150202    0.046195   -0.003503
      2          6           0       -0.298620   -0.197832    0.018941
      3          1           0        1.299564    1.003333   -0.576697
      4          1           0        1.512842    0.186355    1.030845
      5          1           0        1.719708   -0.853888   -0.485962
      6          7           0       -1.377372    0.082003   -0.008688
 ---------------------------------------------------------------------
 Rotational constants (GHZ):         125.7090799           9.7835216           9.6484498
 Standard basis: 6-31G(d) (6D, 7F)
 There are    51 symmetry adapted cartesian basis functions of A   symmetry.
 There are    51 symmetry adapted basis functions of A   symmetry.
    51 basis functions,    96 primitive gaussians,    51 cartesian basis functions
    11 alpha electrons       11 beta electrons
       nuclear repulsion energy        59.0610840498 Hartrees.
 NAtoms=    6 NActive=    6 NUniq=    6 SFac= 1.00D+00 NAtFMM=   60 NAOKFM=F Big=F
 Integral buffers will be    131072 words long.
 Raffenetti 2 integral format.
 Two-electron integral symmetry is turned on.
 One-electron integrals computed using PRISM.
 NBasis=    51 RedAO= T EigKep=  2.36D-03  NBF=    51
 NBsUse=    51 1.00D-06 EigRej= -1.00D+00 NBFU=    51
 ExpMin= 1.61D-01 ExpMax= 4.17D+03 ExpMxC= 6.27D+02 IAcc=3 IRadAn=         5 AccDes= 0.00D+00
 Harris functional with IExCor=  402 and IRadAn=       5 diagonalized for initial guess.
 HarFok:  IExCor=  402 AccDes= 0.00D+00 IRadAn=         5 IDoV= 1 UseB2=F ITyADJ=14
 ICtDFT=  3500011 ScaDFX=  1.000000  1.000000  1.000000  1.000000
 FoFCou: FMM=F IPFlag=           0 FMFlag=      100000 FMFlg1=           0
         NFxFlg=           0 DoJE=T BraDBF=F KetDBF=T FulRan=T
         wScrn=  0.000000 ICntrl=       500 IOpCl=  0 I1Cent=   200000004 NGrid=           0
         NMat0=    1 NMatS0=      1 NMatT0=    0 NMatD0=    1 NMtDS0=    0 NMtDT0=    0
 Petite list used in FoFCou.
 Keep R1 ints in memory in canonical form, NReq=4366138.
 Requested convergence on RMS density matrix=1.00D-08 within 128 cycles.
 Requested convergence on MAX density matrix=1.00D-06.
 Requested convergence on             energy=1.00D-06.
 No special actions if energy rises.
 Integral accuracy reduced to 1.0D-05 until final iterations.
 Initial convergence to 1.0D-05 achieved.  Increase integral accuracy.
 SCF Done:  E(RB3LYP) =  -132.737094671     A.U. after   13 cycles
            NFock= 13  Conv=0.39D-08     -V/T= 2.0088

 **********************************************************************

            Population analysis using the SCF density.

 **********************************************************************

 Orbital symmetries:
       Occupied  (A) (A) (A) (A) (A) (A) (A) (A) (A) (A) (A)
       Virtual   (A) (A) (A) (A) (A) (A) (A) (A) (A) (A) (A) (A)
                 (A) (A) (A) (A) (A) (A) (A) (A) (A) (A) (A) (A)
                 (A) (A) (A) (A) (A) (A) (A) (A) (A) (A) (A) (A)
                 (A) (A) (A) (A)
 The electronic state is 1-A.
 Alpha  occ. eigenvalues --  -14.32385 -10.24856 -10.21989  -0.92139  -0.76363
 Alpha  occ. eigenvalues --   -0.50118  -0.46082  -0.45409  -0.35885  -0.33558
 Alpha  occ. eigenvalues --   -0.33220
 Alpha virt. eigenvalues --    0.01953   0.04892   0.08188   0.13617   0.15798
 Alpha virt. eigenvalues --    0.23077   0.30810   0.52818   0.53520   0.56570
 Alpha virt. eigenvalues --    0.61556   0.62587   0.68825   0.74312   0.79713
 Alpha virt. eigenvalues --    0.81895   0.83749   0.84934   0.87853   1.01235
 Alpha virt. eigenvalues --    1.33052   1.40886   1.41791   1.51091   1.52527
 Alpha virt. eigenvalues --    1.65000   1.84776   1.87337   1.98548   2.05679
 Alpha virt. eigenvalues --    2.16624   2.18252   2.25810   2.68878   2.75805
 Alpha virt. eigenvalues --    2.84120   3.19389   3.91853   4.05767   4.48017
          Condensed to atoms (all electrons):
               1          2          3          4          5          6
     1  C    5.151158   0.336917   0.380949   0.368719   0.350810  -0.071294
     2  C    0.336917   4.553753  -0.036324  -0.029037  -0.021821   0.913813
     3  H    0.380949  -0.036324   0.496022  -0.025138  -0.020806  -0.005626
     4  H    0.368719  -0.029037  -0.025138   0.504962  -0.024272  -0.001017
     5  H    0.350810  -0.021821  -0.020806  -0.024272   0.531366   0.001813
     6  N   -0.071294   0.913813  -0.005626  -0.001017   0.001813   6.527369
 Mulliken charges:
               1
     1  C   -0.517259
     2  C    0.282700
     3  H    0.210924
     4  H    0.205784
     5  H    0.182910
     6  N   -0.365059
 Sum of Mulliken charges =  -0.00000
 Mulliken charges with hydrogens summed into heavy atoms:
               1
     1  C    0.082359
     2  C    0.282700
     6  N   -0.365059
 Electronic spatial extent (au):  <R**2>=            156.3691
 Charge=              0.0000 electrons
 Dipole moment (field-independent basis, Debye):
    X=              3.5398    Y=             -0.0801    Z=              0.0483  Tot=              3.5410
 Quadrupole moment (field-independent basis, Debye-Ang):
   XX=            -20.5160   YY=            -17.0278   ZZ=            -17.2155
   XY=              0.3269   XZ=              0.0441   YZ=             -0.0190
 Traceless Quadrupole moment (field-independent basis, Debye-Ang):
   XX=             -2.2629   YY=              1.2253   ZZ=              1.0376
   XY=              0.3269   XZ=              0.0441   YZ=             -0.0190
 Octapole moment (field-independent basis, Debye-Ang**2):
  XXX=              9.0637  YYY=              0.6521  ZZZ=              0.8653  XYY=              1.3965
  XXY=             -0.7869  XXZ=              0.2041  XZZ=              1.1592  YZZ=              0.3940
  YYZ=             -0.8131  XYZ=              0.1640
 Hexadecapole moment (field-independent basis, Debye-Ang**3):
 XXXX=           -168.4604 YYYY=            -24.4620 ZZZZ=            -22.6215 XXXY=              0.2742
 XXXZ=              0.1919 YYYX=              0.1256 YYYZ=             -0.3947 ZZZX=              1.4676
 ZZZY=              0.0566 XXYY=            -28.6283 XXZZ=            -28.5414 YYZZ=             -7.7687
 XXYZ=              0.5828 YYXZ=             -1.2061 ZZXY=              0.3380
 N-N= 5.906108404979D+01 E-N=-4.263956074290D+02  KE= 1.315791914141D+02
 1\1\GINC-NODE56\SP\RB3LYP\6-31G(d)\C2H3N1\YANZ\22-Sep-2023\0\\# b3lyp/
 6-31g(d)\\tmpdir/M3_conf_0_47.gjf\\0,1\C,0,0.,0.,0.\C,0,1.4694,0.,0.\H
 ,0,-0.31498,0.,-1.08063\H,0,-0.36504,-0.92554,0.48078\H,0,-0.41942,0.9
 2157,0.58485\N,0,2.48615,-0.2027,-0.40977\\Version=ES64L-G16RevA.03\St
 ate=1-A\HF=-132.7370947\RMSD=3.887e-09\Dipole=-1.3676301,0.1041035,0.2
 441211\Quadrupole=-1.5316597,0.7600712,0.7715885,0.3399321,0.5594304,-
 0.0095518\PG=C01 [X(C2H3N1)]\\@


 THE ONLY TROUBLE WITH A SURE THING IS THE UNCERTAINTY.
     -- FROM A TEABAG (BELONGING TO W.H.?)
 Job cpu time:       0 days  0 hours  0 minutes 10.3 seconds.
 Elapsed time:       0 days  0 hours  0 minutes  2.7 seconds.
 File lengths (MBytes):  RWF=      6 Int=      0 D2E=      0 Chk=      1 Scr=      1
 Normal termination of Gaussian 16 at Fri Sep 22 17:01:20 2023.
