 Entering Gaussian System, Link 0=g16
 Initial command:
 /share/apps/gaussian/g16/l1.exe "/tmp/55622.mgr/Gau-175464.inp" -scrdir="/tmp/55622.mgr/"
 Entering Link 1 = /share/apps/gaussian/g16/l1.exe PID=    175465.
  
 Copyright (c) 1988,1990,1992,1993,1995,1998,2003,2009,2016,
            Gaussian, Inc.  All Rights Reserved.
  
 This is part of the Gaussian(R) 16 program.  It is based on
 the Gaussian(R) 09 system (copyright 2009, Gaussian, Inc.),
 the Gaussian(R) 03 system (copyright 2003, Gaussian, Inc.),
 the Gaussian(R) 98 system (copyright 1998, Gaussian, Inc.),
 the Gaussian(R) 94 system (copyright 1995, Gaussian, Inc.),
 the Gaussian 92(TM) system (copyright 1992, Gaussian, Inc.),
 the Gaussian 90(TM) system (copyright 1990, Gaussian, Inc.),
 the Gaussian 88(TM) system (copyright 1988, Gaussian, Inc.),
 the Gaussian 86(TM) system (copyright 1986, Carnegie Mellon
 University), and the Gaussian 82(TM) system (copyright 1983,
 Carnegie Mellon University). Gaussian is a federally registered
 trademark of Gaussian, Inc.
  
 This software contains proprietary and confidential information,
 including trade secrets, belonging to Gaussian, Inc.
  
 This software is provided under written license and may be
 used, copied, transmitted, or stored only in accord with that
 written license.
  
 The following legend is applicable only to US Government
 contracts under FAR:
  
                    RESTRICTED RIGHTS LEGEND
  
 Use, reproduction and disclosure by the US Government is
 subject to restrictions as set forth in subparagraphs (a)
 and (c) of the Commercial Computer Software - Restricted
 Rights clause in FAR 52.227-19.
  
 Gaussian, Inc.
 340 Quinnipiac St., Bldg. 40, Wallingford CT 06492
  
  
 ---------------------------------------------------------------
 Warning -- This program may not be used in any manner that
 competes with the business of Gaussian, Inc. or will provide
 assistance to any competitor of Gaussian, Inc.  The licensee
 of this program is prohibited from giving any competitor of
 Gaussian, Inc. access to this program.  By using this program,
 the user acknowledges that Gaussian, Inc. is engaged in the
 business of creating and licensing software in the field of
 computational chemistry and represents and warrants to the
 licensee that it is not a competitor of Gaussian, Inc. and that
 it will not use this program in any manner prohibited above.
 ---------------------------------------------------------------
  

 Cite this work as:
 Gaussian 16, Revision A.03,
 M. J. Frisch, G. W. Trucks, H. B. Schlegel, G. E. Scuseria, 
 M. A. Robb, J. R. Cheeseman, G. Scalmani, V. Barone, 
 G. A. Petersson, H. Nakatsuji, X. Li, M. Caricato, A. V. Marenich, 
 J. Bloino, B. G. Janesko, R. Gomperts, B. Mennucci, H. P. Hratchian, 
 J. V. Ortiz, A. F. Izmaylov, J. L. Sonnenberg, D. Williams-Young, 
 F. Ding, F. Lipparini, F. Egidi, J. Goings, B. Peng, A. Petrone, 
 T. Henderson, D. Ranasinghe, V. G. Zakrzewski, J. Gao, N. Rega, 
 G. Zheng, W. Liang, M. Hada, M. Ehara, K. Toyota, R. Fukuda, 
 J. Hasegawa, M. Ishida, T. Nakajima, Y. Honda, O. Kitao, H. Nakai, 
 T. Vreven, K. Throssell, J. A. Montgomery, Jr., J. E. Peralta, 
 F. Ogliaro, M. J. Bearpark, J. J. Heyd, E. N. Brothers, K. N. Kudin, 
 V. N. Staroverov, T. A. Keith, R. Kobayashi, J. Normand, 
 K. Raghavachari, A. P. Rendell, J. C. Burant, S. S. Iyengar, 
 J. Tomasi, M. Cossi, J. M. Millam, M. Klene, C. Adamo, R. Cammi, 
 J. W. Ochterski, R. L. Martin, K. Morokuma, O. Farkas, 
 J. B. Foresman, and D. J. Fox, Gaussian, Inc., Wallingford CT, 2016.
 
 ******************************************
 Gaussian 16:  ES64L-G16RevA.03 25-Dec-2016
                22-Sep-2023 
 ******************************************
 %nprocshared=4
 Will use up to    4 processors via shared memory.
 %mem=4GB
 ----------------
 # b3lyp/6-31g(d)
 ----------------
 1/38=1,172=1/1;
 2/12=2,17=6,18=5,40=1/2;
 3/5=1,6=6,7=1,11=2,25=1,30=1,74=-5/1,2,3;
 4//1;
 5/5=2,38=5/2;
 6/7=2,8=2,9=2,10=2,28=1/1;
 99/5=1,9=1/99;
 -----------------------
 tmpdir/M3_conf_0_44.gjf
 -----------------------
 Symbolic Z-matrix:
 Charge =  0 Multiplicity = 1
 C                     0.        0.        0. 
 C                     1.555     0.        0. 
 H                     1.88554   0.        1.04581 
 H                    -0.35957   0.20652  -1.02425 
 H                    -0.29631  -0.97598   0.28447 
 H                    -0.44426   0.80152   0.72626 
 H                     2.04407  -0.84599  -0.55318 
 H                     1.8946    0.94897  -0.43507 
 
                          Input orientation:                          
 ---------------------------------------------------------------------
 Center     Atomic      Atomic             Coordinates (Angstroms)
 Number     Number       Type             X           Y           Z
 ---------------------------------------------------------------------
      1          6           0        0.000000    0.000000    0.000000
      2          6           0        1.555000    0.000000    0.000000
      3          1           0        1.885540    0.000000    1.045810
      4          1           0       -0.359570    0.206520   -1.024250
      5          1           0       -0.296310   -0.975980    0.284470
      6          1           0       -0.444260    0.801520    0.726260
      7          1           0        2.044070   -0.845990   -0.553180
      8          1           0        1.894600    0.948970   -0.435070
 ---------------------------------------------------------------------
                    Distance matrix (angstroms):
                    1          2          3          4          5
     1  C    0.000000
     2  C    1.555000   0.000000
     3  H    2.156149   1.096802   0.000000
     4  H    1.105002   2.181127   3.060771   0.000000
     5  H    1.058896   2.112063   2.508514   1.764952   0.000000
     6  H    1.169297   2.273088   2.484455   1.850806   1.837546
     7  H    2.280335   1.122897   1.815929   2.665928   2.489163
     8  H    2.163178   1.097797   1.758872   2.445332   3.003874
                    6          7          8
     6  H    0.000000
     7  H    3.247005   0.000000
     8  H    2.615472   1.805041   0.000000
 Stoichiometry    C2H6
 Framework group  C1[X(C2H6)]
 Deg. of freedom    18
 Full point group                 C1      NOp   1
 Largest Abelian subgroup         C1      NOp   1
 Largest concise Abelian subgroup C1      NOp   1
                         Standard orientation:                         
 ---------------------------------------------------------------------
 Center     Atomic      Atomic             Coordinates (Angstroms)
 Number     Number       Type             X           Y           Z
 ---------------------------------------------------------------------
      1          6           0        0.780563   -0.017977   -0.008974
      2          6           0       -0.774247    0.003768    0.001878
      3          1           0       -1.099676    0.742662   -0.740487
      4          1           0        1.138191   -0.595112    0.862832
      5          1           0        1.063716   -0.517224   -0.898827
      6          1           0        1.240199    1.056352    0.033529
      7          1           0       -1.278509   -0.980073   -0.194776
      8          1           0       -1.101816    0.378652    0.980305
 ---------------------------------------------------------------------
 Rotational constants (GHZ):          77.1725306          19.6515520          19.4271708
 Standard basis: 6-31G(d) (6D, 7F)
 There are    42 symmetry adapted cartesian basis functions of A   symmetry.
 There are    42 symmetry adapted basis functions of A   symmetry.
    42 basis functions,    80 primitive gaussians,    42 cartesian basis functions
     9 alpha electrons        9 beta electrons
       nuclear repulsion energy        41.6663109600 Hartrees.
 NAtoms=    8 NActive=    8 NUniq=    8 SFac= 1.00D+00 NAtFMM=   60 NAOKFM=F Big=F
 Integral buffers will be    131072 words long.
 Raffenetti 2 integral format.
 Two-electron integral symmetry is turned on.
 One-electron integrals computed using PRISM.
 NBasis=    42 RedAO= T EigKep=  8.69D-03  NBF=    42
 NBsUse=    42 1.00D-06 EigRej= -1.00D+00 NBFU=    42
 ExpMin= 1.61D-01 ExpMax= 3.05D+03 ExpMxC= 4.57D+02 IAcc=3 IRadAn=         5 AccDes= 0.00D+00
 Harris functional with IExCor=  402 and IRadAn=       5 diagonalized for initial guess.
 HarFok:  IExCor=  402 AccDes= 0.00D+00 IRadAn=         5 IDoV= 1 UseB2=F ITyADJ=14
 ICtDFT=  3500011 ScaDFX=  1.000000  1.000000  1.000000  1.000000
 FoFCou: FMM=F IPFlag=           0 FMFlag=      100000 FMFlg1=           0
         NFxFlg=           0 DoJE=T BraDBF=F KetDBF=T FulRan=T
         wScrn=  0.000000 ICntrl=       500 IOpCl=  0 I1Cent=   200000004 NGrid=           0
         NMat0=    1 NMatS0=      1 NMatT0=    0 NMatD0=    1 NMtDS0=    0 NMtDT0=    0
 Petite list used in FoFCou.
 Keep R1 ints in memory in canonical form, NReq=3861446.
 Requested convergence on RMS density matrix=1.00D-08 within 128 cycles.
 Requested convergence on MAX density matrix=1.00D-06.
 Requested convergence on             energy=1.00D-06.
 No special actions if energy rises.
 Integral accuracy reduced to 1.0D-05 until final iterations.
 Initial convergence to 1.0D-05 achieved.  Increase integral accuracy.
 SCF Done:  E(RB3LYP) =  -79.8228434786     A.U. after   10 cycles
            NFock= 10  Conv=0.14D-08     -V/T= 2.0121

 **********************************************************************

            Population analysis using the SCF density.

 **********************************************************************

 Orbital symmetries:
       Occupied  (A) (A) (A) (A) (A) (A) (A) (A) (A)
       Virtual   (A) (A) (A) (A) (A) (A) (A) (A) (A) (A) (A) (A)
                 (A) (A) (A) (A) (A) (A) (A) (A) (A) (A) (A) (A)
                 (A) (A) (A) (A) (A) (A) (A) (A) (A)
 The electronic state is 1-A.
 Alpha  occ. eigenvalues --  -10.17833 -10.17586  -0.74300  -0.60674  -0.43313
 Alpha  occ. eigenvalues --   -0.42599  -0.35591  -0.34032  -0.33659
 Alpha virt. eigenvalues --    0.09932   0.13752   0.15951   0.17017   0.18615
 Alpha virt. eigenvalues --    0.19467   0.22973   0.51715   0.54856   0.55091
 Alpha virt. eigenvalues --    0.61258   0.65576   0.66463   0.85129   0.87923
 Alpha virt. eigenvalues --    0.88497   0.91439   0.93218   0.97605   1.06373
 Alpha virt. eigenvalues --    1.42937   1.50245   1.53784   1.89810   1.96650
 Alpha virt. eigenvalues --    2.04630   2.18855   2.28051   2.28529   2.32953
 Alpha virt. eigenvalues --    2.58047   4.12998   4.35963
          Condensed to atoms (all electrons):
               1          2          3          4          5          6
     1  C    5.023088   0.365897  -0.038372   0.381329   0.384705   0.375745
     2  C    0.365897   5.033984   0.381059  -0.037073  -0.041987  -0.029295
     3  H   -0.038372   0.381059   0.576989   0.004898  -0.002498  -0.005024
     4  H    0.381329  -0.037073   0.004898   0.575385  -0.031787  -0.029266
     5  H    0.384705  -0.041987  -0.002498  -0.031787   0.561604  -0.027433
     6  H    0.375745  -0.029295  -0.005024  -0.029266  -0.027433   0.584580
     7  H   -0.027971   0.379786  -0.029468  -0.001468  -0.004442   0.003355
     8  H   -0.038256   0.381141  -0.032847  -0.005751   0.005331  -0.001810
               7          8
     1  C   -0.027971  -0.038256
     2  C    0.379786   0.381141
     3  H   -0.029468  -0.032847
     4  H   -0.001468  -0.005751
     5  H   -0.004442   0.005331
     6  H    0.003355  -0.001810
     7  H    0.570042  -0.030843
     8  H   -0.030843   0.579012
 Mulliken charges:
               1
     1  C   -0.426166
     2  C   -0.433512
     3  H    0.145263
     4  H    0.143731
     5  H    0.156506
     6  H    0.129147
     7  H    0.141008
     8  H    0.144022
 Sum of Mulliken charges =  -0.00000
 Mulliken charges with hydrogens summed into heavy atoms:
               1
     1  C    0.003219
     2  C   -0.003219
 Electronic spatial extent (au):  <R**2>=            111.1431
 Charge=             -0.0000 electrons
 Dipole moment (field-independent basis, Debye):
    X=             -0.0151    Y=             -0.0268    Z=             -0.0231  Tot=              0.0385
 Quadrupole moment (field-independent basis, Debye-Ang):
   XX=            -15.5269   YY=            -14.6019   ZZ=            -14.7887
   XY=              0.1673   XZ=              0.0496   YZ=              0.0343
 Traceless Quadrupole moment (field-independent basis, Debye-Ang):
   XX=             -0.5544   YY=              0.3706   ZZ=              0.1838
   XY=              0.1673   XZ=              0.0496   YZ=              0.0343
 Octapole moment (field-independent basis, Debye-Ang**2):
  XXX=             -0.2761  YYY=              0.0449  ZZZ=              0.1346  XYY=             -0.0099
  XXY=             -0.1559  XXZ=              0.0113  XZZ=              0.0587  YZZ=             -0.1695
  YYZ=             -0.2574  XYZ=             -0.0322
 Hexadecapole moment (field-independent basis, Debye-Ang**3):
 XXXX=            -94.9507 YYYY=            -30.0092 ZZZZ=            -28.4866 XXXY=              0.7455
 XXXZ=              0.1805 YYYX=              1.1120 YYYZ=              0.0059 ZZZX=             -0.4559
 ZZZY=              0.1131 XXYY=            -19.2025 XXZZ=            -19.8570 YYZZ=             -9.6733
 XXYZ=              0.0767 YYXZ=              0.4222 ZZXY=             -1.1771
 N-N= 4.166631096001D+01 E-N=-2.670551620822D+02  KE= 7.886648441570D+01
 1\1\GINC-NODE56\SP\RB3LYP\6-31G(d)\C2H6\YANZ\22-Sep-2023\0\\# b3lyp/6-
 31g(d)\\tmpdir/M3_conf_0_44.gjf\\0,1\C,0,0.,0.,0.\C,0,1.555,0.,0.\H,0,
 1.88554,0.,1.04581\H,0,-0.35957,0.20652,-1.02425\H,0,-0.29631,-0.97598
 ,0.28447\H,0,-0.44426,0.80152,0.72626\H,0,2.04407,-0.84599,-0.55318\H,
 0,1.8946,0.94897,-0.43507\\Version=ES64L-G16RevA.03\State=1-A\HF=-79.8
 228435\RMSD=1.437e-09\Dipole=0.0057177,-0.0139872,-0.0009533\Quadrupol
 e=-0.4160263,0.2357993,0.180227,-0.1045036,-0.0571435,0.0704958\PG=C01
  [X(C2H6)]\\@


 YOU CAN LEAD A BOY TO COLLEGE....
 BUT YOU CANNOT MAKE HIM THINK....
           ELBERT HUBBARD
 Job cpu time:       0 days  0 hours  0 minutes  9.6 seconds.
 Elapsed time:       0 days  0 hours  0 minutes  2.6 seconds.
 File lengths (MBytes):  RWF=      6 Int=      0 D2E=      0 Chk=      1 Scr=      1
 Normal termination of Gaussian 16 at Fri Sep 22 17:01:15 2023.
