 Entering Gaussian System, Link 0=g16
 Initial command:
 /share/apps/gaussian/g16/l1.exe "/tmp/55622.mgr/Gau-177166.inp" -scrdir="/tmp/55622.mgr/"
 Entering Link 1 = /share/apps/gaussian/g16/l1.exe PID=    177167.
  
 Copyright (c) 1988,1990,1992,1993,1995,1998,2003,2009,2016,
            Gaussian, Inc.  All Rights Reserved.
  
 This is part of the Gaussian(R) 16 program.  It is based on
 the Gaussian(R) 09 system (copyright 2009, Gaussian, Inc.),
 the Gaussian(R) 03 system (copyright 2003, Gaussian, Inc.),
 the Gaussian(R) 98 system (copyright 1998, Gaussian, Inc.),
 the Gaussian(R) 94 system (copyright 1995, Gaussian, Inc.),
 the Gaussian 92(TM) system (copyright 1992, Gaussian, Inc.),
 the Gaussian 90(TM) system (copyright 1990, Gaussian, Inc.),
 the Gaussian 88(TM) system (copyright 1988, Gaussian, Inc.),
 the Gaussian 86(TM) system (copyright 1986, Carnegie Mellon
 University), and the Gaussian 82(TM) system (copyright 1983,
 Carnegie Mellon University). Gaussian is a federally registered
 trademark of Gaussian, Inc.
  
 This software contains proprietary and confidential information,
 including trade secrets, belonging to Gaussian, Inc.
  
 This software is provided under written license and may be
 used, copied, transmitted, or stored only in accord with that
 written license.
  
 The following legend is applicable only to US Government
 contracts under FAR:
  
                    RESTRICTED RIGHTS LEGEND
  
 Use, reproduction and disclosure by the US Government is
 subject to restrictions as set forth in subparagraphs (a)
 and (c) of the Commercial Computer Software - Restricted
 Rights clause in FAR 52.227-19.
  
 Gaussian, Inc.
 340 Quinnipiac St., Bldg. 40, Wallingford CT 06492
  
  
 ---------------------------------------------------------------
 Warning -- This program may not be used in any manner that
 competes with the business of Gaussian, Inc. or will provide
 assistance to any competitor of Gaussian, Inc.  The licensee
 of this program is prohibited from giving any competitor of
 Gaussian, Inc. access to this program.  By using this program,
 the user acknowledges that Gaussian, Inc. is engaged in the
 business of creating and licensing software in the field of
 computational chemistry and represents and warrants to the
 licensee that it is not a competitor of Gaussian, Inc. and that
 it will not use this program in any manner prohibited above.
 ---------------------------------------------------------------
  

 Cite this work as:
 Gaussian 16, Revision A.03,
 M. J. Frisch, G. W. Trucks, H. B. Schlegel, G. E. Scuseria, 
 M. A. Robb, J. R. Cheeseman, G. Scalmani, V. Barone, 
 G. A. Petersson, H. Nakatsuji, X. Li, M. Caricato, A. V. Marenich, 
 J. Bloino, B. G. Janesko, R. Gomperts, B. Mennucci, H. P. Hratchian, 
 J. V. Ortiz, A. F. Izmaylov, J. L. Sonnenberg, D. Williams-Young, 
 F. Ding, F. Lipparini, F. Egidi, J. Goings, B. Peng, A. Petrone, 
 T. Henderson, D. Ranasinghe, V. G. Zakrzewski, J. Gao, N. Rega, 
 G. Zheng, W. Liang, M. Hada, M. Ehara, K. Toyota, R. Fukuda, 
 J. Hasegawa, M. Ishida, T. Nakajima, Y. Honda, O. Kitao, H. Nakai, 
 T. Vreven, K. Throssell, J. A. Montgomery, Jr., J. E. Peralta, 
 F. Ogliaro, M. J. Bearpark, J. J. Heyd, E. N. Brothers, K. N. Kudin, 
 V. N. Staroverov, T. A. Keith, R. Kobayashi, J. Normand, 
 K. Raghavachari, A. P. Rendell, J. C. Burant, S. S. Iyengar, 
 J. Tomasi, M. Cossi, J. M. Millam, M. Klene, C. Adamo, R. Cammi, 
 J. W. Ochterski, R. L. Martin, K. Morokuma, O. Farkas, 
 J. B. Foresman, and D. J. Fox, Gaussian, Inc., Wallingford CT, 2016.
 
 ******************************************
 Gaussian 16:  ES64L-G16RevA.03 25-Dec-2016
                22-Sep-2023 
 ******************************************
 %nprocshared=4
 Will use up to    4 processors via shared memory.
 %mem=4GB
 ----------------
 # b3lyp/6-31g(d)
 ----------------
 1/38=1,172=1/1;
 2/12=2,17=6,18=5,40=1/2;
 3/5=1,6=6,7=1,11=2,25=1,30=1,74=-5/1,2,3;
 4//1;
 5/5=2,38=5/2;
 6/7=2,8=2,9=2,10=2,28=1/1;
 99/5=1,9=1/99;
 ---------------------------
 tmpdir/M3_frag_conf_0_0.gjf
 ---------------------------
 Symbolic Z-matrix:
 Charge =  0 Multiplicity = 1
 C                    -2.85566   0.13658  -0.39807 
 C                    -2.4623    0.60515   0.86391 
 C                    -4.08174  -0.52447  -0.52547 
 C                    -3.28548   0.41332   1.97239 
 H                    -1.50803   1.11488   0.96491 
 C                    -4.90811  -0.71458   0.5846 
 H                    -4.39374  -0.89314  -1.50056 
 C                    -4.51062  -0.24607   1.83659 
 H                    -2.97221   0.78097   2.94635 
 H                    -5.85846  -1.22945   0.46957 
 H                    -5.15049  -0.39318   2.70282 
 H                    -2.20693   0.2799   -1.27182 
 
                          Input orientation:                          
 ---------------------------------------------------------------------
 Center     Atomic      Atomic             Coordinates (Angstroms)
 Number     Number       Type             X           Y           Z
 ---------------------------------------------------------------------
      1          6           0       -2.855664    0.136584   -0.398069
      2          6           0       -2.462304    0.605153    0.863905
      3          6           0       -4.081736   -0.524469   -0.525465
      4          6           0       -3.285483    0.413318    1.972387
      5          1           0       -1.508025    1.114877    0.964911
      6          6           0       -4.908111   -0.714582    0.584597
      7          1           0       -4.393737   -0.893144   -1.500556
      8          6           0       -4.510623   -0.246073    1.836587
      9          1           0       -2.972206    0.780968    2.946353
     10          1           0       -5.858456   -1.229447    0.469572
     11          1           0       -5.150487   -0.393184    2.702821
     12          1           0       -2.206929    0.279904   -1.271820
 ---------------------------------------------------------------------
                    Distance matrix (angstroms):
                    1          2          3          4          5
     1  C    0.000000
     2  C    1.402450   0.000000
     3  C    1.398740   2.414323   0.000000
     4  C    2.424951   1.393972   2.784372   0.000000
     5  H    2.151953   1.086586   3.395978   2.160220   0.000000
     6  C    2.429538   2.793150   1.396881   2.414755   3.879709
     7  H    2.154411   3.400883   1.088149   3.872519   4.293950
     8  C    2.806956   2.422046   2.416762   1.397929   3.409926
     9  H    3.407928   2.151163   3.871530   1.087161   2.486249
    10  H    3.411100   3.880091   2.154954   3.402546   4.966635
    11  H    3.893891   3.406555   3.403130   2.159217   4.308377
    12  H    1.097651   2.175390   2.172317   3.421397   2.487692
                    6          7          8          9         10
     6  C    0.000000
     7  H    2.155070   0.000000
     8  C    1.394624   3.401307   0.000000
     9  H    3.400337   4.959678   2.157109   0.000000
    10  H    1.086956   2.477883   2.156944   4.301936   0.000000
    11  H    2.156134   4.300117   1.086936   2.486534   2.487560
    12  H    3.425153   2.492086   3.904593   4.316213   4.317897
                   11         12
    11  H    0.000000
    12  H    4.991528   0.000000
 Stoichiometry    C6H6
 Framework group  C1[X(C6H6)]
 Deg. of freedom    30
 Full point group                 C1      NOp   1
 Largest Abelian subgroup         C1      NOp   1
 Largest concise Abelian subgroup C1      NOp   1
                         Standard orientation:                         
 ---------------------------------------------------------------------
 Center     Atomic      Atomic             Coordinates (Angstroms)
 Number     Number       Type             X           Y           Z
 ---------------------------------------------------------------------
      1          6           0        1.375637   -0.289920   -0.001447
      2          6           0        0.930720    1.040086   -0.000819
      3          6           0        0.431664   -1.322095    0.000531
      4          6           0       -0.433969    1.324300    0.000697
      5          1           0        1.663116    1.842741    0.002167
      6          6           0       -0.935959   -1.037700   -0.000605
      7          1           0        0.768156   -2.356908    0.002203
      8          6           0       -1.371344    0.287221    0.000092
      9          1           0       -0.769040    2.358537    0.000287
     10          1           0       -1.657460   -1.850663    0.000085
     11          1           0       -2.434709    0.512353    0.000368
     12          1           0        2.449442   -0.517407    0.004195
 ---------------------------------------------------------------------
 Rotational constants (GHZ):           5.7082160           5.6500595           2.8394967
 Standard basis: 6-31G(d) (6D, 7F)
 There are   102 symmetry adapted cartesian basis functions of A   symmetry.
 There are   102 symmetry adapted basis functions of A   symmetry.
   102 basis functions,   192 primitive gaussians,   102 cartesian basis functions
    21 alpha electrons       21 beta electrons
       nuclear repulsion energy       203.0350663659 Hartrees.
 NAtoms=   12 NActive=   12 NUniq=   12 SFac= 1.00D+00 NAtFMM=   60 NAOKFM=F Big=F
 Integral buffers will be    131072 words long.
 Raffenetti 2 integral format.
 Two-electron integral symmetry is turned on.
 One-electron integrals computed using PRISM.
 NBasis=   102 RedAO= T EigKep=  5.25D-04  NBF=   102
 NBsUse=   102 1.00D-06 EigRej= -1.00D+00 NBFU=   102
 ExpMin= 1.61D-01 ExpMax= 3.05D+03 ExpMxC= 4.57D+02 IAcc=3 IRadAn=         5 AccDes= 0.00D+00
 Harris functional with IExCor=  402 and IRadAn=       5 diagonalized for initial guess.
 HarFok:  IExCor=  402 AccDes= 0.00D+00 IRadAn=         5 IDoV= 1 UseB2=F ITyADJ=14
 ICtDFT=  3500011 ScaDFX=  1.000000  1.000000  1.000000  1.000000
 FoFCou: FMM=F IPFlag=           0 FMFlag=      100000 FMFlg1=           0
         NFxFlg=           0 DoJE=T BraDBF=F KetDBF=T FulRan=T
         wScrn=  0.000000 ICntrl=       500 IOpCl=  0 I1Cent=   200000004 NGrid=           0
         NMat0=    1 NMatS0=      1 NMatT0=    0 NMatD0=    1 NMtDS0=    0 NMtDT0=    0
 Petite list used in FoFCou.
 Keep R1 ints in memory in canonical form, NReq=17502193.
 Requested convergence on RMS density matrix=1.00D-08 within 128 cycles.
 Requested convergence on MAX density matrix=1.00D-06.
 Requested convergence on             energy=1.00D-06.
 No special actions if energy rises.
 Integral accuracy reduced to 1.0D-05 until final iterations.
 Initial convergence to 1.0D-05 achieved.  Increase integral accuracy.
 SCF Done:  E(RB3LYP) =  -232.248438752     A.U. after   11 cycles
            NFock= 11  Conv=0.92D-08     -V/T= 2.0102

 **********************************************************************

            Population analysis using the SCF density.

 **********************************************************************

 Orbital symmetries:
       Occupied  (A) (A) (A) (A) (A) (A) (A) (A) (A) (A) (A) (A)
                 (A) (A) (A) (A) (A) (A) (A) (A) (A)
       Virtual   (A) (A) (A) (A) (A) (A) (A) (A) (A) (A) (A) (A)
                 (A) (A) (A) (A) (A) (A) (A) (A) (A) (A) (A) (A)
                 (A) (A) (A) (A) (A) (A) (A) (A) (A) (A) (A) (A)
                 (A) (A) (A) (A) (A) (A) (A) (A) (A) (A) (A) (A)
                 (A) (A) (A) (A) (A) (A) (A) (A) (A) (A) (A) (A)
                 (A) (A) (A) (A) (A) (A) (A) (A) (A) (A) (A) (A)
                 (A) (A) (A) (A) (A) (A) (A) (A) (A)
 The electronic state is 1-A.
 Alpha  occ. eigenvalues --  -10.18921 -10.18786 -10.18767 -10.18741 -10.18706
 Alpha  occ. eigenvalues --  -10.18686  -0.84598  -0.73980  -0.73932  -0.59744
 Alpha  occ. eigenvalues --   -0.59696  -0.51805  -0.45896  -0.43802  -0.41769
 Alpha  occ. eigenvalues --   -0.41625  -0.35921  -0.34173  -0.33858  -0.24638
 Alpha  occ. eigenvalues --   -0.24612
 Alpha virt. eigenvalues --    0.00268   0.00413   0.09011   0.14352   0.14473
 Alpha virt. eigenvalues --    0.16350   0.18103   0.18162   0.18957   0.30161
 Alpha virt. eigenvalues --    0.30254   0.31730   0.32029   0.47503   0.52735
 Alpha virt. eigenvalues --    0.54629   0.55153   0.56329   0.59253   0.60133
 Alpha virt. eigenvalues --    0.60189   0.60201   0.60210   0.62621   0.62689
 Alpha virt. eigenvalues --    0.66705   0.66771   0.74462   0.83610   0.84008
 Alpha virt. eigenvalues --    0.84079   0.86387   0.86453   0.93690   0.93927
 Alpha virt. eigenvalues --    0.94063   0.95722   1.08202   1.08315   1.14007
 Alpha virt. eigenvalues --    1.14369   1.20002   1.26184   1.39643   1.43137
 Alpha virt. eigenvalues --    1.43854   1.48474   1.48863   1.51413   1.51690
 Alpha virt. eigenvalues --    1.75603   1.78926   1.85471   1.89391   1.96685
 Alpha virt. eigenvalues --    1.97535   2.06222   2.06702   2.14905   2.15111
 Alpha virt. eigenvalues --    2.15298   2.15537   2.30383   2.31268   2.32142
 Alpha virt. eigenvalues --    2.54336   2.54554   2.65527   2.69884   2.70377
 Alpha virt. eigenvalues --    2.72168   2.72351   2.75873   3.01619   3.40616
 Alpha virt. eigenvalues --    4.08366   4.11659   4.11768   4.32912   4.33050
 Alpha virt. eigenvalues --    4.66467
          Condensed to atoms (all electrons):
               1          2          3          4          5          6
     1  C    4.853859   0.547799   0.551515  -0.032549  -0.044156  -0.032408
     2  C    0.547799   4.850198  -0.032276   0.554156   0.358467  -0.040631
     3  C    0.551515  -0.032276   4.849783  -0.041112   0.004850   0.551913
     4  C   -0.032549   0.554156  -0.041112   4.847528  -0.043315  -0.032795
     5  H   -0.044156   0.358467   0.004850  -0.043315   0.602448   0.000603
     6  C   -0.032408  -0.040631   0.551913  -0.032795   0.000603   4.846663
     7  H   -0.044100   0.004860   0.358089   0.000614  -0.000192  -0.043724
     8  C   -0.040314  -0.031010  -0.031424   0.549730   0.004735   0.551977
     9  H    0.004782  -0.044081   0.000558   0.359304  -0.005995   0.004825
    10  H    0.004746   0.000544  -0.043711   0.004798   0.000016   0.359322
    11  H    0.000575   0.004710   0.004786  -0.043441  -0.000176  -0.043708
    12  H    0.357941  -0.042378  -0.042283   0.004516  -0.005577   0.004488
               7          8          9         10         11         12
     1  C   -0.044100  -0.040314   0.004782   0.004746   0.000575   0.357941
     2  C    0.004860  -0.031010  -0.044081   0.000544   0.004710  -0.042378
     3  C    0.358089  -0.031424   0.000558  -0.043711   0.004786  -0.042283
     4  C    0.000614   0.549730   0.359304   0.004798  -0.043441   0.004516
     5  H   -0.000192   0.004735  -0.005995   0.000016  -0.000176  -0.005577
     6  C   -0.043724   0.551977   0.004825   0.359322  -0.043708   0.004488
     7  H    0.604055   0.004845   0.000016  -0.006042  -0.000183  -0.005663
     8  C    0.004845   4.849417  -0.043956  -0.043912   0.358887   0.000540
     9  H    0.000016  -0.043956   0.602366  -0.000184  -0.005825  -0.000173
    10  H   -0.006042  -0.043912  -0.000184   0.601449  -0.005784  -0.000170
    11  H   -0.000183   0.358887  -0.005825  -0.005784   0.600920   0.000015
    12  H   -0.005663   0.000540  -0.000173  -0.000170   0.000015   0.598762
 Mulliken charges:
               1
     1  C   -0.127689
     2  C   -0.130360
     3  C   -0.130689
     4  C   -0.127435
     5  H    0.128293
     6  C   -0.126527
     7  H    0.127428
     8  C   -0.129516
     9  H    0.128363
    10  H    0.128927
    11  H    0.129224
    12  H    0.129982
 Sum of Mulliken charges =  -0.00000
 Mulliken charges with hydrogens summed into heavy atoms:
               1
     1  C    0.002293
     2  C   -0.002067
     3  C   -0.003261
     4  C    0.000928
     6  C    0.002400
     8  C   -0.000292
 Electronic spatial extent (au):  <R**2>=            458.9141
 Charge=             -0.0000 electrons
 Dipole moment (field-independent basis, Debye):
    X=             -0.0025    Y=             -0.0007    Z=              0.0058  Tot=              0.0064
 Quadrupole moment (field-independent basis, Debye-Ang):
   XX=            -31.3246   YY=            -31.4852   ZZ=            -38.6232
   XY=              0.0065   XZ=              0.0124   YZ=             -0.0023
 Traceless Quadrupole moment (field-independent basis, Debye-Ang):
   XX=              2.4864   YY=              2.3258   ZZ=             -4.8122
   XY=              0.0065   XZ=              0.0124   YZ=             -0.0023
 Octapole moment (field-independent basis, Debye-Ang**2):
  XXX=              0.1013  YYY=              0.0055  ZZZ=              0.0079  XYY=             -0.1014
  XXY=             -0.0164  XXZ=              0.0329  XZZ=             -0.0454  YZZ=              0.0100
  YYZ=              0.0186  XYZ=             -0.0011
 Hexadecapole moment (field-independent basis, Debye-Ang**3):
 XXXX=           -270.9956 YYYY=           -269.9358 ZZZZ=            -40.0879 XXXY=             -0.1043
 XXXZ=              0.0751 YYYX=              0.1664 YYYZ=             -0.0128 ZZZX=              0.0130
 ZZZY=             -0.0024 XXYY=            -90.2703 XXZZ=            -60.7386 YYZZ=            -60.2434
 XXYZ=             -0.0052 YYXZ=              0.0236 ZZXY=              0.0209
 N-N= 2.030350663659D+02 E-N=-9.433849679086D+02  KE= 2.298985959369D+02
 1\1\GINC-NODE56\SP\RB3LYP\6-31G(d)\C6H6\YANZ\22-Sep-2023\0\\# b3lyp/6-
 31g(d)\\tmpdir/M3_frag_conf_0_0.gjf\\0,1\C,0,-2.855664,0.136584,-0.398
 069\C,0,-2.462304,0.605153,0.863905\C,0,-4.081736,-0.524469,-0.525465\
 C,0,-3.285483,0.413318,1.972387\H,0,-1.508025,1.114877,0.964911\C,0,-4
 .908111,-0.714582,0.584597\H,0,-4.393737,-0.893144,-1.500556\C,0,-4.51
 0623,-0.246073,1.836587\H,0,-2.972206,0.780968,2.946353\H,0,-5.858456,
 -1.229447,0.469572\H,0,-5.150487,-0.393184,2.702821\H,0,-2.20692895,0.
 27990402,-1.27181967\\Version=ES64L-G16RevA.03\State=1-A\HF=-232.24843
 88\RMSD=9.213e-09\Dipole=0.0001699,-0.0023382,0.0008652\Quadrupole=0.7
 232014,-2.3164077,1.5932063,2.1047453,-0.4987518,0.84356\PG=C01 [X(C6H
 6)]\\@


 Any fool can criticize, condemn, and complain -- and most do.
 -- Dale Carnegie
 Job cpu time:       0 days  0 hours  0 minutes 30.1 seconds.
 Elapsed time:       0 days  0 hours  0 minutes  7.8 seconds.
 File lengths (MBytes):  RWF=     10 Int=      0 D2E=      0 Chk=      2 Scr=      1
 Normal termination of Gaussian 16 at Fri Sep 22 17:02:26 2023.
