 Entering Gaussian System, Link 0=g16
 Initial command:
 /share/apps/gaussian/g16/l1.exe "/tmp/55622.mgr/Gau-174339.inp" -scrdir="/tmp/55622.mgr/"
 Entering Link 1 = /share/apps/gaussian/g16/l1.exe PID=    174340.
  
 Copyright (c) 1988,1990,1992,1993,1995,1998,2003,2009,2016,
            Gaussian, Inc.  All Rights Reserved.
  
 This is part of the Gaussian(R) 16 program.  It is based on
 the Gaussian(R) 09 system (copyright 2009, Gaussian, Inc.),
 the Gaussian(R) 03 system (copyright 2003, Gaussian, Inc.),
 the Gaussian(R) 98 system (copyright 1998, Gaussian, Inc.),
 the Gaussian(R) 94 system (copyright 1995, Gaussian, Inc.),
 the Gaussian 92(TM) system (copyright 1992, Gaussian, Inc.),
 the Gaussian 90(TM) system (copyright 1990, Gaussian, Inc.),
 the Gaussian 88(TM) system (copyright 1988, Gaussian, Inc.),
 the Gaussian 86(TM) system (copyright 1986, Carnegie Mellon
 University), and the Gaussian 82(TM) system (copyright 1983,
 Carnegie Mellon University). Gaussian is a federally registered
 trademark of Gaussian, Inc.
  
 This software contains proprietary and confidential information,
 including trade secrets, belonging to Gaussian, Inc.
  
 This software is provided under written license and may be
 used, copied, transmitted, or stored only in accord with that
 written license.
  
 The following legend is applicable only to US Government
 contracts under FAR:
  
                    RESTRICTED RIGHTS LEGEND
  
 Use, reproduction and disclosure by the US Government is
 subject to restrictions as set forth in subparagraphs (a)
 and (c) of the Commercial Computer Software - Restricted
 Rights clause in FAR 52.227-19.
  
 Gaussian, Inc.
 340 Quinnipiac St., Bldg. 40, Wallingford CT 06492
  
  
 ---------------------------------------------------------------
 Warning -- This program may not be used in any manner that
 competes with the business of Gaussian, Inc. or will provide
 assistance to any competitor of Gaussian, Inc.  The licensee
 of this program is prohibited from giving any competitor of
 Gaussian, Inc. access to this program.  By using this program,
 the user acknowledges that Gaussian, Inc. is engaged in the
 business of creating and licensing software in the field of
 computational chemistry and represents and warrants to the
 licensee that it is not a competitor of Gaussian, Inc. and that
 it will not use this program in any manner prohibited above.
 ---------------------------------------------------------------
  

 Cite this work as:
 Gaussian 16, Revision A.03,
 M. J. Frisch, G. W. Trucks, H. B. Schlegel, G. E. Scuseria, 
 M. A. Robb, J. R. Cheeseman, G. Scalmani, V. Barone, 
 G. A. Petersson, H. Nakatsuji, X. Li, M. Caricato, A. V. Marenich, 
 J. Bloino, B. G. Janesko, R. Gomperts, B. Mennucci, H. P. Hratchian, 
 J. V. Ortiz, A. F. Izmaylov, J. L. Sonnenberg, D. Williams-Young, 
 F. Ding, F. Lipparini, F. Egidi, J. Goings, B. Peng, A. Petrone, 
 T. Henderson, D. Ranasinghe, V. G. Zakrzewski, J. Gao, N. Rega, 
 G. Zheng, W. Liang, M. Hada, M. Ehara, K. Toyota, R. Fukuda, 
 J. Hasegawa, M. Ishida, T. Nakajima, Y. Honda, O. Kitao, H. Nakai, 
 T. Vreven, K. Throssell, J. A. Montgomery, Jr., J. E. Peralta, 
 F. Ogliaro, M. J. Bearpark, J. J. Heyd, E. N. Brothers, K. N. Kudin, 
 V. N. Staroverov, T. A. Keith, R. Kobayashi, J. Normand, 
 K. Raghavachari, A. P. Rendell, J. C. Burant, S. S. Iyengar, 
 J. Tomasi, M. Cossi, J. M. Millam, M. Klene, C. Adamo, R. Cammi, 
 J. W. Ochterski, R. L. Martin, K. Morokuma, O. Farkas, 
 J. B. Foresman, and D. J. Fox, Gaussian, Inc., Wallingford CT, 2016.
 
 ******************************************
 Gaussian 16:  ES64L-G16RevA.03 25-Dec-2016
                22-Sep-2023 
 ******************************************
 %nprocshared=4
 Will use up to    4 processors via shared memory.
 %mem=4GB
 ----------------
 # b3lyp/6-31g(d)
 ----------------
 1/38=1,172=1/1;
 2/12=2,17=6,18=5,40=1/2;
 3/5=1,6=6,7=1,11=2,25=1,30=1,74=-5/1,2,3;
 4//1;
 5/5=2,38=5/2;
 6/7=2,8=2,9=2,10=2,28=1/1;
 99/5=1,9=1/99;
 ------------------------
 tmpdir/M3_frag_ref_0.gjf
 ------------------------
 Symbolic Z-matrix:
 Charge =  0 Multiplicity = 1
 C                    -0.20298  -0.39175   30.53635 
 C                    -0.9357   -1.23058   29.68505 
 C                    -0.73539   0.85498   30.88218 
 C                    -2.1763   -0.83018   29.19302 
 H                    -0.52576  -2.19821   29.40544 
 C                    -1.9794    1.25817   30.39149 
 H                    -0.17603   1.51346   31.54321 
 C                    -2.70147   0.41623   29.54608 
 H                    -2.73599  -1.49051   28.53601 
 H                    -2.38171   2.22826   30.67045 
 H                    -3.66986   0.72719   29.16358 
 H                     0.78087  -0.7001    30.90563 
 
                          Input orientation:                          
 ---------------------------------------------------------------------
 Center     Atomic      Atomic             Coordinates (Angstroms)
 Number     Number       Type             X           Y           Z
 ---------------------------------------------------------------------
      1          6           0       -0.202984   -0.391750   30.536350
      2          6           0       -0.935704   -1.230580   29.685052
      3          6           0       -0.735392    0.854981   30.882185
      4          6           0       -2.176300   -0.830175   29.193023
      5          1           0       -0.525758   -2.198205   29.405435
      6          6           0       -1.979399    1.258167   30.391492
      7          1           0       -0.176028    1.513463   31.543208
      8          6           0       -2.701470    0.416228   29.546076
      9          1           0       -2.735985   -1.490513   28.536011
     10          1           0       -2.381706    2.228263   30.670452
     11          1           0       -3.669857    0.727191   29.163584
     12          1           0        0.780873   -0.700098   30.905625
 ---------------------------------------------------------------------
                    Distance matrix (angstroms):
                    1          2          3          4          5
     1  C    0.000000
     2  C    1.401864   0.000000
     3  C    1.399071   2.413051   0.000000
     4  C    2.427081   1.393375   2.787335   0.000000
     5  H    2.155558   1.087446   3.398041   2.154278   0.000000
     6  C    2.428757   2.789663   1.396743   2.415837   3.877098
     7  H    2.155070   3.399945   1.087859   3.875190   4.297542
     8  C    2.806404   2.418516   2.417262   1.397845   3.404227
     9  H    3.409506   2.151481   3.874048   1.086719   2.478271
    10  H    3.410173   3.876278   2.154318   3.402798   4.963711
    11  H    3.893035   3.402997   3.403087   2.158001   4.301371
    12  H    1.095179   2.172061   2.172068   3.419766   2.490418
                    6          7          8          9         10
     6  C    0.000000
     7  H    2.154941   0.000000
     8  C    1.394624   3.401517   0.000000
     9  H    3.401540   4.961903   2.158028   0.000000
    10  H    1.086626   2.477430   2.156372   4.302400   0.000000
    11  H    2.155769   4.299730   1.086633   2.486800   2.486604
    12  H    3.423191   2.494399   3.901445   4.313713   4.316539
                   11         12
    11  H    0.000000
    12  H    4.988072   0.000000
 Stoichiometry    C6H6
 Framework group  C1[X(C6H6)]
 Deg. of freedom    30
 Full point group                 C1      NOp   1
 Largest Abelian subgroup         C1      NOp   1
 Largest concise Abelian subgroup C1      NOp   1
                         Standard orientation:                         
 ---------------------------------------------------------------------
 Center     Atomic      Atomic             Coordinates (Angstroms)
 Number     Number       Type             X           Y           Z
 ---------------------------------------------------------------------
      1          6           0        1.401360   -0.119083   -0.003009
      2          6           0        0.794235    1.144491   -0.001412
      3          6           0        0.591669   -1.260043    0.000021
      4          6           0       -0.594135    1.262476    0.000413
      5          1           0        1.416318    2.036413    0.003666
      6          6           0       -0.800291   -1.144549    0.000412
      7          1           0        1.052090   -2.245661   -0.002549
      8          6           0       -1.395105    0.116868    0.000813
      9          1           0       -1.052934    2.247595   -0.001110
     10          1           0       -1.416736   -2.039396    0.000288
     11          1           0       -2.477785    0.209465    0.000331
     12          1           0        2.492647   -0.209371    0.015951
 ---------------------------------------------------------------------
 Rotational constants (GHZ):           5.7050502           5.6567514           2.8404118
 Standard basis: 6-31G(d) (6D, 7F)
 There are   102 symmetry adapted cartesian basis functions of A   symmetry.
 There are   102 symmetry adapted basis functions of A   symmetry.
   102 basis functions,   192 primitive gaussians,   102 cartesian basis functions
    21 alpha electrons       21 beta electrons
       nuclear repulsion energy       203.0711137305 Hartrees.
 NAtoms=   12 NActive=   12 NUniq=   12 SFac= 1.00D+00 NAtFMM=   60 NAOKFM=F Big=F
 Integral buffers will be    131072 words long.
 Raffenetti 2 integral format.
 Two-electron integral symmetry is turned on.
 One-electron integrals computed using PRISM.
 NBasis=   102 RedAO= T EigKep=  5.25D-04  NBF=   102
 NBsUse=   102 1.00D-06 EigRej= -1.00D+00 NBFU=   102
 ExpMin= 1.61D-01 ExpMax= 3.05D+03 ExpMxC= 4.57D+02 IAcc=3 IRadAn=         5 AccDes= 0.00D+00
 Harris functional with IExCor=  402 and IRadAn=       5 diagonalized for initial guess.
 HarFok:  IExCor=  402 AccDes= 0.00D+00 IRadAn=         5 IDoV= 1 UseB2=F ITyADJ=14
 ICtDFT=  3500011 ScaDFX=  1.000000  1.000000  1.000000  1.000000
 FoFCou: FMM=F IPFlag=           0 FMFlag=      100000 FMFlg1=           0
         NFxFlg=           0 DoJE=T BraDBF=F KetDBF=T FulRan=T
         wScrn=  0.000000 ICntrl=       500 IOpCl=  0 I1Cent=   200000004 NGrid=           0
         NMat0=    1 NMatS0=      1 NMatT0=    0 NMatD0=    1 NMtDS0=    0 NMtDT0=    0
 Petite list used in FoFCou.
 Keep R1 ints in memory in canonical form, NReq=17502193.
 Requested convergence on RMS density matrix=1.00D-08 within 128 cycles.
 Requested convergence on MAX density matrix=1.00D-06.
 Requested convergence on             energy=1.00D-06.
 No special actions if energy rises.
 Integral accuracy reduced to 1.0D-05 until final iterations.
 Initial convergence to 1.0D-05 achieved.  Increase integral accuracy.
 SCF Done:  E(RB3LYP) =  -232.248467247     A.U. after   12 cycles
            NFock= 12  Conv=0.32D-08     -V/T= 2.0102

 **********************************************************************

            Population analysis using the SCF density.

 **********************************************************************

 Orbital symmetries:
       Occupied  (A) (A) (A) (A) (A) (A) (A) (A) (A) (A) (A) (A)
                 (A) (A) (A) (A) (A) (A) (A) (A) (A)
       Virtual   (A) (A) (A) (A) (A) (A) (A) (A) (A) (A) (A) (A)
                 (A) (A) (A) (A) (A) (A) (A) (A) (A) (A) (A) (A)
                 (A) (A) (A) (A) (A) (A) (A) (A) (A) (A) (A) (A)
                 (A) (A) (A) (A) (A) (A) (A) (A) (A) (A) (A) (A)
                 (A) (A) (A) (A) (A) (A) (A) (A) (A) (A) (A) (A)
                 (A) (A) (A) (A) (A) (A) (A) (A) (A) (A) (A) (A)
                 (A) (A) (A) (A) (A) (A) (A) (A) (A)
 The electronic state is 1-A.
 Alpha  occ. eigenvalues --  -10.18905 -10.18773 -10.18758 -10.18735 -10.18693
 Alpha  occ. eigenvalues --  -10.18674  -0.84606  -0.73975  -0.73950  -0.59772
 Alpha  occ. eigenvalues --   -0.59682  -0.51818  -0.45905  -0.43801  -0.41764
 Alpha  occ. eigenvalues --   -0.41646  -0.35926  -0.34152  -0.33883  -0.24635
 Alpha  occ. eigenvalues --   -0.24617
 Alpha virt. eigenvalues --    0.00267   0.00421   0.09028   0.14387   0.14467
 Alpha virt. eigenvalues --    0.16358   0.18102   0.18188   0.18978   0.30189
 Alpha virt. eigenvalues --    0.30244   0.31769   0.32015   0.47496   0.52734
 Alpha virt. eigenvalues --    0.54559   0.55245   0.56354   0.59250   0.60149
 Alpha virt. eigenvalues --    0.60190   0.60205   0.60217   0.62645   0.62679
 Alpha virt. eigenvalues --    0.66707   0.66776   0.74467   0.83688   0.84018
 Alpha virt. eigenvalues --    0.84098   0.86405   0.86476   0.93699   0.93956
 Alpha virt. eigenvalues --    0.94071   0.95740   1.08240   1.08280   1.14089
 Alpha virt. eigenvalues --    1.14288   1.20008   1.26186   1.39519   1.43197
 Alpha virt. eigenvalues --    1.43874   1.48525   1.48850   1.51491   1.51683
 Alpha virt. eigenvalues --    1.75583   1.78938   1.85517   1.89444   1.96803
 Alpha virt. eigenvalues --    1.97512   2.06268   2.06738   2.14960   2.15127
 Alpha virt. eigenvalues --    2.15278   2.15581   2.30426   2.31284   2.32154
 Alpha virt. eigenvalues --    2.54389   2.54561   2.65563   2.69927   2.70231
 Alpha virt. eigenvalues --    2.72332   2.72447   2.75882   3.01630   3.40691
 Alpha virt. eigenvalues --    4.08400   4.11680   4.11781   4.32938   4.33053
 Alpha virt. eigenvalues --    4.66489
          Condensed to atoms (all electrons):
               1          2          3          4          5          6
     1  C    4.853609   0.548197   0.550794  -0.032670  -0.044085  -0.032578
     2  C    0.548197   4.850113  -0.031856   0.554429   0.358207  -0.040813
     3  C    0.550794  -0.031856   4.850675  -0.040991   0.004839   0.551717
     4  C   -0.032670   0.554429  -0.040991   4.846482  -0.043620  -0.032967
     5  H   -0.044085   0.358207   0.004839  -0.043620   0.603506   0.000615
     6  C   -0.032578  -0.040813   0.551717  -0.032967   0.000615   4.846450
     7  H   -0.044085   0.004835   0.358121   0.000620  -0.000191  -0.043658
     8  C   -0.040470  -0.030981  -0.031064   0.549837   0.004822   0.552249
     9  H    0.004783  -0.043966   0.000544   0.359446  -0.006082   0.004806
    10  H    0.004751   0.000541  -0.043804   0.004802   0.000016   0.359492
    11  H    0.000585   0.004775   0.004796  -0.043622  -0.000181  -0.043742
    12  H    0.358404  -0.042506  -0.042450   0.004526  -0.005603   0.004500
               7          8          9         10         11         12
     1  C   -0.044085  -0.040470   0.004783   0.004751   0.000585   0.358404
     2  C    0.004835  -0.030981  -0.043966   0.000541   0.004775  -0.042506
     3  C    0.358121  -0.031064   0.000544  -0.043804   0.004796  -0.042450
     4  C    0.000620   0.549837   0.359446   0.004802  -0.043622   0.004526
     5  H   -0.000191   0.004822  -0.006082   0.000016  -0.000181  -0.005603
     6  C   -0.043658   0.552249   0.004806   0.359492  -0.043742   0.004500
     7  H    0.603762   0.004837   0.000016  -0.006040  -0.000183  -0.005620
     8  C    0.004837   4.849557  -0.043933  -0.043948   0.358697   0.000536
     9  H    0.000016  -0.043933   0.601888  -0.000183  -0.005805  -0.000173
    10  H   -0.006040  -0.043948  -0.000183   0.601510  -0.005827  -0.000171
    11  H   -0.000183   0.358697  -0.005805  -0.005827   0.601557   0.000015
    12  H   -0.005620   0.000536  -0.000173  -0.000171   0.000015   0.598326
 Mulliken charges:
               1
     1  C   -0.127236
     2  C   -0.130975
     3  C   -0.131321
     4  C   -0.126271
     5  H    0.127757
     6  C   -0.126072
     7  H    0.127586
     8  C   -0.130140
     9  H    0.128659
    10  H    0.128862
    11  H    0.128936
    12  H    0.130214
 Sum of Mulliken charges =  -0.00000
 Mulliken charges with hydrogens summed into heavy atoms:
               1
     1  C    0.002979
     2  C   -0.003218
     3  C   -0.003736
     4  C    0.002389
     6  C    0.002790
     8  C   -0.001204
 Electronic spatial extent (au):  <R**2>=            458.7709
 Charge=             -0.0000 electrons
 Dipole moment (field-independent basis, Debye):
    X=             -0.0036    Y=              0.0006    Z=              0.0104  Tot=              0.0110
 Quadrupole moment (field-independent basis, Debye-Ang):
   XX=            -31.3474   YY=            -31.4616   ZZ=            -38.6174
   XY=              0.0041   XZ=              0.0365   YZ=              0.0058
 Traceless Quadrupole moment (field-independent basis, Debye-Ang):
   XX=              2.4614   YY=              2.3472   ZZ=             -4.8086
   XY=              0.0041   XZ=              0.0365   YZ=              0.0058
 Octapole moment (field-independent basis, Debye-Ang**2):
  XXX=              0.1168  YYY=              0.0080  ZZZ=              0.0140  XYY=             -0.1305
  XXY=             -0.0046  XXZ=              0.0916  XZZ=             -0.0425  YZZ=              0.0054
  YYZ=              0.0015  XYZ=              0.0100
 Hexadecapole moment (field-independent basis, Debye-Ang**3):
 XXXX=           -270.7313 YYYY=           -269.7898 ZZZZ=            -40.0806 XXXY=             -0.0465
 XXXZ=              0.2678 YYYX=              0.0786 YYYZ=              0.0465 ZZZX=              0.0385
 ZZZY=              0.0063 XXYY=            -90.3499 XXZZ=            -60.6629 YYZZ=            -60.2591
 XXYZ=             -0.0011 YYXZ=              0.0248 ZZXY=              0.0078
 N-N= 2.030711137305D+02 E-N=-9.434625970925D+02  KE= 2.299052853988D+02
 1\1\GINC-NODE56\SP\RB3LYP\6-31G(d)\C6H6\YANZ\22-Sep-2023\0\\# b3lyp/6-
 31g(d)\\tmpdir/M3_frag_ref_0.gjf\\0,1\C,0,-0.202984,-0.39175,30.53635\
 C,0,-0.935704,-1.23058,29.685052\C,0,-0.735392,0.854981,30.882185\C,0,
 -2.1763,-0.830175,29.193023\H,0,-0.525758,-2.198205,29.405435\C,0,-1.9
 79399,1.258167,30.391492\H,0,-0.176028,1.513463,31.543208\C,0,-2.70147
 ,0.416228,29.546076\H,0,-2.735985,-1.490513,28.536011\H,0,-2.381706,2.
 228263,30.670452\H,0,-3.669857,0.727191,29.163584\H,0,0.78087335,-0.70
 009793,30.90562524\\Version=ES64L-G16RevA.03\State=1-A\HF=-232.2484672
 \RMSD=3.209e-09\Dipole=0.0005287,0.0020205,-0.0037984\Quadrupole=0.769
 5663,0.8380896,-1.6076559,-1.0073367,1.8914258,1.7483113\PG=C01 [X(C6H
 6)]\\@


 KEEP CLOSE TO NATURES HEART, YOURSELF;
 AND BREAK CLEAR AWAY, ONCE IN A WHILE, AND
 CLIMB A MOUNTAIN OR SPEND A WEEK IN THE
 WOODS.  WASH YOUR SPIRIT CLEAN...
                                         -- JOHN MUIR
 Job cpu time:       0 days  0 hours  0 minutes 32.2 seconds.
 Elapsed time:       0 days  0 hours  0 minutes  8.4 seconds.
 File lengths (MBytes):  RWF=     10 Int=      0 D2E=      0 Chk=      2 Scr=      1
 Normal termination of Gaussian 16 at Fri Sep 22 17:00:59 2023.
