 Entering Gaussian System, Link 0=g16
 Initial command:
 /share/apps/gaussian/g16/l1.exe "/tmp/55622.mgr/Gau-174254.inp" -scrdir="/tmp/55622.mgr/"
 Entering Link 1 = /share/apps/gaussian/g16/l1.exe PID=    174255.
  
 Copyright (c) 1988,1990,1992,1993,1995,1998,2003,2009,2016,
            Gaussian, Inc.  All Rights Reserved.
  
 This is part of the Gaussian(R) 16 program.  It is based on
 the Gaussian(R) 09 system (copyright 2009, Gaussian, Inc.),
 the Gaussian(R) 03 system (copyright 2003, Gaussian, Inc.),
 the Gaussian(R) 98 system (copyright 1998, Gaussian, Inc.),
 the Gaussian(R) 94 system (copyright 1995, Gaussian, Inc.),
 the Gaussian 92(TM) system (copyright 1992, Gaussian, Inc.),
 the Gaussian 90(TM) system (copyright 1990, Gaussian, Inc.),
 the Gaussian 88(TM) system (copyright 1988, Gaussian, Inc.),
 the Gaussian 86(TM) system (copyright 1986, Carnegie Mellon
 University), and the Gaussian 82(TM) system (copyright 1983,
 Carnegie Mellon University). Gaussian is a federally registered
 trademark of Gaussian, Inc.
  
 This software contains proprietary and confidential information,
 including trade secrets, belonging to Gaussian, Inc.
  
 This software is provided under written license and may be
 used, copied, transmitted, or stored only in accord with that
 written license.
  
 The following legend is applicable only to US Government
 contracts under FAR:
  
                    RESTRICTED RIGHTS LEGEND
  
 Use, reproduction and disclosure by the US Government is
 subject to restrictions as set forth in subparagraphs (a)
 and (c) of the Commercial Computer Software - Restricted
 Rights clause in FAR 52.227-19.
  
 Gaussian, Inc.
 340 Quinnipiac St., Bldg. 40, Wallingford CT 06492
  
  
 ---------------------------------------------------------------
 Warning -- This program may not be used in any manner that
 competes with the business of Gaussian, Inc. or will provide
 assistance to any competitor of Gaussian, Inc.  The licensee
 of this program is prohibited from giving any competitor of
 Gaussian, Inc. access to this program.  By using this program,
 the user acknowledges that Gaussian, Inc. is engaged in the
 business of creating and licensing software in the field of
 computational chemistry and represents and warrants to the
 licensee that it is not a competitor of Gaussian, Inc. and that
 it will not use this program in any manner prohibited above.
 ---------------------------------------------------------------
  

 Cite this work as:
 Gaussian 16, Revision A.03,
 M. J. Frisch, G. W. Trucks, H. B. Schlegel, G. E. Scuseria, 
 M. A. Robb, J. R. Cheeseman, G. Scalmani, V. Barone, 
 G. A. Petersson, H. Nakatsuji, X. Li, M. Caricato, A. V. Marenich, 
 J. Bloino, B. G. Janesko, R. Gomperts, B. Mennucci, H. P. Hratchian, 
 J. V. Ortiz, A. F. Izmaylov, J. L. Sonnenberg, D. Williams-Young, 
 F. Ding, F. Lipparini, F. Egidi, J. Goings, B. Peng, A. Petrone, 
 T. Henderson, D. Ranasinghe, V. G. Zakrzewski, J. Gao, N. Rega, 
 G. Zheng, W. Liang, M. Hada, M. Ehara, K. Toyota, R. Fukuda, 
 J. Hasegawa, M. Ishida, T. Nakajima, Y. Honda, O. Kitao, H. Nakai, 
 T. Vreven, K. Throssell, J. A. Montgomery, Jr., J. E. Peralta, 
 F. Ogliaro, M. J. Bearpark, J. J. Heyd, E. N. Brothers, K. N. Kudin, 
 V. N. Staroverov, T. A. Keith, R. Kobayashi, J. Normand, 
 K. Raghavachari, A. P. Rendell, J. C. Burant, S. S. Iyengar, 
 J. Tomasi, M. Cossi, J. M. Millam, M. Klene, C. Adamo, R. Cammi, 
 J. W. Ochterski, R. L. Martin, K. Morokuma, O. Farkas, 
 J. B. Foresman, and D. J. Fox, Gaussian, Inc., Wallingford CT, 2016.
 
 ******************************************
 Gaussian 16:  ES64L-G16RevA.03 25-Dec-2016
                22-Sep-2023 
 ******************************************
 %nprocshared=4
 Will use up to    4 processors via shared memory.
 %mem=4GB
 ----------------
 # b3lyp/6-31g(d)
 ----------------
 1/38=1,172=1/1;
 2/12=2,17=6,18=5,40=1/2;
 3/5=1,6=6,7=1,11=2,25=1,30=1,74=-5/1,2,3;
 4//1;
 5/5=2,38=5/2;
 6/7=2,8=2,9=2,10=2,28=1/1;
 99/5=1,9=1/99;
 --------------------
 tmpdir/M3_ref_70.gjf
 --------------------
 Symbolic Z-matrix:
 Charge =  0 Multiplicity = 1
 H                     1.14246  -1.85736   31.38093 
 C                     1.15615  -0.81771   31.04648 
 C                    -0.20298  -0.39175   30.53635 
 C                    -0.9357   -1.23058   29.68505 
 C                    -0.73539   0.85498   30.88218 
 C                    -2.1763   -0.83018   29.19302 
 H                    -0.52576  -2.19821   29.40544 
 C                    -1.9794    1.25817   30.39149 
 H                    -0.17603   1.51346   31.54321 
 C                    -2.70147   0.41623   29.54608 
 H                    -2.73599  -1.49051   28.53601 
 H                    -2.38171   2.22826   30.67045 
 H                    -3.66986   0.72719   29.16358 
 H                     1.99543  -0.79709   30.2269 
 H                     1.45905  -0.19669   31.89954 
 
                          Input orientation:                          
 ---------------------------------------------------------------------
 Center     Atomic      Atomic             Coordinates (Angstroms)
 Number     Number       Type             X           Y           Z
 ---------------------------------------------------------------------
      1          1           0        1.142456   -1.857358   31.380926
      2          6           0        1.156149   -0.817712   31.046479
      3          6           0       -0.202984   -0.391750   30.536350
      4          6           0       -0.935704   -1.230580   29.685052
      5          6           0       -0.735392    0.854981   30.882185
      6          6           0       -2.176300   -0.830175   29.193023
      7          1           0       -0.525758   -2.198205   29.405435
      8          6           0       -1.979399    1.258167   30.391492
      9          1           0       -0.176028    1.513463   31.543208
     10          6           0       -2.701470    0.416228   29.546076
     11          1           0       -2.735985   -1.490513   28.536011
     12          1           0       -2.381706    2.228263   30.670452
     13          1           0       -3.669857    0.727191   29.163584
     14          1           0        1.995427   -0.797087   30.226904
     15          1           0        1.459053   -0.196692   31.899535
 ---------------------------------------------------------------------
                    Distance matrix (angstroms):
                    1          2          3          4          5
     1  H    0.000000
     2  C    1.092202   0.000000
     3  C    2.161371   1.512917   0.000000
     4  C    2.754558   2.529781   1.401864   0.000000
     5  C    3.336441   2.530380   1.399071   2.413051   0.000000
     6  C    4.105626   3.813223   2.427081   1.393375   2.787335
     7  H    2.608003   2.725362   2.155558   1.087446   3.398041
     8  C    4.520117   3.817059   2.428757   2.789663   1.396743
     9  H    3.623144   2.730533   2.155070   3.399945   1.087859
    10  C    4.828212   4.319148   2.806404   2.418516   2.417262
    11  H    4.823942   4.680151   3.409506   2.151481   3.874048
    12  H    5.442131   4.683565   3.410173   3.876278   2.154318
    13  H    5.895325   5.405770   3.893035   3.402997   3.403087
    14  H    1.784237   1.173251   2.256782   3.012150   3.258235
    15  H    1.768333   1.097780   2.158399   3.421655   2.637538
                    6          7          8          9         10
     6  C    0.000000
     7  H    2.154278   0.000000
     8  C    2.415837   3.877098   0.000000
     9  H    3.875190   4.297542   2.154941   0.000000
    10  C    1.397845   3.404227   1.394624   3.401517   0.000000
    11  H    1.086719   2.478271   3.401540   4.961903   2.158028
    12  H    3.402798   4.963711   1.086626   2.477430   2.156372
    13  H    2.158001   4.301371   2.155769   4.299730   1.086633
    14  H    4.298059   2.999053   4.477767   3.433150   4.898623
    15  H    4.576276   3.763783   4.026631   2.392716   4.819169
                   11         12         13         14         15
    11  H    0.000000
    12  H    4.302400   0.000000
    13  H    2.486800   2.486604   0.000000
    14  H    5.072102   5.339361   5.962342   0.000000
    15  H    5.530426   4.705580   5.885975   1.856305   0.000000
 Stoichiometry    C7H8
 Framework group  C1[X(C7H8)]
 Deg. of freedom    39
 Full point group                 C1      NOp   1
 Largest Abelian subgroup         C1      NOp   1
 Largest concise Abelian subgroup C1      NOp   1
                         Standard orientation:                         
 ---------------------------------------------------------------------
 Center     Atomic      Atomic             Coordinates (Angstroms)
 Number     Number       Type             X           Y           Z
 ---------------------------------------------------------------------
      1          1           0       -2.822132   -0.719373   -0.700638
      2          6           0       -2.418748    0.010934    0.004230
      3          6           0       -0.905936    0.006591   -0.013109
      4          6           0       -0.200213   -1.204674   -0.009545
      5          6           0       -0.189631    1.208347   -0.003735
      6          6           0        1.193109   -1.211828    0.000429
      7          1           0       -0.749372   -2.143271   -0.009362
      8          6           0        1.207079    1.203965    0.004830
      9          1           0       -0.726995    2.154212   -0.007761
     10          6           0        1.900366   -0.006128    0.007127
     11          1           0        1.728840   -2.157318    0.000353
     12          1           0        1.750357    2.145019    0.009571
     13          1           0        2.986965   -0.012291    0.012999
     14          1           0       -2.879701   -0.308631    1.034724
     15          1           0       -2.804114    0.998413   -0.281250
 ---------------------------------------------------------------------
 Rotational constants (GHZ):           5.5010499           2.5156492           1.7460134
 Standard basis: 6-31G(d) (6D, 7F)
 There are   121 symmetry adapted cartesian basis functions of A   symmetry.
 There are   121 symmetry adapted basis functions of A   symmetry.
   121 basis functions,   228 primitive gaussians,   121 cartesian basis functions
    25 alpha electrons       25 beta electrons
       nuclear repulsion energy       268.4191423971 Hartrees.
 NAtoms=   15 NActive=   15 NUniq=   15 SFac= 1.00D+00 NAtFMM=   60 NAOKFM=F Big=F
 Integral buffers will be    131072 words long.
 Raffenetti 2 integral format.
 Two-electron integral symmetry is turned on.
 One-electron integrals computed using PRISM.
 NBasis=   121 RedAO= T EigKep=  4.75D-04  NBF=   121
 NBsUse=   121 1.00D-06 EigRej= -1.00D+00 NBFU=   121
 ExpMin= 1.61D-01 ExpMax= 3.05D+03 ExpMxC= 4.57D+02 IAcc=3 IRadAn=         5 AccDes= 0.00D+00
 Harris functional with IExCor=  402 and IRadAn=       5 diagonalized for initial guess.
 HarFok:  IExCor=  402 AccDes= 0.00D+00 IRadAn=         5 IDoV= 1 UseB2=F ITyADJ=14
 ICtDFT=  3500011 ScaDFX=  1.000000  1.000000  1.000000  1.000000
 FoFCou: FMM=F IPFlag=           0 FMFlag=      100000 FMFlg1=           0
         NFxFlg=           0 DoJE=T BraDBF=F KetDBF=T FulRan=T
         wScrn=  0.000000 ICntrl=       500 IOpCl=  0 I1Cent=   200000004 NGrid=           0
         NMat0=    1 NMatS0=      1 NMatT0=    0 NMatD0=    1 NMtDS0=    0 NMtDT0=    0
 Petite list used in FoFCou.
 Keep R1 ints in memory in canonical form, NReq=31029057.
 Requested convergence on RMS density matrix=1.00D-08 within 128 cycles.
 Requested convergence on MAX density matrix=1.00D-06.
 Requested convergence on             energy=1.00D-06.
 No special actions if energy rises.
 Integral accuracy reduced to 1.0D-05 until final iterations.
 Initial convergence to 1.0D-05 achieved.  Increase integral accuracy.
 SCF Done:  E(RB3LYP) =  -271.563132692     A.U. after   13 cycles
            NFock= 13  Conv=0.43D-08     -V/T= 2.0104

 **********************************************************************

            Population analysis using the SCF density.

 **********************************************************************

 Orbital symmetries:
       Occupied  (A) (A) (A) (A) (A) (A) (A) (A) (A) (A) (A) (A)
                 (A) (A) (A) (A) (A) (A) (A) (A) (A) (A) (A) (A)
                 (A)
       Virtual   (A) (A) (A) (A) (A) (A) (A) (A) (A) (A) (A) (A)
                 (A) (A) (A) (A) (A) (A) (A) (A) (A) (A) (A) (A)
                 (A) (A) (A) (A) (A) (A) (A) (A) (A) (A) (A) (A)
                 (A) (A) (A) (A) (A) (A) (A) (A) (A) (A) (A) (A)
                 (A) (A) (A) (A) (A) (A) (A) (A) (A) (A) (A) (A)
                 (A) (A) (A) (A) (A) (A) (A) (A) (A) (A) (A) (A)
                 (A) (A) (A) (A) (A) (A) (A) (A) (A) (A) (A) (A)
                 (A) (A) (A) (A) (A) (A) (A) (A) (A) (A) (A) (A)
 The electronic state is 1-A.
 Alpha  occ. eigenvalues --  -10.19319 -10.18803 -10.18516 -10.18494 -10.18328
 Alpha  occ. eigenvalues --  -10.18272 -10.18235  -0.84828  -0.76339  -0.73804
 Alpha  occ. eigenvalues --   -0.67622  -0.59912  -0.57695  -0.50501  -0.45222
 Alpha  occ. eigenvalues --   -0.45081  -0.41517  -0.40518  -0.40167  -0.38160
 Alpha  occ. eigenvalues --   -0.34602  -0.33568  -0.33487  -0.24455  -0.23516
 Alpha virt. eigenvalues --    0.00295   0.00651   0.09516   0.11621   0.13591
 Alpha virt. eigenvalues --    0.14068   0.16263   0.17463   0.18839   0.19240
 Alpha virt. eigenvalues --    0.20359   0.24075   0.31059   0.32053   0.32952
 Alpha virt. eigenvalues --    0.35153   0.45703   0.51591   0.52407   0.54871
 Alpha virt. eigenvalues --    0.55567   0.56961   0.57822   0.60026   0.60481
 Alpha virt. eigenvalues --    0.61574   0.62084   0.63299   0.65358   0.66843
 Alpha virt. eigenvalues --    0.72114   0.72671   0.74769   0.76766   0.83537
 Alpha virt. eigenvalues --    0.84235   0.84502   0.85409   0.87033   0.90813
 Alpha virt. eigenvalues --    0.92461   0.94008   0.95389   0.96938   1.00916
 Alpha virt. eigenvalues --    1.09006   1.11913   1.13950   1.18944   1.19687
 Alpha virt. eigenvalues --    1.26435   1.36191   1.38499   1.44498   1.45059
 Alpha virt. eigenvalues --    1.47535   1.48858   1.50087   1.51894   1.79129
 Alpha virt. eigenvalues --    1.80452   1.83023   1.89443   1.90326   1.90966
 Alpha virt. eigenvalues --    1.92256   1.97950   2.05853   2.07854   2.10314
 Alpha virt. eigenvalues --    2.14371   2.16262   2.17869   2.24396   2.28630
 Alpha virt. eigenvalues --    2.31488   2.32994   2.35519   2.41783   2.57457
 Alpha virt. eigenvalues --    2.58012   2.66404   2.72586   2.73911   2.74401
 Alpha virt. eigenvalues --    2.77411   2.87061   3.05406   3.41411   4.09027
 Alpha virt. eigenvalues --    4.11775   4.12114   4.22763   4.33390   4.39731
 Alpha virt. eigenvalues --    4.69628
          Condensed to atoms (all electrons):
               1          2          3          4          5          6
     1  H    0.567836   0.361198  -0.028356  -0.003254   0.002084   0.000047
     2  C    0.361198   5.232277   0.345982  -0.067204  -0.057655   0.006785
     3  C   -0.028356   0.345982   4.602474   0.546431   0.562806  -0.017378
     4  C   -0.003254  -0.067204   0.546431   4.956438  -0.032647   0.526889
     5  C    0.002084  -0.057655   0.562806  -0.032647   4.943891  -0.047058
     6  C    0.000047   0.006785  -0.017378   0.526889  -0.047058   4.866794
     7  H    0.003578  -0.009321  -0.048280   0.357588   0.005964  -0.046417
     8  C   -0.000200   0.007460  -0.021645  -0.047977   0.522436  -0.026086
     9  H    0.000082  -0.010918  -0.043101   0.006343   0.353468   0.000349
    10  C    0.000020   0.000383  -0.035159  -0.035521  -0.036191   0.547888
    11  H   -0.000003  -0.000193   0.003663  -0.040211   0.000886   0.355855
    12  H    0.000003  -0.000196   0.003806   0.000893  -0.039795   0.004524
    13  H   -0.000000   0.000008   0.000770   0.004645   0.004681  -0.043173
    14  H   -0.035038   0.354584  -0.024166  -0.002424  -0.000797  -0.000081
    15  H   -0.028698   0.361869  -0.029632   0.003675  -0.003030  -0.000188
               7          8          9         10         11         12
     1  H    0.003578  -0.000200   0.000082   0.000020  -0.000003   0.000003
     2  C   -0.009321   0.007460  -0.010918   0.000383  -0.000193  -0.000196
     3  C   -0.048280  -0.021645  -0.043101  -0.035159   0.003663   0.003806
     4  C    0.357588  -0.047977   0.006343  -0.035521  -0.040211   0.000893
     5  C    0.005964   0.522436   0.353468  -0.036191   0.000886  -0.039795
     6  C   -0.046417  -0.026086   0.000349   0.547888   0.355855   0.004524
     7  H    0.614853   0.000382  -0.000177   0.004891  -0.005665   0.000019
     8  C    0.000382   4.869618  -0.047339   0.553800   0.004566   0.355602
     9  H   -0.000177  -0.047339   0.613668   0.004855   0.000018  -0.005591
    10  C    0.004891   0.553800   0.004855   4.855442  -0.043195  -0.043357
    11  H   -0.005665   0.004566   0.000018  -0.043195   0.602987  -0.000190
    12  H    0.000019   0.355602  -0.005591  -0.043357  -0.000190   0.602821
    13  H   -0.000185  -0.043485  -0.000185   0.358358  -0.005588  -0.005684
    14  H    0.001072  -0.000132   0.000206   0.000034   0.000001   0.000002
    15  H    0.000053   0.000108   0.006894   0.000007   0.000003  -0.000007
              13         14         15
     1  H   -0.000000  -0.035038  -0.028698
     2  C    0.000008   0.354584   0.361869
     3  C    0.000770  -0.024166  -0.029632
     4  C    0.004645  -0.002424   0.003675
     5  C    0.004681  -0.000797  -0.003030
     6  C   -0.043173  -0.000081  -0.000188
     7  H   -0.000185   0.001072   0.000053
     8  C   -0.043485  -0.000132   0.000108
     9  H   -0.000185   0.000206   0.006894
    10  C    0.358358   0.000034   0.000007
    11  H   -0.005588   0.000001   0.000003
    12  H   -0.005684   0.000002  -0.000007
    13  H    0.603831  -0.000000  -0.000000
    14  H   -0.000000   0.585907  -0.024567
    15  H   -0.000000  -0.024567   0.558818
 Mulliken charges:
               1
     1  H    0.160701
     2  C   -0.525059
     3  C    0.181785
     4  C   -0.173664
     5  C   -0.179044
     6  C   -0.128750
     7  H    0.121646
     8  C   -0.127108
     9  H    0.121428
    10  C   -0.132255
    11  H    0.127066
    12  H    0.127151
    13  H    0.126008
    14  H    0.145400
    15  H    0.154697
 Sum of Mulliken charges =  -0.00000
 Mulliken charges with hydrogens summed into heavy atoms:
               1
     2  C   -0.064261
     3  C    0.181785
     4  C   -0.052019
     5  C   -0.057616
     6  C   -0.001684
     8  C    0.000043
    10  C   -0.006247
 Electronic spatial extent (au):  <R**2>=            719.8026
 Charge=              0.0000 electrons
 Dipole moment (field-independent basis, Debye):
    X=             -0.2501    Y=             -0.0419    Z=             -0.0289  Tot=              0.2552
 Quadrupole moment (field-independent basis, Debye-Ang):
   XX=            -38.0533   YY=            -38.1755   ZZ=            -44.9376
   XY=              0.1375   XZ=              0.1035   YZ=             -0.0795
 Traceless Quadrupole moment (field-independent basis, Debye-Ang):
   XX=              2.3355   YY=              2.2133   ZZ=             -4.5488
   XY=              0.1375   XZ=              0.1035   YZ=             -0.0795
 Octapole moment (field-independent basis, Debye-Ang**2):
  XXX=              5.2904  YYY=              0.3487  ZZZ=              0.2410  XYY=              1.1524
  XXY=             -0.4483  XXZ=             -0.1112  XZZ=             -2.8651  YZZ=             -0.3977
  YYZ=             -0.4047  XYZ=              0.2692
 Hexadecapole moment (field-independent basis, Debye-Ang**3):
 XXXX=           -607.9120 YYYY=           -285.5864 ZZZZ=            -53.9196 XXXY=              1.3867
 XXXZ=              0.7270 YYYX=             -0.9438 YYYZ=             -0.0133 ZZZX=             -0.7473
 ZZZY=             -0.1329 XXYY=           -145.6499 XXZZ=           -117.1200 YYZZ=            -65.0685
 XXYZ=             -0.7195 YYXZ=              1.3173 ZZXY=              1.1686
 N-N= 2.684191423971D+02 E-N=-1.164900652487D+03  KE= 2.687704076300D+02
 1\1\GINC-NODE56\SP\RB3LYP\6-31G(d)\C7H8\YANZ\22-Sep-2023\0\\# b3lyp/6-
 31g(d)\\tmpdir/M3_ref_70.gjf\\0,1\H,0,1.142456,-1.857358,31.380926\C,0
 ,1.156149,-0.817712,31.046479\C,0,-0.202984,-0.39175,30.53635\C,0,-0.9
 35704,-1.23058,29.685052\C,0,-0.735392,0.854981,30.882185\C,0,-2.1763,
 -0.830175,29.193023\H,0,-0.525758,-2.198205,29.405435\C,0,-1.979399,1.
 258167,30.391492\H,0,-0.176028,1.513463,31.543208\C,0,-2.70147,0.41622
 8,29.546076\H,0,-2.735985,-1.490513,28.536011\H,0,-2.381706,2.228263,3
 0.670452\H,0,-3.669857,0.727191,29.163584\H,0,1.99542718,-0.79708707,3
 0.22690376\H,0,1.459053,-0.196692,31.899535\\Version=ES64L-G16RevA.03\
 State=1-A\HF=-271.5631327\RMSD=4.272e-09\Dipole=0.0814447,-0.0473773,0
 .034734\Quadrupole=0.6568654,0.8078199,-1.4646853,-1.0677233,1.7774347
 ,1.6388891\PG=C01 [X(C7H8)]\\@


 I MET A TRAVELLER FROM AN ANTIQUE LAND
 WHO SAID... TWO VAST AND TRUNKLESS LEGS OF STONE
 STAND IN THE DESERT..... NEAR THEM,  ON THE SAND,
 HALF SUNK,  A SHATTERED VISAGE LIES,  WHOSE FROWN,
 AND WRINKLED LIP,  AND SNEER OF COLD COMMAND
 TELL THAT ITS SCULPTOR WELL THOSE PASSIONS READ
 WHICH YET SURVIVE,  STAMPED ON THESE LIFELESS THINGS
 THE HAND THAT MOCKED THEM,  AND THE HEART THAT FED-
 AND ON THE PEDESTAL THESE WORDS APPEAR 
 MY NAME IS OZYMANDIAS, KING OF KINGS--   
 LOOK ON MY WORKS YE MIGHTY AND DESPAIR. 
 NOTHING BESIDE REMAINS,  ROUND THE DECAY 
 OF THAT COLOSSAL WRECK,  BOUNDLESS AND BARE
 THE LONE AND LEVEL SANDS STRETCH FAR AWAY.
                                    SHELLEY
 Job cpu time:       0 days  0 hours  0 minutes 50.8 seconds.
 Elapsed time:       0 days  0 hours  0 minutes 13.2 seconds.
 File lengths (MBytes):  RWF=     10 Int=      0 D2E=      0 Chk=      2 Scr=      1
 Normal termination of Gaussian 16 at Fri Sep 22 17:00:37 2023.
