 Entering Gaussian System, Link 0=g16
 Initial command:
 /share/apps/gaussian/g16/l1.exe "/tmp/55622.mgr/Gau-172229.inp" -scrdir="/tmp/55622.mgr/"
 Entering Link 1 = /share/apps/gaussian/g16/l1.exe PID=    172230.
  
 Copyright (c) 1988,1990,1992,1993,1995,1998,2003,2009,2016,
            Gaussian, Inc.  All Rights Reserved.
  
 This is part of the Gaussian(R) 16 program.  It is based on
 the Gaussian(R) 09 system (copyright 2009, Gaussian, Inc.),
 the Gaussian(R) 03 system (copyright 2003, Gaussian, Inc.),
 the Gaussian(R) 98 system (copyright 1998, Gaussian, Inc.),
 the Gaussian(R) 94 system (copyright 1995, Gaussian, Inc.),
 the Gaussian 92(TM) system (copyright 1992, Gaussian, Inc.),
 the Gaussian 90(TM) system (copyright 1990, Gaussian, Inc.),
 the Gaussian 88(TM) system (copyright 1988, Gaussian, Inc.),
 the Gaussian 86(TM) system (copyright 1986, Carnegie Mellon
 University), and the Gaussian 82(TM) system (copyright 1983,
 Carnegie Mellon University). Gaussian is a federally registered
 trademark of Gaussian, Inc.
  
 This software contains proprietary and confidential information,
 including trade secrets, belonging to Gaussian, Inc.
  
 This software is provided under written license and may be
 used, copied, transmitted, or stored only in accord with that
 written license.
  
 The following legend is applicable only to US Government
 contracts under FAR:
  
                    RESTRICTED RIGHTS LEGEND
  
 Use, reproduction and disclosure by the US Government is
 subject to restrictions as set forth in subparagraphs (a)
 and (c) of the Commercial Computer Software - Restricted
 Rights clause in FAR 52.227-19.
  
 Gaussian, Inc.
 340 Quinnipiac St., Bldg. 40, Wallingford CT 06492
  
  
 ---------------------------------------------------------------
 Warning -- This program may not be used in any manner that
 competes with the business of Gaussian, Inc. or will provide
 assistance to any competitor of Gaussian, Inc.  The licensee
 of this program is prohibited from giving any competitor of
 Gaussian, Inc. access to this program.  By using this program,
 the user acknowledges that Gaussian, Inc. is engaged in the
 business of creating and licensing software in the field of
 computational chemistry and represents and warrants to the
 licensee that it is not a competitor of Gaussian, Inc. and that
 it will not use this program in any manner prohibited above.
 ---------------------------------------------------------------
  

 Cite this work as:
 Gaussian 16, Revision A.03,
 M. J. Frisch, G. W. Trucks, H. B. Schlegel, G. E. Scuseria, 
 M. A. Robb, J. R. Cheeseman, G. Scalmani, V. Barone, 
 G. A. Petersson, H. Nakatsuji, X. Li, M. Caricato, A. V. Marenich, 
 J. Bloino, B. G. Janesko, R. Gomperts, B. Mennucci, H. P. Hratchian, 
 J. V. Ortiz, A. F. Izmaylov, J. L. Sonnenberg, D. Williams-Young, 
 F. Ding, F. Lipparini, F. Egidi, J. Goings, B. Peng, A. Petrone, 
 T. Henderson, D. Ranasinghe, V. G. Zakrzewski, J. Gao, N. Rega, 
 G. Zheng, W. Liang, M. Hada, M. Ehara, K. Toyota, R. Fukuda, 
 J. Hasegawa, M. Ishida, T. Nakajima, Y. Honda, O. Kitao, H. Nakai, 
 T. Vreven, K. Throssell, J. A. Montgomery, Jr., J. E. Peralta, 
 F. Ogliaro, M. J. Bearpark, J. J. Heyd, E. N. Brothers, K. N. Kudin, 
 V. N. Staroverov, T. A. Keith, R. Kobayashi, J. Normand, 
 K. Raghavachari, A. P. Rendell, J. C. Burant, S. S. Iyengar, 
 J. Tomasi, M. Cossi, J. M. Millam, M. Klene, C. Adamo, R. Cammi, 
 J. W. Ochterski, R. L. Martin, K. Morokuma, O. Farkas, 
 J. B. Foresman, and D. J. Fox, Gaussian, Inc., Wallingford CT, 2016.
 
 ******************************************
 Gaussian 16:  ES64L-G16RevA.03 25-Dec-2016
                22-Sep-2023 
 ******************************************
 %nprocshared=4
 Will use up to    4 processors via shared memory.
 %mem=4GB
 ----------------
 # b3lyp/6-31g(d)
 ----------------
 1/38=1,172=1/1;
 2/12=2,17=6,18=5,40=1/2;
 3/5=1,6=6,7=1,11=2,25=1,30=1,74=-5/1,2,3;
 4//1;
 5/5=2,38=5/2;
 6/7=2,8=2,9=2,10=2,28=1/1;
 99/5=1,9=1/99;
 --------------------
 tmpdir/M3_ref_23.gjf
 --------------------
 Symbolic Z-matrix:
 Charge =  0 Multiplicity = 1
 C                    -1.8997    1.18402  -0.42363 
 C                    -2.80943   0.09913   0.20928 
 H                    -2.80456   0.21851   1.30042 
 H                    -0.96356   1.49326   0.13346 
 H                    -1.63877   0.88728  -1.44823 
 H                    -2.52023   2.08295  -0.52774 
 H                    -2.53801  -0.96539  -0.03583 
 H                    -3.84544   0.26372  -0.1157 
 
                          Input orientation:                          
 ---------------------------------------------------------------------
 Center     Atomic      Atomic             Coordinates (Angstroms)
 Number     Number       Type             X           Y           Z
 ---------------------------------------------------------------------
      1          6           0       -1.899702    1.184016   -0.423626
      2          6           0       -2.809433    0.099125    0.209283
      3          1           0       -2.804560    0.218507    1.300420
      4          1           0       -0.963558    1.493259    0.133457
      5          1           0       -1.638771    0.887282   -1.448230
      6          1           0       -2.520225    2.082946   -0.527744
      7          1           0       -2.538006   -0.965386   -0.035831
      8          1           0       -3.845443    0.263720   -0.115704
 ---------------------------------------------------------------------
                    Distance matrix (angstroms):
                    1          2          3          4          5
     1  C    0.000000
     2  C    1.550862   0.000000
     3  H    2.173318   1.097659   0.000000
     4  H    1.132404   2.314436   2.525090   0.000000
     5  H    1.098157   2.176922   3.059641   1.823418   0.000000
     6  H    1.097253   2.135977   2.626626   1.791125   1.747532
     7  H    2.275466   1.125583   1.805054   2.924462   2.497174
     8  H    2.174320   1.098192   1.758092   3.143105   2.652142
                    6          7          8
     6  H    0.000000
     7  H    3.087819   0.000000
     8  H    2.288135   1.796239   0.000000
 Stoichiometry    C2H6
 Framework group  C1[X(C2H6)]
 Deg. of freedom    18
 Full point group                 C1      NOp   1
 Largest Abelian subgroup         C1      NOp   1
 Largest concise Abelian subgroup C1      NOp   1
                         Standard orientation:                         
 ---------------------------------------------------------------------
 Center     Atomic      Atomic             Coordinates (Angstroms)
 Number     Number       Type             X           Y           Z
 ---------------------------------------------------------------------
      1          6           0       -0.775131   -0.002137   -0.014566
      2          6           0        0.775696    0.007365   -0.010528
      3          1           0        1.128148    1.045923    0.034533
      4          1           0       -1.316950    0.830546   -0.558081
      5          1           0       -1.131858   -0.974615   -0.379232
      6          1           0       -1.085518    0.048619    1.036647
      7          1           0        1.266517   -0.499774   -0.887365
      8          1           0        1.136273   -0.482066    0.904058
 ---------------------------------------------------------------------
 Rotational constants (GHZ):          78.8741338          19.4218588          19.3620138
 Standard basis: 6-31G(d) (6D, 7F)
 There are    42 symmetry adapted cartesian basis functions of A   symmetry.
 There are    42 symmetry adapted basis functions of A   symmetry.
    42 basis functions,    80 primitive gaussians,    42 cartesian basis functions
     9 alpha electrons        9 beta electrons
       nuclear repulsion energy        41.6350183551 Hartrees.
 NAtoms=    8 NActive=    8 NUniq=    8 SFac= 1.00D+00 NAtFMM=   60 NAOKFM=F Big=F
 Integral buffers will be    131072 words long.
 Raffenetti 2 integral format.
 Two-electron integral symmetry is turned on.
 One-electron integrals computed using PRISM.
 NBasis=    42 RedAO= T EigKep=  8.81D-03  NBF=    42
 NBsUse=    42 1.00D-06 EigRej= -1.00D+00 NBFU=    42
 ExpMin= 1.61D-01 ExpMax= 3.05D+03 ExpMxC= 4.57D+02 IAcc=3 IRadAn=         5 AccDes= 0.00D+00
 Harris functional with IExCor=  402 and IRadAn=       5 diagonalized for initial guess.
 HarFok:  IExCor=  402 AccDes= 0.00D+00 IRadAn=         5 IDoV= 1 UseB2=F ITyADJ=14
 ICtDFT=  3500011 ScaDFX=  1.000000  1.000000  1.000000  1.000000
 FoFCou: FMM=F IPFlag=           0 FMFlag=      100000 FMFlg1=           0
         NFxFlg=           0 DoJE=T BraDBF=F KetDBF=T FulRan=T
         wScrn=  0.000000 ICntrl=       500 IOpCl=  0 I1Cent=   200000004 NGrid=           0
         NMat0=    1 NMatS0=      1 NMatT0=    0 NMatD0=    1 NMtDS0=    0 NMtDT0=    0
 Petite list used in FoFCou.
 Keep R1 ints in memory in canonical form, NReq=3861446.
 Requested convergence on RMS density matrix=1.00D-08 within 128 cycles.
 Requested convergence on MAX density matrix=1.00D-06.
 Requested convergence on             energy=1.00D-06.
 No special actions if energy rises.
 Integral accuracy reduced to 1.0D-05 until final iterations.
 Initial convergence to 1.0D-05 achieved.  Increase integral accuracy.
 SCF Done:  E(RB3LYP) =  -79.8245478183     A.U. after   10 cycles
            NFock= 10  Conv=0.28D-08     -V/T= 2.0122

 **********************************************************************

            Population analysis using the SCF density.

 **********************************************************************

 Orbital symmetries:
       Occupied  (A) (A) (A) (A) (A) (A) (A) (A) (A)
       Virtual   (A) (A) (A) (A) (A) (A) (A) (A) (A) (A) (A) (A)
                 (A) (A) (A) (A) (A) (A) (A) (A) (A) (A) (A) (A)
                 (A) (A) (A) (A) (A) (A) (A) (A) (A)
 The electronic state is 1-A.
 Alpha  occ. eigenvalues --  -10.17764 -10.17738  -0.74256  -0.60942  -0.42769
 Alpha  occ. eigenvalues --   -0.42598  -0.36220  -0.33834  -0.33563
 Alpha virt. eigenvalues --    0.10220   0.13758   0.14363   0.15787   0.20302
 Alpha virt. eigenvalues --    0.21308   0.23577   0.51799   0.54125   0.54444
 Alpha virt. eigenvalues --    0.64921   0.65814   0.66805   0.86583   0.86922
 Alpha virt. eigenvalues --    0.89350   0.90332   0.91487   0.97080   1.05498
 Alpha virt. eigenvalues --    1.42826   1.51075   1.52663   1.90145   1.96959
 Alpha virt. eigenvalues --    2.01393   2.18270   2.22860   2.34178   2.36017
 Alpha virt. eigenvalues --    2.57732   4.12485   4.36485
          Condensed to atoms (all electrons):
               1          2          3          4          5          6
     1  C    5.028766   0.363496  -0.036828   0.379678   0.381203   0.381958
     2  C    0.363496   5.028403   0.380202  -0.025933  -0.037004  -0.039536
     3  H   -0.036828   0.380202   0.574006  -0.006072   0.004519   0.000094
     4  H    0.379678  -0.025933  -0.006072   0.569522  -0.029082  -0.032726
     5  H    0.381203  -0.037004   0.004519  -0.029082   0.573794  -0.033617
     6  H    0.381958  -0.039536   0.000094  -0.032726  -0.033617   0.583092
     7  H   -0.029455   0.380171  -0.029684   0.000070  -0.006472   0.004290
     8  H   -0.035423   0.383691  -0.032910   0.003719   0.000197  -0.009337
               7          8
     1  C   -0.029455  -0.035423
     2  C    0.380171   0.383691
     3  H   -0.029684  -0.032910
     4  H    0.000070   0.003719
     5  H   -0.006472   0.000197
     6  H    0.004290  -0.009337
     7  H    0.573129  -0.032444
     8  H   -0.032444   0.575761
 Mulliken charges:
               1
     1  C   -0.433395
     2  C   -0.433489
     3  H    0.146674
     4  H    0.140825
     5  H    0.146461
     6  H    0.145782
     7  H    0.140395
     8  H    0.146747
 Sum of Mulliken charges =   0.00000
 Mulliken charges with hydrogens summed into heavy atoms:
               1
     1  C   -0.000326
     2  C    0.000326
 Electronic spatial extent (au):  <R**2>=            111.6299
 Charge=              0.0000 electrons
 Dipole moment (field-independent basis, Debye):
    X=              0.0023    Y=             -0.0184    Z=              0.1033  Tot=              0.1049
 Quadrupole moment (field-independent basis, Debye-Ang):
   XX=            -15.2514   YY=            -14.7162   ZZ=            -14.8288
   XY=             -0.1348   XZ=              0.0328   YZ=             -0.0036
 Traceless Quadrupole moment (field-independent basis, Debye-Ang):
   XX=             -0.3192   YY=              0.2159   ZZ=              0.1033
   XY=             -0.1348   XZ=              0.0328   YZ=             -0.0036
 Octapole moment (field-independent basis, Debye-Ang**2):
  XXX=             -0.0461  YYY=              0.2794  ZZZ=              0.7587  XYY=             -0.1464
  XXY=              0.1132  XXZ=             -0.2354  XZZ=              0.1914  YZZ=             -0.3909
  YYZ=             -0.3557  XYZ=              0.2010
 Hexadecapole moment (field-independent basis, Debye-Ang**3):
 XXXX=            -95.0797 YYYY=            -29.0073 ZZZZ=            -28.9031 XXXY=             -0.7392
 XXXZ=              0.1589 YYYX=              0.7790 YYYZ=              0.0771 ZZZX=             -0.5556
 ZZZY=             -0.0466 XXYY=            -19.4978 XXZZ=            -19.6999 YYZZ=             -9.7805
 XXYZ=             -0.0783 YYXZ=              0.6119 ZZXY=             -0.7936
 N-N= 4.163501835512D+01 E-N=-2.669886810586D+02  KE= 7.886104465219D+01
 1\1\GINC-NODE56\SP\RB3LYP\6-31G(d)\C2H6\YANZ\22-Sep-2023\0\\# b3lyp/6-
 31g(d)\\tmpdir/M3_ref_23.gjf\\0,1\C,0,-1.899702,1.184016,-0.423626\C,0
 ,-2.809433,0.099125,0.209283\H,0,-2.80456,0.218507,1.30042\H,0,-0.9635
 5815,1.49325865,0.13345712\H,0,-1.638771,0.887282,-1.44823\H,0,-2.5202
 25,2.082946,-0.527744\H,0,-2.53800615,-0.96538628,-0.03583059\H,0,-3.8
 45443,0.26372,-0.115704\\Version=ES64L-G16RevA.03\State=1-A\HF=-79.824
 5478\RMSD=2.818e-09\Dipole=-0.0337334,0.0226798,-0.0072364\Quadrupole=
 0.0246245,-0.0464475,0.0218231,-0.082595,0.1311159,0.1703337\PG=C01 [X
 (C2H6)]\\@


 Life may have no meaning.  Or even worse, it may have a
 meaning of which I disapprove.
                                 -- Ashleigh Brilliant
 Job cpu time:       0 days  0 hours  0 minutes  9.7 seconds.
 Elapsed time:       0 days  0 hours  0 minutes  2.6 seconds.
 File lengths (MBytes):  RWF=      6 Int=      0 D2E=      0 Chk=      1 Scr=      1
 Normal termination of Gaussian 16 at Fri Sep 22 16:59:43 2023.
