 Entering Gaussian System, Link 0=g16
 Initial command:
 /share/apps/gaussian/g16/l1.exe "/tmp/55622.mgr/Gau-172553.inp" -scrdir="/tmp/55622.mgr/"
 Entering Link 1 = /share/apps/gaussian/g16/l1.exe PID=    172554.
  
 Copyright (c) 1988,1990,1992,1993,1995,1998,2003,2009,2016,
            Gaussian, Inc.  All Rights Reserved.
  
 This is part of the Gaussian(R) 16 program.  It is based on
 the Gaussian(R) 09 system (copyright 2009, Gaussian, Inc.),
 the Gaussian(R) 03 system (copyright 2003, Gaussian, Inc.),
 the Gaussian(R) 98 system (copyright 1998, Gaussian, Inc.),
 the Gaussian(R) 94 system (copyright 1995, Gaussian, Inc.),
 the Gaussian 92(TM) system (copyright 1992, Gaussian, Inc.),
 the Gaussian 90(TM) system (copyright 1990, Gaussian, Inc.),
 the Gaussian 88(TM) system (copyright 1988, Gaussian, Inc.),
 the Gaussian 86(TM) system (copyright 1986, Carnegie Mellon
 University), and the Gaussian 82(TM) system (copyright 1983,
 Carnegie Mellon University). Gaussian is a federally registered
 trademark of Gaussian, Inc.
  
 This software contains proprietary and confidential information,
 including trade secrets, belonging to Gaussian, Inc.
  
 This software is provided under written license and may be
 used, copied, transmitted, or stored only in accord with that
 written license.
  
 The following legend is applicable only to US Government
 contracts under FAR:
  
                    RESTRICTED RIGHTS LEGEND
  
 Use, reproduction and disclosure by the US Government is
 subject to restrictions as set forth in subparagraphs (a)
 and (c) of the Commercial Computer Software - Restricted
 Rights clause in FAR 52.227-19.
  
 Gaussian, Inc.
 340 Quinnipiac St., Bldg. 40, Wallingford CT 06492
  
  
 ---------------------------------------------------------------
 Warning -- This program may not be used in any manner that
 competes with the business of Gaussian, Inc. or will provide
 assistance to any competitor of Gaussian, Inc.  The licensee
 of this program is prohibited from giving any competitor of
 Gaussian, Inc. access to this program.  By using this program,
 the user acknowledges that Gaussian, Inc. is engaged in the
 business of creating and licensing software in the field of
 computational chemistry and represents and warrants to the
 licensee that it is not a competitor of Gaussian, Inc. and that
 it will not use this program in any manner prohibited above.
 ---------------------------------------------------------------
  

 Cite this work as:
 Gaussian 16, Revision A.03,
 M. J. Frisch, G. W. Trucks, H. B. Schlegel, G. E. Scuseria, 
 M. A. Robb, J. R. Cheeseman, G. Scalmani, V. Barone, 
 G. A. Petersson, H. Nakatsuji, X. Li, M. Caricato, A. V. Marenich, 
 J. Bloino, B. G. Janesko, R. Gomperts, B. Mennucci, H. P. Hratchian, 
 J. V. Ortiz, A. F. Izmaylov, J. L. Sonnenberg, D. Williams-Young, 
 F. Ding, F. Lipparini, F. Egidi, J. Goings, B. Peng, A. Petrone, 
 T. Henderson, D. Ranasinghe, V. G. Zakrzewski, J. Gao, N. Rega, 
 G. Zheng, W. Liang, M. Hada, M. Ehara, K. Toyota, R. Fukuda, 
 J. Hasegawa, M. Ishida, T. Nakajima, Y. Honda, O. Kitao, H. Nakai, 
 T. Vreven, K. Throssell, J. A. Montgomery, Jr., J. E. Peralta, 
 F. Ogliaro, M. J. Bearpark, J. J. Heyd, E. N. Brothers, K. N. Kudin, 
 V. N. Staroverov, T. A. Keith, R. Kobayashi, J. Normand, 
 K. Raghavachari, A. P. Rendell, J. C. Burant, S. S. Iyengar, 
 J. Tomasi, M. Cossi, J. M. Millam, M. Klene, C. Adamo, R. Cammi, 
 J. W. Ochterski, R. L. Martin, K. Morokuma, O. Farkas, 
 J. B. Foresman, and D. J. Fox, Gaussian, Inc., Wallingford CT, 2016.
 
 ******************************************
 Gaussian 16:  ES64L-G16RevA.03 25-Dec-2016
                22-Sep-2023 
 ******************************************
 %nprocshared=4
 Will use up to    4 processors via shared memory.
 %mem=4GB
 ----------------
 # b3lyp/6-31g(d)
 ----------------
 1/38=1,172=1/1;
 2/12=2,17=6,18=5,40=1/2;
 3/5=1,6=6,7=1,11=2,25=1,30=1,74=-5/1,2,3;
 4//1;
 5/5=2,38=5/2;
 6/7=2,8=2,9=2,10=2,28=1/1;
 99/5=1,9=1/99;
 --------------------
 tmpdir/M3_ref_33.gjf
 --------------------
 Symbolic Z-matrix:
 Charge =  0 Multiplicity = 1
 C                    -2.80943   0.09913   0.20928 
 C                    -2.43448  -1.37143  -0.12933 
 C                    -0.99264  -1.4966    0.05981 
 H                    -2.15089   0.88446  -0.24887 
 H                    -2.80456   0.21851   1.30042 
 H                    -3.84544   0.26372  -0.1157 
 H                    -3.01433  -2.06339   0.49447 
 H                    -2.69653  -1.59376  -1.17314 
 N                     0.07579  -1.19074   0.14706 
 
                          Input orientation:                          
 ---------------------------------------------------------------------
 Center     Atomic      Atomic             Coordinates (Angstroms)
 Number     Number       Type             X           Y           Z
 ---------------------------------------------------------------------
      1          6           0       -2.809433    0.099125    0.209283
      2          6           0       -2.434475   -1.371426   -0.129325
      3          6           0       -0.992636   -1.496604    0.059811
      4          1           0       -2.150891    0.884462   -0.248871
      5          1           0       -2.804560    0.218507    1.300420
      6          1           0       -3.845443    0.263720   -0.115704
      7          1           0       -3.014333   -2.063392    0.494468
      8          1           0       -2.696534   -1.593761   -1.173141
      9          7           0        0.075790   -1.190735    0.147064
 ---------------------------------------------------------------------
                    Distance matrix (angstroms):
                    1          2          3          4          5
     1  C    0.000000
     2  C    1.554918   0.000000
     3  C    2.422694   1.459569   0.000000
     4  H    1.122647   2.276784   2.665768   0.000000
     5  H    1.097659   2.170028   2.786357   1.808613   0.000000
     6  H    1.098192   2.159796   3.356792   1.809574   1.758092
     7  H    2.190843   1.097347   2.144163   3.160369   2.429120
     8  H    2.188540   1.098936   2.105440   2.700665   3.068304
     9  N    3.161032   2.531891   1.114766   3.069417   3.407728
                    6          7          8          9
     6  H    0.000000
     7  H    2.545291   0.000000
     8  H    2.426603   1.761383   0.000000
     9  N    4.190532   3.229718   3.096958   0.000000
 Stoichiometry    C3H5N
 Framework group  C1[X(C3H5N)]
 Deg. of freedom    21
 Full point group                 C1      NOp   1
 Largest Abelian subgroup         C1      NOp   1
 Largest concise Abelian subgroup C1      NOp   1
                         Standard orientation:                         
 ---------------------------------------------------------------------
 Center     Atomic      Atomic             Coordinates (Angstroms)
 Number     Number       Type             X           Y           Z
 ---------------------------------------------------------------------
      1          6           0        1.395299   -0.536602    0.000650
      2          6           0        0.492564    0.729223   -0.022257
      3          6           0       -0.889445    0.267048    0.060133
      4          1           0        1.079616   -1.368840   -0.683500
      5          1           0        1.439741   -0.915408    1.029915
      6          1           0        2.415764   -0.224710   -0.258962
      7          1           0        0.771156    1.407922    0.793785
      8          1           0        0.647716    1.282812   -0.958807
      9          7           0       -1.763500   -0.419970   -0.021941
 ---------------------------------------------------------------------
 Rotational constants (GHZ):          22.1673742           5.4924973           4.6638128
 Standard basis: 6-31G(d) (6D, 7F)
 There are    70 symmetry adapted cartesian basis functions of A   symmetry.
 There are    70 symmetry adapted basis functions of A   symmetry.
    70 basis functions,   132 primitive gaussians,    70 cartesian basis functions
    15 alpha electrons       15 beta electrons
       nuclear repulsion energy       104.6881404177 Hartrees.
 NAtoms=    9 NActive=    9 NUniq=    9 SFac= 1.00D+00 NAtFMM=   60 NAOKFM=F Big=F
 Integral buffers will be    131072 words long.
 Raffenetti 2 integral format.
 Two-electron integral symmetry is turned on.
 One-electron integrals computed using PRISM.
 NBasis=    70 RedAO= T EigKep=  1.91D-03  NBF=    70
 NBsUse=    70 1.00D-06 EigRej= -1.00D+00 NBFU=    70
 ExpMin= 1.61D-01 ExpMax= 4.17D+03 ExpMxC= 6.27D+02 IAcc=3 IRadAn=         5 AccDes= 0.00D+00
 Harris functional with IExCor=  402 and IRadAn=       5 diagonalized for initial guess.
 HarFok:  IExCor=  402 AccDes= 0.00D+00 IRadAn=         5 IDoV= 1 UseB2=F ITyADJ=14
 ICtDFT=  3500011 ScaDFX=  1.000000  1.000000  1.000000  1.000000
 FoFCou: FMM=F IPFlag=           0 FMFlag=      100000 FMFlg1=           0
         NFxFlg=           0 DoJE=T BraDBF=F KetDBF=T FulRan=T
         wScrn=  0.000000 ICntrl=       500 IOpCl=  0 I1Cent=   200000004 NGrid=           0
         NMat0=    1 NMatS0=      1 NMatT0=    0 NMatD0=    1 NMtDS0=    0 NMtDT0=    0
 Petite list used in FoFCou.
 Keep R1 ints in memory in canonical form, NReq=6658320.
 Requested convergence on RMS density matrix=1.00D-08 within 128 cycles.
 Requested convergence on MAX density matrix=1.00D-06.
 Requested convergence on             energy=1.00D-06.
 No special actions if energy rises.
 Integral accuracy reduced to 1.0D-05 until final iterations.
 Initial convergence to 1.0D-05 achieved.  Increase integral accuracy.
 SCF Done:  E(RB3LYP) =  -172.054586321     A.U. after   13 cycles
            NFock= 13  Conv=0.30D-08     -V/T= 2.0086

 **********************************************************************

            Population analysis using the SCF density.

 **********************************************************************

 Orbital symmetries:
       Occupied  (A) (A) (A) (A) (A) (A) (A) (A) (A) (A) (A) (A)
                 (A) (A) (A)
       Virtual   (A) (A) (A) (A) (A) (A) (A) (A) (A) (A) (A) (A)
                 (A) (A) (A) (A) (A) (A) (A) (A) (A) (A) (A) (A)
                 (A) (A) (A) (A) (A) (A) (A) (A) (A) (A) (A) (A)
                 (A) (A) (A) (A) (A) (A) (A) (A) (A) (A) (A) (A)
                 (A) (A) (A) (A) (A) (A) (A)
 The electronic state is 1-A.
 Alpha  occ. eigenvalues --  -14.31943 -10.24017 -10.21393 -10.20696  -0.91858
 Alpha  occ. eigenvalues --   -0.80097  -0.66655  -0.51831  -0.48222  -0.42413
 Alpha  occ. eigenvalues --   -0.39755  -0.38624  -0.35156  -0.33140  -0.32694
 Alpha virt. eigenvalues --    0.03556   0.05129   0.08239   0.12450   0.13574
 Alpha virt. eigenvalues --    0.16011   0.18184   0.21183   0.24803   0.33262
 Alpha virt. eigenvalues --    0.50783   0.53084   0.54446   0.57210   0.58678
 Alpha virt. eigenvalues --    0.60729   0.66574   0.73565   0.76893   0.77736
 Alpha virt. eigenvalues --    0.81196   0.83452   0.85163   0.88233   0.90113
 Alpha virt. eigenvalues --    0.91980   0.94548   1.04368   1.19850   1.39458
 Alpha virt. eigenvalues --    1.43087   1.48269   1.50710   1.55135   1.64220
 Alpha virt. eigenvalues --    1.74502   1.80654   1.87949   1.93941   1.98274
 Alpha virt. eigenvalues --    2.04274   2.10927   2.17907   2.25051   2.28927
 Alpha virt. eigenvalues --    2.31815   2.50756   2.74009   2.79274   2.88888
 Alpha virt. eigenvalues --    3.23568   3.98702   4.08814   4.25512   4.57996
          Condensed to atoms (all electrons):
               1          2          3          4          5          6
     1  C    5.067371   0.369793  -0.052485   0.380651   0.380971   0.366477
     2  C    0.369793   5.084732   0.332253  -0.027661  -0.033945  -0.035718
     3  C   -0.052485   0.332253   4.562667  -0.003952  -0.003506   0.006591
     4  H    0.380651  -0.027661  -0.003952   0.523085  -0.026298  -0.025922
     5  H    0.380971  -0.033945  -0.003506  -0.026298   0.543634  -0.030129
     6  H    0.366477  -0.035718   0.006591  -0.025922  -0.030129   0.568141
     7  H   -0.032311   0.362030  -0.022422   0.003487  -0.005621  -0.000598
     8  H   -0.033767   0.375289  -0.032003  -0.001749   0.004378  -0.004447
     9  N   -0.008221  -0.079887   0.916168   0.001026   0.000306   0.000278
               7          8          9
     1  C   -0.032311  -0.033767  -0.008221
     2  C    0.362030   0.375289  -0.079887
     3  C   -0.022422  -0.032003   0.916168
     4  H    0.003487  -0.001749   0.001026
     5  H   -0.005621   0.004378   0.000306
     6  H   -0.000598  -0.004447   0.000278
     7  H    0.540515  -0.033086   0.001787
     8  H   -0.033086   0.533827  -0.001042
     9  N    0.001787  -0.001042   6.562593
 Mulliken charges:
               1
     1  C   -0.438480
     2  C   -0.346887
     3  C    0.296688
     4  H    0.177332
     5  H    0.170210
     6  H    0.155327
     7  H    0.186219
     8  H    0.192600
     9  N   -0.393008
 Sum of Mulliken charges =  -0.00000
 Mulliken charges with hydrogens summed into heavy atoms:
               1
     1  C    0.064389
     2  C    0.031932
     3  C    0.296688
     9  N   -0.393008
 Electronic spatial extent (au):  <R**2>=            292.0971
 Charge=             -0.0000 electrons
 Dipole moment (field-independent basis, Debye):
    X=              3.3644    Y=              1.4995    Z=              0.0359  Tot=              3.6836
 Quadrupole moment (field-independent basis, Debye-Ang):
   XX=            -29.4421   YY=            -23.4956   ZZ=            -23.4845
   XY=             -1.5740   XZ=             -0.0560   YZ=              0.0707
 Traceless Quadrupole moment (field-independent basis, Debye-Ang):
   XX=             -3.9680   YY=              1.9785   ZZ=              1.9896
   XY=             -1.5740   XZ=             -0.0560   YZ=              0.0707
 Octapole moment (field-independent basis, Debye-Ang**2):
  XXX=             13.7651  YYY=              1.3549  ZZZ=              0.2150  XYY=              2.0780
  XXY=              4.2365  XXZ=              0.1645  XZZ=              0.7972  YZZ=              0.5925
  YYZ=             -0.3559  XYZ=              0.0563
 Hexadecapole moment (field-independent basis, Debye-Ang**3):
 XXXX=           -288.7603 YYYY=            -82.9415 ZZZZ=            -35.5047 XXXY=             -6.2890
 XXXZ=             -1.2523 YYYX=              0.0286 YYYZ=              1.2049 ZZZX=              0.8595
 ZZZY=             -0.6831 XXYY=            -61.1233 XXZZ=            -50.4736 YYZZ=            -17.8831
 XXYZ=             -0.3728 YYXZ=             -0.0565 ZZXY=              0.3171
 N-N= 1.046881404177D+02 E-N=-6.083531349760D+02  KE= 1.705884437297D+02
 1\1\GINC-NODE56\SP\RB3LYP\6-31G(d)\C3H5N1\YANZ\22-Sep-2023\0\\# b3lyp/
 6-31g(d)\\tmpdir/M3_ref_33.gjf\\0,1\C,0,-2.809433,0.099125,0.209283\C,
 0,-2.434475,-1.371426,-0.129325\C,0,-0.992636,-1.496604,0.059811\H,0,-
 2.15089147,0.88446241,-0.24887096\H,0,-2.80456,0.218507,1.30042\H,0,-3
 .845443,0.26372,-0.115704\H,0,-3.014333,-2.063392,0.494468\H,0,-2.6965
 34,-1.593761,-1.173141\N,0,0.0757902,-1.19073535,0.14706377\\Version=E
 S64L-G16RevA.03\State=1-A\HF=-172.0545863\RMSD=2.991e-09\Dipole=-1.443
 2212,-0.0336691,-0.1274558\Quadrupole=-3.1190054,1.6637373,1.4552681,0
 .7336079,-0.23248,0.0471716\PG=C01 [X(C3H5N1)]\\@


 IT PROBABLY IS NOT POSSIBLE FOR A SCIENTIST TO INTERROGATE NATURE 
 FROM A WHOLLY DISINTERESTED VIEWPOINT.
 EVEN IF HE HAS NO PARTICULAR AXE TO GRIND, HE IS LIKELY TO HAVE 
 A DISTINCTIVE WAY OF VIEWING NATURE.

                                                   -- JOHN LOSEE
 Job cpu time:       0 days  0 hours  0 minutes 19.1 seconds.
 Elapsed time:       0 days  0 hours  0 minutes  5.0 seconds.
 File lengths (MBytes):  RWF=      6 Int=      0 D2E=      0 Chk=      1 Scr=      1
 Normal termination of Gaussian 16 at Fri Sep 22 16:59:49 2023.
