 Entering Gaussian System, Link 0=g16
 Initial command:
 /share/apps/gaussian/g16/l1.exe "/tmp/55622.mgr/Gau-172505.inp" -scrdir="/tmp/55622.mgr/"
 Entering Link 1 = /share/apps/gaussian/g16/l1.exe PID=    172506.
  
 Copyright (c) 1988,1990,1992,1993,1995,1998,2003,2009,2016,
            Gaussian, Inc.  All Rights Reserved.
  
 This is part of the Gaussian(R) 16 program.  It is based on
 the Gaussian(R) 09 system (copyright 2009, Gaussian, Inc.),
 the Gaussian(R) 03 system (copyright 2003, Gaussian, Inc.),
 the Gaussian(R) 98 system (copyright 1998, Gaussian, Inc.),
 the Gaussian(R) 94 system (copyright 1995, Gaussian, Inc.),
 the Gaussian 92(TM) system (copyright 1992, Gaussian, Inc.),
 the Gaussian 90(TM) system (copyright 1990, Gaussian, Inc.),
 the Gaussian 88(TM) system (copyright 1988, Gaussian, Inc.),
 the Gaussian 86(TM) system (copyright 1986, Carnegie Mellon
 University), and the Gaussian 82(TM) system (copyright 1983,
 Carnegie Mellon University). Gaussian is a federally registered
 trademark of Gaussian, Inc.
  
 This software contains proprietary and confidential information,
 including trade secrets, belonging to Gaussian, Inc.
  
 This software is provided under written license and may be
 used, copied, transmitted, or stored only in accord with that
 written license.
  
 The following legend is applicable only to US Government
 contracts under FAR:
  
                    RESTRICTED RIGHTS LEGEND
  
 Use, reproduction and disclosure by the US Government is
 subject to restrictions as set forth in subparagraphs (a)
 and (c) of the Commercial Computer Software - Restricted
 Rights clause in FAR 52.227-19.
  
 Gaussian, Inc.
 340 Quinnipiac St., Bldg. 40, Wallingford CT 06492
  
  
 ---------------------------------------------------------------
 Warning -- This program may not be used in any manner that
 competes with the business of Gaussian, Inc. or will provide
 assistance to any competitor of Gaussian, Inc.  The licensee
 of this program is prohibited from giving any competitor of
 Gaussian, Inc. access to this program.  By using this program,
 the user acknowledges that Gaussian, Inc. is engaged in the
 business of creating and licensing software in the field of
 computational chemistry and represents and warrants to the
 licensee that it is not a competitor of Gaussian, Inc. and that
 it will not use this program in any manner prohibited above.
 ---------------------------------------------------------------
  

 Cite this work as:
 Gaussian 16, Revision A.03,
 M. J. Frisch, G. W. Trucks, H. B. Schlegel, G. E. Scuseria, 
 M. A. Robb, J. R. Cheeseman, G. Scalmani, V. Barone, 
 G. A. Petersson, H. Nakatsuji, X. Li, M. Caricato, A. V. Marenich, 
 J. Bloino, B. G. Janesko, R. Gomperts, B. Mennucci, H. P. Hratchian, 
 J. V. Ortiz, A. F. Izmaylov, J. L. Sonnenberg, D. Williams-Young, 
 F. Ding, F. Lipparini, F. Egidi, J. Goings, B. Peng, A. Petrone, 
 T. Henderson, D. Ranasinghe, V. G. Zakrzewski, J. Gao, N. Rega, 
 G. Zheng, W. Liang, M. Hada, M. Ehara, K. Toyota, R. Fukuda, 
 J. Hasegawa, M. Ishida, T. Nakajima, Y. Honda, O. Kitao, H. Nakai, 
 T. Vreven, K. Throssell, J. A. Montgomery, Jr., J. E. Peralta, 
 F. Ogliaro, M. J. Bearpark, J. J. Heyd, E. N. Brothers, K. N. Kudin, 
 V. N. Staroverov, T. A. Keith, R. Kobayashi, J. Normand, 
 K. Raghavachari, A. P. Rendell, J. C. Burant, S. S. Iyengar, 
 J. Tomasi, M. Cossi, J. M. Millam, M. Klene, C. Adamo, R. Cammi, 
 J. W. Ochterski, R. L. Martin, K. Morokuma, O. Farkas, 
 J. B. Foresman, and D. J. Fox, Gaussian, Inc., Wallingford CT, 2016.
 
 ******************************************
 Gaussian 16:  ES64L-G16RevA.03 25-Dec-2016
                22-Sep-2023 
 ******************************************
 %nprocshared=4
 Will use up to    4 processors via shared memory.
 %mem=4GB
 ----------------
 # b3lyp/6-31g(d)
 ----------------
 1/38=1,172=1/1;
 2/12=2,17=6,18=5,40=1/2;
 3/5=1,6=6,7=1,11=2,25=1,30=1,74=-5/1,2,3;
 4//1;
 5/5=2,38=5/2;
 6/7=2,8=2,9=2,10=2,28=1/1;
 99/5=1,9=1/99;
 --------------------
 tmpdir/M3_ref_30.gjf
 --------------------
 Symbolic Z-matrix:
 Charge =  0 Multiplicity = 1
 C                    -2.43448  -1.37143  -0.12933 
 C                    -0.99264  -1.4966    0.05981 
 H                    -2.7059   -0.30691   0.11579 
 H                    -3.01433  -2.06339   0.49447 
 H                    -2.69653  -1.59376  -1.17314 
 N                     0.07579  -1.19074   0.14706 
 
                          Input orientation:                          
 ---------------------------------------------------------------------
 Center     Atomic      Atomic             Coordinates (Angstroms)
 Number     Number       Type             X           Y           Z
 ---------------------------------------------------------------------
      1          6           0       -2.434475   -1.371426   -0.129325
      2          6           0       -0.992636   -1.496604    0.059811
      3          1           0       -2.705902   -0.306915    0.115789
      4          1           0       -3.014333   -2.063392    0.494468
      5          1           0       -2.696534   -1.593761   -1.173141
      6          7           0        0.075790   -1.190735    0.147064
 ---------------------------------------------------------------------
                    Distance matrix (angstroms):
                    1          2          3          4          5
     1  C    0.000000
     2  C    1.459569   0.000000
     3  H    1.125583   2.086570   0.000000
     4  H    1.097347   2.144163   1.823113   0.000000
     5  H    1.098936   2.105440   1.821373   1.761383   0.000000
     6  N    2.531891   1.114766   2.918892   3.229718   3.096958
                    6
     6  N    0.000000
 Stoichiometry    C2H3N
 Framework group  C1[X(C2H3N)]
 Deg. of freedom    12
 Full point group                 C1      NOp   1
 Largest Abelian subgroup         C1      NOp   1
 Largest concise Abelian subgroup C1      NOp   1
                         Standard orientation:                         
 ---------------------------------------------------------------------
 Center     Atomic      Atomic             Coordinates (Angstroms)
 Number     Number       Type             X           Y           Z
 ---------------------------------------------------------------------
      1          6           0        1.148775    0.034468    0.003731
      2          6           0       -0.295826   -0.171343   -0.029599
      3          1           0        1.330597    1.120070   -0.231529
      4          1           0        1.693039   -0.602889   -0.704593
      5          1           0        1.538388   -0.202270    1.003639
      6          7           0       -1.382817    0.072334    0.012527
 ---------------------------------------------------------------------
 Rotational constants (GHZ):         136.9271533           9.7560961           9.6570287
 Standard basis: 6-31G(d) (6D, 7F)
 There are    51 symmetry adapted cartesian basis functions of A   symmetry.
 There are    51 symmetry adapted basis functions of A   symmetry.
    51 basis functions,    96 primitive gaussians,    51 cartesian basis functions
    11 alpha electrons       11 beta electrons
       nuclear repulsion energy        59.3747974507 Hartrees.
 NAtoms=    6 NActive=    6 NUniq=    6 SFac= 1.00D+00 NAtFMM=   60 NAOKFM=F Big=F
 Integral buffers will be    131072 words long.
 Raffenetti 2 integral format.
 Two-electron integral symmetry is turned on.
 One-electron integrals computed using PRISM.
 NBasis=    51 RedAO= T EigKep=  2.12D-03  NBF=    51
 NBsUse=    51 1.00D-06 EigRej= -1.00D+00 NBFU=    51
 ExpMin= 1.61D-01 ExpMax= 4.17D+03 ExpMxC= 6.27D+02 IAcc=3 IRadAn=         5 AccDes= 0.00D+00
 Harris functional with IExCor=  402 and IRadAn=       5 diagonalized for initial guess.
 HarFok:  IExCor=  402 AccDes= 0.00D+00 IRadAn=         5 IDoV= 1 UseB2=F ITyADJ=14
 ICtDFT=  3500011 ScaDFX=  1.000000  1.000000  1.000000  1.000000
 FoFCou: FMM=F IPFlag=           0 FMFlag=      100000 FMFlg1=           0
         NFxFlg=           0 DoJE=T BraDBF=F KetDBF=T FulRan=T
         wScrn=  0.000000 ICntrl=       500 IOpCl=  0 I1Cent=   200000004 NGrid=           0
         NMat0=    1 NMatS0=      1 NMatT0=    0 NMatD0=    1 NMtDS0=    0 NMtDT0=    0
 Petite list used in FoFCou.
 Keep R1 ints in memory in canonical form, NReq=4366138.
 Requested convergence on RMS density matrix=1.00D-08 within 128 cycles.
 Requested convergence on MAX density matrix=1.00D-06.
 Requested convergence on             energy=1.00D-06.
 No special actions if energy rises.
 Integral accuracy reduced to 1.0D-05 until final iterations.
 Initial convergence to 1.0D-05 achieved.  Increase integral accuracy.
 SCF Done:  E(RB3LYP) =  -132.742527540     A.U. after   13 cycles
            NFock= 13  Conv=0.36D-08     -V/T= 2.0081

 **********************************************************************

            Population analysis using the SCF density.

 **********************************************************************

 Orbital symmetries:
       Occupied  (A) (A) (A) (A) (A) (A) (A) (A) (A) (A) (A)
       Virtual   (A) (A) (A) (A) (A) (A) (A) (A) (A) (A) (A) (A)
                 (A) (A) (A) (A) (A) (A) (A) (A) (A) (A) (A) (A)
                 (A) (A) (A) (A) (A) (A) (A) (A) (A) (A) (A) (A)
                 (A) (A) (A) (A)
 The electronic state is 1-A.
 Alpha  occ. eigenvalues --  -14.32325 -10.24087 -10.21990  -0.92085  -0.77033
 Alpha  occ. eigenvalues --   -0.50922  -0.46295  -0.45956  -0.35781  -0.33580
 Alpha  occ. eigenvalues --   -0.33313
 Alpha virt. eigenvalues --    0.02523   0.05083   0.09264   0.14263   0.16234
 Alpha virt. eigenvalues --    0.23056   0.30049   0.52458   0.53326   0.56926
 Alpha virt. eigenvalues --    0.61982   0.62315   0.68983   0.76077   0.80545
 Alpha virt. eigenvalues --    0.82254   0.84582   0.85895   0.88687   1.03520
 Alpha virt. eigenvalues --    1.35120   1.41024   1.42125   1.50750   1.52041
 Alpha virt. eigenvalues --    1.63584   1.85751   1.89144   1.98581   2.06187
 Alpha virt. eigenvalues --    2.17585   2.20340   2.26320   2.71320   2.77212
 Alpha virt. eigenvalues --    2.83952   3.21494   3.94667   4.07384   4.50668
          Condensed to atoms (all electrons):
               1          2          3          4          5          6
     1  C    5.154278   0.339613   0.380944   0.357823   0.368570  -0.076787
     2  C    0.339613   4.527305  -0.035351  -0.019222  -0.027355   0.922495
     3  H    0.380944  -0.035351   0.497360  -0.023973  -0.022742  -0.005096
     4  H    0.357823  -0.019222  -0.023973   0.514462  -0.028397   0.001762
     5  H    0.368570  -0.027355  -0.022742  -0.028397   0.506291  -0.000687
     6  N   -0.076787   0.922495  -0.005096   0.001762  -0.000687   6.537104
 Mulliken charges:
               1
     1  C   -0.524442
     2  C    0.292514
     3  H    0.208857
     4  H    0.197544
     5  H    0.204319
     6  N   -0.378793
 Sum of Mulliken charges =  -0.00000
 Mulliken charges with hydrogens summed into heavy atoms:
               1
     1  C    0.086279
     2  C    0.292514
     6  N   -0.378793
 Electronic spatial extent (au):  <R**2>=            155.8222
 Charge=             -0.0000 electrons
 Dipole moment (field-independent basis, Debye):
    X=              3.6146    Y=             -0.1096    Z=             -0.0014  Tot=              3.6163
 Quadrupole moment (field-independent basis, Debye-Ang):
   XX=            -20.3184   YY=            -17.0309   ZZ=            -17.2154
   XY=              0.2326   XZ=              0.0801   YZ=             -0.0588
 Traceless Quadrupole moment (field-independent basis, Debye-Ang):
   XX=             -2.1302   YY=              1.1573   ZZ=              0.9728
   XY=              0.2326   XZ=              0.0801   YZ=             -0.0588
 Octapole moment (field-independent basis, Debye-Ang**2):
  XXX=              9.9378  YYY=              1.1679  ZZZ=              0.6415  XYY=              1.3140
  XXY=             -0.8025  XXZ=             -0.0935  XZZ=              1.2796  YZZ=             -0.3898
  YYZ=             -0.4492  XYZ=              0.0181
 Hexadecapole moment (field-independent basis, Debye-Ang**3):
 XXXX=           -167.2317 YYYY=            -23.1175 ZZZZ=            -22.2255 XXXY=             -0.0472
 XXXZ=              0.0266 YYYX=              1.0719 YYYZ=             -0.2600 ZZZX=              0.9233
 ZZZY=             -0.0602 XXYY=            -28.8041 XXZZ=            -28.1448 YYZZ=             -7.8026
 XXYZ=              0.2066 YYXZ=             -0.7337 ZZXY=             -0.8479
 N-N= 5.937479745073D+01 E-N=-4.270912643508D+02  KE= 1.316802005263D+02
 1\1\GINC-NODE56\SP\RB3LYP\6-31G(d)\C2H3N1\YANZ\22-Sep-2023\0\\# b3lyp/
 6-31g(d)\\tmpdir/M3_ref_30.gjf\\0,1\C,0,-2.434475,-1.371426,-0.129325\
 C,0,-0.992636,-1.496604,0.059811\H,0,-2.70590185,-0.30691472,0.1157885
 9\H,0,-3.014333,-2.063392,0.494468\H,0,-2.696534,-1.593761,-1.173141\N
 ,0,0.0757902,-1.19073535,0.14706377\\Version=ES64L-G16RevA.03\State=1-
 A\HF=-132.7425275\RMSD=3.554e-09\Dipole=-1.408327,-0.1231343,-0.160261
 8\Quadrupole=-1.5387599,0.8297131,0.7090468,-0.3149282,-0.2056696,0.01
 61562\PG=C01 [X(C2H3N1)]\\@


 MICHAEL FARADAY, ASKED BY A POLITICIAN WHAT GOOD
 HIS ELECTRICAL DISCOVERIES WERE, REPLIED 
 "AT PRESENT I DO NOT KNOW, BUT ONE DAY YOU WILL BE
 ABLE TO TAX THEM."
 Job cpu time:       0 days  0 hours  0 minutes 10.1 seconds.
 Elapsed time:       0 days  0 hours  0 minutes  2.7 seconds.
 File lengths (MBytes):  RWF=      6 Int=      0 D2E=      0 Chk=      1 Scr=      1
 Normal termination of Gaussian 16 at Fri Sep 22 16:59:46 2023.
