 Entering Gaussian System, Link 0=g16
 Initial command:
 /share/apps/gaussian/g16/l1.exe "/tmp/55622.mgr/Gau-173376.inp" -scrdir="/tmp/55622.mgr/"
 Entering Link 1 = /share/apps/gaussian/g16/l1.exe PID=    173378.
  
 Copyright (c) 1988,1990,1992,1993,1995,1998,2003,2009,2016,
            Gaussian, Inc.  All Rights Reserved.
  
 This is part of the Gaussian(R) 16 program.  It is based on
 the Gaussian(R) 09 system (copyright 2009, Gaussian, Inc.),
 the Gaussian(R) 03 system (copyright 2003, Gaussian, Inc.),
 the Gaussian(R) 98 system (copyright 1998, Gaussian, Inc.),
 the Gaussian(R) 94 system (copyright 1995, Gaussian, Inc.),
 the Gaussian 92(TM) system (copyright 1992, Gaussian, Inc.),
 the Gaussian 90(TM) system (copyright 1990, Gaussian, Inc.),
 the Gaussian 88(TM) system (copyright 1988, Gaussian, Inc.),
 the Gaussian 86(TM) system (copyright 1986, Carnegie Mellon
 University), and the Gaussian 82(TM) system (copyright 1983,
 Carnegie Mellon University). Gaussian is a federally registered
 trademark of Gaussian, Inc.
  
 This software contains proprietary and confidential information,
 including trade secrets, belonging to Gaussian, Inc.
  
 This software is provided under written license and may be
 used, copied, transmitted, or stored only in accord with that
 written license.
  
 The following legend is applicable only to US Government
 contracts under FAR:
  
                    RESTRICTED RIGHTS LEGEND
  
 Use, reproduction and disclosure by the US Government is
 subject to restrictions as set forth in subparagraphs (a)
 and (c) of the Commercial Computer Software - Restricted
 Rights clause in FAR 52.227-19.
  
 Gaussian, Inc.
 340 Quinnipiac St., Bldg. 40, Wallingford CT 06492
  
  
 ---------------------------------------------------------------
 Warning -- This program may not be used in any manner that
 competes with the business of Gaussian, Inc. or will provide
 assistance to any competitor of Gaussian, Inc.  The licensee
 of this program is prohibited from giving any competitor of
 Gaussian, Inc. access to this program.  By using this program,
 the user acknowledges that Gaussian, Inc. is engaged in the
 business of creating and licensing software in the field of
 computational chemistry and represents and warrants to the
 licensee that it is not a competitor of Gaussian, Inc. and that
 it will not use this program in any manner prohibited above.
 ---------------------------------------------------------------
  

 Cite this work as:
 Gaussian 16, Revision A.03,
 M. J. Frisch, G. W. Trucks, H. B. Schlegel, G. E. Scuseria, 
 M. A. Robb, J. R. Cheeseman, G. Scalmani, V. Barone, 
 G. A. Petersson, H. Nakatsuji, X. Li, M. Caricato, A. V. Marenich, 
 J. Bloino, B. G. Janesko, R. Gomperts, B. Mennucci, H. P. Hratchian, 
 J. V. Ortiz, A. F. Izmaylov, J. L. Sonnenberg, D. Williams-Young, 
 F. Ding, F. Lipparini, F. Egidi, J. Goings, B. Peng, A. Petrone, 
 T. Henderson, D. Ranasinghe, V. G. Zakrzewski, J. Gao, N. Rega, 
 G. Zheng, W. Liang, M. Hada, M. Ehara, K. Toyota, R. Fukuda, 
 J. Hasegawa, M. Ishida, T. Nakajima, Y. Honda, O. Kitao, H. Nakai, 
 T. Vreven, K. Throssell, J. A. Montgomery, Jr., J. E. Peralta, 
 F. Ogliaro, M. J. Bearpark, J. J. Heyd, E. N. Brothers, K. N. Kudin, 
 V. N. Staroverov, T. A. Keith, R. Kobayashi, J. Normand, 
 K. Raghavachari, A. P. Rendell, J. C. Burant, S. S. Iyengar, 
 J. Tomasi, M. Cossi, J. M. Millam, M. Klene, C. Adamo, R. Cammi, 
 J. W. Ochterski, R. L. Martin, K. Morokuma, O. Farkas, 
 J. B. Foresman, and D. J. Fox, Gaussian, Inc., Wallingford CT, 2016.
 
 ******************************************
 Gaussian 16:  ES64L-G16RevA.03 25-Dec-2016
                22-Sep-2023 
 ******************************************
 %nprocshared=4
 Will use up to    4 processors via shared memory.
 %mem=4GB
 ----------------
 # b3lyp/6-31g(d)
 ----------------
 1/38=1,172=1/1;
 2/12=2,17=6,18=5,40=1/2;
 3/5=1,6=6,7=1,11=2,25=1,30=1,74=-5/1,2,3;
 4//1;
 5/5=2,38=5/2;
 6/7=2,8=2,9=2,10=2,28=1/1;
 99/5=1,9=1/99;
 --------------------
 tmpdir/M3_ref_57.gjf
 --------------------
 Symbolic Z-matrix:
 Charge =  0 Multiplicity = 1
 C                    -2.43448  -1.37143  -0.12933 
 C                    -0.99264  -1.4966    0.05981 
 C                     0.16749  -1.16448   0.15455 
 H                    -2.7059   -0.30691   0.11579 
 H                    -3.01433  -2.06339   0.49447 
 H                    -2.69653  -1.59376  -1.17314 
 H                     0.97086  -0.48535   0.27517 
 
                          Input orientation:                          
 ---------------------------------------------------------------------
 Center     Atomic      Atomic             Coordinates (Angstroms)
 Number     Number       Type             X           Y           Z
 ---------------------------------------------------------------------
      1          6           0       -2.434475   -1.371426   -0.129325
      2          6           0       -0.992636   -1.496604    0.059811
      3          6           0        0.167485   -1.164485    0.154552
      4          1           0       -2.705902   -0.306915    0.115789
      5          1           0       -3.014333   -2.063392    0.494468
      6          1           0       -2.696534   -1.593761   -1.173141
      7          1           0        0.970859   -0.485348    0.275169
 ---------------------------------------------------------------------
                    Distance matrix (angstroms):
                    1          2          3          4          5
     1  C    0.000000
     2  C    1.459569   0.000000
     3  C    2.625568   1.210438   0.000000
     4  H    1.125583   2.086570   2.998880   0.000000
     5  H    1.097347   2.144163   3.323784   1.823113   0.000000
     6  H    1.098936   2.105440   3.185852   1.821373   1.761383
     7  H    3.541899   2.219084   1.058861   3.684537   4.291861
                    6          7
     6  H    0.000000
     7  H    4.095846   0.000000
 Stoichiometry    C3H4
 Framework group  C1[X(C3H4)]
 Deg. of freedom    15
 Full point group                 C1      NOp   1
 Largest Abelian subgroup         C1      NOp   1
 Largest concise Abelian subgroup C1      NOp   1
                         Standard orientation:                         
 ---------------------------------------------------------------------
 Center     Atomic      Atomic             Coordinates (Angstroms)
 Number     Number       Type             X           Y           Z
 ---------------------------------------------------------------------
      1          6           0        1.215194    0.066951    0.003900
      2          6           0       -0.215636   -0.219399   -0.028798
      3          6           0       -1.408893   -0.020662    0.013639
      4          1           0        1.336500    1.158901   -0.240780
      5          1           0        1.795083   -0.545239   -0.698327
      6          1           0        1.616092   -0.138916    1.006177
      7          1           0       -2.291666    0.563910    0.000486
 ---------------------------------------------------------------------
 Rotational constants (GHZ):         121.1690686           8.9418532           8.7850663
 Standard basis: 6-31G(d) (6D, 7F)
 There are    53 symmetry adapted cartesian basis functions of A   symmetry.
 There are    53 symmetry adapted basis functions of A   symmetry.
    53 basis functions,   100 primitive gaussians,    53 cartesian basis functions
    11 alpha electrons       11 beta electrons
       nuclear repulsion energy        58.7738803514 Hartrees.
 NAtoms=    7 NActive=    7 NUniq=    7 SFac= 1.00D+00 NAtFMM=   60 NAOKFM=F Big=F
 Integral buffers will be    131072 words long.
 Raffenetti 2 integral format.
 Two-electron integral symmetry is turned on.
 One-electron integrals computed using PRISM.
 NBasis=    53 RedAO= T EigKep=  1.25D-03  NBF=    53
 NBsUse=    53 1.00D-06 EigRej= -1.00D+00 NBFU=    53
 ExpMin= 1.61D-01 ExpMax= 3.05D+03 ExpMxC= 4.57D+02 IAcc=3 IRadAn=         5 AccDes= 0.00D+00
 Harris functional with IExCor=  402 and IRadAn=       5 diagonalized for initial guess.
 HarFok:  IExCor=  402 AccDes= 0.00D+00 IRadAn=         5 IDoV= 1 UseB2=F ITyADJ=14
 ICtDFT=  3500011 ScaDFX=  1.000000  1.000000  1.000000  1.000000
 FoFCou: FMM=F IPFlag=           0 FMFlag=      100000 FMFlg1=           0
         NFxFlg=           0 DoJE=T BraDBF=F KetDBF=T FulRan=T
         wScrn=  0.000000 ICntrl=       500 IOpCl=  0 I1Cent=   200000004 NGrid=           0
         NMat0=    1 NMatS0=      1 NMatT0=    0 NMatD0=    1 NMtDS0=    0 NMtDT0=    0
 Petite list used in FoFCou.
 Keep R1 ints in memory in canonical form, NReq=4527186.
 Requested convergence on RMS density matrix=1.00D-08 within 128 cycles.
 Requested convergence on MAX density matrix=1.00D-06.
 Requested convergence on             energy=1.00D-06.
 No special actions if energy rises.
 Integral accuracy reduced to 1.0D-05 until final iterations.
 Initial convergence to 1.0D-05 achieved.  Increase integral accuracy.
 SCF Done:  E(RB3LYP) =  -116.637899903     A.U. after   12 cycles
            NFock= 12  Conv=0.53D-08     -V/T= 2.0103

 **********************************************************************

            Population analysis using the SCF density.

 **********************************************************************

 Orbital symmetries:
       Occupied  (A) (A) (A) (A) (A) (A) (A) (A) (A) (A) (A)
       Virtual   (A) (A) (A) (A) (A) (A) (A) (A) (A) (A) (A) (A)
                 (A) (A) (A) (A) (A) (A) (A) (A) (A) (A) (A) (A)
                 (A) (A) (A) (A) (A) (A) (A) (A) (A) (A) (A) (A)
                 (A) (A) (A) (A) (A) (A)
 The electronic state is 1-A.
 Alpha  occ. eigenvalues --  -10.21101 -10.18470 -10.16989  -0.77578  -0.69180
 Alpha  occ. eigenvalues --   -0.51936  -0.44441  -0.43077  -0.42751  -0.25909
 Alpha  occ. eigenvalues --   -0.25748
 Alpha virt. eigenvalues --    0.01584   0.06201   0.11256   0.14678   0.17696
 Alpha virt. eigenvalues --    0.18495   0.25575   0.42727   0.45426   0.52662
 Alpha virt. eigenvalues --    0.54254   0.62003   0.63052   0.64935   0.71139
 Alpha virt. eigenvalues --    0.78069   0.80486   0.85304   0.87116   0.88007
 Alpha virt. eigenvalues --    0.93742   1.09529   1.24105   1.38662   1.42802
 Alpha virt. eigenvalues --    1.53749   1.56248   1.63157   1.83949   1.88481
 Alpha virt. eigenvalues --    1.96662   2.03478   2.12646   2.20588   2.26377
 Alpha virt. eigenvalues --    2.53114   2.68613   2.78746   3.28147   4.09533
 Alpha virt. eigenvalues --    4.20681   4.55551
          Condensed to atoms (all electrons):
               1          2          3          4          5          6
     1  C    5.152355   0.399806  -0.108364   0.379931   0.353607   0.360811
     2  C    0.399806   4.661948   0.884167  -0.035539  -0.026025  -0.029138
     3  C   -0.108364   0.884167   5.215988  -0.010308   0.004053   0.001093
     4  H    0.379931  -0.035539  -0.010308   0.536596  -0.028448  -0.026614
     5  H    0.353607  -0.026025   0.004053  -0.028448   0.554284  -0.032970
     6  H    0.360811  -0.029138   0.001093  -0.026614  -0.032970   0.545098
     7  H    0.002647  -0.010821   0.356499  -0.000151  -0.000020  -0.000002
               7
     1  C    0.002647
     2  C   -0.010821
     3  C    0.356499
     4  H   -0.000151
     5  H   -0.000020
     6  H   -0.000002
     7  H    0.465301
 Mulliken charges:
               1
     1  C   -0.540793
     2  C    0.155601
     3  C   -0.343127
     4  H    0.184532
     5  H    0.175519
     6  H    0.181722
     7  H    0.186546
 Sum of Mulliken charges =   0.00000
 Mulliken charges with hydrogens summed into heavy atoms:
               1
     1  C    0.000980
     2  C    0.155601
     3  C   -0.156581
 Electronic spatial extent (au):  <R**2>=            174.1539
 Charge=              0.0000 electrons
 Dipole moment (field-independent basis, Debye):
    X=              0.8732    Y=              0.7888    Z=              0.0217  Tot=              1.1769
 Quadrupole moment (field-independent basis, Debye-Ang):
   XX=            -15.1316   YY=            -18.4939   ZZ=            -19.1466
   XY=             -1.6981   XZ=              0.0518   YZ=             -0.0597
 Traceless Quadrupole moment (field-independent basis, Debye-Ang):
   XX=              2.4591   YY=             -0.9032   ZZ=             -1.5559
   XY=             -1.6981   XZ=              0.0518   YZ=             -0.0597
 Octapole moment (field-independent basis, Debye-Ang**2):
  XXX=             -4.9715  YYY=              2.2610  ZZZ=              0.5564  XYY=              1.3630
  XXY=              3.5793  XXZ=             -0.0706  XZZ=              2.4073  YZZ=              0.0296
  YYZ=             -0.4016  XYZ=              0.0031
 Hexadecapole moment (field-independent basis, Debye-Ang**3):
 XXXX=           -163.5256 YYYY=            -28.3477 ZZZZ=            -26.0170 XXXY=            -11.1630
 XXXZ=              0.0093 YYYX=             -1.1848 YYYZ=             -0.3089 ZZZX=              0.8925
 ZZZY=             -0.0347 XXYY=            -33.6248 XXZZ=            -34.8491 YYZZ=             -9.3712
 XXYZ=              0.2576 YYXZ=             -0.6181 ZZXY=             -1.2016
 N-N= 5.877388035135D+01 E-N=-3.872392158145D+02  KE= 1.154526678568D+02
 1\1\GINC-NODE56\SP\RB3LYP\6-31G(d)\C3H4\YANZ\22-Sep-2023\0\\# b3lyp/6-
 31g(d)\\tmpdir/M3_ref_57.gjf\\0,1\C,0,-2.434475,-1.371426,-0.129325\C,
 0,-0.992636,-1.496604,0.059811\C,0,0.167485,-1.164485,0.154552\H,0,-2.
 70590185,-0.30691472,0.11578859\H,0,-3.014333,-2.063392,0.494468\H,0,-
 2.696534,-1.593761,-1.173141\H,0,0.97085947,-0.48534818,0.27516878\\Ve
 rsion=ES64L-G16RevA.03\State=1-A\HF=-116.6378999\RMSD=5.340e-09\Dipole
 =-0.3737016,0.2700699,-0.0426267\Quadrupole=1.4674851,-0.3624144,-1.10
 50707,1.4906768,0.3641902,0.235336\PG=C01 [X(C3H4)]\\@


 OUR LITTLE SYSTEMS HAVE THEIR DAY,    
   THEY HAVE THEIR DAY AND CEASE TO BE.
   THEY ARE BUT BROKEN LIGHTS OF THEE, 
 AND THOU, OH LORD, ART MORE THAN THEY.
          -------------------          
 LET KNOWLEDGE GROW FROM MORE TO MORE, 
   BUT MORE OF REVERENCE IN US DWELL.  
   THAT MIND AND SOUL, ACCORDING WELL, 
 MAY MAKE ONE MUSIC AS BEFORE.....     
          -------------------          
                    LORD TENNYSON      
 Job cpu time:       0 days  0 hours  0 minutes 10.9 seconds.
 Elapsed time:       0 days  0 hours  0 minutes  2.9 seconds.
 File lengths (MBytes):  RWF=      6 Int=      0 D2E=      0 Chk=      1 Scr=      1
 Normal termination of Gaussian 16 at Fri Sep 22 16:59:58 2023.
