 Entering Gaussian System, Link 0=g16
 Initial command:
 /share/apps/gaussian/g16/l1.exe "/tmp/55622.mgr/Gau-173625.inp" -scrdir="/tmp/55622.mgr/"
 Entering Link 1 = /share/apps/gaussian/g16/l1.exe PID=    173626.
  
 Copyright (c) 1988,1990,1992,1993,1995,1998,2003,2009,2016,
            Gaussian, Inc.  All Rights Reserved.
  
 This is part of the Gaussian(R) 16 program.  It is based on
 the Gaussian(R) 09 system (copyright 2009, Gaussian, Inc.),
 the Gaussian(R) 03 system (copyright 2003, Gaussian, Inc.),
 the Gaussian(R) 98 system (copyright 1998, Gaussian, Inc.),
 the Gaussian(R) 94 system (copyright 1995, Gaussian, Inc.),
 the Gaussian 92(TM) system (copyright 1992, Gaussian, Inc.),
 the Gaussian 90(TM) system (copyright 1990, Gaussian, Inc.),
 the Gaussian 88(TM) system (copyright 1988, Gaussian, Inc.),
 the Gaussian 86(TM) system (copyright 1986, Carnegie Mellon
 University), and the Gaussian 82(TM) system (copyright 1983,
 Carnegie Mellon University). Gaussian is a federally registered
 trademark of Gaussian, Inc.
  
 This software contains proprietary and confidential information,
 including trade secrets, belonging to Gaussian, Inc.
  
 This software is provided under written license and may be
 used, copied, transmitted, or stored only in accord with that
 written license.
  
 The following legend is applicable only to US Government
 contracts under FAR:
  
                    RESTRICTED RIGHTS LEGEND
  
 Use, reproduction and disclosure by the US Government is
 subject to restrictions as set forth in subparagraphs (a)
 and (c) of the Commercial Computer Software - Restricted
 Rights clause in FAR 52.227-19.
  
 Gaussian, Inc.
 340 Quinnipiac St., Bldg. 40, Wallingford CT 06492
  
  
 ---------------------------------------------------------------
 Warning -- This program may not be used in any manner that
 competes with the business of Gaussian, Inc. or will provide
 assistance to any competitor of Gaussian, Inc.  The licensee
 of this program is prohibited from giving any competitor of
 Gaussian, Inc. access to this program.  By using this program,
 the user acknowledges that Gaussian, Inc. is engaged in the
 business of creating and licensing software in the field of
 computational chemistry and represents and warrants to the
 licensee that it is not a competitor of Gaussian, Inc. and that
 it will not use this program in any manner prohibited above.
 ---------------------------------------------------------------
  

 Cite this work as:
 Gaussian 16, Revision A.03,
 M. J. Frisch, G. W. Trucks, H. B. Schlegel, G. E. Scuseria, 
 M. A. Robb, J. R. Cheeseman, G. Scalmani, V. Barone, 
 G. A. Petersson, H. Nakatsuji, X. Li, M. Caricato, A. V. Marenich, 
 J. Bloino, B. G. Janesko, R. Gomperts, B. Mennucci, H. P. Hratchian, 
 J. V. Ortiz, A. F. Izmaylov, J. L. Sonnenberg, D. Williams-Young, 
 F. Ding, F. Lipparini, F. Egidi, J. Goings, B. Peng, A. Petrone, 
 T. Henderson, D. Ranasinghe, V. G. Zakrzewski, J. Gao, N. Rega, 
 G. Zheng, W. Liang, M. Hada, M. Ehara, K. Toyota, R. Fukuda, 
 J. Hasegawa, M. Ishida, T. Nakajima, Y. Honda, O. Kitao, H. Nakai, 
 T. Vreven, K. Throssell, J. A. Montgomery, Jr., J. E. Peralta, 
 F. Ogliaro, M. J. Bearpark, J. J. Heyd, E. N. Brothers, K. N. Kudin, 
 V. N. Staroverov, T. A. Keith, R. Kobayashi, J. Normand, 
 K. Raghavachari, A. P. Rendell, J. C. Burant, S. S. Iyengar, 
 J. Tomasi, M. Cossi, J. M. Millam, M. Klene, C. Adamo, R. Cammi, 
 J. W. Ochterski, R. L. Martin, K. Morokuma, O. Farkas, 
 J. B. Foresman, and D. J. Fox, Gaussian, Inc., Wallingford CT, 2016.
 
 ******************************************
 Gaussian 16:  ES64L-G16RevA.03 25-Dec-2016
                22-Sep-2023 
 ******************************************
 %nprocshared=4
 Will use up to    4 processors via shared memory.
 %mem=4GB
 ----------------
 # b3lyp/6-31g(d)
 ----------------
 1/38=1,172=1/1;
 2/12=2,17=6,18=5,40=1/2;
 3/5=1,6=6,7=1,11=2,25=1,30=1,74=-5/1,2,3;
 4//1;
 5/5=2,38=5/2;
 6/7=2,8=2,9=2,10=2,28=1/1;
 99/5=1,9=1/99;
 --------------------
 tmpdir/M3_ref_51.gjf
 --------------------
 Symbolic Z-matrix:
 Charge =  0 Multiplicity = 1
 C                     0.76846   1.14678  -0.20198 
 C                     1.27729  -0.2263    0.32118 
 O                     2.43497  -0.67561  -0.37599 
 H                    -0.22684   1.48298   0.19466 
 H                     1.52179   1.90552   0.04701 
 H                     0.73576   1.07979  -1.29627 
 H                     1.51941  -0.13441   1.39535 
 H                     0.47392  -0.90544   0.20056 
 H                     3.25894  -0.24412  -0.0975 
 
                          Input orientation:                          
 ---------------------------------------------------------------------
 Center     Atomic      Atomic             Coordinates (Angstroms)
 Number     Number       Type             X           Y           Z
 ---------------------------------------------------------------------
      1          6           0        0.768456    1.146780   -0.201981
      2          6           0        1.277293   -0.226303    0.321176
      3          8           0        2.434966   -0.675605   -0.375986
      4          1           0       -0.226842    1.482977    0.194656
      5          1           0        1.521792    1.905516    0.047011
      6          1           0        0.735760    1.079786   -1.296274
      7          1           0        1.519410   -0.134405    1.395353
      8          1           0        0.473919   -0.905440    0.200559
      9          1           0        3.258943   -0.244122   -0.097503
 ---------------------------------------------------------------------
                    Distance matrix (angstroms):
                    1          2          3          4          5
     1  C    0.000000
     2  C    1.554981   0.000000
     3  O    2.475605   1.424119   0.000000
     4  H    1.122929   2.280366   3.474239   0.000000
     5  H    1.097813   2.163238   2.770379   1.805010   0.000000
     6  H    1.096829   2.148318   2.610676   1.819901   1.761843
     7  H    2.181019   1.104953   2.066103   2.665895   2.445263
     8  H    2.111965   1.058861   2.056924   2.489104   3.003846
     9  H    2.854479   2.025474   0.970911   3.901145   2.767584
                    6          7          8          9
     6  H    0.000000
     7  H    3.055032   0.000000
     8  H    2.500038   1.764959   0.000000
     9  H    3.091317   2.294914   2.877941   0.000000
 Stoichiometry    C2H6O
 Framework group  C1[X(C2H6O)]
 Deg. of freedom    21
 Full point group                 C1      NOp   1
 Largest Abelian subgroup         C1      NOp   1
 Largest concise Abelian subgroup C1      NOp   1
                         Standard orientation:                         
 ---------------------------------------------------------------------
 Center     Atomic      Atomic             Coordinates (Angstroms)
 Number     Number       Type             X           Y           Z
 ---------------------------------------------------------------------
      1          6           0        1.238763   -0.244353   -0.007873
      2          6           0       -0.087837    0.566027    0.029291
      3          8           0       -1.233951   -0.264946   -0.125697
      4          1           0        2.182148    0.363338   -0.049150
      5          1           0        1.270630   -0.884866    0.883149
      6          1           0        1.181355   -0.911968   -0.876222
      7          1           0       -0.158181    1.096305    0.996130
      8          1           0       -0.023956    1.274955   -0.754626
      9          1           0       -1.485941   -0.748240    0.677793
 ---------------------------------------------------------------------
 Rotational constants (GHZ):          34.4421298           8.9302456           7.9389286
 Standard basis: 6-31G(d) (6D, 7F)
 There are    57 symmetry adapted cartesian basis functions of A   symmetry.
 There are    57 symmetry adapted basis functions of A   symmetry.
    57 basis functions,   108 primitive gaussians,    57 cartesian basis functions
    13 alpha electrons       13 beta electrons
       nuclear repulsion energy        80.9317048147 Hartrees.
 NAtoms=    9 NActive=    9 NUniq=    9 SFac= 1.00D+00 NAtFMM=   60 NAOKFM=F Big=F
 Integral buffers will be    131072 words long.
 Raffenetti 2 integral format.
 Two-electron integral symmetry is turned on.
 One-electron integrals computed using PRISM.
 NBasis=    57 RedAO= T EigKep=  6.43D-03  NBF=    57
 NBsUse=    57 1.00D-06 EigRej= -1.00D+00 NBFU=    57
 ExpMin= 1.61D-01 ExpMax= 5.48D+03 ExpMxC= 8.25D+02 IAcc=3 IRadAn=         5 AccDes= 0.00D+00
 Harris functional with IExCor=  402 and IRadAn=       5 diagonalized for initial guess.
 HarFok:  IExCor=  402 AccDes= 0.00D+00 IRadAn=         5 IDoV= 1 UseB2=F ITyADJ=14
 ICtDFT=  3500011 ScaDFX=  1.000000  1.000000  1.000000  1.000000
 FoFCou: FMM=F IPFlag=           0 FMFlag=      100000 FMFlg1=           0
         NFxFlg=           0 DoJE=T BraDBF=F KetDBF=T FulRan=T
         wScrn=  0.000000 ICntrl=       500 IOpCl=  0 I1Cent=   200000004 NGrid=           0
         NMat0=    1 NMatS0=      1 NMatT0=    0 NMatD0=    1 NMtDS0=    0 NMtDT0=    0
 Petite list used in FoFCou.
 Keep R1 ints in memory in canonical form, NReq=4886539.
 Requested convergence on RMS density matrix=1.00D-08 within 128 cycles.
 Requested convergence on MAX density matrix=1.00D-06.
 Requested convergence on             energy=1.00D-06.
 No special actions if energy rises.
 Integral accuracy reduced to 1.0D-05 until final iterations.
 Initial convergence to 1.0D-05 achieved.  Increase integral accuracy.
 SCF Done:  E(RB3LYP) =  -155.028041502     A.U. after   12 cycles
            NFock= 12  Conv=0.13D-08     -V/T= 2.0096

 **********************************************************************

            Population analysis using the SCF density.

 **********************************************************************

 Orbital symmetries:
       Occupied  (A) (A) (A) (A) (A) (A) (A) (A) (A) (A) (A) (A)
                 (A)
       Virtual   (A) (A) (A) (A) (A) (A) (A) (A) (A) (A) (A) (A)
                 (A) (A) (A) (A) (A) (A) (A) (A) (A) (A) (A) (A)
                 (A) (A) (A) (A) (A) (A) (A) (A) (A) (A) (A) (A)
                 (A) (A) (A) (A) (A) (A) (A) (A)
 The electronic state is 1-A.
 Alpha  occ. eigenvalues --  -19.13776 -10.22825 -10.17585  -1.00615  -0.73809
 Alpha  occ. eigenvalues --   -0.61937  -0.50155  -0.45530  -0.41510  -0.37132
 Alpha  occ. eigenvalues --   -0.36511  -0.31319  -0.26156
 Alpha virt. eigenvalues --    0.07066   0.12050   0.15133   0.15967   0.17271
 Alpha virt. eigenvalues --    0.19147   0.22656   0.23354   0.53165   0.55309
 Alpha virt. eigenvalues --    0.55985   0.59127   0.64550   0.66971   0.80411
 Alpha virt. eigenvalues --    0.86110   0.87530   0.89178   0.90423   0.95103
 Alpha virt. eigenvalues --    0.98409   1.01622   1.03156   1.15774   1.35623
 Alpha virt. eigenvalues --    1.46332   1.51287   1.58239   1.73643   1.78290
 Alpha virt. eigenvalues --    1.93405   1.94646   2.08692   2.14115   2.15361
 Alpha virt. eigenvalues --    2.28343   2.33954   2.42002   2.52758   2.63113
 Alpha virt. eigenvalues --    2.81168   3.72184   4.16273   4.39412
          Condensed to atoms (all electrons):
               1          2          3          4          5          6
     1  C    5.177856   0.359083  -0.053603   0.341425   0.368608   0.369100
     2  C    0.359083   4.744018   0.269497  -0.017728  -0.033744  -0.035201
     3  O   -0.053603   0.269497   8.231727   0.002988   0.000837   0.003973
     4  H    0.341425  -0.017728   0.002988   0.586777  -0.027531  -0.023881
     5  H    0.368608  -0.033744   0.000837  -0.027531   0.589763  -0.033140
     6  H    0.369100  -0.035201   0.003973  -0.023881  -0.033140   0.559272
     7  H   -0.051463   0.371170  -0.035671   0.002121  -0.007508   0.006125
     8  H   -0.056323   0.389495  -0.033655   0.000134   0.005862  -0.004647
     9  H   -0.001539  -0.024409   0.235453  -0.000111   0.002905  -0.000569
               7          8          9
     1  C   -0.051463  -0.056323  -0.001539
     2  C    0.371170   0.389495  -0.024409
     3  O   -0.035671  -0.033655   0.235453
     4  H    0.002121   0.000134  -0.000111
     5  H   -0.007508   0.005862   0.002905
     6  H    0.006125  -0.004647  -0.000569
     7  H    0.647651  -0.042371  -0.008198
     8  H   -0.042371   0.578224   0.006262
     9  H   -0.008198   0.006262   0.397219
 Mulliken charges:
               1
     1  C   -0.453146
     2  C   -0.022181
     3  O   -0.621545
     4  H    0.135805
     5  H    0.133948
     6  H    0.158967
     7  H    0.118144
     8  H    0.157019
     9  H    0.392988
 Sum of Mulliken charges =  -0.00000
 Mulliken charges with hydrogens summed into heavy atoms:
               1
     1  C   -0.024425
     2  C    0.252982
     3  O   -0.228557
 Electronic spatial extent (au):  <R**2>=            197.5729
 Charge=             -0.0000 electrons
 Dipole moment (field-independent basis, Debye):
    X=              0.6456    Y=              0.0046    Z=              1.3787  Tot=              1.5224
 Quadrupole moment (field-independent basis, Debye-Ang):
   XX=            -20.8458   YY=            -18.9872   ZZ=            -18.7983
   XY=              1.2345   XZ=             -2.5650   YZ=             -1.3905
 Traceless Quadrupole moment (field-independent basis, Debye-Ang):
   XX=             -1.3020   YY=              0.5566   ZZ=              0.7455
   XY=              1.2345   XZ=             -2.5650   YZ=             -1.3905
 Octapole moment (field-independent basis, Debye-Ang**2):
  XXX=             -5.2716  YYY=             -1.5422  ZZZ=              0.6919  XYY=             -3.1236
  XXY=             -1.7950  XXZ=              3.6162  XZZ=             -3.2298  YZZ=             -0.9826
  YYZ=              0.4567  XYZ=              1.7429
 Hexadecapole moment (field-independent basis, Debye-Ang**3):
 XXXX=           -158.8624 YYYY=            -54.5964 ZZZZ=            -33.0288 XXXY=              9.0967
 XXXZ=             -6.3419 YYYX=              3.8297 YYYZ=             -1.8447 ZZZX=             -1.8600
 ZZZY=             -1.2398 XXYY=            -33.9264 XXZZ=            -31.3829 YYZZ=            -13.1858
 XXYZ=             -2.8261 YYXZ=             -1.6626 ZZXY=              1.0591
 N-N= 8.093170481472D+01 E-N=-5.237015389158D+02  KE= 1.535611282581D+02
 1\1\GINC-NODE56\SP\RB3LYP\6-31G(d)\C2H6O1\YANZ\22-Sep-2023\0\\# b3lyp/
 6-31g(d)\\tmpdir/M3_ref_51.gjf\\0,1\C,0,0.768456,1.14678,-0.201981\C,0
 ,1.277293,-0.226303,0.321176\O,0,2.434966,-0.675605,-0.375986\H,0,-0.2
 2684237,1.48297727,0.19465641\H,0,1.521792,1.905516,0.047011\H,0,0.735
 76,1.079786,-1.296274\H,0,1.51941,-0.134405,1.395353\H,0,0.47391853,-0
 .90543982,0.20055922\H,0,3.25894312,-0.24412205,-0.09750281\\Version=E
 S64L-G16RevA.03\State=1-A\HF=-155.0280415\RMSD=1.304e-09\Dipole=0.0888
 751,0.4212308,0.4164142\Quadrupole=2.2878254,-1.7077174,-0.580108,1.13
 25593,0.690359,-0.5028319\PG=C01 [X(C2H6O1)]\\@


 IN THE WOODS WE RETURN TO REASON AND FAITH.

                                 -- EMERSON
 Job cpu time:       0 days  0 hours  0 minutes 14.9 seconds.
 Elapsed time:       0 days  0 hours  0 minutes  3.9 seconds.
 File lengths (MBytes):  RWF=      6 Int=      0 D2E=      0 Chk=      1 Scr=      1
 Normal termination of Gaussian 16 at Fri Sep 22 17:00:03 2023.
