 Entering Gaussian System, Link 0=g16
 Initial command:
 /share/apps/gaussian/g16/l1.exe "/tmp/55622.mgr/Gau-172094.inp" -scrdir="/tmp/55622.mgr/"
 Entering Link 1 = /share/apps/gaussian/g16/l1.exe PID=    172095.
  
 Copyright (c) 1988,1990,1992,1993,1995,1998,2003,2009,2016,
            Gaussian, Inc.  All Rights Reserved.
  
 This is part of the Gaussian(R) 16 program.  It is based on
 the Gaussian(R) 09 system (copyright 2009, Gaussian, Inc.),
 the Gaussian(R) 03 system (copyright 2003, Gaussian, Inc.),
 the Gaussian(R) 98 system (copyright 1998, Gaussian, Inc.),
 the Gaussian(R) 94 system (copyright 1995, Gaussian, Inc.),
 the Gaussian 92(TM) system (copyright 1992, Gaussian, Inc.),
 the Gaussian 90(TM) system (copyright 1990, Gaussian, Inc.),
 the Gaussian 88(TM) system (copyright 1988, Gaussian, Inc.),
 the Gaussian 86(TM) system (copyright 1986, Carnegie Mellon
 University), and the Gaussian 82(TM) system (copyright 1983,
 Carnegie Mellon University). Gaussian is a federally registered
 trademark of Gaussian, Inc.
  
 This software contains proprietary and confidential information,
 including trade secrets, belonging to Gaussian, Inc.
  
 This software is provided under written license and may be
 used, copied, transmitted, or stored only in accord with that
 written license.
  
 The following legend is applicable only to US Government
 contracts under FAR:
  
                    RESTRICTED RIGHTS LEGEND
  
 Use, reproduction and disclosure by the US Government is
 subject to restrictions as set forth in subparagraphs (a)
 and (c) of the Commercial Computer Software - Restricted
 Rights clause in FAR 52.227-19.
  
 Gaussian, Inc.
 340 Quinnipiac St., Bldg. 40, Wallingford CT 06492
  
  
 ---------------------------------------------------------------
 Warning -- This program may not be used in any manner that
 competes with the business of Gaussian, Inc. or will provide
 assistance to any competitor of Gaussian, Inc.  The licensee
 of this program is prohibited from giving any competitor of
 Gaussian, Inc. access to this program.  By using this program,
 the user acknowledges that Gaussian, Inc. is engaged in the
 business of creating and licensing software in the field of
 computational chemistry and represents and warrants to the
 licensee that it is not a competitor of Gaussian, Inc. and that
 it will not use this program in any manner prohibited above.
 ---------------------------------------------------------------
  

 Cite this work as:
 Gaussian 16, Revision A.03,
 M. J. Frisch, G. W. Trucks, H. B. Schlegel, G. E. Scuseria, 
 M. A. Robb, J. R. Cheeseman, G. Scalmani, V. Barone, 
 G. A. Petersson, H. Nakatsuji, X. Li, M. Caricato, A. V. Marenich, 
 J. Bloino, B. G. Janesko, R. Gomperts, B. Mennucci, H. P. Hratchian, 
 J. V. Ortiz, A. F. Izmaylov, J. L. Sonnenberg, D. Williams-Young, 
 F. Ding, F. Lipparini, F. Egidi, J. Goings, B. Peng, A. Petrone, 
 T. Henderson, D. Ranasinghe, V. G. Zakrzewski, J. Gao, N. Rega, 
 G. Zheng, W. Liang, M. Hada, M. Ehara, K. Toyota, R. Fukuda, 
 J. Hasegawa, M. Ishida, T. Nakajima, Y. Honda, O. Kitao, H. Nakai, 
 T. Vreven, K. Throssell, J. A. Montgomery, Jr., J. E. Peralta, 
 F. Ogliaro, M. J. Bearpark, J. J. Heyd, E. N. Brothers, K. N. Kudin, 
 V. N. Staroverov, T. A. Keith, R. Kobayashi, J. Normand, 
 K. Raghavachari, A. P. Rendell, J. C. Burant, S. S. Iyengar, 
 J. Tomasi, M. Cossi, J. M. Millam, M. Klene, C. Adamo, R. Cammi, 
 J. W. Ochterski, R. L. Martin, K. Morokuma, O. Farkas, 
 J. B. Foresman, and D. J. Fox, Gaussian, Inc., Wallingford CT, 2016.
 
 ******************************************
 Gaussian 16:  ES64L-G16RevA.03 25-Dec-2016
                22-Sep-2023 
 ******************************************
 %nprocshared=4
 Will use up to    4 processors via shared memory.
 %mem=4GB
 ----------------
 # b3lyp/6-31g(d)
 ----------------
 1/38=1,172=1/1;
 2/12=2,17=6,18=5,40=1/2;
 3/5=1,6=6,7=1,11=2,25=1,30=1,74=-5/1,2,3;
 4//1;
 5/5=2,38=5/2;
 6/7=2,8=2,9=2,10=2,28=1/1;
 99/5=1,9=1/99;
 --------------------
 tmpdir/M3_ref_11.gjf
 --------------------
 Symbolic Z-matrix:
 Charge =  0 Multiplicity = 1
 C                    -1.8997    1.18402  -0.42363 
 H                    -1.63877   0.88728  -1.44823 
 H                    -0.96356   1.49326   0.13346 
 H                    -2.55824   0.39868   0.03453 
 H                    -2.52023   2.08295  -0.52774 
 
                          Input orientation:                          
 ---------------------------------------------------------------------
 Center     Atomic      Atomic             Coordinates (Angstroms)
 Number     Number       Type             X           Y           Z
 ---------------------------------------------------------------------
      1          6           0       -1.899702    1.184016   -0.423626
      2          1           0       -1.638771    0.887282   -1.448230
      3          1           0       -0.963558    1.493259    0.133457
      4          1           0       -2.558244    0.398679    0.034528
      5          1           0       -2.520225    2.082946   -0.527744
 ---------------------------------------------------------------------
                    Distance matrix (angstroms):
                    1          2          3          4          5
     1  C    0.000000
     2  H    1.098157   0.000000
     3  H    1.132404   1.823418   0.000000
     4  H    1.122647   1.811832   1.936728   0.000000
     5  H    1.097253   1.747532   1.791125   1.776050   0.000000
 Stoichiometry    CH4
 Framework group  C1[X(CH4)]
 Deg. of freedom     9
 Full point group                 C1      NOp   1
 Largest Abelian subgroup         C1      NOp   1
 Largest concise Abelian subgroup C1      NOp   1
                         Standard orientation:                         
 ---------------------------------------------------------------------
 Center     Atomic      Atomic             Coordinates (Angstroms)
 Number     Number       Type             X           Y           Z
 ---------------------------------------------------------------------
      1          6           0        0.001023   -0.009107   -0.016464
      2          1           0       -0.034232    1.060800   -0.261426
      3          1           0        1.000695   -0.438895   -0.329954
      4          1           0       -0.933954   -0.506693   -0.388703
      5          1           0       -0.038647   -0.060571    1.078864
 ---------------------------------------------------------------------
 Rotational constants (GHZ):         163.1267652         148.7460889         145.1189188
 Standard basis: 6-31G(d) (6D, 7F)
 There are    23 symmetry adapted cartesian basis functions of A   symmetry.
 There are    23 symmetry adapted basis functions of A   symmetry.
    23 basis functions,    44 primitive gaussians,    23 cartesian basis functions
     5 alpha electrons        5 beta electrons
       nuclear repulsion energy        13.1686529091 Hartrees.
 NAtoms=    5 NActive=    5 NUniq=    5 SFac= 1.00D+00 NAtFMM=   60 NAOKFM=F Big=F
 Integral buffers will be    131072 words long.
 Raffenetti 2 integral format.
 Two-electron integral symmetry is turned on.
 One-electron integrals computed using PRISM.
 NBasis=    23 RedAO= T EigKep=  1.89D-02  NBF=    23
 NBsUse=    23 1.00D-06 EigRej= -1.00D+00 NBFU=    23
 ExpMin= 1.61D-01 ExpMax= 3.05D+03 ExpMxC= 4.57D+02 IAcc=3 IRadAn=         5 AccDes= 0.00D+00
 Harris functional with IExCor=  402 and IRadAn=       5 diagonalized for initial guess.
 HarFok:  IExCor=  402 AccDes= 0.00D+00 IRadAn=         5 IDoV= 1 UseB2=F ITyADJ=14
 ICtDFT=  3500011 ScaDFX=  1.000000  1.000000  1.000000  1.000000
 FoFCou: FMM=F IPFlag=           0 FMFlag=      100000 FMFlg1=           0
         NFxFlg=           0 DoJE=T BraDBF=F KetDBF=T FulRan=T
         wScrn=  0.000000 ICntrl=       500 IOpCl=  0 I1Cent=   200000004 NGrid=           0
         NMat0=    1 NMatS0=      1 NMatT0=    0 NMatD0=    1 NMtDS0=    0 NMtDT0=    0
 Petite list used in FoFCou.
 Keep R1 ints in memory in canonical form, NReq=3486400.
 Requested convergence on RMS density matrix=1.00D-08 within 128 cycles.
 Requested convergence on MAX density matrix=1.00D-06.
 Requested convergence on             energy=1.00D-06.
 No special actions if energy rises.
 Integral accuracy reduced to 1.0D-05 until final iterations.
 Initial convergence to 1.0D-05 achieved.  Increase integral accuracy.
 SCF Done:  E(RB3LYP) =  -40.5146136858     A.U. after    9 cycles
            NFock=  9  Conv=0.40D-08     -V/T= 2.0135

 **********************************************************************

            Population analysis using the SCF density.

 **********************************************************************

 Orbital symmetries:
       Occupied  (A) (A) (A) (A) (A)
       Virtual   (A) (A) (A) (A) (A) (A) (A) (A) (A) (A) (A) (A)
                 (A) (A) (A) (A) (A) (A)
 The electronic state is 1-A.
 Alpha  occ. eigenvalues --  -10.17493  -0.68543  -0.39595  -0.38418  -0.37627
 Alpha virt. eigenvalues --    0.11098   0.16484   0.17186   0.17399   0.52982
 Alpha virt. eigenvalues --    0.53394   0.55707   0.86300   0.88578   0.88890
 Alpha virt. eigenvalues --    0.93624   1.09685   1.65795   1.66452   2.16265
 Alpha virt. eigenvalues --    2.23164   2.25083   4.16398
          Condensed to atoms (all electrons):
               1          2          3          4          5
     1  C    5.102139   0.380576   0.380120   0.380905   0.378022
     2  H    0.380576   0.545831  -0.026423  -0.027051  -0.030645
     3  H    0.380120  -0.026423   0.539684  -0.017287  -0.029071
     4  H    0.380905  -0.027051  -0.017287   0.538642  -0.030187
     5  H    0.378022  -0.030645  -0.029071  -0.030187   0.555787
 Mulliken charges:
               1
     1  C   -0.621762
     2  H    0.157713
     3  H    0.152977
     4  H    0.154979
     5  H    0.156093
 Sum of Mulliken charges =   0.00000
 Mulliken charges with hydrogens summed into heavy atoms:
               1
     1  C    0.000000
 Electronic spatial extent (au):  <R**2>=             36.1974
 Charge=              0.0000 electrons
 Dipole moment (field-independent basis, Debye):
    X=             -0.0126    Y=              0.0539    Z=              0.0818  Tot=              0.0987
 Quadrupole moment (field-independent basis, Debye-Ang):
   XX=             -8.0058   YY=             -8.3847   ZZ=             -8.5250
   XY=              0.0060   XZ=              0.0048   YZ=             -0.0058
 Traceless Quadrupole moment (field-independent basis, Debye-Ang):
   XX=              0.2994   YY=             -0.0796   ZZ=             -0.2198
   XY=              0.0060   XZ=              0.0048   YZ=             -0.0058
 Octapole moment (field-independent basis, Debye-Ang**2):
  XXX=              0.0961  YYY=              0.7953  ZZZ=              0.8528  XYY=             -0.0764
  XXY=             -0.5983  XXZ=             -0.4082  XZZ=             -0.0672  YZZ=             -0.0167
  YYZ=             -0.2099  XYZ=             -0.0198
 Hexadecapole moment (field-independent basis, Debye-Ang**3):
 XXXX=            -15.8076 YYYY=            -15.2052 ZZZZ=            -14.9969 XXXY=             -0.0126
 XXXZ=             -0.0013 YYYX=              0.0085 YYYZ=             -0.2625 ZZZX=             -0.0207
 ZZZY=             -0.0723 XXYY=             -5.2938 XXZZ=             -5.4532 YYZZ=             -5.3734
 XXYZ=              0.3176 YYXZ=              0.0442 ZZXY=              0.0288
 N-N= 1.316865290913D+01 E-N=-1.193049448622D+02  KE= 3.997611832790D+01
 1\1\GINC-NODE56\SP\RB3LYP\6-31G(d)\C1H4\YANZ\22-Sep-2023\0\\# b3lyp/6-
 31g(d)\\tmpdir/M3_ref_11.gjf\\0,1\C,0,-1.899702,1.184016,-0.423626\H,0
 ,-1.638771,0.887282,-1.44823\H,0,-0.96355815,1.49325865,0.13345712\H,0
 ,-2.55824353,0.39867859,0.03452796\H,0,-2.520225,2.082946,-0.527744\\V
 ersion=ES64L-G16RevA.03\State=1-A\HF=-40.5146137\RMSD=4.042e-09\Dipole
 =-0.0179937,0.0228129,-0.0257907\Quadrupole=0.1068018,-0.0458698,-0.06
 0932,0.1747541,0.007146,0.0269262\PG=C01 [X(C1H4)]\\@


  THE LARGE PRINT GIVETH,
  AND THE SMALL PRINT TAKETH AWAY.

                     -- TOM WAITS
 Job cpu time:       0 days  0 hours  0 minutes  4.9 seconds.
 Elapsed time:       0 days  0 hours  0 minutes  1.4 seconds.
 File lengths (MBytes):  RWF=      6 Int=      0 D2E=      0 Chk=      1 Scr=      1
 Normal termination of Gaussian 16 at Fri Sep 22 16:59:41 2023.
