 Entering Gaussian System, Link 0=g16
 Initial command:
 /share/apps/gaussian/g16/l1.exe "/tmp/55622.mgr/Gau-173155.inp" -scrdir="/tmp/55622.mgr/"
 Entering Link 1 = /share/apps/gaussian/g16/l1.exe PID=    173156.
  
 Copyright (c) 1988,1990,1992,1993,1995,1998,2003,2009,2016,
            Gaussian, Inc.  All Rights Reserved.
  
 This is part of the Gaussian(R) 16 program.  It is based on
 the Gaussian(R) 09 system (copyright 2009, Gaussian, Inc.),
 the Gaussian(R) 03 system (copyright 2003, Gaussian, Inc.),
 the Gaussian(R) 98 system (copyright 1998, Gaussian, Inc.),
 the Gaussian(R) 94 system (copyright 1995, Gaussian, Inc.),
 the Gaussian 92(TM) system (copyright 1992, Gaussian, Inc.),
 the Gaussian 90(TM) system (copyright 1990, Gaussian, Inc.),
 the Gaussian 88(TM) system (copyright 1988, Gaussian, Inc.),
 the Gaussian 86(TM) system (copyright 1986, Carnegie Mellon
 University), and the Gaussian 82(TM) system (copyright 1983,
 Carnegie Mellon University). Gaussian is a federally registered
 trademark of Gaussian, Inc.
  
 This software contains proprietary and confidential information,
 including trade secrets, belonging to Gaussian, Inc.
  
 This software is provided under written license and may be
 used, copied, transmitted, or stored only in accord with that
 written license.
  
 The following legend is applicable only to US Government
 contracts under FAR:
  
                    RESTRICTED RIGHTS LEGEND
  
 Use, reproduction and disclosure by the US Government is
 subject to restrictions as set forth in subparagraphs (a)
 and (c) of the Commercial Computer Software - Restricted
 Rights clause in FAR 52.227-19.
  
 Gaussian, Inc.
 340 Quinnipiac St., Bldg. 40, Wallingford CT 06492
  
  
 ---------------------------------------------------------------
 Warning -- This program may not be used in any manner that
 competes with the business of Gaussian, Inc. or will provide
 assistance to any competitor of Gaussian, Inc.  The licensee
 of this program is prohibited from giving any competitor of
 Gaussian, Inc. access to this program.  By using this program,
 the user acknowledges that Gaussian, Inc. is engaged in the
 business of creating and licensing software in the field of
 computational chemistry and represents and warrants to the
 licensee that it is not a competitor of Gaussian, Inc. and that
 it will not use this program in any manner prohibited above.
 ---------------------------------------------------------------
  

 Cite this work as:
 Gaussian 16, Revision A.03,
 M. J. Frisch, G. W. Trucks, H. B. Schlegel, G. E. Scuseria, 
 M. A. Robb, J. R. Cheeseman, G. Scalmani, V. Barone, 
 G. A. Petersson, H. Nakatsuji, X. Li, M. Caricato, A. V. Marenich, 
 J. Bloino, B. G. Janesko, R. Gomperts, B. Mennucci, H. P. Hratchian, 
 J. V. Ortiz, A. F. Izmaylov, J. L. Sonnenberg, D. Williams-Young, 
 F. Ding, F. Lipparini, F. Egidi, J. Goings, B. Peng, A. Petrone, 
 T. Henderson, D. Ranasinghe, V. G. Zakrzewski, J. Gao, N. Rega, 
 G. Zheng, W. Liang, M. Hada, M. Ehara, K. Toyota, R. Fukuda, 
 J. Hasegawa, M. Ishida, T. Nakajima, Y. Honda, O. Kitao, H. Nakai, 
 T. Vreven, K. Throssell, J. A. Montgomery, Jr., J. E. Peralta, 
 F. Ogliaro, M. J. Bearpark, J. J. Heyd, E. N. Brothers, K. N. Kudin, 
 V. N. Staroverov, T. A. Keith, R. Kobayashi, J. Normand, 
 K. Raghavachari, A. P. Rendell, J. C. Burant, S. S. Iyengar, 
 J. Tomasi, M. Cossi, J. M. Millam, M. Klene, C. Adamo, R. Cammi, 
 J. W. Ochterski, R. L. Martin, K. Morokuma, O. Farkas, 
 J. B. Foresman, and D. J. Fox, Gaussian, Inc., Wallingford CT, 2016.
 
 ******************************************
 Gaussian 16:  ES64L-G16RevA.03 25-Dec-2016
                22-Sep-2023 
 ******************************************
 %nprocshared=4
 Will use up to    4 processors via shared memory.
 %mem=4GB
 ----------------
 # b3lyp/6-31g(d)
 ----------------
 1/38=1,172=1/1;
 2/12=2,17=6,18=5,40=1/2;
 3/5=1,6=6,7=1,11=2,25=1,30=1,74=-5/1,2,3;
 4//1;
 5/5=2,38=5/2;
 6/7=2,8=2,9=2,10=2,28=1/1;
 99/5=1,9=1/99;
 --------------------
 tmpdir/M3_ref_56.gjf
 --------------------
 Symbolic Z-matrix:
 Charge =  0 Multiplicity = 1
 C                     1.27729  -0.2263    0.32118 
 C                     0.16749  -1.16448   0.15455 
 C                    -0.99264  -1.4966    0.05981 
 H                     0.90895   0.76765  -0.05753 
 H                     1.51941  -0.13441   1.39535 
 H                     2.22785  -0.59522  -0.25126 
 H                    -2.03636  -1.40599  -0.0771 
 
                          Input orientation:                          
 ---------------------------------------------------------------------
 Center     Atomic      Atomic             Coordinates (Angstroms)
 Number     Number       Type             X           Y           Z
 ---------------------------------------------------------------------
      1          6           0        1.277293   -0.226303    0.321176
      2          6           0        0.167485   -1.164485    0.154552
      3          6           0       -0.992636   -1.496604    0.059811
      4          1           0        0.908953    0.767653   -0.057530
      5          1           0        1.519410   -0.134405    1.395353
      6          1           0        2.227847   -0.595220   -0.251257
      7          1           0       -2.036363   -1.405989   -0.077102
 ---------------------------------------------------------------------
                    Distance matrix (angstroms):
                    1          2          3          4          5
     1  C    0.000000
     2  C    1.462745   0.000000
     3  C    2.614298   1.210438   0.000000
     4  H    1.125629   2.080363   2.959167   0.000000
     5  H    1.104953   2.104365   3.154304   1.815829   0.000000
     6  H    1.169330   2.175737   3.358685   1.906419   1.850826
     7  H    3.539859   2.229111   1.056562   3.660600   4.053218
                    6          7
     6  H    0.000000
     7  H    4.344095   0.000000
 Stoichiometry    C3H4
 Framework group  C1[X(C3H4)]
 Deg. of freedom    15
 Full point group                 C1      NOp   1
 Largest Abelian subgroup         C1      NOp   1
 Largest concise Abelian subgroup C1      NOp   1
                         Standard orientation:                         
 ---------------------------------------------------------------------
 Center     Atomic      Atomic             Coordinates (Angstroms)
 Number     Number       Type             X           Y           Z
 ---------------------------------------------------------------------
      1          6           0        1.212426    0.079352   -0.001794
      2          6           0       -0.213698   -0.245886    0.001810
      3          6           0       -1.400382   -0.007552    0.013465
      4          1           0        1.301077    1.101767   -0.464233
      5          1           0        1.579540    0.122728    1.039487
      6          1           0        1.825028   -0.727174   -0.586231
      7          1           0       -2.295720    0.547193   -0.069910
 ---------------------------------------------------------------------
 Rotational constants (GHZ):         112.5003404           9.0018914           8.8175520
 Standard basis: 6-31G(d) (6D, 7F)
 There are    53 symmetry adapted cartesian basis functions of A   symmetry.
 There are    53 symmetry adapted basis functions of A   symmetry.
    53 basis functions,   100 primitive gaussians,    53 cartesian basis functions
    11 alpha electrons       11 beta electrons
       nuclear repulsion energy        58.5560319394 Hartrees.
 NAtoms=    7 NActive=    7 NUniq=    7 SFac= 1.00D+00 NAtFMM=   60 NAOKFM=F Big=F
 Integral buffers will be    131072 words long.
 Raffenetti 2 integral format.
 Two-electron integral symmetry is turned on.
 One-electron integrals computed using PRISM.
 NBasis=    53 RedAO= T EigKep=  1.28D-03  NBF=    53
 NBsUse=    53 1.00D-06 EigRej= -1.00D+00 NBFU=    53
 ExpMin= 1.61D-01 ExpMax= 3.05D+03 ExpMxC= 4.57D+02 IAcc=3 IRadAn=         5 AccDes= 0.00D+00
 Harris functional with IExCor=  402 and IRadAn=       5 diagonalized for initial guess.
 HarFok:  IExCor=  402 AccDes= 0.00D+00 IRadAn=         5 IDoV= 1 UseB2=F ITyADJ=14
 ICtDFT=  3500011 ScaDFX=  1.000000  1.000000  1.000000  1.000000
 FoFCou: FMM=F IPFlag=           0 FMFlag=      100000 FMFlg1=           0
         NFxFlg=           0 DoJE=T BraDBF=F KetDBF=T FulRan=T
         wScrn=  0.000000 ICntrl=       500 IOpCl=  0 I1Cent=   200000004 NGrid=           0
         NMat0=    1 NMatS0=      1 NMatT0=    0 NMatD0=    1 NMtDS0=    0 NMtDT0=    0
 Petite list used in FoFCou.
 Keep R1 ints in memory in canonical form, NReq=4527186.
 Requested convergence on RMS density matrix=1.00D-08 within 128 cycles.
 Requested convergence on MAX density matrix=1.00D-06.
 Requested convergence on             energy=1.00D-06.
 No special actions if energy rises.
 Integral accuracy reduced to 1.0D-05 until final iterations.
 Initial convergence to 1.0D-05 achieved.  Increase integral accuracy.
 SCF Done:  E(RB3LYP) =  -116.633611888     A.U. after   12 cycles
            NFock= 12  Conv=0.41D-08     -V/T= 2.0110

 **********************************************************************

            Population analysis using the SCF density.

 **********************************************************************

 Orbital symmetries:
       Occupied  (A) (A) (A) (A) (A) (A) (A) (A) (A) (A) (A)
       Virtual   (A) (A) (A) (A) (A) (A) (A) (A) (A) (A) (A) (A)
                 (A) (A) (A) (A) (A) (A) (A) (A) (A) (A) (A) (A)
                 (A) (A) (A) (A) (A) (A) (A) (A) (A) (A) (A) (A)
                 (A) (A) (A) (A) (A) (A)
 The electronic state is 1-A.
 Alpha  occ. eigenvalues --  -10.21783 -10.18400 -10.17097  -0.77378  -0.68768
 Alpha  occ. eigenvalues --   -0.52018  -0.43976  -0.42904  -0.42083  -0.25889
 Alpha  occ. eigenvalues --   -0.25713
 Alpha virt. eigenvalues --    0.01558   0.06028   0.10383   0.14203   0.16977
 Alpha virt. eigenvalues --    0.18166   0.25688   0.43702   0.45724   0.53013
 Alpha virt. eigenvalues --    0.54181   0.61715   0.63584   0.65226   0.70693
 Alpha virt. eigenvalues --    0.76157   0.79013   0.84383   0.86330   0.87637
 Alpha virt. eigenvalues --    0.90725   1.10896   1.24738   1.36382   1.42487
 Alpha virt. eigenvalues --    1.54445   1.56486   1.65322   1.82631   1.87150
 Alpha virt. eigenvalues --    1.97499   2.03613   2.13115   2.20033   2.23450
 Alpha virt. eigenvalues --    2.52939   2.67528   2.77364   3.27363   4.09153
 Alpha virt. eigenvalues --    4.20962   4.53924
          Condensed to atoms (all electrons):
               1          2          3          4          5          6
     1  C    5.131664   0.392535  -0.088894   0.378158   0.362916   0.350099
     2  C    0.392535   4.694492   0.906931  -0.035846  -0.031864  -0.031160
     3  C   -0.088894   0.906931   5.135781  -0.010449  -0.000112   0.003283
     4  H    0.378158  -0.035846  -0.010449   0.535676  -0.029090  -0.024586
     5  H    0.362916  -0.031864  -0.000112  -0.029090   0.543170  -0.028182
     6  H    0.350099  -0.031160   0.003283  -0.024586  -0.028182   0.571446
     7  H    0.002580  -0.017046   0.359596  -0.000115  -0.000013  -0.000030
               7
     1  C    0.002580
     2  C   -0.017046
     3  C    0.359596
     4  H   -0.000115
     5  H   -0.000013
     6  H   -0.000030
     7  H    0.470345
 Mulliken charges:
               1
     1  C   -0.529058
     2  C    0.121956
     3  C   -0.306136
     4  H    0.186252
     5  H    0.183174
     6  H    0.159129
     7  H    0.184682
 Sum of Mulliken charges =  -0.00000
 Mulliken charges with hydrogens summed into heavy atoms:
               1
     1  C   -0.000503
     2  C    0.121956
     3  C   -0.121453
 Electronic spatial extent (au):  <R**2>=            174.1720
 Charge=              0.0000 electrons
 Dipole moment (field-independent basis, Debye):
    X=              0.7335    Y=              0.8254    Z=             -0.0482  Tot=              1.1053
 Quadrupole moment (field-independent basis, Debye-Ang):
   XX=            -15.2660   YY=            -18.5273   ZZ=            -19.1393
   XY=             -1.5925   XZ=              0.3157   YZ=             -0.0617
 Traceless Quadrupole moment (field-independent basis, Debye-Ang):
   XX=              2.3782   YY=             -0.8831   ZZ=             -1.4951
   XY=             -1.5925   XZ=              0.3157   YZ=             -0.0617
 Octapole moment (field-independent basis, Debye-Ang**2):
  XXX=             -6.3492  YYY=              2.0600  ZZZ=              0.7164  XYY=              1.3710
  XXY=              3.4861  XXZ=             -0.3960  XZZ=              2.2688  YZZ=              0.4495
  YYZ=             -0.7207  XYZ=              0.2934
 Hexadecapole moment (field-independent basis, Debye-Ang**3):
 XXXX=           -163.5449 YYYY=            -29.5344 ZZZZ=            -26.4595 XXXY=            -10.6102
 XXXZ=              1.6439 YYYX=             -1.4517 YYYZ=             -0.4978 ZZZX=              1.6166
 ZZZY=              0.0695 XXYY=            -33.5576 XXZZ=            -35.0106 YYZZ=             -9.4178
 XXYZ=              0.3663 YYXZ=             -0.8204 ZZXY=             -0.5563
 N-N= 5.855603193937D+01 E-N=-3.867446535894D+02  KE= 1.153646330510D+02
 1\1\GINC-NODE56\SP\RB3LYP\6-31G(d)\C3H4\YANZ\22-Sep-2023\0\\# b3lyp/6-
 31g(d)\\tmpdir/M3_ref_56.gjf\\0,1\C,0,1.277293,-0.226303,0.321176\C,0,
 0.167485,-1.164485,0.154552\C,0,-0.992636,-1.496604,0.059811\H,0,0.908
 95302,0.76765256,-0.05753003\H,0,1.51941,-0.134405,1.395353\H,0,2.2278
 4672,-0.59522038,-0.25125675\H,0,-2.03636307,-1.4059894,-0.0771019\\Ve
 rsion=ES64L-G16RevA.03\State=1-A\HF=-116.6336119\RMSD=4.135e-09\Dipole
 =0.1055361,0.4205021,0.0335792\Quadrupole=2.1796225,-1.1259633,-1.0536
 592,0.2720081,0.4587389,0.0819102\PG=C01 [X(C3H4)]\\@


 ...THE PHYSICISTS HAVE MADE THEIR UNIVERSE, AND IF YOU DO NOT LIKE
 IT, YOU MUST MAKE YOUR OWN.
                               -- E. R. HARRISON IN "COSMOLOGY" (1980)
 Job cpu time:       0 days  0 hours  0 minutes 10.8 seconds.
 Elapsed time:       0 days  0 hours  0 minutes  2.9 seconds.
 File lengths (MBytes):  RWF=      6 Int=      0 D2E=      0 Chk=      1 Scr=      1
 Normal termination of Gaussian 16 at Fri Sep 22 16:59:55 2023.
