 Entering Gaussian System, Link 0=g16
 Initial command:
 /share/apps/gaussian/g16/l1.exe "/tmp/55622.mgr/Gau-173794.inp" -scrdir="/tmp/55622.mgr/"
 Entering Link 1 = /share/apps/gaussian/g16/l1.exe PID=    173795.
  
 Copyright (c) 1988,1990,1992,1993,1995,1998,2003,2009,2016,
            Gaussian, Inc.  All Rights Reserved.
  
 This is part of the Gaussian(R) 16 program.  It is based on
 the Gaussian(R) 09 system (copyright 2009, Gaussian, Inc.),
 the Gaussian(R) 03 system (copyright 2003, Gaussian, Inc.),
 the Gaussian(R) 98 system (copyright 1998, Gaussian, Inc.),
 the Gaussian(R) 94 system (copyright 1995, Gaussian, Inc.),
 the Gaussian 92(TM) system (copyright 1992, Gaussian, Inc.),
 the Gaussian 90(TM) system (copyright 1990, Gaussian, Inc.),
 the Gaussian 88(TM) system (copyright 1988, Gaussian, Inc.),
 the Gaussian 86(TM) system (copyright 1986, Carnegie Mellon
 University), and the Gaussian 82(TM) system (copyright 1983,
 Carnegie Mellon University). Gaussian is a federally registered
 trademark of Gaussian, Inc.
  
 This software contains proprietary and confidential information,
 including trade secrets, belonging to Gaussian, Inc.
  
 This software is provided under written license and may be
 used, copied, transmitted, or stored only in accord with that
 written license.
  
 The following legend is applicable only to US Government
 contracts under FAR:
  
                    RESTRICTED RIGHTS LEGEND
  
 Use, reproduction and disclosure by the US Government is
 subject to restrictions as set forth in subparagraphs (a)
 and (c) of the Commercial Computer Software - Restricted
 Rights clause in FAR 52.227-19.
  
 Gaussian, Inc.
 340 Quinnipiac St., Bldg. 40, Wallingford CT 06492
  
  
 ---------------------------------------------------------------
 Warning -- This program may not be used in any manner that
 competes with the business of Gaussian, Inc. or will provide
 assistance to any competitor of Gaussian, Inc.  The licensee
 of this program is prohibited from giving any competitor of
 Gaussian, Inc. access to this program.  By using this program,
 the user acknowledges that Gaussian, Inc. is engaged in the
 business of creating and licensing software in the field of
 computational chemistry and represents and warrants to the
 licensee that it is not a competitor of Gaussian, Inc. and that
 it will not use this program in any manner prohibited above.
 ---------------------------------------------------------------
  

 Cite this work as:
 Gaussian 16, Revision A.03,
 M. J. Frisch, G. W. Trucks, H. B. Schlegel, G. E. Scuseria, 
 M. A. Robb, J. R. Cheeseman, G. Scalmani, V. Barone, 
 G. A. Petersson, H. Nakatsuji, X. Li, M. Caricato, A. V. Marenich, 
 J. Bloino, B. G. Janesko, R. Gomperts, B. Mennucci, H. P. Hratchian, 
 J. V. Ortiz, A. F. Izmaylov, J. L. Sonnenberg, D. Williams-Young, 
 F. Ding, F. Lipparini, F. Egidi, J. Goings, B. Peng, A. Petrone, 
 T. Henderson, D. Ranasinghe, V. G. Zakrzewski, J. Gao, N. Rega, 
 G. Zheng, W. Liang, M. Hada, M. Ehara, K. Toyota, R. Fukuda, 
 J. Hasegawa, M. Ishida, T. Nakajima, Y. Honda, O. Kitao, H. Nakai, 
 T. Vreven, K. Throssell, J. A. Montgomery, Jr., J. E. Peralta, 
 F. Ogliaro, M. J. Bearpark, J. J. Heyd, E. N. Brothers, K. N. Kudin, 
 V. N. Staroverov, T. A. Keith, R. Kobayashi, J. Normand, 
 K. Raghavachari, A. P. Rendell, J. C. Burant, S. S. Iyengar, 
 J. Tomasi, M. Cossi, J. M. Millam, M. Klene, C. Adamo, R. Cammi, 
 J. W. Ochterski, R. L. Martin, K. Morokuma, O. Farkas, 
 J. B. Foresman, and D. J. Fox, Gaussian, Inc., Wallingford CT, 2016.
 
 ******************************************
 Gaussian 16:  ES64L-G16RevA.03 25-Dec-2016
                22-Sep-2023 
 ******************************************
 %nprocshared=4
 Will use up to    4 processors via shared memory.
 %mem=4GB
 ----------------
 # b3lyp/6-31g(d)
 ----------------
 1/38=1,172=1/1;
 2/12=2,17=6,18=5,40=1/2;
 3/5=1,6=6,7=1,11=2,25=1,30=1,74=-5/1,2,3;
 4//1;
 5/5=2,38=5/2;
 6/7=2,8=2,9=2,10=2,28=1/1;
 99/5=1,9=1/99;
 --------------------
 tmpdir/M3_ref_76.gjf
 --------------------
 Symbolic Z-matrix:
 Charge =  0 Multiplicity = 1
 C                     3.63468  -0.04736   0.02949 
 H                     3.79547  -0.14356   1.11572 
 H                     2.64961  -0.56321  -0.30344 
 H                     4.44739  -0.55819  -0.49361 
 H                     3.66711   1.02057  -0.23268 
 
                          Input orientation:                          
 ---------------------------------------------------------------------
 Center     Atomic      Atomic             Coordinates (Angstroms)
 Number     Number       Type             X           Y           Z
 ---------------------------------------------------------------------
      1          6           0        3.634684   -0.047362    0.029488
      2          1           0        3.795474   -0.143555    1.115716
      3          1           0        2.649608   -0.563206   -0.303443
      4          1           0        4.447390   -0.558189   -0.493610
      5          1           0        3.667109    1.020568   -0.232683
 ---------------------------------------------------------------------
                    Distance matrix (angstroms):
                    1          2          3          4          5
     1  C    0.000000
     2  H    1.102269   0.000000
     3  H    1.160738   1.871665   0.000000
     4  H    1.093191   1.785174   1.807819   0.000000
     5  H    1.100118   1.786012   1.883788   1.780279   0.000000
 Stoichiometry    CH4
 Framework group  C1[X(CH4)]
 Deg. of freedom     9
 Full point group                 C1      NOp   1
 Largest Abelian subgroup         C1      NOp   1
 Largest concise Abelian subgroup C1      NOp   1
                         Standard orientation:                         
 ---------------------------------------------------------------------
 Center     Atomic      Atomic             Coordinates (Angstroms)
 Number     Number       Type             X           Y           Z
 ---------------------------------------------------------------------
      1          6           0        0.003616    0.000174   -0.005625
      2          1           0        0.500376    0.977502   -0.119897
      3          1           0       -1.093834    0.032630   -0.382270
      4          1           0       -0.037948   -0.251818    1.057314
      5          1           0        0.609707   -0.759358   -0.521401
 ---------------------------------------------------------------------
 Rotational constants (GHZ):         159.3338967         148.7668483         146.7628677
 Standard basis: 6-31G(d) (6D, 7F)
 There are    23 symmetry adapted cartesian basis functions of A   symmetry.
 There are    23 symmetry adapted basis functions of A   symmetry.
    23 basis functions,    44 primitive gaussians,    23 cartesian basis functions
     5 alpha electrons        5 beta electrons
       nuclear repulsion energy        13.1526922064 Hartrees.
 NAtoms=    5 NActive=    5 NUniq=    5 SFac= 1.00D+00 NAtFMM=   60 NAOKFM=F Big=F
 Integral buffers will be    131072 words long.
 Raffenetti 2 integral format.
 Two-electron integral symmetry is turned on.
 One-electron integrals computed using PRISM.
 NBasis=    23 RedAO= T EigKep=  1.90D-02  NBF=    23
 NBsUse=    23 1.00D-06 EigRej= -1.00D+00 NBFU=    23
 ExpMin= 1.61D-01 ExpMax= 3.05D+03 ExpMxC= 4.57D+02 IAcc=3 IRadAn=         5 AccDes= 0.00D+00
 Harris functional with IExCor=  402 and IRadAn=       5 diagonalized for initial guess.
 HarFok:  IExCor=  402 AccDes= 0.00D+00 IRadAn=         5 IDoV= 1 UseB2=F ITyADJ=14
 ICtDFT=  3500011 ScaDFX=  1.000000  1.000000  1.000000  1.000000
 FoFCou: FMM=F IPFlag=           0 FMFlag=      100000 FMFlg1=           0
         NFxFlg=           0 DoJE=T BraDBF=F KetDBF=T FulRan=T
         wScrn=  0.000000 ICntrl=       500 IOpCl=  0 I1Cent=   200000004 NGrid=           0
         NMat0=    1 NMatS0=      1 NMatT0=    0 NMatD0=    1 NMtDS0=    0 NMtDT0=    0
 Petite list used in FoFCou.
 Keep R1 ints in memory in canonical form, NReq=3486400.
 Requested convergence on RMS density matrix=1.00D-08 within 128 cycles.
 Requested convergence on MAX density matrix=1.00D-06.
 Requested convergence on             energy=1.00D-06.
 No special actions if energy rises.
 Integral accuracy reduced to 1.0D-05 until final iterations.
 Initial convergence to 1.0D-05 achieved.  Increase integral accuracy.
 SCF Done:  E(RB3LYP) =  -40.5151666294     A.U. after    9 cycles
            NFock=  9  Conv=0.60D-08     -V/T= 2.0136

 **********************************************************************

            Population analysis using the SCF density.

 **********************************************************************

 Orbital symmetries:
       Occupied  (A) (A) (A) (A) (A)
       Virtual   (A) (A) (A) (A) (A) (A) (A) (A) (A) (A) (A) (A)
                 (A) (A) (A) (A) (A) (A)
 The electronic state is 1-A.
 Alpha  occ. eigenvalues --  -10.17549  -0.68475  -0.39180  -0.38684  -0.37801
 Alpha virt. eigenvalues --    0.11098   0.16164   0.17287   0.17616   0.53149
 Alpha virt. eigenvalues --    0.53369   0.55460   0.85510   0.88900   0.89460
 Alpha virt. eigenvalues --    0.93048   1.09281   1.65974   1.66242   2.16682
 Alpha virt. eigenvalues --    2.23465   2.24586   4.16418
          Condensed to atoms (all electrons):
               1          2          3          4          5
     1  C    5.099240   0.381330   0.375792   0.380361   0.381829
     2  H    0.381330   0.540621  -0.022894  -0.027727  -0.029061
     3  H    0.375792  -0.022894   0.554138  -0.028768  -0.021625
     4  H    0.380361  -0.027727  -0.028768   0.545630  -0.028378
     5  H    0.381829  -0.029061  -0.021625  -0.028378   0.538653
 Mulliken charges:
               1
     1  C   -0.618551
     2  H    0.157731
     3  H    0.143356
     4  H    0.158882
     5  H    0.158582
 Sum of Mulliken charges =   0.00000
 Mulliken charges with hydrogens summed into heavy atoms:
               1
     1  C    0.000000
 Electronic spatial extent (au):  <R**2>=             36.2642
 Charge=              0.0000 electrons
 Dipole moment (field-independent basis, Debye):
    X=              0.0471    Y=             -0.0068    Z=              0.0517  Tot=              0.0703
 Quadrupole moment (field-independent basis, Debye-Ang):
   XX=             -8.1549   YY=             -8.3418   ZZ=             -8.4215
   XY=              0.0010   XZ=             -0.0509   YZ=              0.0029
 Traceless Quadrupole moment (field-independent basis, Debye-Ang):
   XX=              0.1511   YY=             -0.0357   ZZ=             -0.1154
   XY=              0.0010   XZ=             -0.0509   YZ=              0.0029
 Octapole moment (field-independent basis, Debye-Ang**2):
  XXX=             -0.4637  YYY=              0.2942  ZZZ=              0.7751  XYY=              0.6458
  XXY=             -0.0114  XXZ=             -0.4118  XZZ=              0.0566  YZZ=             -0.3101
  YYZ=             -0.1793  XYZ=              0.1439
 Hexadecapole moment (field-independent basis, Debye-Ang**3):
 XXXX=            -16.0869 YYYY=            -15.2966 ZZZZ=            -15.1135 XXXY=             -0.0961
 XXXZ=              0.2718 YYYX=              0.2138 YYYZ=              0.1088 ZZZX=             -0.1876
 ZZZY=             -0.1994 XXYY=             -5.2564 XXZZ=             -5.4343 YYZZ=             -5.2692
 XXYZ=              0.1106 YYXZ=             -0.2902 ZZXY=             -0.1165
 N-N= 1.315269220643D+01 E-N=-1.192708640177D+02  KE= 3.997253577143D+01
 1\1\GINC-NODE56\SP\RB3LYP\6-31G(d)\C1H4\YANZ\22-Sep-2023\0\\# b3lyp/6-
 31g(d)\\tmpdir/M3_ref_76.gjf\\0,1\C,0,3.634684,-0.047362,0.029488\H,0,
 3.795474,-0.143555,1.115716\H,0,2.64960755,-0.56320604,-0.30344265\H,0
 ,4.44739,-0.558189,-0.49361\H,0,3.667109,1.020568,-0.232683\\Version=E
 S64L-G16RevA.03\State=1-A\HF=-40.5151666\RMSD=6.010e-09\Dipole=0.02760
 34,0.0017726,-0.0000013\Quadrupole=-0.0440517,0.0420552,0.0019965,0.07
 68674,0.04531,0.044346\PG=C01 [X(C1H4)]\\@


 IN THE WOODS WE RETURN TO REASON AND FAITH.

                                 -- EMERSON
 Job cpu time:       0 days  0 hours  0 minutes  5.4 seconds.
 Elapsed time:       0 days  0 hours  0 minutes  1.5 seconds.
 File lengths (MBytes):  RWF=      6 Int=      0 D2E=      0 Chk=      1 Scr=      1
 Normal termination of Gaussian 16 at Fri Sep 22 17:00:03 2023.
