 Entering Gaussian System, Link 0=g16
 Initial command:
 /share/apps/gaussian/g16/l1.exe "/tmp/55612.mgr/Gau-317207.inp" -scrdir="/tmp/55612.mgr/"
 Entering Link 1 = /share/apps/gaussian/g16/l1.exe PID=    317211.
  
 Copyright (c) 1988,1990,1992,1993,1995,1998,2003,2009,2016,
            Gaussian, Inc.  All Rights Reserved.
  
 This is part of the Gaussian(R) 16 program.  It is based on
 the Gaussian(R) 09 system (copyright 2009, Gaussian, Inc.),
 the Gaussian(R) 03 system (copyright 2003, Gaussian, Inc.),
 the Gaussian(R) 98 system (copyright 1998, Gaussian, Inc.),
 the Gaussian(R) 94 system (copyright 1995, Gaussian, Inc.),
 the Gaussian 92(TM) system (copyright 1992, Gaussian, Inc.),
 the Gaussian 90(TM) system (copyright 1990, Gaussian, Inc.),
 the Gaussian 88(TM) system (copyright 1988, Gaussian, Inc.),
 the Gaussian 86(TM) system (copyright 1986, Carnegie Mellon
 University), and the Gaussian 82(TM) system (copyright 1983,
 Carnegie Mellon University). Gaussian is a federally registered
 trademark of Gaussian, Inc.
  
 This software contains proprietary and confidential information,
 including trade secrets, belonging to Gaussian, Inc.
  
 This software is provided under written license and may be
 used, copied, transmitted, or stored only in accord with that
 written license.
  
 The following legend is applicable only to US Government
 contracts under FAR:
  
                    RESTRICTED RIGHTS LEGEND
  
 Use, reproduction and disclosure by the US Government is
 subject to restrictions as set forth in subparagraphs (a)
 and (c) of the Commercial Computer Software - Restricted
 Rights clause in FAR 52.227-19.
  
 Gaussian, Inc.
 340 Quinnipiac St., Bldg. 40, Wallingford CT 06492
  
  
 ---------------------------------------------------------------
 Warning -- This program may not be used in any manner that
 competes with the business of Gaussian, Inc. or will provide
 assistance to any competitor of Gaussian, Inc.  The licensee
 of this program is prohibited from giving any competitor of
 Gaussian, Inc. access to this program.  By using this program,
 the user acknowledges that Gaussian, Inc. is engaged in the
 business of creating and licensing software in the field of
 computational chemistry and represents and warrants to the
 licensee that it is not a competitor of Gaussian, Inc. and that
 it will not use this program in any manner prohibited above.
 ---------------------------------------------------------------
  

 Cite this work as:
 Gaussian 16, Revision A.03,
 M. J. Frisch, G. W. Trucks, H. B. Schlegel, G. E. Scuseria, 
 M. A. Robb, J. R. Cheeseman, G. Scalmani, V. Barone, 
 G. A. Petersson, H. Nakatsuji, X. Li, M. Caricato, A. V. Marenich, 
 J. Bloino, B. G. Janesko, R. Gomperts, B. Mennucci, H. P. Hratchian, 
 J. V. Ortiz, A. F. Izmaylov, J. L. Sonnenberg, D. Williams-Young, 
 F. Ding, F. Lipparini, F. Egidi, J. Goings, B. Peng, A. Petrone, 
 T. Henderson, D. Ranasinghe, V. G. Zakrzewski, J. Gao, N. Rega, 
 G. Zheng, W. Liang, M. Hada, M. Ehara, K. Toyota, R. Fukuda, 
 J. Hasegawa, M. Ishida, T. Nakajima, Y. Honda, O. Kitao, H. Nakai, 
 T. Vreven, K. Throssell, J. A. Montgomery, Jr., J. E. Peralta, 
 F. Ogliaro, M. J. Bearpark, J. J. Heyd, E. N. Brothers, K. N. Kudin, 
 V. N. Staroverov, T. A. Keith, R. Kobayashi, J. Normand, 
 K. Raghavachari, A. P. Rendell, J. C. Burant, S. S. Iyengar, 
 J. Tomasi, M. Cossi, J. M. Millam, M. Klene, C. Adamo, R. Cammi, 
 J. W. Ochterski, R. L. Martin, K. Morokuma, O. Farkas, 
 J. B. Foresman, and D. J. Fox, Gaussian, Inc., Wallingford CT, 2016.
 
 ******************************************
 Gaussian 16:  ES64L-G16RevA.03 25-Dec-2016
                 5-Jun-2019 
 ******************************************
 %nprocshared=4
 Will use up to    4 processors via shared memory.
 %mem=4GB
 -------------------------
 #m062x/6-31g(d) scf=tight
 -------------------------
 1/38=1,172=1/1;
 2/12=2,17=6,18=5,40=1/2;
 3/5=1,6=6,7=1,11=2,25=1,30=1,74=-55/1,2,3;
 4//1;
 5/5=2,32=2,38=5/2;
 6/7=2,8=2,9=2,10=2,28=1/1;
 99/5=1,9=1/99;
 ----------------------
 tmpdir/M1_conf_0_5.gjf
 ----------------------
 Symbolic Z-matrix:
 Charge =  0 Multiplicity = 1
 C                     1.03821  -0.86459   1.25653 
 H                     0.57749  -1.37555   2.09443 
 C                     1.17635  -1.38769  -0.02347 
 H                     0.99752  -2.42259  -0.29235 
 H                     1.32082   0.11199   1.24202 
 H                     1.82747  -0.71479  -0.57892 
 
                          Input orientation:                          
 ---------------------------------------------------------------------
 Center     Atomic      Atomic             Coordinates (Angstroms)
 Number     Number       Type             X           Y           Z
 ---------------------------------------------------------------------
      1          6           0        1.038209   -0.864594    1.256533
      2          1           0        0.577494   -1.375550    2.094429
      3          6           0        1.176349   -1.387687   -0.023472
      4          1           0        0.997516   -2.422587   -0.292350
      5          1           0        1.320816    0.111991    1.242020
      6          1           0        1.827471   -0.714788   -0.578921
 ---------------------------------------------------------------------
                    Distance matrix (angstroms):
                    1          2          3          4          5
     1  C    0.000000
     2  H    1.084161   0.000000
     3  C    1.389648   2.200972   0.000000
     4  H    2.197279   2.639966   1.084110   0.000000
     5  H    1.016758   1.868665   1.967581   2.980419   0.000000
     6  H    2.003564   3.024210   1.088704   1.920293   2.063029
                    6
     6  H    0.000000
 Stoichiometry    C2H4
 Framework group  C1[X(C2H4)]
 Deg. of freedom    12
 Full point group                 C1      NOp   1
 Largest Abelian subgroup         C1      NOp   1
 Largest concise Abelian subgroup C1      NOp   1
                         Standard orientation:                         
 ---------------------------------------------------------------------
 Center     Atomic      Atomic             Coordinates (Angstroms)
 Number     Number       Type             X           Y           Z
 ---------------------------------------------------------------------
      1          6           0       -0.694248   -0.006728    0.019047
      2          1           0       -1.328400   -0.886063    0.023925
      3          6           0        0.693745   -0.019973   -0.047452
      4          1           0        1.311111   -0.903391    0.069709
      5          1           0       -1.015742    0.954009   -0.067101
      6          1           0        1.036046    0.995651    0.143896
 ---------------------------------------------------------------------
 Rotational constants (GHZ):         140.7299599          29.2920479          24.3784236
 Standard basis: 6-31G(d) (6D, 7F)
 There are    38 symmetry adapted cartesian basis functions of A   symmetry.
 There are    38 symmetry adapted basis functions of A   symmetry.
    38 basis functions,    72 primitive gaussians,    38 cartesian basis functions
     8 alpha electrons        8 beta electrons
       nuclear repulsion energy        33.0594100478 Hartrees.
 NAtoms=    6 NActive=    6 NUniq=    6 SFac= 1.00D+00 NAtFMM=   60 NAOKFM=F Big=F
 Integral buffers will be    131072 words long.
 Raffenetti 2 integral format.
 Two-electron integral symmetry is turned on.
 One-electron integrals computed using PRISM.
 NBasis=    38 RedAO= T EigKep=  7.40D-03  NBF=    38
 NBsUse=    38 1.00D-06 EigRej= -1.00D+00 NBFU=    38
 ExpMin= 1.61D-01 ExpMax= 3.05D+03 ExpMxC= 4.57D+02 IAcc=3 IRadAn=         5 AccDes= 0.00D+00
 Harris functional with IExCor= 1009 and IRadAn=       5 diagonalized for initial guess.
 HarFok:  IExCor= 1009 AccDes= 0.00D+00 IRadAn=         5 IDoV= 1 UseB2=F ITyADJ=14
 ICtDFT=  3500011 ScaDFX=  1.000000  1.000000  1.000000  1.000000
 FoFCou: FMM=F IPFlag=           0 FMFlag=      100000 FMFlg1=           0
         NFxFlg=           0 DoJE=T BraDBF=F KetDBF=T FulRan=T
         wScrn=  0.000000 ICntrl=       500 IOpCl=  0 I1Cent=   200000004 NGrid=           0
         NMat0=    1 NMatS0=      1 NMatT0=    0 NMatD0=    1 NMtDS0=    0 NMtDT0=    0
 Petite list used in FoFCou.
 Keep R1 ints in memory in canonical form, NReq=3729943.
 Requested convergence on RMS density matrix=1.00D-08 within 128 cycles.
 Requested convergence on MAX density matrix=1.00D-06.
 Requested convergence on             energy=1.00D-06.
 No special actions if energy rises.
 Integral accuracy reduced to 1.0D-05 until final iterations.
 Initial convergence to 1.0D-05 achieved.  Increase integral accuracy.
 SCF Done:  E(RM062X) =  -78.5171741402     A.U. after   12 cycles
            NFock= 12  Conv=0.78D-08     -V/T= 2.0094

 **********************************************************************

            Population analysis using the SCF density.

 **********************************************************************

 Orbital symmetries:
       Occupied  (A) (A) (A) (A) (A) (A) (A) (A)
       Virtual   (A) (A) (A) (A) (A) (A) (A) (A) (A) (A) (A) (A)
                 (A) (A) (A) (A) (A) (A) (A) (A) (A) (A) (A) (A)
                 (A) (A) (A) (A) (A) (A)
 The electronic state is 1-A.
 Alpha  occ. eigenvalues --  -10.54768 -10.54257  -0.84751  -0.65751  -0.54915
 Alpha  occ. eigenvalues --   -0.45119  -0.42813  -0.31460
 Alpha virt. eigenvalues --    0.04645   0.16026   0.20078   0.21733   0.29474
 Alpha virt. eigenvalues --    0.34369   0.53382   0.61390   0.62850   0.69375
 Alpha virt. eigenvalues --    0.71927   0.73469   0.91678   0.94167   0.98392
 Alpha virt. eigenvalues --    1.01341   1.13355   1.21457   1.50676   1.70281
 Alpha virt. eigenvalues --    1.82613   1.96920   2.03547   2.18087   2.36244
 Alpha virt. eigenvalues --    2.38655   2.57740   2.70235   4.11229   4.30003
          Condensed to atoms (all electrons):
               1          2          3          4          5          6
     1  C    4.992683   0.382706   0.642681  -0.035273   0.393563  -0.047185
     2  H    0.382706   0.510491  -0.034069  -0.004182  -0.031338   0.004861
     3  C    0.642681  -0.034069   5.007631   0.383027  -0.046205   0.385033
     4  H   -0.035273  -0.004182   0.383027   0.511284   0.004995  -0.030219
     5  H    0.393563  -0.031338  -0.046205   0.004995   0.525391  -0.013714
     6  H   -0.047185   0.004861   0.385033  -0.030219  -0.013714   0.543154
 Mulliken charges:
               1
     1  C   -0.329175
     2  H    0.171531
     3  C   -0.338099
     4  H    0.170368
     5  H    0.167307
     6  H    0.158069
 Sum of Mulliken charges =  -0.00000
 Mulliken charges with hydrogens summed into heavy atoms:
               1
     1  C    0.009662
     3  C   -0.009662
 Electronic spatial extent (au):  <R**2>=             82.6276
 Charge=             -0.0000 electrons
 Dipole moment (field-independent basis, Debye):
    X=             -0.0686    Y=              0.0219    Z=              0.1649  Tot=              0.1800
 Quadrupole moment (field-independent basis, Debye-Ang):
   XX=            -12.4328   YY=            -11.8188   ZZ=            -15.2215
   XY=             -0.0391   XZ=              0.2754   YZ=              0.0036
 Traceless Quadrupole moment (field-independent basis, Debye-Ang):
   XX=              0.7249   YY=              1.3389   ZZ=             -2.0638
   XY=             -0.0391   XZ=              0.2754   YZ=              0.0036
 Octapole moment (field-independent basis, Debye-Ang**2):
  XXX=             -0.4137  YYY=              0.4337  ZZZ=              0.2257  XYY=             -0.0557
  XXY=             -1.2045  XXZ=              0.3404  XZZ=             -0.0881  YZZ=              0.0950
  YYZ=              0.2384  XYZ=              0.1765
 Hexadecapole moment (field-independent basis, Debye-Ang**3):
 XXXX=            -67.9811 YYYY=            -25.2669 ZZZZ=            -16.3197 XXXY=             -0.1907
 XXXZ=              0.6232 YYYX=             -0.1284 YYYZ=              0.0112 ZZZX=              0.2909
 ZZZY=             -0.0048 XXYY=            -13.2965 XXZZ=            -14.7496 YYZZ=             -7.5557
 XXYZ=             -0.0803 YYXZ=              0.4129 ZZXY=             -0.0684
 N-N= 3.305941004784D+01 E-N=-2.474196404475D+02  KE= 7.778975322456D+01
 1\1\GINC-NODE97\SP\RM062X\6-31G(d)\C2H4\YANZ\05-Jun-2019\0\\#m062x/6-3
 1g(d) scf=tight\\tmpdir/M1_conf_0_5.gjf\\0,1\C,0,1.038209,-0.864594,1.
 256533\H,0,0.577494,-1.37555,2.094429\C,0,1.176349,-1.387687,-0.023472
 \H,0,0.997516,-2.422587,-0.29235\H,0,1.32081627,0.11199119,1.24201981\
 H,0,1.82747143,-0.71478791,-0.57892059\\Version=ES64L-G16RevA.03\State
 =1-A\HF=-78.5171741\RMSD=7.781e-09\Dipole=0.0577074,-0.0044535,0.04077
 27\Quadrupole=-0.9846222,0.7023942,0.282228,0.7227527,-0.7376456,0.151
 3878\PG=C01 [X(C2H4)]\\@


 A COMPUTER IS LIKE A HORSE, IT WILL SENSE WEAKNESS.
     -- GREG WETTSTEIN
 Job cpu time:       0 days  0 hours  0 minutes 11.1 seconds.
 Elapsed time:       0 days  0 hours  0 minutes  2.9 seconds.
 File lengths (MBytes):  RWF=      6 Int=      0 D2E=      0 Chk=      1 Scr=      1
 Normal termination of Gaussian 16 at Wed Jun  5 22:40:06 2019.
