 Entering Gaussian System, Link 0=g16
 Initial command:
 /share/apps/gaussian/g16/l1.exe "/tmp/55612.mgr/Gau-317209.inp" -scrdir="/tmp/55612.mgr/"
 Entering Link 1 = /share/apps/gaussian/g16/l1.exe PID=    317212.
  
 Copyright (c) 1988,1990,1992,1993,1995,1998,2003,2009,2016,
            Gaussian, Inc.  All Rights Reserved.
  
 This is part of the Gaussian(R) 16 program.  It is based on
 the Gaussian(R) 09 system (copyright 2009, Gaussian, Inc.),
 the Gaussian(R) 03 system (copyright 2003, Gaussian, Inc.),
 the Gaussian(R) 98 system (copyright 1998, Gaussian, Inc.),
 the Gaussian(R) 94 system (copyright 1995, Gaussian, Inc.),
 the Gaussian 92(TM) system (copyright 1992, Gaussian, Inc.),
 the Gaussian 90(TM) system (copyright 1990, Gaussian, Inc.),
 the Gaussian 88(TM) system (copyright 1988, Gaussian, Inc.),
 the Gaussian 86(TM) system (copyright 1986, Carnegie Mellon
 University), and the Gaussian 82(TM) system (copyright 1983,
 Carnegie Mellon University). Gaussian is a federally registered
 trademark of Gaussian, Inc.
  
 This software contains proprietary and confidential information,
 including trade secrets, belonging to Gaussian, Inc.
  
 This software is provided under written license and may be
 used, copied, transmitted, or stored only in accord with that
 written license.
  
 The following legend is applicable only to US Government
 contracts under FAR:
  
                    RESTRICTED RIGHTS LEGEND
  
 Use, reproduction and disclosure by the US Government is
 subject to restrictions as set forth in subparagraphs (a)
 and (c) of the Commercial Computer Software - Restricted
 Rights clause in FAR 52.227-19.
  
 Gaussian, Inc.
 340 Quinnipiac St., Bldg. 40, Wallingford CT 06492
  
  
 ---------------------------------------------------------------
 Warning -- This program may not be used in any manner that
 competes with the business of Gaussian, Inc. or will provide
 assistance to any competitor of Gaussian, Inc.  The licensee
 of this program is prohibited from giving any competitor of
 Gaussian, Inc. access to this program.  By using this program,
 the user acknowledges that Gaussian, Inc. is engaged in the
 business of creating and licensing software in the field of
 computational chemistry and represents and warrants to the
 licensee that it is not a competitor of Gaussian, Inc. and that
 it will not use this program in any manner prohibited above.
 ---------------------------------------------------------------
  

 Cite this work as:
 Gaussian 16, Revision A.03,
 M. J. Frisch, G. W. Trucks, H. B. Schlegel, G. E. Scuseria, 
 M. A. Robb, J. R. Cheeseman, G. Scalmani, V. Barone, 
 G. A. Petersson, H. Nakatsuji, X. Li, M. Caricato, A. V. Marenich, 
 J. Bloino, B. G. Janesko, R. Gomperts, B. Mennucci, H. P. Hratchian, 
 J. V. Ortiz, A. F. Izmaylov, J. L. Sonnenberg, D. Williams-Young, 
 F. Ding, F. Lipparini, F. Egidi, J. Goings, B. Peng, A. Petrone, 
 T. Henderson, D. Ranasinghe, V. G. Zakrzewski, J. Gao, N. Rega, 
 G. Zheng, W. Liang, M. Hada, M. Ehara, K. Toyota, R. Fukuda, 
 J. Hasegawa, M. Ishida, T. Nakajima, Y. Honda, O. Kitao, H. Nakai, 
 T. Vreven, K. Throssell, J. A. Montgomery, Jr., J. E. Peralta, 
 F. Ogliaro, M. J. Bearpark, J. J. Heyd, E. N. Brothers, K. N. Kudin, 
 V. N. Staroverov, T. A. Keith, R. Kobayashi, J. Normand, 
 K. Raghavachari, A. P. Rendell, J. C. Burant, S. S. Iyengar, 
 J. Tomasi, M. Cossi, J. M. Millam, M. Klene, C. Adamo, R. Cammi, 
 J. W. Ochterski, R. L. Martin, K. Morokuma, O. Farkas, 
 J. B. Foresman, and D. J. Fox, Gaussian, Inc., Wallingford CT, 2016.
 
 ******************************************
 Gaussian 16:  ES64L-G16RevA.03 25-Dec-2016
                 5-Jun-2019 
 ******************************************
 %nprocshared=4
 Will use up to    4 processors via shared memory.
 %mem=4GB
 -------------------------
 #m062x/6-31g(d) scf=tight
 -------------------------
 1/38=1,172=1/1;
 2/12=2,17=6,18=5,40=1/2;
 3/5=1,6=6,7=1,11=2,25=1,30=1,74=-55/1,2,3;
 4//1;
 5/5=2,32=2,38=5/2;
 6/7=2,8=2,9=2,10=2,28=1/1;
 99/5=1,9=1/99;
 ----------------------
 tmpdir/M1_conf_0_2.gjf
 ----------------------
 Symbolic Z-matrix:
 Charge =  0 Multiplicity = 1
 C                    -1.63853  -0.55298  -0.13093 
 O                    -2.31638  -1.55183  -0.02304 
 H                    -1.73274   0.36198   0.48788 
 H                    -0.84615  -0.37881  -0.82849 
 
                          Input orientation:                          
 ---------------------------------------------------------------------
 Center     Atomic      Atomic             Coordinates (Angstroms)
 Number     Number       Type             X           Y           Z
 ---------------------------------------------------------------------
      1          6           0       -1.638534   -0.552983   -0.130925
      2          8           0       -2.316384   -1.551826   -0.023039
      3          1           0       -1.732740    0.361976    0.487885
      4          1           0       -0.846150   -0.378815   -0.828491
 ---------------------------------------------------------------------
                    Distance matrix (angstroms):
                    1          2          3          4
     1  C    0.000000
     2  O    1.211944   0.000000
     3  H    1.108580   2.065024   0.000000
     4  H    1.069956   2.046045   1.751473   0.000000
 Stoichiometry    CH2O
 Framework group  C1[X(CH2O)]
 Deg. of freedom     6
 Full point group                 C1      NOp   1
 Largest Abelian subgroup         C1      NOp   1
 Largest concise Abelian subgroup C1      NOp   1
                         Standard orientation:                         
 ---------------------------------------------------------------------
 Center     Atomic      Atomic             Coordinates (Angstroms)
 Number     Number       Type             X           Y           Z
 ---------------------------------------------------------------------
      1          6           0       -0.524981   -0.007569   -0.000204
      2          8           0        0.686919    0.002702    0.000053
      3          1           0       -1.178894    0.887612    0.000388
      4          1           0       -1.166575   -0.863818    0.000411
 ---------------------------------------------------------------------
 Rotational constants (GHZ):         326.7485229          37.5829600          33.7060576
 Standard basis: 6-31G(d) (6D, 7F)
 There are    34 symmetry adapted cartesian basis functions of A   symmetry.
 There are    34 symmetry adapted basis functions of A   symmetry.
    34 basis functions,    64 primitive gaussians,    34 cartesian basis functions
     8 alpha electrons        8 beta electrons
       nuclear repulsion energy        31.2113028041 Hartrees.
 NAtoms=    4 NActive=    4 NUniq=    4 SFac= 1.00D+00 NAtFMM=   60 NAOKFM=F Big=F
 Integral buffers will be    131072 words long.
 Raffenetti 2 integral format.
 Two-electron integral symmetry is turned on.
 One-electron integrals computed using PRISM.
 NBasis=    34 RedAO= T EigKep=  9.37D-03  NBF=    34
 NBsUse=    34 1.00D-06 EigRej= -1.00D+00 NBFU=    34
 ExpMin= 1.61D-01 ExpMax= 5.48D+03 ExpMxC= 8.25D+02 IAcc=3 IRadAn=         5 AccDes= 0.00D+00
 Harris functional with IExCor= 1009 and IRadAn=       5 diagonalized for initial guess.
 HarFok:  IExCor= 1009 AccDes= 0.00D+00 IRadAn=         5 IDoV= 1 UseB2=F ITyADJ=14
 ICtDFT=  3500011 ScaDFX=  1.000000  1.000000  1.000000  1.000000
 FoFCou: FMM=F IPFlag=           0 FMFlag=      100000 FMFlg1=           0
         NFxFlg=           0 DoJE=T BraDBF=F KetDBF=T FulRan=T
         wScrn=  0.000000 ICntrl=       500 IOpCl=  0 I1Cent=   200000004 NGrid=           0
         NMat0=    1 NMatS0=      1 NMatT0=    0 NMatD0=    1 NMtDS0=    0 NMtDT0=    0
 Petite list used in FoFCou.
 Keep R1 ints in memory in canonical form, NReq=3631052.
 Requested convergence on RMS density matrix=1.00D-08 within 128 cycles.
 Requested convergence on MAX density matrix=1.00D-06.
 Requested convergence on             energy=1.00D-06.
 No special actions if energy rises.
 Integral accuracy reduced to 1.0D-05 until final iterations.
 Initial convergence to 1.0D-05 achieved.  Increase integral accuracy.
 SCF Done:  E(RM062X) =  -114.442291468     A.U. after   13 cycles
            NFock= 13  Conv=0.91D-08     -V/T= 2.0081

 **********************************************************************

            Population analysis using the SCF density.

 **********************************************************************

 Orbital symmetries:
       Occupied  (A) (A) (A) (A) (A) (A) (A) (A)
       Virtual   (A) (A) (A) (A) (A) (A) (A) (A) (A) (A) (A) (A)
                 (A) (A) (A) (A) (A) (A) (A) (A) (A) (A) (A) (A)
                 (A) (A)
 The electronic state is 1-A.
 Alpha  occ. eigenvalues --  -19.66490 -10.64687  -1.17894  -0.73781  -0.56576
 Alpha  occ. eigenvalues --   -0.53429  -0.46606  -0.34069
 Alpha virt. eigenvalues --    0.00929   0.15758   0.23936   0.26181   0.56706
 Alpha virt. eigenvalues --    0.64779   0.69617   0.77625   0.88175   0.91083
 Alpha virt. eigenvalues --    0.98159   1.04365   1.12725   1.42841   1.56239
 Alpha virt. eigenvalues --    1.56868   1.73398   1.92320   1.98938   2.17625
 Alpha virt. eigenvalues --    2.30959   2.58124   2.76824   2.95755   3.70250
 Alpha virt. eigenvalues --    4.12227
          Condensed to atoms (all electrons):
               1          2          3          4
     1  C    4.678022   0.543431   0.352489   0.349205
     2  O    0.543431   7.902865  -0.049502  -0.047917
     3  H    0.352489  -0.049502   0.672138  -0.103921
     4  H    0.349205  -0.047917  -0.103921   0.659408
 Mulliken charges:
               1
     1  C    0.076854
     2  O   -0.348876
     3  H    0.128797
     4  H    0.143226
 Sum of Mulliken charges =  -0.00000
 Mulliken charges with hydrogens summed into heavy atoms:
               1
     1  C    0.348876
     2  O   -0.348876
 Electronic spatial extent (au):  <R**2>=             60.5615
 Charge=             -0.0000 electrons
 Dipole moment (field-independent basis, Debye):
    X=             -2.3424    Y=             -0.0672    Z=             -0.0000  Tot=              2.3434
 Quadrupole moment (field-independent basis, Debye-Ang):
   XX=            -11.6390   YY=            -11.7251   ZZ=            -11.4366
   XY=              0.0655   XZ=             -0.0004   YZ=              0.0000
 Traceless Quadrupole moment (field-independent basis, Debye-Ang):
   XX=             -0.0388   YY=             -0.1249   ZZ=              0.1636
   XY=              0.0655   XZ=             -0.0004   YZ=              0.0000
 Octapole moment (field-independent basis, Debye-Ang**2):
  XXX=              0.4728  YYY=             -0.1261  ZZZ=              0.0003  XYY=              0.0858
  XXY=             -0.0989  XXZ=              0.0010  XZZ=              0.8299  YZZ=             -0.0502
  YYZ=              0.0007  XYZ=              0.0000
 Hexadecapole moment (field-independent basis, Debye-Ang**3):
 XXXX=            -44.3552 YYYY=            -17.1960 ZZZZ=             -9.2176 XXXY=              0.2278
 XXXZ=             -0.0013 YYYX=              0.1463 YYYZ=             -0.0000 ZZZX=              0.0002
 ZZZY=             -0.0000 XXYY=            -10.1416 XXZZ=             -9.0434 YYZZ=             -4.5567
 XXYZ=              0.0000 YYXZ=             -0.0007 ZZXY=              0.0633
 N-N= 3.121130280408D+01 E-N=-3.307359875025D+02  KE= 1.135256096706D+02
 1\1\GINC-NODE97\SP\RM062X\6-31G(d)\C1H2O1\YANZ\05-Jun-2019\0\\#m062x/6
 -31g(d) scf=tight\\tmpdir/M1_conf_0_2.gjf\\0,1\C,0,-1.638534,-0.552983
 ,-0.130925\O,0,-2.316384,-1.551826,-0.023039\H,0,-1.7327398,0.36197633
 ,0.4878846\H,0,-0.84614956,-0.37881458,-0.82849123\\Version=ES64L-G16R
 evA.03\State=1-A\HF=-114.4422915\RMSD=9.132e-09\Dipole=0.5248304,0.751
 8555,-0.0961761\Quadrupole=0.0468757,-0.0522303,0.0053546,-0.0142835,0
 .0667352,-0.0858081\PG=C01 [X(C1H2O1)]\\@


 We find comfort among those who agree with us -- growth among those who don't.
 -- Frank A. Clark
 Job cpu time:       0 days  0 hours  0 minutes  8.3 seconds.
 Elapsed time:       0 days  0 hours  0 minutes  2.2 seconds.
 File lengths (MBytes):  RWF=      6 Int=      0 D2E=      0 Chk=      1 Scr=      1
 Normal termination of Gaussian 16 at Wed Jun  5 22:40:05 2019.
