 Entering Gaussian System, Link 0=g16
 Initial command:
 /share/apps/gaussian/g16/l1.exe "/tmp/55612.mgr/Gau-317374.inp" -scrdir="/tmp/55612.mgr/"
 Entering Link 1 = /share/apps/gaussian/g16/l1.exe PID=    317375.
  
 Copyright (c) 1988,1990,1992,1993,1995,1998,2003,2009,2016,
            Gaussian, Inc.  All Rights Reserved.
  
 This is part of the Gaussian(R) 16 program.  It is based on
 the Gaussian(R) 09 system (copyright 2009, Gaussian, Inc.),
 the Gaussian(R) 03 system (copyright 2003, Gaussian, Inc.),
 the Gaussian(R) 98 system (copyright 1998, Gaussian, Inc.),
 the Gaussian(R) 94 system (copyright 1995, Gaussian, Inc.),
 the Gaussian 92(TM) system (copyright 1992, Gaussian, Inc.),
 the Gaussian 90(TM) system (copyright 1990, Gaussian, Inc.),
 the Gaussian 88(TM) system (copyright 1988, Gaussian, Inc.),
 the Gaussian 86(TM) system (copyright 1986, Carnegie Mellon
 University), and the Gaussian 82(TM) system (copyright 1983,
 Carnegie Mellon University). Gaussian is a federally registered
 trademark of Gaussian, Inc.
  
 This software contains proprietary and confidential information,
 including trade secrets, belonging to Gaussian, Inc.
  
 This software is provided under written license and may be
 used, copied, transmitted, or stored only in accord with that
 written license.
  
 The following legend is applicable only to US Government
 contracts under FAR:
  
                    RESTRICTED RIGHTS LEGEND
  
 Use, reproduction and disclosure by the US Government is
 subject to restrictions as set forth in subparagraphs (a)
 and (c) of the Commercial Computer Software - Restricted
 Rights clause in FAR 52.227-19.
  
 Gaussian, Inc.
 340 Quinnipiac St., Bldg. 40, Wallingford CT 06492
  
  
 ---------------------------------------------------------------
 Warning -- This program may not be used in any manner that
 competes with the business of Gaussian, Inc. or will provide
 assistance to any competitor of Gaussian, Inc.  The licensee
 of this program is prohibited from giving any competitor of
 Gaussian, Inc. access to this program.  By using this program,
 the user acknowledges that Gaussian, Inc. is engaged in the
 business of creating and licensing software in the field of
 computational chemistry and represents and warrants to the
 licensee that it is not a competitor of Gaussian, Inc. and that
 it will not use this program in any manner prohibited above.
 ---------------------------------------------------------------
  

 Cite this work as:
 Gaussian 16, Revision A.03,
 M. J. Frisch, G. W. Trucks, H. B. Schlegel, G. E. Scuseria, 
 M. A. Robb, J. R. Cheeseman, G. Scalmani, V. Barone, 
 G. A. Petersson, H. Nakatsuji, X. Li, M. Caricato, A. V. Marenich, 
 J. Bloino, B. G. Janesko, R. Gomperts, B. Mennucci, H. P. Hratchian, 
 J. V. Ortiz, A. F. Izmaylov, J. L. Sonnenberg, D. Williams-Young, 
 F. Ding, F. Lipparini, F. Egidi, J. Goings, B. Peng, A. Petrone, 
 T. Henderson, D. Ranasinghe, V. G. Zakrzewski, J. Gao, N. Rega, 
 G. Zheng, W. Liang, M. Hada, M. Ehara, K. Toyota, R. Fukuda, 
 J. Hasegawa, M. Ishida, T. Nakajima, Y. Honda, O. Kitao, H. Nakai, 
 T. Vreven, K. Throssell, J. A. Montgomery, Jr., J. E. Peralta, 
 F. Ogliaro, M. J. Bearpark, J. J. Heyd, E. N. Brothers, K. N. Kudin, 
 V. N. Staroverov, T. A. Keith, R. Kobayashi, J. Normand, 
 K. Raghavachari, A. P. Rendell, J. C. Burant, S. S. Iyengar, 
 J. Tomasi, M. Cossi, J. M. Millam, M. Klene, C. Adamo, R. Cammi, 
 J. W. Ochterski, R. L. Martin, K. Morokuma, O. Farkas, 
 J. B. Foresman, and D. J. Fox, Gaussian, Inc., Wallingford CT, 2016.
 
 ******************************************
 Gaussian 16:  ES64L-G16RevA.03 25-Dec-2016
                 5-Jun-2019 
 ******************************************
 %nprocshared=4
 Will use up to    4 processors via shared memory.
 %mem=4GB
 -------------------------
 #m062x/6-31g(d) scf=tight
 -------------------------
 1/38=1,172=1/1;
 2/12=2,17=6,18=5,40=1/2;
 3/5=1,6=6,7=1,11=2,25=1,30=1,74=-55/1,2,3;
 4//1;
 5/5=2,32=2,38=5/2;
 6/7=2,8=2,9=2,10=2,28=1/1;
 99/5=1,9=1/99;
 ----------------------
 tmpdir/M1_conf_0_6.gjf
 ----------------------
 Symbolic Z-matrix:
 Charge =  0 Multiplicity = 1
 C                     1.42861   0.48449   1.23648 
 H                     1.34001   1.17476   2.06862 
 C                     1.78673   0.83546  -0.06857 
 H                     2.273     1.77216  -0.32323 
 H                     1.146    -0.49209   1.251 
 H                     1.99601  -0.10095  -0.59137 
 
                          Input orientation:                          
 ---------------------------------------------------------------------
 Center     Atomic      Atomic             Coordinates (Angstroms)
 Number     Number       Type             X           Y           Z
 ---------------------------------------------------------------------
      1          6           0        1.428612    0.484493    1.236484
      2          1           0        1.340009    1.174761    2.068622
      3          6           0        1.786729    0.835455   -0.068565
      4          1           0        2.273002    1.772158   -0.323225
      5          1           0        1.146005   -0.492092    1.250997
      6          1           0        1.996006   -0.100947   -0.591371
 ---------------------------------------------------------------------
                    Distance matrix (angstroms):
                    1          2          3          4          5
     1  C    0.000000
     2  H    1.084792   0.000000
     3  C    1.398061   2.209583   0.000000
     4  H    2.191750   2.635961   1.085691   0.000000
     5  H    1.016758   1.866694   1.978422   2.979115   0.000000
     6  H    2.001432   3.022140   1.092691   1.912368   2.066354
                    6
     6  H    0.000000
 Stoichiometry    C2H4
 Framework group  C1[X(C2H4)]
 Deg. of freedom    12
 Full point group                 C1      NOp   1
 Largest Abelian subgroup         C1      NOp   1
 Largest concise Abelian subgroup C1      NOp   1
                         Standard orientation:                         
 ---------------------------------------------------------------------
 Center     Atomic      Atomic             Coordinates (Angstroms)
 Number     Number       Type             X           Y           Z
 ---------------------------------------------------------------------
      1          6           0        0.695907   -0.006794    0.020085
      2          1           0        1.331376   -0.885966    0.023237
      3          6           0       -0.699329   -0.019821   -0.067799
      4          1           0       -1.302311   -0.900339    0.131770
      5          1           0        1.022798    0.953785   -0.044927
      6          1           0       -1.031330    0.992212    0.176203
 ---------------------------------------------------------------------
 Rotational constants (GHZ):         139.5328813          29.0267059          24.2605532
 Standard basis: 6-31G(d) (6D, 7F)
 There are    38 symmetry adapted cartesian basis functions of A   symmetry.
 There are    38 symmetry adapted basis functions of A   symmetry.
    38 basis functions,    72 primitive gaussians,    38 cartesian basis functions
     8 alpha electrons        8 beta electrons
       nuclear repulsion energy        32.9527040294 Hartrees.
 NAtoms=    6 NActive=    6 NUniq=    6 SFac= 1.00D+00 NAtFMM=   60 NAOKFM=F Big=F
 Integral buffers will be    131072 words long.
 Raffenetti 2 integral format.
 Two-electron integral symmetry is turned on.
 One-electron integrals computed using PRISM.
 NBasis=    38 RedAO= T EigKep=  7.72D-03  NBF=    38
 NBsUse=    38 1.00D-06 EigRej= -1.00D+00 NBFU=    38
 ExpMin= 1.61D-01 ExpMax= 3.05D+03 ExpMxC= 4.57D+02 IAcc=3 IRadAn=         5 AccDes= 0.00D+00
 Harris functional with IExCor= 1009 and IRadAn=       5 diagonalized for initial guess.
 HarFok:  IExCor= 1009 AccDes= 0.00D+00 IRadAn=         5 IDoV= 1 UseB2=F ITyADJ=14
 ICtDFT=  3500011 ScaDFX=  1.000000  1.000000  1.000000  1.000000
 FoFCou: FMM=F IPFlag=           0 FMFlag=      100000 FMFlg1=           0
         NFxFlg=           0 DoJE=T BraDBF=F KetDBF=T FulRan=T
         wScrn=  0.000000 ICntrl=       500 IOpCl=  0 I1Cent=   200000004 NGrid=           0
         NMat0=    1 NMatS0=      1 NMatT0=    0 NMatD0=    1 NMtDS0=    0 NMtDT0=    0
 Petite list used in FoFCou.
 Keep R1 ints in memory in canonical form, NReq=3729943.
 Requested convergence on RMS density matrix=1.00D-08 within 128 cycles.
 Requested convergence on MAX density matrix=1.00D-06.
 Requested convergence on             energy=1.00D-06.
 No special actions if energy rises.
 Integral accuracy reduced to 1.0D-05 until final iterations.
 Initial convergence to 1.0D-05 achieved.  Increase integral accuracy.
 SCF Done:  E(RM062X) =  -78.5136597140     A.U. after   12 cycles
            NFock= 12  Conv=0.86D-08     -V/T= 2.0096

 **********************************************************************

            Population analysis using the SCF density.

 **********************************************************************

 Orbital symmetries:
       Occupied  (A) (A) (A) (A) (A) (A) (A) (A)
       Virtual   (A) (A) (A) (A) (A) (A) (A) (A) (A) (A) (A) (A)
                 (A) (A) (A) (A) (A) (A) (A) (A) (A) (A) (A) (A)
                 (A) (A) (A) (A) (A) (A)
 The electronic state is 1-A.
 Alpha  occ. eigenvalues --  -10.54852 -10.54533  -0.84646  -0.65813  -0.54781
 Alpha  occ. eigenvalues --   -0.44963  -0.42690  -0.31452
 Alpha virt. eigenvalues --    0.04090   0.16024   0.20028   0.21739   0.29245
 Alpha virt. eigenvalues --    0.34098   0.53552   0.61470   0.62807   0.69224
 Alpha virt. eigenvalues --    0.71498   0.74349   0.89400   0.93929   0.98287
 Alpha virt. eigenvalues --    1.01052   1.13166   1.16777   1.50862   1.71701
 Alpha virt. eigenvalues --    1.82795   1.95567   2.05564   2.18565   2.35305
 Alpha virt. eigenvalues --    2.37378   2.56209   2.69376   4.10884   4.29958
          Condensed to atoms (all electrons):
               1          2          3          4          5          6
     1  C    5.003194   0.381822   0.635878  -0.036020   0.393257  -0.047218
     2  H    0.381822   0.510069  -0.033525  -0.004235  -0.031493   0.004914
     3  C    0.635878  -0.033525   5.014995   0.383002  -0.046369   0.383698
     4  H   -0.036020  -0.004235   0.383002   0.513980   0.004994  -0.031313
     5  H    0.393257  -0.031493  -0.046369   0.004994   0.523748  -0.013630
     6  H   -0.047218   0.004914   0.383698  -0.031313  -0.013630   0.546490
 Mulliken charges:
               1
     1  C   -0.330912
     2  H    0.172449
     3  C   -0.337679
     4  H    0.169591
     5  H    0.169492
     6  H    0.157058
 Sum of Mulliken charges =   0.00000
 Mulliken charges with hydrogens summed into heavy atoms:
               1
     1  C    0.011029
     3  C   -0.011029
 Electronic spatial extent (au):  <R**2>=             82.9594
 Charge=              0.0000 electrons
 Dipole moment (field-independent basis, Debye):
    X=              0.1371    Y=              0.0199    Z=              0.2791  Tot=              0.3116
 Quadrupole moment (field-independent basis, Debye-Ang):
   XX=            -12.4992   YY=            -11.8661   ZZ=            -15.2095
   XY=              0.0451   XZ=             -0.3681   YZ=              0.0082
 Traceless Quadrupole moment (field-independent basis, Debye-Ang):
   XX=              0.6924   YY=              1.3255   ZZ=             -2.0179
   XY=              0.0451   XZ=             -0.3681   YZ=              0.0082
 Octapole moment (field-independent basis, Debye-Ang**2):
  XXX=              0.6504  YYY=              0.4239  ZZZ=              0.3958  XYY=              0.1486
  XXY=             -1.1841  XXZ=              0.5653  XZZ=              0.0988  YZZ=              0.0853
  YYZ=              0.3925  XYZ=             -0.1004
 Hexadecapole moment (field-independent basis, Debye-Ang**3):
 XXXX=            -68.5688 YYYY=            -25.3450 ZZZZ=            -16.5181 XXXY=              0.1741
 XXXZ=             -0.8681 YYYX=              0.1496 YYYZ=              0.0215 ZZZX=             -0.3851
 ZZZY=              0.0021 XXYY=            -13.4324 XXZZ=            -14.8211 YYZZ=             -7.5631
 XXYZ=             -0.1307 YYXZ=             -0.5420 ZZXY=              0.0798
 N-N= 3.295270402937D+01 E-N=-2.471808767822D+02  KE= 7.776686778387D+01
 1\1\GINC-NODE97\SP\RM062X\6-31G(d)\C2H4\YANZ\05-Jun-2019\0\\#m062x/6-3
 1g(d) scf=tight\\tmpdir/M1_conf_0_6.gjf\\0,1\C,0,1.428612,0.484493,1.2
 36484\H,0,1.340009,1.174761,2.068622\C,0,1.786729,0.835455,-0.068565\H
 ,0,2.273002,1.772158,-0.323225\H,0,1.14600473,-0.49209219,1.25099719\H
 ,0,1.99600589,-0.10094728,-0.59137139\\Version=ES64L-G16RevA.03\State=
 1-A\HF=-78.5136597\RMSD=8.583e-09\Dipole=0.085372,-0.0419994,0.0772885
 \Quadrupole=-1.099393,0.8510615,0.2483314,0.4854208,-0.7147595,0.27515
 94\PG=C01 [X(C2H4)]\\@


 MY GROUP MEETINGS AREN'T VERY STRUCTURED.
     -- PROF. M. S. GORDON, OCT. 5, 1984
 Job cpu time:       0 days  0 hours  0 minutes 10.8 seconds.
 Elapsed time:       0 days  0 hours  0 minutes  2.8 seconds.
 File lengths (MBytes):  RWF=      6 Int=      0 D2E=      0 Chk=      1 Scr=      1
 Normal termination of Gaussian 16 at Wed Jun  5 22:40:08 2019.
