 Entering Gaussian System, Link 0=g16
 Initial command:
 /share/apps/gaussian/g16/l1.exe "/tmp/55612.mgr/Gau-317214.inp" -scrdir="/tmp/55612.mgr/"
 Entering Link 1 = /share/apps/gaussian/g16/l1.exe PID=    317218.
  
 Copyright (c) 1988,1990,1992,1993,1995,1998,2003,2009,2016,
            Gaussian, Inc.  All Rights Reserved.
  
 This is part of the Gaussian(R) 16 program.  It is based on
 the Gaussian(R) 09 system (copyright 2009, Gaussian, Inc.),
 the Gaussian(R) 03 system (copyright 2003, Gaussian, Inc.),
 the Gaussian(R) 98 system (copyright 1998, Gaussian, Inc.),
 the Gaussian(R) 94 system (copyright 1995, Gaussian, Inc.),
 the Gaussian 92(TM) system (copyright 1992, Gaussian, Inc.),
 the Gaussian 90(TM) system (copyright 1990, Gaussian, Inc.),
 the Gaussian 88(TM) system (copyright 1988, Gaussian, Inc.),
 the Gaussian 86(TM) system (copyright 1986, Carnegie Mellon
 University), and the Gaussian 82(TM) system (copyright 1983,
 Carnegie Mellon University). Gaussian is a federally registered
 trademark of Gaussian, Inc.
  
 This software contains proprietary and confidential information,
 including trade secrets, belonging to Gaussian, Inc.
  
 This software is provided under written license and may be
 used, copied, transmitted, or stored only in accord with that
 written license.
  
 The following legend is applicable only to US Government
 contracts under FAR:
  
                    RESTRICTED RIGHTS LEGEND
  
 Use, reproduction and disclosure by the US Government is
 subject to restrictions as set forth in subparagraphs (a)
 and (c) of the Commercial Computer Software - Restricted
 Rights clause in FAR 52.227-19.
  
 Gaussian, Inc.
 340 Quinnipiac St., Bldg. 40, Wallingford CT 06492
  
  
 ---------------------------------------------------------------
 Warning -- This program may not be used in any manner that
 competes with the business of Gaussian, Inc. or will provide
 assistance to any competitor of Gaussian, Inc.  The licensee
 of this program is prohibited from giving any competitor of
 Gaussian, Inc. access to this program.  By using this program,
 the user acknowledges that Gaussian, Inc. is engaged in the
 business of creating and licensing software in the field of
 computational chemistry and represents and warrants to the
 licensee that it is not a competitor of Gaussian, Inc. and that
 it will not use this program in any manner prohibited above.
 ---------------------------------------------------------------
  

 Cite this work as:
 Gaussian 16, Revision A.03,
 M. J. Frisch, G. W. Trucks, H. B. Schlegel, G. E. Scuseria, 
 M. A. Robb, J. R. Cheeseman, G. Scalmani, V. Barone, 
 G. A. Petersson, H. Nakatsuji, X. Li, M. Caricato, A. V. Marenich, 
 J. Bloino, B. G. Janesko, R. Gomperts, B. Mennucci, H. P. Hratchian, 
 J. V. Ortiz, A. F. Izmaylov, J. L. Sonnenberg, D. Williams-Young, 
 F. Ding, F. Lipparini, F. Egidi, J. Goings, B. Peng, A. Petrone, 
 T. Henderson, D. Ranasinghe, V. G. Zakrzewski, J. Gao, N. Rega, 
 G. Zheng, W. Liang, M. Hada, M. Ehara, K. Toyota, R. Fukuda, 
 J. Hasegawa, M. Ishida, T. Nakajima, Y. Honda, O. Kitao, H. Nakai, 
 T. Vreven, K. Throssell, J. A. Montgomery, Jr., J. E. Peralta, 
 F. Ogliaro, M. J. Bearpark, J. J. Heyd, E. N. Brothers, K. N. Kudin, 
 V. N. Staroverov, T. A. Keith, R. Kobayashi, J. Normand, 
 K. Raghavachari, A. P. Rendell, J. C. Burant, S. S. Iyengar, 
 J. Tomasi, M. Cossi, J. M. Millam, M. Klene, C. Adamo, R. Cammi, 
 J. W. Ochterski, R. L. Martin, K. Morokuma, O. Farkas, 
 J. B. Foresman, and D. J. Fox, Gaussian, Inc., Wallingford CT, 2016.
 
 ******************************************
 Gaussian 16:  ES64L-G16RevA.03 25-Dec-2016
                 5-Jun-2019 
 ******************************************
 %nprocshared=4
 Will use up to    4 processors via shared memory.
 %mem=4GB
 -------------------------
 #m062x/6-31g(d) scf=tight
 -------------------------
 1/38=1,172=1/1;
 2/12=2,17=6,18=5,40=1/2;
 3/5=1,6=6,7=1,11=2,25=1,30=1,74=-55/1,2,3;
 4//1;
 5/5=2,32=2,38=5/2;
 6/7=2,8=2,9=2,10=2,28=1/1;
 99/5=1,9=1/99;
 ----------------------
 tmpdir/M1_conf_0_1.gjf
 ----------------------
 Symbolic Z-matrix:
 Charge =  0 Multiplicity = 1
 C                    -0.11278   1.01064  -1.00666 
 C                    -0.54391  -0.31238  -1.09457 
 H                     0.33759   1.52404  -1.85127 
 H                    -0.40402  -0.97193  -1.94283 
 H                    -0.75896   1.57856  -0.31425 
 H                    -1.33629  -0.48655  -0.397 
 
                          Input orientation:                          
 ---------------------------------------------------------------------
 Center     Atomic      Atomic             Coordinates (Angstroms)
 Number     Number       Type             X           Y           Z
 ---------------------------------------------------------------------
      1          6           0       -0.112780    1.010644   -1.006662
      2          6           0       -0.543908   -0.312381   -1.094566
      3          1           0        0.337585    1.524043   -1.851271
      4          1           0       -0.404022   -0.971925   -1.942831
      5          1           0       -0.758957    1.578556   -0.314246
      6          1           0       -1.336292   -0.486549   -0.397000
 ---------------------------------------------------------------------
                    Distance matrix (angstroms):
                    1          2          3          4          5
     1  C    0.000000
     2  C    1.394272   0.000000
     3  H    1.086173   2.173036   0.000000
     4  H    2.211745   1.083568   2.605421   0.000000
     5  H    1.104314   2.056888   1.888868   3.046838   0.000000
     6  H    2.027377   1.069956   2.993201   1.869308   2.145885
                    6
     6  H    0.000000
 Stoichiometry    C2H4
 Framework group  C1[X(C2H4)]
 Deg. of freedom    12
 Full point group                 C1      NOp   1
 Largest Abelian subgroup         C1      NOp   1
 Largest concise Abelian subgroup C1      NOp   1
                         Standard orientation:                         
 ---------------------------------------------------------------------
 Center     Atomic      Atomic             Coordinates (Angstroms)
 Number     Number       Type             X           Y           Z
 ---------------------------------------------------------------------
      1          6           0       -0.698635   -0.020908   -0.070203
      2          6           0        0.695319   -0.011463   -0.041943
      3          1           0       -1.271488   -0.902607    0.202225
      4          1           0        1.333267   -0.864328    0.157462
      5          1           0       -1.093446    0.977791    0.187155
      6          1           0        1.051562    0.983364    0.126036
 ---------------------------------------------------------------------
 Rotational constants (GHZ):         136.6422568          28.7458967          24.1607274
 Standard basis: 6-31G(d) (6D, 7F)
 There are    38 symmetry adapted cartesian basis functions of A   symmetry.
 There are    38 symmetry adapted basis functions of A   symmetry.
    38 basis functions,    72 primitive gaussians,    38 cartesian basis functions
     8 alpha electrons        8 beta electrons
       nuclear repulsion energy        32.7291018466 Hartrees.
 NAtoms=    6 NActive=    6 NUniq=    6 SFac= 1.00D+00 NAtFMM=   60 NAOKFM=F Big=F
 Integral buffers will be    131072 words long.
 Raffenetti 2 integral format.
 Two-electron integral symmetry is turned on.
 One-electron integrals computed using PRISM.
 NBasis=    38 RedAO= T EigKep=  8.04D-03  NBF=    38
 NBsUse=    38 1.00D-06 EigRej= -1.00D+00 NBFU=    38
 ExpMin= 1.61D-01 ExpMax= 3.05D+03 ExpMxC= 4.57D+02 IAcc=3 IRadAn=         5 AccDes= 0.00D+00
 Harris functional with IExCor= 1009 and IRadAn=       5 diagonalized for initial guess.
 HarFok:  IExCor= 1009 AccDes= 0.00D+00 IRadAn=         5 IDoV= 1 UseB2=F ITyADJ=14
 ICtDFT=  3500011 ScaDFX=  1.000000  1.000000  1.000000  1.000000
 FoFCou: FMM=F IPFlag=           0 FMFlag=      100000 FMFlg1=           0
         NFxFlg=           0 DoJE=T BraDBF=F KetDBF=T FulRan=T
         wScrn=  0.000000 ICntrl=       500 IOpCl=  0 I1Cent=   200000004 NGrid=           0
         NMat0=    1 NMatS0=      1 NMatT0=    0 NMatD0=    1 NMtDS0=    0 NMtDT0=    0
 Petite list used in FoFCou.
 Keep R1 ints in memory in canonical form, NReq=3729943.
 Requested convergence on RMS density matrix=1.00D-08 within 128 cycles.
 Requested convergence on MAX density matrix=1.00D-06.
 Requested convergence on             energy=1.00D-06.
 No special actions if energy rises.
 Integral accuracy reduced to 1.0D-05 until final iterations.
 Initial convergence to 1.0D-05 achieved.  Increase integral accuracy.
 SCF Done:  E(RM062X) =  -78.5152836756     A.U. after   13 cycles
            NFock= 13  Conv=0.27D-08     -V/T= 2.0109

 **********************************************************************

            Population analysis using the SCF density.

 **********************************************************************

 Orbital symmetries:
       Occupied  (A) (A) (A) (A) (A) (A) (A) (A)
       Virtual   (A) (A) (A) (A) (A) (A) (A) (A) (A) (A) (A) (A)
                 (A) (A) (A) (A) (A) (A) (A) (A) (A) (A) (A) (A)
                 (A) (A) (A) (A) (A) (A)
 The electronic state is 1-A.
 Alpha  occ. eigenvalues --  -10.55139 -10.55044  -0.84318  -0.65563  -0.53860
 Alpha  occ. eigenvalues --   -0.45732  -0.41885  -0.31442
 Alpha virt. eigenvalues --    0.03533   0.15706   0.19244   0.21515   0.29597
 Alpha virt. eigenvalues --    0.34853   0.53838   0.61208   0.61866   0.69094
 Alpha virt. eigenvalues --    0.71976   0.74542   0.90467   0.92193   0.98519
 Alpha virt. eigenvalues --    0.99987   1.11675   1.14151   1.50412   1.60202
 Alpha virt. eigenvalues --    1.93457   1.97081   2.05684   2.13638   2.28414
 Alpha virt. eigenvalues --    2.38781   2.59238   2.69224   4.10428   4.29521
          Condensed to atoms (all electrons):
               1          2          3          4          5          6
     1  C    5.022051   0.625141   0.382291  -0.032828   0.383609  -0.045407
     2  C    0.625141   5.015654  -0.036936   0.381638  -0.043120   0.387587
     3  H    0.382291  -0.036936   0.518725  -0.004349  -0.034030   0.004968
     4  H   -0.032828   0.381638  -0.004349   0.510983   0.004511  -0.033768
     5  H    0.383609  -0.043120  -0.034030   0.004511   0.542629  -0.011956
     6  H   -0.045407   0.387587   0.004968  -0.033768  -0.011956   0.535259
 Mulliken charges:
               1
     1  C   -0.334857
     2  C   -0.329964
     3  H    0.169332
     4  H    0.173813
     5  H    0.158358
     6  H    0.163318
 Sum of Mulliken charges =  -0.00000
 Mulliken charges with hydrogens summed into heavy atoms:
               1
     1  C   -0.007167
     2  C    0.007167
 Electronic spatial extent (au):  <R**2>=             83.7368
 Charge=             -0.0000 electrons
 Dipole moment (field-independent basis, Debye):
    X=              0.1041    Y=              0.0151    Z=              0.6355  Tot=              0.6442
 Quadrupole moment (field-independent basis, Debye-Ang):
   XX=            -12.5636   YY=            -12.0457   ZZ=            -15.1549
   XY=             -0.0707   XZ=             -0.1228   YZ=              0.0153
 Traceless Quadrupole moment (field-independent basis, Debye-Ang):
   XX=              0.6911   YY=              1.2091   ZZ=             -1.9002
   XY=             -0.0707   XZ=             -0.1228   YZ=              0.0153
 Octapole moment (field-independent basis, Debye-Ang**2):
  XXX=              0.5338  YYY=              0.3824  ZZZ=              0.9294  XYY=              0.0653
  XXY=             -0.9592  XXZ=              1.3545  XZZ=              0.0509  YZZ=             -0.0019
  YYZ=              0.9046  XYZ=             -0.0176
 Hexadecapole moment (field-independent basis, Debye-Ang**3):
 XXXX=            -69.6028 YYYY=            -25.9493 ZZZZ=            -16.8527 XXXY=             -0.3592
 XXXZ=             -0.2491 YYYX=              0.0129 YYYZ=              0.0703 ZZZX=             -0.1263
 ZZZY=              0.0010 XXYY=            -13.7104 XXZZ=            -14.9176 YYZZ=             -7.6180
 XXYZ=             -0.2461 YYXZ=             -0.1825 ZZXY=              0.0110
 N-N= 3.272910184656D+01 E-N=-2.466642595548D+02  KE= 7.767046080027D+01
 1\1\GINC-NODE97\SP\RM062X\6-31G(d)\C2H4\YANZ\05-Jun-2019\0\\#m062x/6-3
 1g(d) scf=tight\\tmpdir/M1_conf_0_1.gjf\\0,1\C,0,-0.11278,1.010644,-1.
 006662\C,0,-0.543908,-0.312381,-1.094566\H,0,0.337585,1.524043,-1.8512
 71\H,0,-0.404022,-0.971925,-1.942831\H,0,-0.75895684,1.57855573,-0.314
 2455\H,0,-1.33629244,-0.48654942,-0.39699977\\Version=ES64L-G16RevA.03
 \State=1-A\HF=-78.5152837\RMSD=2.655e-09\Dipole=-0.2089089,0.0288986,-
 0.1405284\Quadrupole=-0.5692928,0.4399166,0.1293762,0.2857438,-1.04293
 36,0.329612\PG=C01 [X(C2H4)]\\@


 A COMPUTER IS LIKE A HORSE, IT WILL SENSE WEAKNESS.
     -- GREG WETTSTEIN
 Job cpu time:       0 days  0 hours  0 minutes 12.5 seconds.
 Elapsed time:       0 days  0 hours  0 minutes  3.3 seconds.
 File lengths (MBytes):  RWF=      6 Int=      0 D2E=      0 Chk=      1 Scr=      1
 Normal termination of Gaussian 16 at Wed Jun  5 22:40:06 2019.
