 Entering Gaussian System, Link 0=g16
 Initial command:
 /share/apps/gaussian/g16/l1.exe "/tmp/55612.mgr/Gau-316961.inp" -scrdir="/tmp/55612.mgr/"
 Entering Link 1 = /share/apps/gaussian/g16/l1.exe PID=    316967.
  
 Copyright (c) 1988,1990,1992,1993,1995,1998,2003,2009,2016,
            Gaussian, Inc.  All Rights Reserved.
  
 This is part of the Gaussian(R) 16 program.  It is based on
 the Gaussian(R) 09 system (copyright 2009, Gaussian, Inc.),
 the Gaussian(R) 03 system (copyright 2003, Gaussian, Inc.),
 the Gaussian(R) 98 system (copyright 1998, Gaussian, Inc.),
 the Gaussian(R) 94 system (copyright 1995, Gaussian, Inc.),
 the Gaussian 92(TM) system (copyright 1992, Gaussian, Inc.),
 the Gaussian 90(TM) system (copyright 1990, Gaussian, Inc.),
 the Gaussian 88(TM) system (copyright 1988, Gaussian, Inc.),
 the Gaussian 86(TM) system (copyright 1986, Carnegie Mellon
 University), and the Gaussian 82(TM) system (copyright 1983,
 Carnegie Mellon University). Gaussian is a federally registered
 trademark of Gaussian, Inc.
  
 This software contains proprietary and confidential information,
 including trade secrets, belonging to Gaussian, Inc.
  
 This software is provided under written license and may be
 used, copied, transmitted, or stored only in accord with that
 written license.
  
 The following legend is applicable only to US Government
 contracts under FAR:
  
                    RESTRICTED RIGHTS LEGEND
  
 Use, reproduction and disclosure by the US Government is
 subject to restrictions as set forth in subparagraphs (a)
 and (c) of the Commercial Computer Software - Restricted
 Rights clause in FAR 52.227-19.
  
 Gaussian, Inc.
 340 Quinnipiac St., Bldg. 40, Wallingford CT 06492
  
  
 ---------------------------------------------------------------
 Warning -- This program may not be used in any manner that
 competes with the business of Gaussian, Inc. or will provide
 assistance to any competitor of Gaussian, Inc.  The licensee
 of this program is prohibited from giving any competitor of
 Gaussian, Inc. access to this program.  By using this program,
 the user acknowledges that Gaussian, Inc. is engaged in the
 business of creating and licensing software in the field of
 computational chemistry and represents and warrants to the
 licensee that it is not a competitor of Gaussian, Inc. and that
 it will not use this program in any manner prohibited above.
 ---------------------------------------------------------------
  

 Cite this work as:
 Gaussian 16, Revision A.03,
 M. J. Frisch, G. W. Trucks, H. B. Schlegel, G. E. Scuseria, 
 M. A. Robb, J. R. Cheeseman, G. Scalmani, V. Barone, 
 G. A. Petersson, H. Nakatsuji, X. Li, M. Caricato, A. V. Marenich, 
 J. Bloino, B. G. Janesko, R. Gomperts, B. Mennucci, H. P. Hratchian, 
 J. V. Ortiz, A. F. Izmaylov, J. L. Sonnenberg, D. Williams-Young, 
 F. Ding, F. Lipparini, F. Egidi, J. Goings, B. Peng, A. Petrone, 
 T. Henderson, D. Ranasinghe, V. G. Zakrzewski, J. Gao, N. Rega, 
 G. Zheng, W. Liang, M. Hada, M. Ehara, K. Toyota, R. Fukuda, 
 J. Hasegawa, M. Ishida, T. Nakajima, Y. Honda, O. Kitao, H. Nakai, 
 T. Vreven, K. Throssell, J. A. Montgomery, Jr., J. E. Peralta, 
 F. Ogliaro, M. J. Bearpark, J. J. Heyd, E. N. Brothers, K. N. Kudin, 
 V. N. Staroverov, T. A. Keith, R. Kobayashi, J. Normand, 
 K. Raghavachari, A. P. Rendell, J. C. Burant, S. S. Iyengar, 
 J. Tomasi, M. Cossi, J. M. Millam, M. Klene, C. Adamo, R. Cammi, 
 J. W. Ochterski, R. L. Martin, K. Morokuma, O. Farkas, 
 J. B. Foresman, and D. J. Fox, Gaussian, Inc., Wallingford CT, 2016.
 
 ******************************************
 Gaussian 16:  ES64L-G16RevA.03 25-Dec-2016
                 5-Jun-2019 
 ******************************************
 %nprocshared=4
 Will use up to    4 processors via shared memory.
 %mem=4GB
 -------------------------
 #m062x/6-31g(d) scf=tight
 -------------------------
 1/38=1,172=1/1;
 2/12=2,17=6,18=5,40=1/2;
 3/5=1,6=6,7=1,11=2,25=1,30=1,74=-55/1,2,3;
 4//1;
 5/5=2,32=2,38=5/2;
 6/7=2,8=2,9=2,10=2,28=1/1;
 99/5=1,9=1/99;
 -------------------
 tmpdir/M1_ref_1.gjf
 -------------------
 Symbolic Z-matrix:
 Charge =  0 Multiplicity = 1
 C                    -1.26211   0.87727  -0.00007 
 C                     0.02627   1.22963  -0.00003 
 H                    -2.0976    1.5711   -0.0001 
 H                     0.43427   2.23297  -0.00001 
 H                    -1.41594  -0.2053   -0.00004 
 H                     0.64635   0.35155  -0.00004 
 
                          Input orientation:                          
 ---------------------------------------------------------------------
 Center     Atomic      Atomic             Coordinates (Angstroms)
 Number     Number       Type             X           Y           Z
 ---------------------------------------------------------------------
      1          6           0       -1.262109    0.877267   -0.000068
      2          6           0        0.026273    1.229634   -0.000030
      3          1           0       -2.097601    1.571098   -0.000099
      4          1           0        0.434268    2.232970   -0.000010
      5          1           0       -1.415942   -0.205301   -0.000045
      6          1           0        0.646353    0.351552   -0.000041
 ---------------------------------------------------------------------
                    Distance matrix (angstroms):
                    1          2          3          4          5
     1  C    0.000000
     2  C    1.335699   0.000000
     3  H    1.086024   2.151148   0.000000
     4  H    2.171549   1.083117   2.616952   0.000000
     5  H    1.093443   2.034459   1.902696   3.060791   0.000000
     6  H    1.979546   1.074955   3.002762   1.893334   2.136152
                    6
     6  H    0.000000
 Stoichiometry    C2H4
 Framework group  C1[X(C2H4)]
 Deg. of freedom    12
 Full point group                 C1      NOp   1
 Largest Abelian subgroup         C1      NOp   1
 Largest concise Abelian subgroup C1      NOp   1
                         Standard orientation:                         
 ---------------------------------------------------------------------
 Center     Atomic      Atomic             Coordinates (Angstroms)
 Number     Number       Type             X           Y           Z
 ---------------------------------------------------------------------
      1          6           0       -0.665709   -0.021172    0.000019
      2          6           0        0.669957   -0.011845   -0.000019
      3          1           0       -1.282339   -0.915161    0.000050
      4          1           0        1.334176   -0.867390   -0.000039
      5          1           0       -1.106680    0.979409   -0.000004
      6          1           0        1.029361    1.001247   -0.000008
 ---------------------------------------------------------------------
 Rotational constants (GHZ):         140.9707130          30.7078894          25.2152161
 Standard basis: 6-31G(d) (6D, 7F)
 There are    38 symmetry adapted cartesian basis functions of A   symmetry.
 There are    38 symmetry adapted basis functions of A   symmetry.
    38 basis functions,    72 primitive gaussians,    38 cartesian basis functions
     8 alpha electrons        8 beta electrons
       nuclear repulsion energy        33.4342149019 Hartrees.
 NAtoms=    6 NActive=    6 NUniq=    6 SFac= 1.00D+00 NAtFMM=   60 NAOKFM=F Big=F
 Integral buffers will be    131072 words long.
 Raffenetti 2 integral format.
 Two-electron integral symmetry is turned on.
 One-electron integrals computed using PRISM.
 NBasis=    38 RedAO= T EigKep=  6.56D-03  NBF=    38
 NBsUse=    38 1.00D-06 EigRej= -1.00D+00 NBFU=    38
 ExpMin= 1.61D-01 ExpMax= 3.05D+03 ExpMxC= 4.57D+02 IAcc=3 IRadAn=         5 AccDes= 0.00D+00
 Harris functional with IExCor= 1009 and IRadAn=       5 diagonalized for initial guess.
 HarFok:  IExCor= 1009 AccDes= 0.00D+00 IRadAn=         5 IDoV= 1 UseB2=F ITyADJ=14
 ICtDFT=  3500011 ScaDFX=  1.000000  1.000000  1.000000  1.000000
 FoFCou: FMM=F IPFlag=           0 FMFlag=      100000 FMFlg1=           0
         NFxFlg=           0 DoJE=T BraDBF=F KetDBF=T FulRan=T
         wScrn=  0.000000 ICntrl=       500 IOpCl=  0 I1Cent=   200000004 NGrid=           0
         NMat0=    1 NMatS0=      1 NMatT0=    0 NMatD0=    1 NMtDS0=    0 NMtDT0=    0
 Petite list used in FoFCou.
 Keep R1 ints in memory in canonical form, NReq=3729943.
 Requested convergence on RMS density matrix=1.00D-08 within 128 cycles.
 Requested convergence on MAX density matrix=1.00D-06.
 Requested convergence on             energy=1.00D-06.
 No special actions if energy rises.
 Integral accuracy reduced to 1.0D-05 until final iterations.
 Initial convergence to 1.0D-05 achieved.  Increase integral accuracy.
 SCF Done:  E(RM062X) =  -78.5310812089     A.U. after   12 cycles
            NFock= 12  Conv=0.60D-08     -V/T= 2.0091

 **********************************************************************

            Population analysis using the SCF density.

 **********************************************************************

 Orbital symmetries:
       Occupied  (A) (A) (A) (A) (A) (A) (A) (A)
       Virtual   (A) (A) (A) (A) (A) (A) (A) (A) (A) (A) (A) (A)
                 (A) (A) (A) (A) (A) (A) (A) (A) (A) (A) (A) (A)
                 (A) (A) (A) (A) (A) (A)
 The electronic state is 1-A.
 Alpha  occ. eigenvalues --  -10.54254 -10.54010  -0.85363  -0.65104  -0.54559
 Alpha  occ. eigenvalues --   -0.46514  -0.41551  -0.32382
 Alpha virt. eigenvalues --    0.06265   0.15863   0.19437   0.21336   0.29821
 Alpha virt. eigenvalues --    0.36419   0.52511   0.60576   0.63219   0.69956
 Alpha virt. eigenvalues --    0.71011   0.75793   0.91304   0.95423   0.99042
 Alpha virt. eigenvalues --    1.00254   1.14732   1.32097   1.51759   1.59590
 Alpha virt. eigenvalues --    1.88217   1.96207   2.01358   2.17041   2.38345
 Alpha virt. eigenvalues --    2.41460   2.65556   2.75244   4.12930   4.28946
          Condensed to atoms (all electrons):
               1          2          3          4          5          6
     1  C    4.976664   0.663176   0.384274  -0.034929   0.387394  -0.046931
     2  C    0.663176   4.964276  -0.037367   0.384503  -0.042999   0.389235
     3  H    0.384274  -0.037367   0.518583  -0.004711  -0.031823   0.005249
     4  H   -0.034929   0.384503  -0.004711   0.511447   0.004559  -0.031543
     5  H    0.387394  -0.042999  -0.031823   0.004559   0.539196  -0.013769
     6  H   -0.046931   0.389235   0.005249  -0.031543  -0.013769   0.541196
 Mulliken charges:
               1
     1  C   -0.329649
     2  C   -0.320824
     3  H    0.165795
     4  H    0.170673
     5  H    0.157441
     6  H    0.156564
 Sum of Mulliken charges =   0.00000
 Mulliken charges with hydrogens summed into heavy atoms:
               1
     1  C   -0.006413
     2  C    0.006413
 Electronic spatial extent (au):  <R**2>=             81.4559
 Charge=              0.0000 electrons
 Dipole moment (field-independent basis, Debye):
    X=              0.0095    Y=              0.0223    Z=             -0.0000  Tot=              0.0242
 Quadrupole moment (field-independent basis, Debye-Ang):
   XX=            -12.2945   YY=            -11.8756   ZZ=            -15.1875
   XY=             -0.1181   XZ=             -0.0001   YZ=             -0.0000
 Traceless Quadrupole moment (field-independent basis, Debye-Ang):
   XX=              0.8247   YY=              1.2436   ZZ=             -2.0683
   XY=             -0.1181   XZ=             -0.0001   YZ=             -0.0000
 Octapole moment (field-independent basis, Debye-Ang**2):
  XXX=              0.1589  YYY=              0.4161  ZZZ=             -0.0000  XYY=             -0.0473
  XXY=             -0.9983  XXZ=             -0.0000  XZZ=              0.0246  YZZ=              0.0216
  YYZ=              0.0000  XYZ=              0.0001
 Hexadecapole moment (field-independent basis, Debye-Ang**3):
 XXXX=            -65.8931 YYYY=            -25.8413 ZZZZ=            -15.8881 XXXY=             -0.5321
 XXXZ=              0.0006 YYYX=             -0.0587 YYYZ=              0.0000 ZZZX=              0.0007
 ZZZY=              0.0001 XXYY=            -13.0293 XXZZ=            -14.4266 YYZZ=             -7.6381
 XXYZ=             -0.0000 YYXZ=              0.0002 ZZXY=             -0.0156
 N-N= 3.343421490190D+01 E-N=-2.482306430094D+02  KE= 7.782459723149D+01
 1\1\GINC-NODE97\SP\RM062X\6-31G(d)\C2H4\YANZ\05-Jun-2019\0\\#m062x/6-3
 1g(d) scf=tight\\tmpdir/M1_ref_1.gjf\\0,1\C,0,-1.262109,0.877267,-0.00
 0068\C,0,0.026273,1.229634,-0.00003\H,0,-2.097601,1.571098,-0.000099\H
 ,0,0.434268,2.23297,-0.00001\H,0,-1.41594201,-0.20530089,-0.00004484\H
 ,0,0.64635302,0.3515516,-0.00004086\\Version=ES64L-G16RevA.03\State=1-
 A\HF=-78.5310812\RMSD=5.996e-09\Dipole=0.0059717,-0.0074284,0.0000002\
 Quadrupole=0.5901959,0.9475264,-1.5377223,-0.006134,0.0000413,-0.00000
 36\PG=C01 [X(C2H4)]\\@


 FROM THE ASHES OF OUR DESPAIR GROW THE FLOWERS OF TOMORROW.
 Job cpu time:       0 days  0 hours  0 minutes 11.9 seconds.
 Elapsed time:       0 days  0 hours  0 minutes  3.1 seconds.
 File lengths (MBytes):  RWF=      6 Int=      0 D2E=      0 Chk=      1 Scr=      1
 Normal termination of Gaussian 16 at Wed Jun  5 22:40:01 2019.
