 Entering Gaussian System, Link 0=g16
 Initial command:
 /share/apps/gaussian/g16/l1.exe "/tmp/55612.mgr/Gau-316960.inp" -scrdir="/tmp/55612.mgr/"
 Entering Link 1 = /share/apps/gaussian/g16/l1.exe PID=    316966.
  
 Copyright (c) 1988,1990,1992,1993,1995,1998,2003,2009,2016,
            Gaussian, Inc.  All Rights Reserved.
  
 This is part of the Gaussian(R) 16 program.  It is based on
 the Gaussian(R) 09 system (copyright 2009, Gaussian, Inc.),
 the Gaussian(R) 03 system (copyright 2003, Gaussian, Inc.),
 the Gaussian(R) 98 system (copyright 1998, Gaussian, Inc.),
 the Gaussian(R) 94 system (copyright 1995, Gaussian, Inc.),
 the Gaussian 92(TM) system (copyright 1992, Gaussian, Inc.),
 the Gaussian 90(TM) system (copyright 1990, Gaussian, Inc.),
 the Gaussian 88(TM) system (copyright 1988, Gaussian, Inc.),
 the Gaussian 86(TM) system (copyright 1986, Carnegie Mellon
 University), and the Gaussian 82(TM) system (copyright 1983,
 Carnegie Mellon University). Gaussian is a federally registered
 trademark of Gaussian, Inc.
  
 This software contains proprietary and confidential information,
 including trade secrets, belonging to Gaussian, Inc.
  
 This software is provided under written license and may be
 used, copied, transmitted, or stored only in accord with that
 written license.
  
 The following legend is applicable only to US Government
 contracts under FAR:
  
                    RESTRICTED RIGHTS LEGEND
  
 Use, reproduction and disclosure by the US Government is
 subject to restrictions as set forth in subparagraphs (a)
 and (c) of the Commercial Computer Software - Restricted
 Rights clause in FAR 52.227-19.
  
 Gaussian, Inc.
 340 Quinnipiac St., Bldg. 40, Wallingford CT 06492
  
  
 ---------------------------------------------------------------
 Warning -- This program may not be used in any manner that
 competes with the business of Gaussian, Inc. or will provide
 assistance to any competitor of Gaussian, Inc.  The licensee
 of this program is prohibited from giving any competitor of
 Gaussian, Inc. access to this program.  By using this program,
 the user acknowledges that Gaussian, Inc. is engaged in the
 business of creating and licensing software in the field of
 computational chemistry and represents and warrants to the
 licensee that it is not a competitor of Gaussian, Inc. and that
 it will not use this program in any manner prohibited above.
 ---------------------------------------------------------------
  

 Cite this work as:
 Gaussian 16, Revision A.03,
 M. J. Frisch, G. W. Trucks, H. B. Schlegel, G. E. Scuseria, 
 M. A. Robb, J. R. Cheeseman, G. Scalmani, V. Barone, 
 G. A. Petersson, H. Nakatsuji, X. Li, M. Caricato, A. V. Marenich, 
 J. Bloino, B. G. Janesko, R. Gomperts, B. Mennucci, H. P. Hratchian, 
 J. V. Ortiz, A. F. Izmaylov, J. L. Sonnenberg, D. Williams-Young, 
 F. Ding, F. Lipparini, F. Egidi, J. Goings, B. Peng, A. Petrone, 
 T. Henderson, D. Ranasinghe, V. G. Zakrzewski, J. Gao, N. Rega, 
 G. Zheng, W. Liang, M. Hada, M. Ehara, K. Toyota, R. Fukuda, 
 J. Hasegawa, M. Ishida, T. Nakajima, Y. Honda, O. Kitao, H. Nakai, 
 T. Vreven, K. Throssell, J. A. Montgomery, Jr., J. E. Peralta, 
 F. Ogliaro, M. J. Bearpark, J. J. Heyd, E. N. Brothers, K. N. Kudin, 
 V. N. Staroverov, T. A. Keith, R. Kobayashi, J. Normand, 
 K. Raghavachari, A. P. Rendell, J. C. Burant, S. S. Iyengar, 
 J. Tomasi, M. Cossi, J. M. Millam, M. Klene, C. Adamo, R. Cammi, 
 J. W. Ochterski, R. L. Martin, K. Morokuma, O. Farkas, 
 J. B. Foresman, and D. J. Fox, Gaussian, Inc., Wallingford CT, 2016.
 
 ******************************************
 Gaussian 16:  ES64L-G16RevA.03 25-Dec-2016
                 5-Jun-2019 
 ******************************************
 %nprocshared=4
 Will use up to    4 processors via shared memory.
 %mem=4GB
 -------------------------
 #m062x/6-31g(d) scf=tight
 -------------------------
 1/38=1,172=1/1;
 2/12=2,17=6,18=5,40=1/2;
 3/5=1,6=6,7=1,11=2,25=1,30=1,74=-55/1,2,3;
 4//1;
 5/5=2,32=2,38=5/2;
 6/7=2,8=2,9=2,10=2,28=1/1;
 99/5=1,9=1/99;
 -------------------
 tmpdir/M1_ref_2.gjf
 -------------------
 Symbolic Z-matrix:
 Charge =  0 Multiplicity = 1
 C                     0.88287   0.01662  -0.00005 
 O                     2.09056  -0.02192   0.00005 
 H                     0.20622  -0.86282   0.00005 
 H                     0.26279   0.8947   -0.00003 
 
                          Input orientation:                          
 ---------------------------------------------------------------------
 Center     Atomic      Atomic             Coordinates (Angstroms)
 Number     Number       Type             X           Y           Z
 ---------------------------------------------------------------------
      1          6           0        0.882872    0.016622   -0.000045
      2          8           0        2.090555   -0.021921    0.000053
      3          1           0        0.206224   -0.862823    0.000048
      4          1           0        0.262792    0.894704   -0.000034
 ---------------------------------------------------------------------
                    Distance matrix (angstroms):
                    1          2          3          4
     1  C    0.000000
     2  O    1.208298   0.000000
     3  H    1.109629   2.063449   0.000000
     4  H    1.074955   2.044730   1.758438   0.000000
 Stoichiometry    CH2O
 Framework group  C1[X(CH2O)]
 Deg. of freedom     6
 Full point group                 C1      NOp   1
 Largest Abelian subgroup         C1      NOp   1
 Largest concise Abelian subgroup C1      NOp   1
                         Standard orientation:                         
 ---------------------------------------------------------------------
 Center     Atomic      Atomic             Coordinates (Angstroms)
 Number     Number       Type             X           Y           Z
 ---------------------------------------------------------------------
      1          6           0       -0.523112   -0.006673    0.000056
      2          8           0        0.685151    0.002572   -0.000042
      3          1           0       -1.178234    0.888922   -0.000038
      4          1           0       -1.164303   -0.869460    0.000045
 ---------------------------------------------------------------------
 Rotational constants (GHZ):         324.2186885          37.7762330          33.8340679
 Standard basis: 6-31G(d) (6D, 7F)
 There are    34 symmetry adapted cartesian basis functions of A   symmetry.
 There are    34 symmetry adapted basis functions of A   symmetry.
    34 basis functions,    64 primitive gaussians,    34 cartesian basis functions
     8 alpha electrons        8 beta electrons
       nuclear repulsion energy        31.2597323558 Hartrees.
 NAtoms=    4 NActive=    4 NUniq=    4 SFac= 1.00D+00 NAtFMM=   60 NAOKFM=F Big=F
 Integral buffers will be    131072 words long.
 Raffenetti 2 integral format.
 Two-electron integral symmetry is turned on.
 One-electron integrals computed using PRISM.
 NBasis=    34 RedAO= T EigKep=  9.29D-03  NBF=    34
 NBsUse=    34 1.00D-06 EigRej= -1.00D+00 NBFU=    34
 ExpMin= 1.61D-01 ExpMax= 5.48D+03 ExpMxC= 8.25D+02 IAcc=3 IRadAn=         5 AccDes= 0.00D+00
 Harris functional with IExCor= 1009 and IRadAn=       5 diagonalized for initial guess.
 HarFok:  IExCor= 1009 AccDes= 0.00D+00 IRadAn=         5 IDoV= 1 UseB2=F ITyADJ=14
 ICtDFT=  3500011 ScaDFX=  1.000000  1.000000  1.000000  1.000000
 FoFCou: FMM=F IPFlag=           0 FMFlag=      100000 FMFlg1=           0
         NFxFlg=           0 DoJE=T BraDBF=F KetDBF=T FulRan=T
         wScrn=  0.000000 ICntrl=       500 IOpCl=  0 I1Cent=   200000004 NGrid=           0
         NMat0=    1 NMatS0=      1 NMatT0=    0 NMatD0=    1 NMtDS0=    0 NMtDT0=    0
 Petite list used in FoFCou.
 Keep R1 ints in memory in canonical form, NReq=3631052.
 Requested convergence on RMS density matrix=1.00D-08 within 128 cycles.
 Requested convergence on MAX density matrix=1.00D-06.
 Requested convergence on             energy=1.00D-06.
 No special actions if energy rises.
 Integral accuracy reduced to 1.0D-05 until final iterations.
 Initial convergence to 1.0D-05 achieved.  Increase integral accuracy.
 SCF Done:  E(RM062X) =  -114.442790929     A.U. after   13 cycles
            NFock= 13  Conv=0.86D-08     -V/T= 2.0080

 **********************************************************************

            Population analysis using the SCF density.

 **********************************************************************

 Orbital symmetries:
       Occupied  (A) (A) (A) (A) (A) (A) (A) (A)
       Virtual   (A) (A) (A) (A) (A) (A) (A) (A) (A) (A) (A) (A)
                 (A) (A) (A) (A) (A) (A) (A) (A) (A) (A) (A) (A)
                 (A) (A)
 The electronic state is 1-A.
 Alpha  occ. eigenvalues --  -19.66479 -10.64693  -1.18110  -0.73613  -0.56616
 Alpha  occ. eigenvalues --   -0.53483  -0.46744  -0.34031
 Alpha virt. eigenvalues --    0.01036   0.15697   0.23918   0.26219   0.56671
 Alpha virt. eigenvalues --    0.64924   0.69782   0.77859   0.88062   0.90964
 Alpha virt. eigenvalues --    0.97862   1.04362   1.12752   1.42952   1.56134
 Alpha virt. eigenvalues --    1.57073   1.73195   1.92352   1.99074   2.17656
 Alpha virt. eigenvalues --    2.31641   2.58503   2.76792   2.96168   3.70535
 Alpha virt. eigenvalues --    4.12091
          Condensed to atoms (all electrons):
               1          2          3          4
     1  C    4.675873   0.545735   0.351814   0.349238
     2  O    0.545735   7.899208  -0.049734  -0.048507
     3  H    0.351814  -0.049734   0.673067  -0.103426
     4  H    0.349238  -0.048507  -0.103426   0.661613
 Mulliken charges:
               1
     1  C    0.077340
     2  O   -0.346702
     3  H    0.128279
     4  H    0.141083
 Sum of Mulliken charges =  -0.00000
 Mulliken charges with hydrogens summed into heavy atoms:
               1
     1  C    0.346702
     2  O   -0.346702
 Electronic spatial extent (au):  <R**2>=             60.4819
 Charge=              0.0000 electrons
 Dipole moment (field-independent basis, Debye):
    X=             -2.3236    Y=             -0.0606    Z=              0.0001  Tot=              2.3243
 Quadrupole moment (field-independent basis, Debye-Ang):
   XX=            -11.6593   YY=            -11.7246   ZZ=            -11.4347
   XY=              0.0571   XZ=              0.0001   YZ=              0.0000
 Traceless Quadrupole moment (field-independent basis, Debye-Ang):
   XX=             -0.0531   YY=             -0.1184   ZZ=              0.1715
   XY=              0.0571   XZ=              0.0001   YZ=              0.0000
 Octapole moment (field-independent basis, Debye-Ang**2):
  XXX=              0.5275  YYY=             -0.1156  ZZZ=             -0.0002  XYY=              0.1003
  XXY=             -0.0865  XXZ=             -0.0001  XZZ=              0.8396  YZZ=             -0.0449
  YYZ=             -0.0001  XYZ=              0.0000
 Hexadecapole moment (field-independent basis, Debye-Ang**3):
 XXXX=            -44.2934 YYYY=            -17.2806 ZZZZ=             -9.2121 XXXY=              0.1988
 XXXZ=              0.0010 YYYX=              0.1330 YYYZ=              0.0002 ZZZX=              0.0009
 ZZZY=              0.0002 XXYY=            -10.1411 XXZZ=             -9.0273 YYZZ=             -4.5716
 XXYZ=              0.0000 YYXZ=              0.0004 ZZXY=              0.0568
 N-N= 3.125973235578D+01 E-N=-3.308343040317D+02  KE= 1.135311596464D+02
 1\1\GINC-NODE97\SP\RM062X\6-31G(d)\C1H2O1\YANZ\05-Jun-2019\0\\#m062x/6
 -31g(d) scf=tight\\tmpdir/M1_ref_2.gjf\\0,1\C,0,0.882872,0.016622,-0.0
 00045\O,0,2.090555,-0.021921,0.000053\H,0,0.2062239,-0.86282348,0.0000
 4838\H,0,0.26279198,0.8947044,-0.00003414\\Version=ES64L-G16RevA.03\St
 ate=1-A\HF=-114.4427909\RMSD=8.638e-09\Dipole=-0.9133125,0.0459853,-0.
 0000481\Quadrupole=-0.0415657,-0.0859447,0.1275104,-0.0436068,-0.00004
 8,0.000008\PG=C01 [X(C1H2O1)]\\@


 ROSE IS A RED
 TY COBB IS BLUE
 'CAUSE PETE JUST HIT
 NO. 4592.
 Job cpu time:       0 days  0 hours  0 minutes  8.8 seconds.
 Elapsed time:       0 days  0 hours  0 minutes  2.4 seconds.
 File lengths (MBytes):  RWF=      6 Int=      0 D2E=      0 Chk=      1 Scr=      1
 Normal termination of Gaussian 16 at Wed Jun  5 22:40:00 2019.
