 Entering Gaussian System, Link 0=g16
 Initial command:
 /share/apps/gaussian/g16/l1.exe "/tmp/55613.mgr/Gau-181181.inp" -scrdir="/tmp/55613.mgr/"
 Entering Link 1 = /share/apps/gaussian/g16/l1.exe PID=    181182.
  
 Copyright (c) 1988,1990,1992,1993,1995,1998,2003,2009,2016,
            Gaussian, Inc.  All Rights Reserved.
  
 This is part of the Gaussian(R) 16 program.  It is based on
 the Gaussian(R) 09 system (copyright 2009, Gaussian, Inc.),
 the Gaussian(R) 03 system (copyright 2003, Gaussian, Inc.),
 the Gaussian(R) 98 system (copyright 1998, Gaussian, Inc.),
 the Gaussian(R) 94 system (copyright 1995, Gaussian, Inc.),
 the Gaussian 92(TM) system (copyright 1992, Gaussian, Inc.),
 the Gaussian 90(TM) system (copyright 1990, Gaussian, Inc.),
 the Gaussian 88(TM) system (copyright 1988, Gaussian, Inc.),
 the Gaussian 86(TM) system (copyright 1986, Carnegie Mellon
 University), and the Gaussian 82(TM) system (copyright 1983,
 Carnegie Mellon University). Gaussian is a federally registered
 trademark of Gaussian, Inc.
  
 This software contains proprietary and confidential information,
 including trade secrets, belonging to Gaussian, Inc.
  
 This software is provided under written license and may be
 used, copied, transmitted, or stored only in accord with that
 written license.
  
 The following legend is applicable only to US Government
 contracts under FAR:
  
                    RESTRICTED RIGHTS LEGEND
  
 Use, reproduction and disclosure by the US Government is
 subject to restrictions as set forth in subparagraphs (a)
 and (c) of the Commercial Computer Software - Restricted
 Rights clause in FAR 52.227-19.
  
 Gaussian, Inc.
 340 Quinnipiac St., Bldg. 40, Wallingford CT 06492
  
  
 ---------------------------------------------------------------
 Warning -- This program may not be used in any manner that
 competes with the business of Gaussian, Inc. or will provide
 assistance to any competitor of Gaussian, Inc.  The licensee
 of this program is prohibited from giving any competitor of
 Gaussian, Inc. access to this program.  By using this program,
 the user acknowledges that Gaussian, Inc. is engaged in the
 business of creating and licensing software in the field of
 computational chemistry and represents and warrants to the
 licensee that it is not a competitor of Gaussian, Inc. and that
 it will not use this program in any manner prohibited above.
 ---------------------------------------------------------------
  

 Cite this work as:
 Gaussian 16, Revision A.03,
 M. J. Frisch, G. W. Trucks, H. B. Schlegel, G. E. Scuseria, 
 M. A. Robb, J. R. Cheeseman, G. Scalmani, V. Barone, 
 G. A. Petersson, H. Nakatsuji, X. Li, M. Caricato, A. V. Marenich, 
 J. Bloino, B. G. Janesko, R. Gomperts, B. Mennucci, H. P. Hratchian, 
 J. V. Ortiz, A. F. Izmaylov, J. L. Sonnenberg, D. Williams-Young, 
 F. Ding, F. Lipparini, F. Egidi, J. Goings, B. Peng, A. Petrone, 
 T. Henderson, D. Ranasinghe, V. G. Zakrzewski, J. Gao, N. Rega, 
 G. Zheng, W. Liang, M. Hada, M. Ehara, K. Toyota, R. Fukuda, 
 J. Hasegawa, M. Ishida, T. Nakajima, Y. Honda, O. Kitao, H. Nakai, 
 T. Vreven, K. Throssell, J. A. Montgomery, Jr., J. E. Peralta, 
 F. Ogliaro, M. J. Bearpark, J. J. Heyd, E. N. Brothers, K. N. Kudin, 
 V. N. Staroverov, T. A. Keith, R. Kobayashi, J. Normand, 
 K. Raghavachari, A. P. Rendell, J. C. Burant, S. S. Iyengar, 
 J. Tomasi, M. Cossi, J. M. Millam, M. Klene, C. Adamo, R. Cammi, 
 J. W. Ochterski, R. L. Martin, K. Morokuma, O. Farkas, 
 J. B. Foresman, and D. J. Fox, Gaussian, Inc., Wallingford CT, 2016.
 
 ******************************************
 Gaussian 16:  ES64L-G16RevA.03 25-Dec-2016
                22-Sep-2023 
 ******************************************
 %nprocshared=4
 Will use up to    4 processors via shared memory.
 %mem=4GB
 -------------------------
 #m062x/6-31g(d) scf=tight
 -------------------------
 1/38=1,172=1/1;
 2/12=2,17=6,18=5,40=1/2;
 3/5=1,6=6,7=1,11=2,25=1,30=1,74=-55/1,2,3;
 4//1;
 5/5=2,32=2,38=5/2;
 6/7=2,8=2,9=2,10=2,28=1/1;
 99/5=1,9=1/99;
 -----------------------
 tmpdir/M2_conf_0_48.gjf
 -----------------------
 Symbolic Z-matrix:
 Charge =  0 Multiplicity = 1
 H                     0.        0.        0. 
 C                     1.0831    0.        0. 
 C                     1.92774   0.        1.24285 
 O                     1.79415   0.       -0.94771 
 H                     2.94302   0.        0.85231 
 H                     1.73077   0.87904   1.87202 
 H                     1.73077  -0.87904   1.87202 
 
                          Input orientation:                          
 ---------------------------------------------------------------------
 Center     Atomic      Atomic             Coordinates (Angstroms)
 Number     Number       Type             X           Y           Z
 ---------------------------------------------------------------------
      1          1           0        0.000000    0.000000    0.000000
      2          6           0        1.083100    0.000000    0.000000
      3          6           0        1.927740    0.000000    1.242850
      4          8           0        1.794150    0.000000   -0.947710
      5          1           0        2.943020    0.000000    0.852310
      6          1           0        1.730770    0.879040    1.872020
      7          1           0        1.730770   -0.879040    1.872020
 ---------------------------------------------------------------------
                    Distance matrix (angstroms):
                    1          2          3          4          5
     1  H    0.000000
     2  C    1.083100   0.000000
     3  C    2.293656   1.502695   0.000000
     4  O    2.029071   1.184798   2.194630   0.000000
     5  H    3.063952   2.045907   1.087803   2.135410   0.000000
     6  H    2.696801   2.167175   1.098801   2.954252   1.811648
     7  H    2.696801   2.167175   1.098801   2.954252   1.811648
                    6          7
     6  H    0.000000
     7  H    1.758080   0.000000
 Stoichiometry    C2H4O
 Framework group  CS[SG(C2H2O),X(H2)]
 Deg. of freedom    10
 Full point group                 CS      NOp   2
 Largest Abelian subgroup         CS      NOp   2
 Largest concise Abelian subgroup CS      NOp   2
                         Standard orientation:                         
 ---------------------------------------------------------------------
 Center     Atomic      Atomic             Coordinates (Angstroms)
 Number     Number       Type             X           Y           Z
 ---------------------------------------------------------------------
      1          1           0       -0.356512    1.588804    0.000000
      2          6           0        0.000000    0.566061    0.000000
      3          6           0       -0.895571   -0.640606    0.000000
      4          8           0        1.128947    0.206581    0.000000
      5          1           0       -0.192606   -1.470760    0.000000
      6          1           0       -1.554515   -0.661709    0.879040
      7          1           0       -1.554515   -0.661709   -0.879040
 ---------------------------------------------------------------------
 Rotational constants (GHZ):          47.3348597          11.9720319          10.1532804
 Standard basis: 6-31G(d) (6D, 7F)
 There are    39 symmetry adapted cartesian basis functions of A'  symmetry.
 There are    14 symmetry adapted cartesian basis functions of A"  symmetry.
 There are    39 symmetry adapted basis functions of A'  symmetry.
 There are    14 symmetry adapted basis functions of A"  symmetry.
    53 basis functions,   100 primitive gaussians,    53 cartesian basis functions
    12 alpha electrons       12 beta electrons
       nuclear repulsion energy        71.5710100418 Hartrees.
 NAtoms=    7 NActive=    7 NUniq=    6 SFac= 1.36D+00 NAtFMM=   60 NAOKFM=F Big=F
 Integral buffers will be    131072 words long.
 Raffenetti 2 integral format.
 Two-electron integral symmetry is turned on.
 One-electron integrals computed using PRISM.
 NBasis=    53 RedAO= T EigKep=  4.83D-03  NBF=    39    14
 NBsUse=    53 1.00D-06 EigRej= -1.00D+00 NBFU=    39    14
 ExpMin= 1.61D-01 ExpMax= 5.48D+03 ExpMxC= 8.25D+02 IAcc=3 IRadAn=         5 AccDes= 0.00D+00
 Harris functional with IExCor= 1009 and IRadAn=       5 diagonalized for initial guess.
 HarFok:  IExCor= 1009 AccDes= 0.00D+00 IRadAn=         5 IDoV= 1 UseB2=F ITyADJ=14
 ICtDFT=  3500011 ScaDFX=  1.000000  1.000000  1.000000  1.000000
 FoFCou: FMM=F IPFlag=           0 FMFlag=      100000 FMFlg1=           0
         NFxFlg=           0 DoJE=T BraDBF=F KetDBF=T FulRan=T
         wScrn=  0.000000 ICntrl=       500 IOpCl=  0 I1Cent=   200000004 NGrid=           0
         NMat0=    1 NMatS0=      1 NMatT0=    0 NMatD0=    1 NMtDS0=    0 NMtDT0=    0
 Petite list used in FoFCou.
 Initial guess orbital symmetries:
       Occupied  (A') (A') (A') (A') (A') (A') (A') (A') (A") (A')
                 (A") (A')
       Virtual   (A") (A') (A') (A') (A") (A') (A') (A') (A") (A')
                 (A") (A') (A') (A') (A') (A") (A') (A') (A') (A")
                 (A') (A') (A") (A') (A") (A') (A") (A') (A') (A')
                 (A") (A') (A") (A') (A') (A") (A') (A') (A') (A')
                 (A')
 The electronic state of the initial guess is 1-A'.
 Keep R1 ints in memory in symmetry-blocked form, NReq=4533903.
 Requested convergence on RMS density matrix=1.00D-08 within 128 cycles.
 Requested convergence on MAX density matrix=1.00D-06.
 Requested convergence on             energy=1.00D-06.
 No special actions if energy rises.
 Integral accuracy reduced to 1.0D-05 until final iterations.
 Initial convergence to 1.0D-05 achieved.  Increase integral accuracy.
 SCF Done:  E(RM062X) =  -153.737686213     A.U. after   14 cycles
            NFock= 14  Conv=0.37D-08     -V/T= 2.0069

 **********************************************************************

            Population analysis using the SCF density.

 **********************************************************************

 Orbital symmetries:
       Occupied  (A') (A') (A') (A') (A') (A') (A') (A") (A') (A')
                 (A") (A')
       Virtual   (A") (A') (A') (A") (A') (A') (A') (A") (A') (A")
                 (A') (A') (A') (A') (A') (A") (A') (A') (A') (A")
                 (A') (A') (A") (A') (A") (A') (A") (A') (A') (A')
                 (A") (A') (A") (A') (A") (A') (A') (A') (A') (A')
                 (A')
 The electronic state is 1-A'.
 Alpha  occ. eigenvalues --  -19.63687 -10.63436 -10.54194  -1.18582  -0.83245
 Alpha  occ. eigenvalues --   -0.67587  -0.56339  -0.51158  -0.50232  -0.46025
 Alpha  occ. eigenvalues --   -0.42648  -0.31921
 Alpha virt. eigenvalues --    0.03596   0.16878   0.17961   0.20843   0.20984
 Alpha virt. eigenvalues --    0.27507   0.34900   0.57852   0.58821   0.64471
 Alpha virt. eigenvalues --    0.65638   0.73224   0.78278   0.82112   0.91453
 Alpha virt. eigenvalues --    0.92287   0.95987   0.99266   1.00630   1.06854
 Alpha virt. eigenvalues --    1.15802   1.25619   1.46954   1.48202   1.59896
 Alpha virt. eigenvalues --    1.70494   1.86856   1.88717   2.05667   2.12260
 Alpha virt. eigenvalues --    2.13165   2.24550   2.36922   2.37798   2.63308
 Alpha virt. eigenvalues --    2.64924   2.87518   3.02149   3.83589   4.11092
 Alpha virt. eigenvalues --    4.35469
          Condensed to atoms (all electrons):
               1          2          3          4          5          6
     1  H    0.640059   0.344034  -0.095743  -0.047046   0.004824   0.004432
     2  C    0.344034   4.559780   0.343261   0.580774  -0.039736  -0.021945
     3  C   -0.095743   0.343261   5.400551  -0.142934   0.373148   0.346952
     4  O   -0.047046   0.580774  -0.142934   7.978551   0.009132   0.003131
     5  H    0.004824  -0.039736   0.373148   0.009132   0.478743  -0.017010
     6  H    0.004432  -0.021945   0.346952   0.003131  -0.017010   0.535362
     7  H    0.004432  -0.021945   0.346952   0.003131  -0.017010  -0.025037
               7
     1  H    0.004432
     2  C   -0.021945
     3  C    0.346952
     4  O    0.003131
     5  H   -0.017010
     6  H   -0.025037
     7  H    0.535362
 Mulliken charges:
               1
     1  H    0.145009
     2  C    0.255777
     3  C   -0.572186
     4  O   -0.384739
     5  H    0.207909
     6  H    0.174115
     7  H    0.174115
 Sum of Mulliken charges =   0.00000
 Mulliken charges with hydrogens summed into heavy atoms:
               1
     2  C    0.400786
     3  C   -0.016047
     4  O   -0.384739
 Electronic spatial extent (au):  <R**2>=            154.9719
 Charge=             -0.0000 electrons
 Dipole moment (field-independent basis, Debye):
    X=             -2.3188    Y=              0.4724    Z=             -0.0000  Tot=              2.3664
 Quadrupole moment (field-independent basis, Debye-Ang):
   XX=            -20.7296   YY=            -17.0678   ZZ=            -17.7089
   XY=             -0.7579   XZ=              0.0000   YZ=              0.0000
 Traceless Quadrupole moment (field-independent basis, Debye-Ang):
   XX=             -2.2275   YY=              1.4343   ZZ=              0.7932
   XY=             -0.7579   XZ=              0.0000   YZ=              0.0000
 Octapole moment (field-independent basis, Debye-Ang**2):
  XXX=              0.3422  YYY=              2.4590  ZZZ=             -0.0000  XYY=              1.3971
  XXY=             -0.5316  XXZ=              0.0000  XZZ=              0.8064  YZZ=              0.4495
  YYZ=              0.0000  XYZ=              0.0000
 Hexadecapole moment (field-independent basis, Debye-Ang**3):
 XXXX=           -109.0746 YYYY=            -61.8841 ZZZZ=            -22.3132 XXXY=            -17.8637
 XXXZ=              0.0000 YYYX=            -19.0422 YYYZ=              0.0000 ZZZX=              0.0000
 ZZZY=              0.0000 XXYY=            -29.6681 XXZZ=            -19.4321 YYZZ=            -14.9939
 XXYZ=             -0.0000 YYXZ=             -0.0000 ZZXY=             -5.1414
 N-N= 7.157101004179D+01 E-N=-5.024271580579D+02  KE= 1.526800168078D+02
 Symmetry A'   KE= 1.471371619058D+02
 Symmetry A"   KE= 5.542854901922D+00
 1\1\GINC-NODE62\SP\RM062X\6-31G(d)\C2H4O1\YANZ\22-Sep-2023\0\\#m062x/6
 -31g(d) scf=tight\\tmpdir/M2_conf_0_48.gjf\\0,1\H,0,0.,0.,0.\C,0,1.083
 1,0.,0.\C,0,1.92774,0.,1.24285\O,0,1.79415,0.,-0.94771\H,0,2.94302,0.,
 0.85231\H,0,1.73077,0.87904,1.87202\H,0,1.73077,-0.87904,1.87202\\Vers
 ion=ES64L-G16RevA.03\State=1-A'\HF=-153.7376862\RMSD=3.719e-09\Dipole=
 -0.4758012,0.,0.800267\Quadrupole=1.1216674,0.5897156,-1.711383,0.,0.4
 048269,0.\PG=CS [SG(C2H2O1),X(H2)]\\@


 THE MOLECULE ALSO HAS A BODY.  WHEN THIS BODY IS HIT, THE MOLECULE
 FEELS HURT ALL OVER -- A. KITAIGORODSKI
 Job cpu time:       0 days  0 hours  0 minutes 13.3 seconds.
 Elapsed time:       0 days  0 hours  0 minutes  3.5 seconds.
 File lengths (MBytes):  RWF=      6 Int=      0 D2E=      0 Chk=      1 Scr=      1
 Normal termination of Gaussian 16 at Fri Sep 22 17:02:27 2023.
