 Entering Gaussian System, Link 0=g16
 Initial command:
 /share/apps/gaussian/g16/l1.exe "/tmp/55613.mgr/Gau-181724.inp" -scrdir="/tmp/55613.mgr/"
 Entering Link 1 = /share/apps/gaussian/g16/l1.exe PID=    181725.
  
 Copyright (c) 1988,1990,1992,1993,1995,1998,2003,2009,2016,
            Gaussian, Inc.  All Rights Reserved.
  
 This is part of the Gaussian(R) 16 program.  It is based on
 the Gaussian(R) 09 system (copyright 2009, Gaussian, Inc.),
 the Gaussian(R) 03 system (copyright 2003, Gaussian, Inc.),
 the Gaussian(R) 98 system (copyright 1998, Gaussian, Inc.),
 the Gaussian(R) 94 system (copyright 1995, Gaussian, Inc.),
 the Gaussian 92(TM) system (copyright 1992, Gaussian, Inc.),
 the Gaussian 90(TM) system (copyright 1990, Gaussian, Inc.),
 the Gaussian 88(TM) system (copyright 1988, Gaussian, Inc.),
 the Gaussian 86(TM) system (copyright 1986, Carnegie Mellon
 University), and the Gaussian 82(TM) system (copyright 1983,
 Carnegie Mellon University). Gaussian is a federally registered
 trademark of Gaussian, Inc.
  
 This software contains proprietary and confidential information,
 including trade secrets, belonging to Gaussian, Inc.
  
 This software is provided under written license and may be
 used, copied, transmitted, or stored only in accord with that
 written license.
  
 The following legend is applicable only to US Government
 contracts under FAR:
  
                    RESTRICTED RIGHTS LEGEND
  
 Use, reproduction and disclosure by the US Government is
 subject to restrictions as set forth in subparagraphs (a)
 and (c) of the Commercial Computer Software - Restricted
 Rights clause in FAR 52.227-19.
  
 Gaussian, Inc.
 340 Quinnipiac St., Bldg. 40, Wallingford CT 06492
  
  
 ---------------------------------------------------------------
 Warning -- This program may not be used in any manner that
 competes with the business of Gaussian, Inc. or will provide
 assistance to any competitor of Gaussian, Inc.  The licensee
 of this program is prohibited from giving any competitor of
 Gaussian, Inc. access to this program.  By using this program,
 the user acknowledges that Gaussian, Inc. is engaged in the
 business of creating and licensing software in the field of
 computational chemistry and represents and warrants to the
 licensee that it is not a competitor of Gaussian, Inc. and that
 it will not use this program in any manner prohibited above.
 ---------------------------------------------------------------
  

 Cite this work as:
 Gaussian 16, Revision A.03,
 M. J. Frisch, G. W. Trucks, H. B. Schlegel, G. E. Scuseria, 
 M. A. Robb, J. R. Cheeseman, G. Scalmani, V. Barone, 
 G. A. Petersson, H. Nakatsuji, X. Li, M. Caricato, A. V. Marenich, 
 J. Bloino, B. G. Janesko, R. Gomperts, B. Mennucci, H. P. Hratchian, 
 J. V. Ortiz, A. F. Izmaylov, J. L. Sonnenberg, D. Williams-Young, 
 F. Ding, F. Lipparini, F. Egidi, J. Goings, B. Peng, A. Petrone, 
 T. Henderson, D. Ranasinghe, V. G. Zakrzewski, J. Gao, N. Rega, 
 G. Zheng, W. Liang, M. Hada, M. Ehara, K. Toyota, R. Fukuda, 
 J. Hasegawa, M. Ishida, T. Nakajima, Y. Honda, O. Kitao, H. Nakai, 
 T. Vreven, K. Throssell, J. A. Montgomery, Jr., J. E. Peralta, 
 F. Ogliaro, M. J. Bearpark, J. J. Heyd, E. N. Brothers, K. N. Kudin, 
 V. N. Staroverov, T. A. Keith, R. Kobayashi, J. Normand, 
 K. Raghavachari, A. P. Rendell, J. C. Burant, S. S. Iyengar, 
 J. Tomasi, M. Cossi, J. M. Millam, M. Klene, C. Adamo, R. Cammi, 
 J. W. Ochterski, R. L. Martin, K. Morokuma, O. Farkas, 
 J. B. Foresman, and D. J. Fox, Gaussian, Inc., Wallingford CT, 2016.
 
 ******************************************
 Gaussian 16:  ES64L-G16RevA.03 25-Dec-2016
                22-Sep-2023 
 ******************************************
 %nprocshared=4
 Will use up to    4 processors via shared memory.
 %mem=4GB
 -------------------------
 #m062x/6-31g(d) scf=tight
 -------------------------
 1/38=1,172=1/1;
 2/12=2,17=6,18=5,40=1/2;
 3/5=1,6=6,7=1,11=2,25=1,30=1,74=-55/1,2,3;
 4//1;
 5/5=2,32=2,38=5/2;
 6/7=2,8=2,9=2,10=2,28=1/1;
 99/5=1,9=1/99;
 -----------------------
 tmpdir/M2_conf_0_53.gjf
 -----------------------
 Symbolic Z-matrix:
 Charge =  0 Multiplicity = 1
 H                     0.        0.        0. 
 C                     1.0831    0.        0. 
 C                     1.89668   0.        1.2634 
 O                     1.79415   0.       -0.94771 
 H                     2.92133   0.        0.89814 
 H                     1.68418  -0.87904   1.8875 
 H                     1.68418   0.87904   1.8875 
 
                          Input orientation:                          
 ---------------------------------------------------------------------
 Center     Atomic      Atomic             Coordinates (Angstroms)
 Number     Number       Type             X           Y           Z
 ---------------------------------------------------------------------
      1          1           0        0.000000    0.000000    0.000000
      2          6           0        1.083100    0.000000    0.000000
      3          6           0        1.896680    0.000000    1.263400
      4          8           0        1.794150    0.000000   -0.947710
      5          1           0        2.921330    0.000000    0.898140
      6          1           0        1.684180   -0.879040    1.887500
      7          1           0        1.684180    0.879040    1.887500
 ---------------------------------------------------------------------
                    Distance matrix (angstroms):
                    1          2          3          4          5
     1  H    0.000000
     2  C    1.083100   0.000000
     3  C    2.278942   1.502695   0.000000
     4  O    2.029071   1.184798   2.213486   0.000000
     5  H    3.056276   2.045909   1.087806   2.162798   0.000000
     6  H    2.678027   2.167179   1.098803   2.970391   1.811652
     7  H    2.678027   2.167179   1.098803   2.970391   1.811652
                    6          7
     6  H    0.000000
     7  H    1.758080   0.000000
 Stoichiometry    C2H4O
 Framework group  CS[SG(C2H2O),X(H2)]
 Deg. of freedom    10
 Full point group                 CS      NOp   2
 Largest Abelian subgroup         CS      NOp   2
 Largest concise Abelian subgroup CS      NOp   2
                         Standard orientation:                         
 ---------------------------------------------------------------------
 Center     Atomic      Atomic             Coordinates (Angstroms)
 Number     Number       Type             X           Y           Z
 ---------------------------------------------------------------------
      1          1           0        0.378467    1.571907   -0.000000
      2          6           0       -0.000000    0.557082   -0.000000
      3          6           0        0.899470   -0.646681    0.000000
      4          8           0       -1.136431    0.222013   -0.000000
      5          1           0        0.199193   -1.479107    0.000000
      6          1           0        1.558482   -0.665655    0.879040
      7          1           0        1.558482   -0.665655   -0.879040
 ---------------------------------------------------------------------
 Rotational constants (GHZ):          48.1904707          11.7929987          10.0620514
 Standard basis: 6-31G(d) (6D, 7F)
 There are    39 symmetry adapted cartesian basis functions of A'  symmetry.
 There are    14 symmetry adapted cartesian basis functions of A"  symmetry.
 There are    39 symmetry adapted basis functions of A'  symmetry.
 There are    14 symmetry adapted basis functions of A"  symmetry.
    53 basis functions,   100 primitive gaussians,    53 cartesian basis functions
    12 alpha electrons       12 beta electrons
       nuclear repulsion energy        71.4438325895 Hartrees.
 NAtoms=    7 NActive=    7 NUniq=    6 SFac= 1.36D+00 NAtFMM=   60 NAOKFM=F Big=F
 Integral buffers will be    131072 words long.
 Raffenetti 2 integral format.
 Two-electron integral symmetry is turned on.
 One-electron integrals computed using PRISM.
 NBasis=    53 RedAO= T EigKep=  4.85D-03  NBF=    39    14
 NBsUse=    53 1.00D-06 EigRej= -1.00D+00 NBFU=    39    14
 ExpMin= 1.61D-01 ExpMax= 5.48D+03 ExpMxC= 8.25D+02 IAcc=3 IRadAn=         5 AccDes= 0.00D+00
 Harris functional with IExCor= 1009 and IRadAn=       5 diagonalized for initial guess.
 HarFok:  IExCor= 1009 AccDes= 0.00D+00 IRadAn=         5 IDoV= 1 UseB2=F ITyADJ=14
 ICtDFT=  3500011 ScaDFX=  1.000000  1.000000  1.000000  1.000000
 FoFCou: FMM=F IPFlag=           0 FMFlag=      100000 FMFlg1=           0
         NFxFlg=           0 DoJE=T BraDBF=F KetDBF=T FulRan=T
         wScrn=  0.000000 ICntrl=       500 IOpCl=  0 I1Cent=   200000004 NGrid=           0
         NMat0=    1 NMatS0=      1 NMatT0=    0 NMatD0=    1 NMtDS0=    0 NMtDT0=    0
 Petite list used in FoFCou.
 Initial guess orbital symmetries:
       Occupied  (A') (A') (A') (A') (A') (A') (A') (A') (A") (A')
                 (A") (A')
       Virtual   (A") (A') (A') (A') (A") (A') (A') (A') (A") (A')
                 (A") (A') (A') (A') (A') (A") (A') (A') (A') (A")
                 (A') (A') (A") (A') (A") (A') (A") (A') (A') (A')
                 (A") (A') (A") (A') (A') (A") (A') (A') (A') (A')
                 (A')
 The electronic state of the initial guess is 1-A'.
 Keep R1 ints in memory in symmetry-blocked form, NReq=4533903.
 Requested convergence on RMS density matrix=1.00D-08 within 128 cycles.
 Requested convergence on MAX density matrix=1.00D-06.
 Requested convergence on             energy=1.00D-06.
 No special actions if energy rises.
 Integral accuracy reduced to 1.0D-05 until final iterations.
 Initial convergence to 1.0D-05 achieved.  Increase integral accuracy.
 SCF Done:  E(RM062X) =  -153.740144781     A.U. after   14 cycles
            NFock= 14  Conv=0.35D-08     -V/T= 2.0070

 **********************************************************************

            Population analysis using the SCF density.

 **********************************************************************

 Orbital symmetries:
       Occupied  (A') (A') (A') (A') (A') (A') (A') (A") (A') (A')
                 (A") (A')
       Virtual   (A") (A') (A') (A") (A') (A') (A') (A") (A') (A")
                 (A') (A') (A') (A') (A') (A") (A') (A') (A') (A")
                 (A') (A') (A") (A') (A") (A') (A") (A') (A') (A')
                 (A") (A') (A") (A') (A") (A') (A') (A') (A') (A')
                 (A')
 The electronic state is 1-A'.
 Alpha  occ. eigenvalues --  -19.63791 -10.63463 -10.54253  -1.18560  -0.83401
 Alpha  occ. eigenvalues --   -0.67510  -0.56342  -0.51172  -0.50344  -0.46020
 Alpha  occ. eigenvalues --   -0.42738  -0.32064
 Alpha virt. eigenvalues --    0.03584   0.16782   0.18090   0.20812   0.20859
 Alpha virt. eigenvalues --    0.27745   0.34847   0.57816   0.59002   0.64555
 Alpha virt. eigenvalues --    0.65528   0.73233   0.78068   0.81942   0.91461
 Alpha virt. eigenvalues --    0.92193   0.95837   0.99158   1.00556   1.06838
 Alpha virt. eigenvalues --    1.15726   1.25633   1.46938   1.49188   1.59869
 Alpha virt. eigenvalues --    1.71204   1.86732   1.88595   2.03931   2.12221
 Alpha virt. eigenvalues --    2.12896   2.24476   2.37001   2.38099   2.63363
 Alpha virt. eigenvalues --    2.64443   2.88386   3.02016   3.83804   4.11200
 Alpha virt. eigenvalues --    4.35529
          Condensed to atoms (all electrons):
               1          2          3          4          5          6
     1  H    0.644194   0.345615  -0.098832  -0.047894   0.005102   0.004393
     2  C    0.345615   4.556166   0.339889   0.583961  -0.038979  -0.021650
     3  C   -0.098832   0.339889   5.401353  -0.135974   0.370201   0.348148
     4  O   -0.047894   0.583961  -0.135974   7.968634   0.009697   0.002851
     5  H    0.005102  -0.038979   0.370201   0.009697   0.481215  -0.016788
     6  H    0.004393  -0.021650   0.348148   0.002851  -0.016788   0.532788
     7  H    0.004393  -0.021650   0.348148   0.002851  -0.016788  -0.025265
               7
     1  H    0.004393
     2  C   -0.021650
     3  C    0.348148
     4  O    0.002851
     5  H   -0.016788
     6  H   -0.025265
     7  H    0.532788
 Mulliken charges:
               1
     1  H    0.143029
     2  C    0.256646
     3  C   -0.572933
     4  O   -0.384127
     5  H    0.206339
     6  H    0.175523
     7  H    0.175523
 Sum of Mulliken charges =   0.00000
 Mulliken charges with hydrogens summed into heavy atoms:
               1
     2  C    0.399675
     3  C   -0.015549
     4  O   -0.384127
 Electronic spatial extent (au):  <R**2>=            155.8737
 Charge=              0.0000 electrons
 Dipole moment (field-independent basis, Debye):
    X=              2.3497    Y=              0.4149    Z=             -0.0000  Tot=              2.3860
 Quadrupole moment (field-independent basis, Debye-Ang):
   XX=            -20.6906   YY=            -17.1668   ZZ=            -17.6992
   XY=              0.7808   XZ=             -0.0000   YZ=              0.0000
 Traceless Quadrupole moment (field-independent basis, Debye-Ang):
   XX=             -2.1717   YY=              1.3521   ZZ=              0.8196
   XY=              0.7808   XZ=             -0.0000   YZ=              0.0000
 Octapole moment (field-independent basis, Debye-Ang**2):
  XXX=             -0.2607  YYY=              2.3696  ZZZ=             -0.0000  XYY=             -1.3670
  XXY=             -0.5577  XXZ=             -0.0000  XZZ=             -0.7905  YZZ=              0.4571
  YYZ=             -0.0000  XYZ=              0.0000
 Hexadecapole moment (field-independent basis, Debye-Ang**3):
 XXXX=           -109.7887 YYYY=            -62.3566 ZZZZ=            -22.2828 XXXY=             18.2557
 XXXZ=             -0.0000 YYYX=             19.4982 YYYZ=             -0.0000 ZZZX=             -0.0000
 ZZZY=              0.0000 XXYY=            -29.8605 XXZZ=            -19.5281 YYZZ=            -15.0189
 XXYZ=              0.0000 YYXZ=             -0.0000 ZZXY=              5.2555
 N-N= 7.144383258950D+01 E-N=-5.021562816124D+02  KE= 1.526699587593D+02
 Symmetry A'   KE= 1.471243717147D+02
 Symmetry A"   KE= 5.545587044575D+00
 1\1\GINC-NODE62\SP\RM062X\6-31G(d)\C2H4O1\YANZ\22-Sep-2023\0\\#m062x/6
 -31g(d) scf=tight\\tmpdir/M2_conf_0_53.gjf\\0,1\H,0,0.,0.,0.\C,0,1.083
 1,0.,0.\C,0,1.89668,0.,1.2634\O,0,1.79415,0.,-0.94771\H,0,2.92133,0.,0
 .89814\H,0,1.68418,-0.87904,1.8875\H,0,1.68418,0.87904,1.8875\\Version
 =ES64L-G16RevA.03\State=1-A'\HF=-153.7401448\RMSD=3.470e-09\Dipole=-0.
 4759578,0.,0.8091243\Quadrupole=1.0654906,0.609385,-1.6748756,0.,0.418
 9898,0.\PG=CS [SG(C2H2O1),X(H2)]\\@


 MORNING PEOPLE ARE USUALLY ADMIRED AS EARLY BIRDS.
 RECALL BEN FRANKLIN'S APHORISM THAT THE EARLY BIRD GETS THE WORM.
 I IDENTIFY WITH THE WORM. --  CRAIG JAGGER, MINNEAPOLIS, KS.
 Job cpu time:       0 days  0 hours  0 minutes 12.2 seconds.
 Elapsed time:       0 days  0 hours  0 minutes  3.2 seconds.
 File lengths (MBytes):  RWF=      6 Int=      0 D2E=      0 Chk=      1 Scr=      1
 Normal termination of Gaussian 16 at Fri Sep 22 17:02:37 2023.
