 Entering Gaussian System, Link 0=g16
 Initial command:
 /share/apps/gaussian/g16/l1.exe "/tmp/55613.mgr/Gau-180950.inp" -scrdir="/tmp/55613.mgr/"
 Entering Link 1 = /share/apps/gaussian/g16/l1.exe PID=    180951.
  
 Copyright (c) 1988,1990,1992,1993,1995,1998,2003,2009,2016,
            Gaussian, Inc.  All Rights Reserved.
  
 This is part of the Gaussian(R) 16 program.  It is based on
 the Gaussian(R) 09 system (copyright 2009, Gaussian, Inc.),
 the Gaussian(R) 03 system (copyright 2003, Gaussian, Inc.),
 the Gaussian(R) 98 system (copyright 1998, Gaussian, Inc.),
 the Gaussian(R) 94 system (copyright 1995, Gaussian, Inc.),
 the Gaussian 92(TM) system (copyright 1992, Gaussian, Inc.),
 the Gaussian 90(TM) system (copyright 1990, Gaussian, Inc.),
 the Gaussian 88(TM) system (copyright 1988, Gaussian, Inc.),
 the Gaussian 86(TM) system (copyright 1986, Carnegie Mellon
 University), and the Gaussian 82(TM) system (copyright 1983,
 Carnegie Mellon University). Gaussian is a federally registered
 trademark of Gaussian, Inc.
  
 This software contains proprietary and confidential information,
 including trade secrets, belonging to Gaussian, Inc.
  
 This software is provided under written license and may be
 used, copied, transmitted, or stored only in accord with that
 written license.
  
 The following legend is applicable only to US Government
 contracts under FAR:
  
                    RESTRICTED RIGHTS LEGEND
  
 Use, reproduction and disclosure by the US Government is
 subject to restrictions as set forth in subparagraphs (a)
 and (c) of the Commercial Computer Software - Restricted
 Rights clause in FAR 52.227-19.
  
 Gaussian, Inc.
 340 Quinnipiac St., Bldg. 40, Wallingford CT 06492
  
  
 ---------------------------------------------------------------
 Warning -- This program may not be used in any manner that
 competes with the business of Gaussian, Inc. or will provide
 assistance to any competitor of Gaussian, Inc.  The licensee
 of this program is prohibited from giving any competitor of
 Gaussian, Inc. access to this program.  By using this program,
 the user acknowledges that Gaussian, Inc. is engaged in the
 business of creating and licensing software in the field of
 computational chemistry and represents and warrants to the
 licensee that it is not a competitor of Gaussian, Inc. and that
 it will not use this program in any manner prohibited above.
 ---------------------------------------------------------------
  

 Cite this work as:
 Gaussian 16, Revision A.03,
 M. J. Frisch, G. W. Trucks, H. B. Schlegel, G. E. Scuseria, 
 M. A. Robb, J. R. Cheeseman, G. Scalmani, V. Barone, 
 G. A. Petersson, H. Nakatsuji, X. Li, M. Caricato, A. V. Marenich, 
 J. Bloino, B. G. Janesko, R. Gomperts, B. Mennucci, H. P. Hratchian, 
 J. V. Ortiz, A. F. Izmaylov, J. L. Sonnenberg, D. Williams-Young, 
 F. Ding, F. Lipparini, F. Egidi, J. Goings, B. Peng, A. Petrone, 
 T. Henderson, D. Ranasinghe, V. G. Zakrzewski, J. Gao, N. Rega, 
 G. Zheng, W. Liang, M. Hada, M. Ehara, K. Toyota, R. Fukuda, 
 J. Hasegawa, M. Ishida, T. Nakajima, Y. Honda, O. Kitao, H. Nakai, 
 T. Vreven, K. Throssell, J. A. Montgomery, Jr., J. E. Peralta, 
 F. Ogliaro, M. J. Bearpark, J. J. Heyd, E. N. Brothers, K. N. Kudin, 
 V. N. Staroverov, T. A. Keith, R. Kobayashi, J. Normand, 
 K. Raghavachari, A. P. Rendell, J. C. Burant, S. S. Iyengar, 
 J. Tomasi, M. Cossi, J. M. Millam, M. Klene, C. Adamo, R. Cammi, 
 J. W. Ochterski, R. L. Martin, K. Morokuma, O. Farkas, 
 J. B. Foresman, and D. J. Fox, Gaussian, Inc., Wallingford CT, 2016.
 
 ******************************************
 Gaussian 16:  ES64L-G16RevA.03 25-Dec-2016
                22-Sep-2023 
 ******************************************
 %nprocshared=4
 Will use up to    4 processors via shared memory.
 %mem=4GB
 -------------------------
 #m062x/6-31g(d) scf=tight
 -------------------------
 1/38=1,172=1/1;
 2/12=2,17=6,18=5,40=1/2;
 3/5=1,6=6,7=1,11=2,25=1,30=1,74=-55/1,2,3;
 4//1;
 5/5=2,32=2,38=5/2;
 6/7=2,8=2,9=2,10=2,28=1/1;
 99/5=1,9=1/99;
 -----------------------
 tmpdir/M2_conf_0_25.gjf
 -----------------------
 Symbolic Z-matrix:
 Charge =  0 Multiplicity = 1
 C                     0.        0.        0. 
 C                     1.5364    0.        0. 
 H                     1.96519   0.        1.00821 
 H                    -0.43      0.85935  -0.52147 
 H                    -0.43     -0.01579   1.00507 
 H                    -0.29447  -0.92816  -0.53199 
 H                     1.80258  -0.92009  -0.52736 
 H                     1.95796   0.87257  -0.51112 
 
                          Input orientation:                          
 ---------------------------------------------------------------------
 Center     Atomic      Atomic             Coordinates (Angstroms)
 Number     Number       Type             X           Y           Z
 ---------------------------------------------------------------------
      1          6           0        0.000000    0.000000    0.000000
      2          6           0        1.536400    0.000000    0.000000
      3          1           0        1.965190    0.000000    1.008210
      4          1           0       -0.430000    0.859350   -0.521470
      5          1           0       -0.430000   -0.015790    1.005070
      6          1           0       -0.294470   -0.928160   -0.531990
      7          1           0        1.802580   -0.920090   -0.527360
      8          1           0        1.957960    0.872570   -0.511120
 ---------------------------------------------------------------------
                    Distance matrix (angstroms):
                    1          2          3          4          5
     1  C    0.000000
     2  C    1.536400   0.000000
     3  H    2.208723   1.095604   0.000000
     4  H    1.093304   2.208425   2.969064   0.000000
     5  H    1.093305   2.208426   2.395244   1.759601   0.000000
     6  H    1.109598   2.120514   2.887864   1.792671   1.792579
     7  H    2.091404   1.093401   1.797493   2.854970   2.854910
     8  H    2.203685   1.095598   1.752083   2.388019   2.964856
                    6          7          8
     6  H    0.000000
     7  H    2.097071   0.000000
     8  H    2.883835   1.799455   0.000000
 Stoichiometry    C2H6
 Framework group  C1[X(C2H6)]
 Deg. of freedom    18
 Full point group                 C1      NOp   1
 Largest Abelian subgroup         C1      NOp   1
 Largest concise Abelian subgroup C1      NOp   1
                         Standard orientation:                         
 ---------------------------------------------------------------------
 Center     Atomic      Atomic             Coordinates (Angstroms)
 Number     Number       Type             X           Y           Z
 ---------------------------------------------------------------------
      1          6           0        0.766024   -0.013284    0.000568
      2          6           0       -0.770346   -0.003764    0.000008
      3          1           0       -1.202462   -0.487288    0.883087
      4          1           0        1.193227   -0.517298   -0.870513
      5          1           0        1.192775   -0.486783    0.888823
      6          1           0        1.067123    1.054522   -0.017782
      7          1           0       -1.029944    1.058213   -0.018381
      8          1           0       -1.194791   -0.519074   -0.868691
 ---------------------------------------------------------------------
 Rotational constants (GHZ):          79.2435026          20.0139872          19.8852695
 Standard basis: 6-31G(d) (6D, 7F)
 There are    42 symmetry adapted cartesian basis functions of A   symmetry.
 There are    42 symmetry adapted basis functions of A   symmetry.
    42 basis functions,    80 primitive gaussians,    42 cartesian basis functions
     9 alpha electrons        9 beta electrons
       nuclear repulsion energy        42.1087111898 Hartrees.
 NAtoms=    8 NActive=    8 NUniq=    8 SFac= 1.00D+00 NAtFMM=   60 NAOKFM=F Big=F
 Integral buffers will be    131072 words long.
 Raffenetti 2 integral format.
 Two-electron integral symmetry is turned on.
 One-electron integrals computed using PRISM.
 NBasis=    42 RedAO= T EigKep=  8.03D-03  NBF=    42
 NBsUse=    42 1.00D-06 EigRej= -1.00D+00 NBFU=    42
 ExpMin= 1.61D-01 ExpMax= 3.05D+03 ExpMxC= 4.57D+02 IAcc=3 IRadAn=         5 AccDes= 0.00D+00
 Harris functional with IExCor= 1009 and IRadAn=       5 diagonalized for initial guess.
 HarFok:  IExCor= 1009 AccDes= 0.00D+00 IRadAn=         5 IDoV= 1 UseB2=F ITyADJ=14
 ICtDFT=  3500011 ScaDFX=  1.000000  1.000000  1.000000  1.000000
 FoFCou: FMM=F IPFlag=           0 FMFlag=      100000 FMFlg1=           0
         NFxFlg=           0 DoJE=T BraDBF=F KetDBF=T FulRan=T
         wScrn=  0.000000 ICntrl=       500 IOpCl=  0 I1Cent=   200000004 NGrid=           0
         NMat0=    1 NMatS0=      1 NMatT0=    0 NMatD0=    1 NMtDS0=    0 NMtDT0=    0
 Petite list used in FoFCou.
 Keep R1 ints in memory in canonical form, NReq=3864510.
 Requested convergence on RMS density matrix=1.00D-08 within 128 cycles.
 Requested convergence on MAX density matrix=1.00D-06.
 Requested convergence on             energy=1.00D-06.
 No special actions if energy rises.
 Integral accuracy reduced to 1.0D-05 until final iterations.
 Initial convergence to 1.0D-05 achieved.  Increase integral accuracy.
 SCF Done:  E(RM062X) =  -79.7639187945     A.U. after   11 cycles
            NFock= 11  Conv=0.28D-08     -V/T= 2.0095

 **********************************************************************

            Population analysis using the SCF density.

 **********************************************************************

 Orbital symmetries:
       Occupied  (A) (A) (A) (A) (A) (A) (A) (A) (A)
       Virtual   (A) (A) (A) (A) (A) (A) (A) (A) (A) (A) (A) (A)
                 (A) (A) (A) (A) (A) (A) (A) (A) (A) (A) (A) (A)
                 (A) (A) (A) (A) (A) (A) (A) (A) (A)
 The electronic state is 1-A.
 Alpha  occ. eigenvalues --  -10.52962 -10.52880  -0.84335  -0.69297  -0.50728
 Alpha  occ. eigenvalues --   -0.49555  -0.41571  -0.39773  -0.39697
 Alpha virt. eigenvalues --    0.14570   0.17915   0.17985   0.20767   0.28169
 Alpha virt. eigenvalues --    0.28745   0.29550   0.56240   0.57725   0.59718
 Alpha virt. eigenvalues --    0.71337   0.73288   0.74763   0.92151   0.92393
 Alpha virt. eigenvalues --    0.97905   0.98430   0.99523   1.04955   1.07615
 Alpha virt. eigenvalues --    1.49061   1.53507   1.55468   1.97593   2.10175
 Alpha virt. eigenvalues --    2.17053   2.17490   2.20706   2.41709   2.48415
 Alpha virt. eigenvalues --    2.61828   4.16866   4.42040
          Condensed to atoms (all electrons):
               1          2          3          4          5          6
     1  C    5.098145   0.328548  -0.032447   0.388812   0.388603   0.394291
     2  C    0.328548   5.091743   0.388911  -0.032676  -0.032691  -0.044709
     3  H   -0.032447   0.388911   0.539813   0.002773  -0.008519   0.003121
     4  H    0.388812  -0.032676   0.002773   0.539483  -0.029592  -0.027205
     5  H    0.388603  -0.032691  -0.008519  -0.029592   0.539512  -0.027148
     6  H    0.394291  -0.044709   0.003121  -0.027205  -0.027148   0.556982
     7  H   -0.046336   0.396060  -0.025826   0.003263   0.003276  -0.014218
     8  H   -0.032990   0.388989  -0.031009  -0.008617   0.002809   0.003140
               7          8
     1  C   -0.046336  -0.032990
     2  C    0.396060   0.388989
     3  H   -0.025826  -0.031009
     4  H    0.003263  -0.008617
     5  H    0.003276   0.002809
     6  H   -0.014218   0.003140
     7  H    0.548021  -0.025529
     8  H   -0.025529   0.540139
 Mulliken charges:
               1
     1  C   -0.486625
     2  C   -0.484174
     3  H    0.163184
     4  H    0.163759
     5  H    0.163751
     6  H    0.155746
     7  H    0.161290
     8  H    0.163069
 Sum of Mulliken charges =  -0.00000
 Mulliken charges with hydrogens summed into heavy atoms:
               1
     1  C   -0.003369
     2  C    0.003369
 Electronic spatial extent (au):  <R**2>=            109.5174
 Charge=             -0.0000 electrons
 Dipole moment (field-independent basis, Debye):
    X=             -0.0011    Y=              0.0030    Z=             -0.0004  Tot=              0.0032
 Quadrupole moment (field-independent basis, Debye-Ang):
   XX=            -15.5366   YY=            -14.5675   ZZ=            -14.7570
   XY=              0.0373   XZ=             -0.0079   YZ=              0.0006
 Traceless Quadrupole moment (field-independent basis, Debye-Ang):
   XX=             -0.5829   YY=              0.3862   ZZ=              0.1967
   XY=              0.0373   XZ=             -0.0079   YZ=              0.0006
 Octapole moment (field-independent basis, Debye-Ang**2):
  XXX=              0.0169  YYY=              1.2300  ZZZ=              0.0520  XYY=             -0.0436
  XXY=             -0.6575  XXZ=              0.0244  XZZ=              0.0123  YZZ=             -1.0756
  YYZ=             -0.0598  XYZ=              0.0004
 Hexadecapole moment (field-independent basis, Debye-Ang**3):
 XXXX=            -93.1929 YYYY=            -28.4836 ZZZZ=            -28.2956 XXXY=              0.1074
 XXXZ=             -0.0365 YYYX=              0.0126 YYYZ=             -0.0046 ZZZX=             -0.0057
 ZZZY=              0.0060 XXYY=            -19.4451 XXZZ=            -18.8056 YYZZ=             -9.5472
 XXYZ=              0.0063 YYXZ=             -0.0022 ZZXY=              0.0014
 N-N= 4.210871118982D+01 E-N=-2.679915136814D+02  KE= 7.901082478004D+01
 1\1\GINC-NODE62\SP\RM062X\6-31G(d)\C2H6\YANZ\22-Sep-2023\0\\#m062x/6-3
 1g(d) scf=tight\\tmpdir/M2_conf_0_25.gjf\\0,1\C,0,0.,0.,0.\C,0,1.5364,
 0.,0.\H,0,1.96519,0.,1.00821\H,0,-0.43,0.85935,-0.52147\H,0,-0.43,-0.0
 1579,1.00507\H,0,-0.29447,-0.92816,-0.53199\H,0,1.80258,-0.92009,-0.52
 736\H,0,1.95796,0.87257,-0.51112\\Version=ES64L-G16RevA.03\State=1-A\H
 F=-79.7639188\RMSD=2.827e-09\Dipole=0.0004243,-0.0009493,-0.0006904\Qu
 adrupole=-0.4336838,0.2549749,0.1787089,0.0176506,0.01621,0.0594228\PG
 =C01 [X(C2H6)]\\@


 TIME GOES, YOU SAY?  AH NO!
 ALAS, TIME STAYS, WE GO.
    -- A. DOBSON (1840-1921)
 Job cpu time:       0 days  0 hours  0 minutes 17.1 seconds.
 Elapsed time:       0 days  0 hours  0 minutes  4.5 seconds.
 File lengths (MBytes):  RWF=      6 Int=      0 D2E=      0 Chk=      1 Scr=      1
 Normal termination of Gaussian 16 at Fri Sep 22 17:02:22 2023.
