 Entering Gaussian System, Link 0=g16
 Initial command:
 /share/apps/gaussian/g16/l1.exe "/tmp/55613.mgr/Gau-181214.inp" -scrdir="/tmp/55613.mgr/"
 Entering Link 1 = /share/apps/gaussian/g16/l1.exe PID=    181215.
  
 Copyright (c) 1988,1990,1992,1993,1995,1998,2003,2009,2016,
            Gaussian, Inc.  All Rights Reserved.
  
 This is part of the Gaussian(R) 16 program.  It is based on
 the Gaussian(R) 09 system (copyright 2009, Gaussian, Inc.),
 the Gaussian(R) 03 system (copyright 2003, Gaussian, Inc.),
 the Gaussian(R) 98 system (copyright 1998, Gaussian, Inc.),
 the Gaussian(R) 94 system (copyright 1995, Gaussian, Inc.),
 the Gaussian 92(TM) system (copyright 1992, Gaussian, Inc.),
 the Gaussian 90(TM) system (copyright 1990, Gaussian, Inc.),
 the Gaussian 88(TM) system (copyright 1988, Gaussian, Inc.),
 the Gaussian 86(TM) system (copyright 1986, Carnegie Mellon
 University), and the Gaussian 82(TM) system (copyright 1983,
 Carnegie Mellon University). Gaussian is a federally registered
 trademark of Gaussian, Inc.
  
 This software contains proprietary and confidential information,
 including trade secrets, belonging to Gaussian, Inc.
  
 This software is provided under written license and may be
 used, copied, transmitted, or stored only in accord with that
 written license.
  
 The following legend is applicable only to US Government
 contracts under FAR:
  
                    RESTRICTED RIGHTS LEGEND
  
 Use, reproduction and disclosure by the US Government is
 subject to restrictions as set forth in subparagraphs (a)
 and (c) of the Commercial Computer Software - Restricted
 Rights clause in FAR 52.227-19.
  
 Gaussian, Inc.
 340 Quinnipiac St., Bldg. 40, Wallingford CT 06492
  
  
 ---------------------------------------------------------------
 Warning -- This program may not be used in any manner that
 competes with the business of Gaussian, Inc. or will provide
 assistance to any competitor of Gaussian, Inc.  The licensee
 of this program is prohibited from giving any competitor of
 Gaussian, Inc. access to this program.  By using this program,
 the user acknowledges that Gaussian, Inc. is engaged in the
 business of creating and licensing software in the field of
 computational chemistry and represents and warrants to the
 licensee that it is not a competitor of Gaussian, Inc. and that
 it will not use this program in any manner prohibited above.
 ---------------------------------------------------------------
  

 Cite this work as:
 Gaussian 16, Revision A.03,
 M. J. Frisch, G. W. Trucks, H. B. Schlegel, G. E. Scuseria, 
 M. A. Robb, J. R. Cheeseman, G. Scalmani, V. Barone, 
 G. A. Petersson, H. Nakatsuji, X. Li, M. Caricato, A. V. Marenich, 
 J. Bloino, B. G. Janesko, R. Gomperts, B. Mennucci, H. P. Hratchian, 
 J. V. Ortiz, A. F. Izmaylov, J. L. Sonnenberg, D. Williams-Young, 
 F. Ding, F. Lipparini, F. Egidi, J. Goings, B. Peng, A. Petrone, 
 T. Henderson, D. Ranasinghe, V. G. Zakrzewski, J. Gao, N. Rega, 
 G. Zheng, W. Liang, M. Hada, M. Ehara, K. Toyota, R. Fukuda, 
 J. Hasegawa, M. Ishida, T. Nakajima, Y. Honda, O. Kitao, H. Nakai, 
 T. Vreven, K. Throssell, J. A. Montgomery, Jr., J. E. Peralta, 
 F. Ogliaro, M. J. Bearpark, J. J. Heyd, E. N. Brothers, K. N. Kudin, 
 V. N. Staroverov, T. A. Keith, R. Kobayashi, J. Normand, 
 K. Raghavachari, A. P. Rendell, J. C. Burant, S. S. Iyengar, 
 J. Tomasi, M. Cossi, J. M. Millam, M. Klene, C. Adamo, R. Cammi, 
 J. W. Ochterski, R. L. Martin, K. Morokuma, O. Farkas, 
 J. B. Foresman, and D. J. Fox, Gaussian, Inc., Wallingford CT, 2016.
 
 ******************************************
 Gaussian 16:  ES64L-G16RevA.03 25-Dec-2016
                22-Sep-2023 
 ******************************************
 %nprocshared=4
 Will use up to    4 processors via shared memory.
 %mem=4GB
 -------------------------
 #m062x/6-31g(d) scf=tight
 -------------------------
 1/38=1,172=1/1;
 2/12=2,17=6,18=5,40=1/2;
 3/5=1,6=6,7=1,11=2,25=1,30=1,74=-55/1,2,3;
 4//1;
 5/5=2,32=2,38=5/2;
 6/7=2,8=2,9=2,10=2,28=1/1;
 99/5=1,9=1/99;
 -----------------------
 tmpdir/M2_conf_0_43.gjf
 -----------------------
 Symbolic Z-matrix:
 Charge =  0 Multiplicity = 1
 C                     0.        0.        0. 
 C                     1.485     0.        0. 
 O                     2.21772   0.        0.96079 
 O                    -0.40141   0.       -1.10707 
 H                    -0.58418   0.00016   0.91205 
 H                     1.81312  -0.00019  -1.05998 
 
                          Input orientation:                          
 ---------------------------------------------------------------------
 Center     Atomic      Atomic             Coordinates (Angstroms)
 Number     Number       Type             X           Y           Z
 ---------------------------------------------------------------------
      1          6           0        0.000000    0.000000    0.000000
      2          6           0        1.485000    0.000000    0.000000
      3          8           0        2.217720    0.000000    0.960790
      4          8           0       -0.401410    0.000000   -1.107070
      5          1           0       -0.584180    0.000160    0.912050
      6          1           0        1.813120   -0.000190   -1.059980
 ---------------------------------------------------------------------
                    Distance matrix (angstroms):
                    1          2          3          4          5
     1  C    0.000000
     2  C    1.485000   0.000000
     3  O    2.416899   1.208303   0.000000
     4  O    1.177597   2.187269   3.337048   0.000000
     5  H    1.083098   2.261270   2.802324   2.027375   0.000000
     6  H    2.100229   1.109604   2.060877   2.215031   3.104183
                    6
     6  H    0.000000
 Stoichiometry    C2H2O2
 Framework group  C1[X(C2H2O2)]
 Deg. of freedom    12
 Full point group                 C1      NOp   1
 Largest Abelian subgroup         C1      NOp   1
 Largest concise Abelian subgroup C1      NOp   1
                         Standard orientation:                         
 ---------------------------------------------------------------------
 Center     Atomic      Atomic             Coordinates (Angstroms)
 Number     Number       Type             X           Y           Z
 ---------------------------------------------------------------------
      1          6           0       -0.670879    0.477548    0.000037
      2          6           0        0.583148   -0.317839   -0.000027
      3          8           0        1.716516    0.101058    0.000001
      4          8           0       -1.602817   -0.242331   -0.000014
      5          1           0       -0.675691    1.560635   -0.000042
      6          1           0        0.292493   -1.388699    0.000085
 ---------------------------------------------------------------------
 Rotational constants (GHZ):          53.6174224           5.1428494           4.6927340
 Standard basis: 6-31G(d) (6D, 7F)
 There are    64 symmetry adapted cartesian basis functions of A   symmetry.
 There are    64 symmetry adapted basis functions of A   symmetry.
    64 basis functions,   120 primitive gaussians,    64 cartesian basis functions
    15 alpha electrons       15 beta electrons
       nuclear repulsion energy       104.1347494340 Hartrees.
 NAtoms=    6 NActive=    6 NUniq=    6 SFac= 1.00D+00 NAtFMM=   60 NAOKFM=F Big=F
 Integral buffers will be    131072 words long.
 Raffenetti 2 integral format.
 Two-electron integral symmetry is turned on.
 One-electron integrals computed using PRISM.
 NBasis=    64 RedAO= T EigKep=  4.07D-03  NBF=    64
 NBsUse=    64 1.00D-06 EigRej= -1.00D+00 NBFU=    64
 ExpMin= 1.61D-01 ExpMax= 5.48D+03 ExpMxC= 8.25D+02 IAcc=3 IRadAn=         5 AccDes= 0.00D+00
 Harris functional with IExCor= 1009 and IRadAn=       5 diagonalized for initial guess.
 HarFok:  IExCor= 1009 AccDes= 0.00D+00 IRadAn=         5 IDoV= 1 UseB2=F ITyADJ=14
 ICtDFT=  3500011 ScaDFX=  1.000000  1.000000  1.000000  1.000000
 FoFCou: FMM=F IPFlag=           0 FMFlag=      100000 FMFlg1=           0
         NFxFlg=           0 DoJE=T BraDBF=F KetDBF=T FulRan=T
         wScrn=  0.000000 ICntrl=       500 IOpCl=  0 I1Cent=   200000004 NGrid=           0
         NMat0=    1 NMatS0=      1 NMatT0=    0 NMatD0=    1 NMtDS0=    0 NMtDT0=    0
 Petite list used in FoFCou.
 Keep R1 ints in memory in canonical form, NReq=5719186.
 Requested convergence on RMS density matrix=1.00D-08 within 128 cycles.
 Requested convergence on MAX density matrix=1.00D-06.
 Requested convergence on             energy=1.00D-06.
 No special actions if energy rises.
 Integral accuracy reduced to 1.0D-05 until final iterations.
 Initial convergence to 1.0D-05 achieved.  Increase integral accuracy.
 SCF Done:  E(RM062X) =  -227.713365424     A.U. after   14 cycles
            NFock= 14  Conv=0.39D-08     -V/T= 2.0069

 **********************************************************************

            Population analysis using the SCF density.

 **********************************************************************

 Orbital symmetries:
       Occupied  (A) (A) (A) (A) (A) (A) (A) (A) (A) (A) (A) (A)
                 (A) (A) (A)
       Virtual   (A) (A) (A) (A) (A) (A) (A) (A) (A) (A) (A) (A)
                 (A) (A) (A) (A) (A) (A) (A) (A) (A) (A) (A) (A)
                 (A) (A) (A) (A) (A) (A) (A) (A) (A) (A) (A) (A)
                 (A) (A) (A) (A) (A) (A) (A) (A) (A) (A) (A) (A)
                 (A)
 The electronic state is 1-A.
 Alpha  occ. eigenvalues --  -19.68503 -19.67737 -10.66045 -10.65576  -1.23423
 Alpha  occ. eigenvalues --   -1.19492  -0.80575  -0.69685  -0.58446  -0.57366
 Alpha  occ. eigenvalues --   -0.53693  -0.53114  -0.46091  -0.40358  -0.33674
 Alpha virt. eigenvalues --   -0.05659   0.08411   0.15744   0.20071   0.24211
 Alpha virt. eigenvalues --    0.31992   0.38337   0.54230   0.59277   0.61425
 Alpha virt. eigenvalues --    0.67147   0.73398   0.78126   0.83593   0.86960
 Alpha virt. eigenvalues --    0.87600   0.90297   1.00033   1.00579   1.05626
 Alpha virt. eigenvalues --    1.10889   1.13566   1.17520   1.36391   1.40593
 Alpha virt. eigenvalues --    1.51618   1.60616   1.63475   1.73550   1.75865
 Alpha virt. eigenvalues --    1.79027   1.85927   1.92543   1.99197   2.11271
 Alpha virt. eigenvalues --    2.21939   2.29989   2.36464   2.43139   2.59499
 Alpha virt. eigenvalues --    2.62967   2.87364   2.91122   3.00128   3.07245
 Alpha virt. eigenvalues --    3.74477   3.99262   4.05876   4.35476
          Condensed to atoms (all electrons):
               1          2          3          4          5          6
     1  C    4.860884   0.284282  -0.057724   0.486843   0.344630  -0.117473
     2  C    0.284282   4.836691   0.485130  -0.074901  -0.066479   0.362875
     3  O   -0.057724   0.485130   7.970418   0.004160   0.008239  -0.040903
     4  O    0.486843  -0.074901   0.004160   7.946511  -0.036587   0.022026
     5  H    0.344630  -0.066479   0.008239  -0.036587   0.563302   0.005567
     6  H   -0.117473   0.362875  -0.040903   0.022026   0.005567   0.602825
 Mulliken charges:
               1
     1  C    0.198559
     2  C    0.172403
     3  O   -0.369321
     4  O   -0.348052
     5  H    0.181328
     6  H    0.165083
 Sum of Mulliken charges =  -0.00000
 Mulliken charges with hydrogens summed into heavy atoms:
               1
     1  C    0.379887
     2  C    0.337486
     3  O   -0.369321
     4  O   -0.348052
 Electronic spatial extent (au):  <R**2>=            253.8054
 Charge=             -0.0000 electrons
 Dipole moment (field-independent basis, Debye):
    X=             -0.5905    Y=              0.6725    Z=              0.0000  Tot=              0.8950
 Quadrupole moment (field-independent basis, Debye-Ang):
   XX=            -30.0483   YY=            -20.0510   ZZ=            -20.8738
   XY=             -2.0939   XZ=             -0.0001   YZ=             -0.0001
 Traceless Quadrupole moment (field-independent basis, Debye-Ang):
   XX=             -6.3906   YY=              3.6067   ZZ=              2.7840
   XY=             -2.0939   XZ=             -0.0001   YZ=             -0.0001
 Octapole moment (field-independent basis, Debye-Ang**2):
  XXX=             -1.5746  YYY=              0.9144  ZZZ=             -0.0000  XYY=             -0.8121
  XXY=              0.9380  XXZ=              0.0001  XZZ=             -0.0776  YZZ=             -0.0248
  YYZ=              0.0000  XYZ=              0.0000
 Hexadecapole moment (field-independent basis, Debye-Ang**3):
 XXXX=           -248.4464 YYYY=            -44.6087 ZZZZ=            -16.5935 XXXY=              0.0875
 XXXZ=              0.0001 YYYX=             -0.5618 YYYZ=             -0.0005 ZZZX=              0.0002
 ZZZY=              0.0000 XXYY=            -45.1486 XXZZ=            -37.9454 YYZZ=            -11.1571
 XXYZ=              0.0000 YYXZ=              0.0002 ZZXY=              0.7208
 N-N= 1.041347494340D+02 E-N=-7.423580410411D+02  KE= 2.261437393414D+02
 1\1\GINC-NODE62\SP\RM062X\6-31G(d)\C2H2O2\YANZ\22-Sep-2023\0\\#m062x/6
 -31g(d) scf=tight\\tmpdir/M2_conf_0_43.gjf\\0,1\C,0,0.,0.,0.\C,0,1.485
 ,0.,0.\O,0,2.21772,0.,0.96079\O,0,-0.40141,0.,-1.10707\H,0,-0.58418,0.
 00016,0.91205\H,0,1.81312,-0.00019,-1.05998\\Version=ES64L-G16RevA.03\
 State=1-A\HF=-227.7133654\RMSD=3.892e-09\Dipole=-0.3379026,0.0000034,0
 .0990057\Quadrupole=-1.2107083,2.0698064,-0.8590981,-0.0001042,-4.0254
 091,0.0000707\PG=C01 [X(C2H2O2)]\\@


 A CHEMICAL PHYSICIST MAKES PRECISE MEASUREMENTS ON IMPURE COMPOUNDS.
 A THEORETICAL PHYSICAL CHEMIST MAKES IMPRECISE
     MEASUREMENTS ON PURE COMPOUNDS.
 AN EXPERIMENTAL PHYSICAL CHEMIST MAKES IMPRECISE
     MEASUREMENTS ON IMPURE COMPOUNDS.
 Job cpu time:       0 days  0 hours  0 minutes 22.4 seconds.
 Elapsed time:       0 days  0 hours  0 minutes  5.8 seconds.
 File lengths (MBytes):  RWF=      6 Int=      0 D2E=      0 Chk=      1 Scr=      1
 Normal termination of Gaussian 16 at Fri Sep 22 17:02:29 2023.
