 Entering Gaussian System, Link 0=g16
 Initial command:
 /share/apps/gaussian/g16/l1.exe "/tmp/55613.mgr/Gau-181313.inp" -scrdir="/tmp/55613.mgr/"
 Entering Link 1 = /share/apps/gaussian/g16/l1.exe PID=    181314.
  
 Copyright (c) 1988,1990,1992,1993,1995,1998,2003,2009,2016,
            Gaussian, Inc.  All Rights Reserved.
  
 This is part of the Gaussian(R) 16 program.  It is based on
 the Gaussian(R) 09 system (copyright 2009, Gaussian, Inc.),
 the Gaussian(R) 03 system (copyright 2003, Gaussian, Inc.),
 the Gaussian(R) 98 system (copyright 1998, Gaussian, Inc.),
 the Gaussian(R) 94 system (copyright 1995, Gaussian, Inc.),
 the Gaussian 92(TM) system (copyright 1992, Gaussian, Inc.),
 the Gaussian 90(TM) system (copyright 1990, Gaussian, Inc.),
 the Gaussian 88(TM) system (copyright 1988, Gaussian, Inc.),
 the Gaussian 86(TM) system (copyright 1986, Carnegie Mellon
 University), and the Gaussian 82(TM) system (copyright 1983,
 Carnegie Mellon University). Gaussian is a federally registered
 trademark of Gaussian, Inc.
  
 This software contains proprietary and confidential information,
 including trade secrets, belonging to Gaussian, Inc.
  
 This software is provided under written license and may be
 used, copied, transmitted, or stored only in accord with that
 written license.
  
 The following legend is applicable only to US Government
 contracts under FAR:
  
                    RESTRICTED RIGHTS LEGEND
  
 Use, reproduction and disclosure by the US Government is
 subject to restrictions as set forth in subparagraphs (a)
 and (c) of the Commercial Computer Software - Restricted
 Rights clause in FAR 52.227-19.
  
 Gaussian, Inc.
 340 Quinnipiac St., Bldg. 40, Wallingford CT 06492
  
  
 ---------------------------------------------------------------
 Warning -- This program may not be used in any manner that
 competes with the business of Gaussian, Inc. or will provide
 assistance to any competitor of Gaussian, Inc.  The licensee
 of this program is prohibited from giving any competitor of
 Gaussian, Inc. access to this program.  By using this program,
 the user acknowledges that Gaussian, Inc. is engaged in the
 business of creating and licensing software in the field of
 computational chemistry and represents and warrants to the
 licensee that it is not a competitor of Gaussian, Inc. and that
 it will not use this program in any manner prohibited above.
 ---------------------------------------------------------------
  

 Cite this work as:
 Gaussian 16, Revision A.03,
 M. J. Frisch, G. W. Trucks, H. B. Schlegel, G. E. Scuseria, 
 M. A. Robb, J. R. Cheeseman, G. Scalmani, V. Barone, 
 G. A. Petersson, H. Nakatsuji, X. Li, M. Caricato, A. V. Marenich, 
 J. Bloino, B. G. Janesko, R. Gomperts, B. Mennucci, H. P. Hratchian, 
 J. V. Ortiz, A. F. Izmaylov, J. L. Sonnenberg, D. Williams-Young, 
 F. Ding, F. Lipparini, F. Egidi, J. Goings, B. Peng, A. Petrone, 
 T. Henderson, D. Ranasinghe, V. G. Zakrzewski, J. Gao, N. Rega, 
 G. Zheng, W. Liang, M. Hada, M. Ehara, K. Toyota, R. Fukuda, 
 J. Hasegawa, M. Ishida, T. Nakajima, Y. Honda, O. Kitao, H. Nakai, 
 T. Vreven, K. Throssell, J. A. Montgomery, Jr., J. E. Peralta, 
 F. Ogliaro, M. J. Bearpark, J. J. Heyd, E. N. Brothers, K. N. Kudin, 
 V. N. Staroverov, T. A. Keith, R. Kobayashi, J. Normand, 
 K. Raghavachari, A. P. Rendell, J. C. Burant, S. S. Iyengar, 
 J. Tomasi, M. Cossi, J. M. Millam, M. Klene, C. Adamo, R. Cammi, 
 J. W. Ochterski, R. L. Martin, K. Morokuma, O. Farkas, 
 J. B. Foresman, and D. J. Fox, Gaussian, Inc., Wallingford CT, 2016.
 
 ******************************************
 Gaussian 16:  ES64L-G16RevA.03 25-Dec-2016
                22-Sep-2023 
 ******************************************
 %nprocshared=4
 Will use up to    4 processors via shared memory.
 %mem=4GB
 -------------------------
 #m062x/6-31g(d) scf=tight
 -------------------------
 1/38=1,172=1/1;
 2/12=2,17=6,18=5,40=1/2;
 3/5=1,6=6,7=1,11=2,25=1,30=1,74=-55/1,2,3;
 4//1;
 5/5=2,32=2,38=5/2;
 6/7=2,8=2,9=2,10=2,28=1/1;
 99/5=1,9=1/99;
 -----------------------
 tmpdir/M2_conf_0_46.gjf
 -----------------------
 Symbolic Z-matrix:
 Charge =  0 Multiplicity = 1
 C                     0.        0.        0. 
 C                     1.3438    0.        0. 
 H                     1.96272   0.        0.88885 
 H                    -0.35022   0.       -1.00513 
 H                    -0.64195   0.        0.87359 
 H                     1.70172   0.       -1.02723 
 
                          Input orientation:                          
 ---------------------------------------------------------------------
 Center     Atomic      Atomic             Coordinates (Angstroms)
 Number     Number       Type             X           Y           Z
 ---------------------------------------------------------------------
      1          6           0        0.000000    0.000000    0.000000
      2          6           0        1.343800    0.000000    0.000000
      3          1           0        1.962720    0.000000    0.888850
      4          1           0       -0.350220    0.000000   -1.005130
      5          1           0       -0.641950    0.000000    0.873590
      6          1           0        1.701720    0.000000   -1.027230
 ---------------------------------------------------------------------
                    Distance matrix (angstroms):
                    1          2          3          4          5
     1  C    0.000000
     2  C    1.343800   0.000000
     3  H    2.154605   1.083105   0.000000
     4  H    1.064397   1.969769   2.989457   0.000000
     5  H    1.084094   2.169415   2.604715   1.901235   0.000000
     6  H    1.987725   1.087800   1.933774   2.052059   3.017599
                    6
     6  H    0.000000
 Stoichiometry    C2H4
 Framework group  CS[SG(C2H4)]
 Deg. of freedom     9
 Full point group                 CS      NOp   2
 Largest Abelian subgroup         CS      NOp   2
 Largest concise Abelian subgroup C1      NOp   1
                         Standard orientation:                         
 ---------------------------------------------------------------------
 Center     Atomic      Atomic             Coordinates (Angstroms)
 Number     Number       Type             X           Y           Z
 ---------------------------------------------------------------------
      1          6           0        0.016870    0.670942    0.000000
      2          6           0        0.016870   -0.672858   -0.000000
      3          1           0        0.905720   -1.291778   -0.000000
      4          1           0       -0.988260    1.021162    0.000000
      5          1           0        0.890460    1.312892    0.000000
      6          1           0       -1.010360   -1.030778   -0.000000
 ---------------------------------------------------------------------
 Rotational constants (GHZ):         138.6765238          30.8617937          25.2438878
 Standard basis: 6-31G(d) (6D, 7F)
 There are    30 symmetry adapted cartesian basis functions of A'  symmetry.
 There are     8 symmetry adapted cartesian basis functions of A"  symmetry.
 There are    30 symmetry adapted basis functions of A'  symmetry.
 There are     8 symmetry adapted basis functions of A"  symmetry.
    38 basis functions,    72 primitive gaussians,    38 cartesian basis functions
     8 alpha electrons        8 beta electrons
       nuclear repulsion energy        33.4502848665 Hartrees.
 NAtoms=    6 NActive=    6 NUniq=    6 SFac= 1.00D+00 NAtFMM=   60 NAOKFM=F Big=F
 Integral buffers will be    131072 words long.
 Raffenetti 2 integral format.
 Two-electron integral symmetry is turned on.
 One-electron integrals computed using PRISM.
 NBasis=    38 RedAO= T EigKep=  6.40D-03  NBF=    30     8
 NBsUse=    38 1.00D-06 EigRej= -1.00D+00 NBFU=    30     8
 ExpMin= 1.61D-01 ExpMax= 3.05D+03 ExpMxC= 4.57D+02 IAcc=3 IRadAn=         5 AccDes= 0.00D+00
 Harris functional with IExCor= 1009 and IRadAn=       5 diagonalized for initial guess.
 HarFok:  IExCor= 1009 AccDes= 0.00D+00 IRadAn=         5 IDoV= 1 UseB2=F ITyADJ=14
 ICtDFT=  3500011 ScaDFX=  1.000000  1.000000  1.000000  1.000000
 FoFCou: FMM=F IPFlag=           0 FMFlag=      100000 FMFlg1=           0
         NFxFlg=           0 DoJE=T BraDBF=F KetDBF=T FulRan=T
         wScrn=  0.000000 ICntrl=       500 IOpCl=  0 I1Cent=   200000004 NGrid=           0
         NMat0=    1 NMatS0=      1 NMatT0=    0 NMatD0=    1 NMtDS0=    0 NMtDT0=    0
 Petite list used in FoFCou.
 Initial guess orbital symmetries:
       Occupied  (A') (A') (A') (A') (A') (A') (A') (A")
       Virtual   (A") (A') (A') (A') (A') (A') (A') (A") (A') (A")
                 (A') (A') (A') (A') (A') (A') (A') (A') (A") (A")
                 (A") (A') (A') (A') (A') (A") (A') (A') (A') (A')
 The electronic state of the initial guess is 1-A'.
 Keep R1 ints in memory in symmetry-blocked form, NReq=3732011.
 Requested convergence on RMS density matrix=1.00D-08 within 128 cycles.
 Requested convergence on MAX density matrix=1.00D-06.
 Requested convergence on             energy=1.00D-06.
 No special actions if energy rises.
 Integral accuracy reduced to 1.0D-05 until final iterations.
 Initial convergence to 1.0D-05 achieved.  Increase integral accuracy.
 SCF Done:  E(RM062X) =  -78.5275361824     A.U. after   12 cycles
            NFock= 12  Conv=0.30D-08     -V/T= 2.0089

 **********************************************************************

            Population analysis using the SCF density.

 **********************************************************************

 Orbital symmetries:
       Occupied  (A') (A') (A') (A') (A') (A') (A') (A")
       Virtual   (A") (A') (A') (A') (A') (A') (A') (A") (A') (A")
                 (A') (A') (A') (A') (A') (A') (A') (A') (A") (A")
                 (A") (A') (A') (A') (A') (A") (A') (A') (A') (A')
 The electronic state is 1-A'.
 Alpha  occ. eigenvalues --  -10.54210 -10.53938  -0.85422  -0.64958  -0.55100
 Alpha  occ. eigenvalues --   -0.45775  -0.41975  -0.32227
 Alpha virt. eigenvalues --    0.06142   0.15513   0.19696   0.21576   0.29989
 Alpha virt. eigenvalues --    0.35718   0.52494   0.60709   0.63587   0.69941
 Alpha virt. eigenvalues --    0.71926   0.75490   0.91930   0.95604   0.98486
 Alpha virt. eigenvalues --    1.00174   1.14767   1.34384   1.51644   1.59701
 Alpha virt. eigenvalues --    1.87744   1.97435   2.00433   2.17728   2.39903
 Alpha virt. eigenvalues --    2.40793   2.62651   2.74159   4.12696   4.29325
          Condensed to atoms (all electrons):
               1          2          3          4          5          6
     1  C    4.975113   0.659065  -0.037594   0.391300   0.384247  -0.047695
     2  C    0.659065   4.980317   0.384734  -0.047877  -0.035820   0.388828
     3  H   -0.037594   0.384734   0.511572   0.005282  -0.004615  -0.028611
     4  H    0.391300  -0.047877   0.005282   0.539522  -0.030507  -0.015593
     5  H    0.384247  -0.035820  -0.004615  -0.030507   0.512398   0.005047
     6  H   -0.047695   0.388828  -0.028611  -0.015593   0.005047   0.540696
 Mulliken charges:
               1
     1  C   -0.324435
     2  C   -0.329247
     3  H    0.169231
     4  H    0.157873
     5  H    0.169250
     6  H    0.157328
 Sum of Mulliken charges =   0.00000
 Mulliken charges with hydrogens summed into heavy atoms:
               1
     1  C    0.002688
     2  C   -0.002688
 Electronic spatial extent (au):  <R**2>=             81.1906
 Charge=              0.0000 electrons
 Dipole moment (field-independent basis, Debye):
    X=             -0.0193    Y=              0.0134    Z=              0.0000  Tot=              0.0235
 Quadrupole moment (field-independent basis, Debye-Ang):
   XX=            -11.7464   YY=            -12.4729   ZZ=            -15.1981
   XY=              0.0141   XZ=              0.0000   YZ=              0.0000
 Traceless Quadrupole moment (field-independent basis, Debye-Ang):
   XX=              1.3927   YY=              0.6663   ZZ=             -2.0589
   XY=              0.0141   XZ=              0.0000   YZ=              0.0000
 Octapole moment (field-independent basis, Debye-Ang**2):
  XXX=             -0.4463  YYY=              0.1866  ZZZ=              0.0000  XYY=              1.1677
  XXY=             -0.0436  XXZ=             -0.0000  XZZ=             -0.0334  YZZ=              0.0314
  YYZ=              0.0000  XYZ=              0.0000
 Hexadecapole moment (field-independent basis, Debye-Ang**3):
 XXXX=            -25.6876 YYYY=            -65.9023 ZZZZ=            -15.9288 XXXY=             -0.0885
 XXXZ=             -0.0000 YYYX=             -0.0284 YYYZ=             -0.0000 ZZZX=             -0.0000
 ZZZY=             -0.0000 XXYY=            -13.0429 XXZZ=             -7.6523 YYZZ=            -14.3433
 XXYZ=             -0.0000 YYXZ=              0.0000 ZZXY=             -0.0484
 N-N= 3.345028486651D+01 E-N=-2.482663864947D+02  KE= 7.783376929036D+01
 Symmetry A'   KE= 7.578698872330D+01
 Symmetry A"   KE= 2.046780567060D+00
 1\1\GINC-NODE62\SP\RM062X\6-31G(d)\C2H4\YANZ\22-Sep-2023\0\\#m062x/6-3
 1g(d) scf=tight\\tmpdir/M2_conf_0_46.gjf\\0,1\C,0,0.,0.,0.\C,0,1.3438,
 0.,0.\H,0,1.96272,0.,0.88885\H,0,-0.35022,0.,-1.00513\H,0,-0.64195,0.,
 0.87359\H,0,1.70172,0.,-1.02723\\Version=ES64L-G16RevA.03\State=1-A'\H
 F=-78.5275362\RMSD=3.047e-09\Dipole=-0.0052576,0.,-0.0076032\Quadrupol
 e=0.4953524,-1.5307727,1.0354203,0.,-0.010452,0.\PG=CS [SG(C2H4)]\\@


 THE MOLECULE ALSO HAS A BODY.  WHEN THIS BODY IS HIT, THE MOLECULE
 FEELS HURT ALL OVER -- A. KITAIGORODSKI
 Job cpu time:       0 days  0 hours  0 minutes  8.4 seconds.
 Elapsed time:       0 days  0 hours  0 minutes  2.3 seconds.
 File lengths (MBytes):  RWF=      6 Int=      0 D2E=      0 Chk=      1 Scr=      1
 Normal termination of Gaussian 16 at Fri Sep 22 17:02:27 2023.
