 Entering Gaussian System, Link 0=g16
 Initial command:
 /share/apps/gaussian/g16/l1.exe "/tmp/55613.mgr/Gau-180845.inp" -scrdir="/tmp/55613.mgr/"
 Entering Link 1 = /share/apps/gaussian/g16/l1.exe PID=    180846.
  
 Copyright (c) 1988,1990,1992,1993,1995,1998,2003,2009,2016,
            Gaussian, Inc.  All Rights Reserved.
  
 This is part of the Gaussian(R) 16 program.  It is based on
 the Gaussian(R) 09 system (copyright 2009, Gaussian, Inc.),
 the Gaussian(R) 03 system (copyright 2003, Gaussian, Inc.),
 the Gaussian(R) 98 system (copyright 1998, Gaussian, Inc.),
 the Gaussian(R) 94 system (copyright 1995, Gaussian, Inc.),
 the Gaussian 92(TM) system (copyright 1992, Gaussian, Inc.),
 the Gaussian 90(TM) system (copyright 1990, Gaussian, Inc.),
 the Gaussian 88(TM) system (copyright 1988, Gaussian, Inc.),
 the Gaussian 86(TM) system (copyright 1986, Carnegie Mellon
 University), and the Gaussian 82(TM) system (copyright 1983,
 Carnegie Mellon University). Gaussian is a federally registered
 trademark of Gaussian, Inc.
  
 This software contains proprietary and confidential information,
 including trade secrets, belonging to Gaussian, Inc.
  
 This software is provided under written license and may be
 used, copied, transmitted, or stored only in accord with that
 written license.
  
 The following legend is applicable only to US Government
 contracts under FAR:
  
                    RESTRICTED RIGHTS LEGEND
  
 Use, reproduction and disclosure by the US Government is
 subject to restrictions as set forth in subparagraphs (a)
 and (c) of the Commercial Computer Software - Restricted
 Rights clause in FAR 52.227-19.
  
 Gaussian, Inc.
 340 Quinnipiac St., Bldg. 40, Wallingford CT 06492
  
  
 ---------------------------------------------------------------
 Warning -- This program may not be used in any manner that
 competes with the business of Gaussian, Inc. or will provide
 assistance to any competitor of Gaussian, Inc.  The licensee
 of this program is prohibited from giving any competitor of
 Gaussian, Inc. access to this program.  By using this program,
 the user acknowledges that Gaussian, Inc. is engaged in the
 business of creating and licensing software in the field of
 computational chemistry and represents and warrants to the
 licensee that it is not a competitor of Gaussian, Inc. and that
 it will not use this program in any manner prohibited above.
 ---------------------------------------------------------------
  

 Cite this work as:
 Gaussian 16, Revision A.03,
 M. J. Frisch, G. W. Trucks, H. B. Schlegel, G. E. Scuseria, 
 M. A. Robb, J. R. Cheeseman, G. Scalmani, V. Barone, 
 G. A. Petersson, H. Nakatsuji, X. Li, M. Caricato, A. V. Marenich, 
 J. Bloino, B. G. Janesko, R. Gomperts, B. Mennucci, H. P. Hratchian, 
 J. V. Ortiz, A. F. Izmaylov, J. L. Sonnenberg, D. Williams-Young, 
 F. Ding, F. Lipparini, F. Egidi, J. Goings, B. Peng, A. Petrone, 
 T. Henderson, D. Ranasinghe, V. G. Zakrzewski, J. Gao, N. Rega, 
 G. Zheng, W. Liang, M. Hada, M. Ehara, K. Toyota, R. Fukuda, 
 J. Hasegawa, M. Ishida, T. Nakajima, Y. Honda, O. Kitao, H. Nakai, 
 T. Vreven, K. Throssell, J. A. Montgomery, Jr., J. E. Peralta, 
 F. Ogliaro, M. J. Bearpark, J. J. Heyd, E. N. Brothers, K. N. Kudin, 
 V. N. Staroverov, T. A. Keith, R. Kobayashi, J. Normand, 
 K. Raghavachari, A. P. Rendell, J. C. Burant, S. S. Iyengar, 
 J. Tomasi, M. Cossi, J. M. Millam, M. Klene, C. Adamo, R. Cammi, 
 J. W. Ochterski, R. L. Martin, K. Morokuma, O. Farkas, 
 J. B. Foresman, and D. J. Fox, Gaussian, Inc., Wallingford CT, 2016.
 
 ******************************************
 Gaussian 16:  ES64L-G16RevA.03 25-Dec-2016
                22-Sep-2023 
 ******************************************
 %nprocshared=4
 Will use up to    4 processors via shared memory.
 %mem=4GB
 -------------------------
 #m062x/6-31g(d) scf=tight
 -------------------------
 1/38=1,172=1/1;
 2/12=2,17=6,18=5,40=1/2;
 3/5=1,6=6,7=1,11=2,25=1,30=1,74=-55/1,2,3;
 4//1;
 5/5=2,32=2,38=5/2;
 6/7=2,8=2,9=2,10=2,28=1/1;
 99/5=1,9=1/99;
 -----------------------
 tmpdir/M2_conf_0_28.gjf
 -----------------------
 Symbolic Z-matrix:
 Charge =  0 Multiplicity = 1
 C                     0.        0.        0. 
 C                     1.5105    0.        0. 
 H                     1.86828   0.        1.03554 
 O                    -0.4673   -0.92457  -0.55994 
 H                    -0.56937   0.79102   0.47906 
 H                     1.78126  -0.92271  -0.55882 
 H                     1.89544   0.9091   -0.47507 
 
                          Input orientation:                          
 ---------------------------------------------------------------------
 Center     Atomic      Atomic             Coordinates (Angstroms)
 Number     Number       Type             X           Y           Z
 ---------------------------------------------------------------------
      1          6           0        0.000000    0.000000    0.000000
      2          6           0        1.510500    0.000000    0.000000
      3          1           0        1.868280    0.000000    1.035540
      4          8           0       -0.467300   -0.924570   -0.559940
      5          1           0       -0.569370    0.791020    0.479060
      6          1           0        1.781260   -0.922710   -0.558820
      7          1           0        1.895440    0.909100   -0.475070
 ---------------------------------------------------------------------
                    Distance matrix (angstroms):
                    1          2          3          4          5
     1  C    0.000000
     2  C    1.510500   0.000000
     3  H    2.136074   1.095605   0.000000
     4  O    1.177596   2.253898   2.975789   0.000000
     5  H    1.085999   2.276196   2.622503   2.008280   0.000000
     6  H    2.082441   1.112198   1.844166   2.248561   3.088612
     7  H    2.155191   1.095597   1.763276   2.992004   2.645675
                    6          7
     6  H    0.000000
     7  H    1.837275   0.000000
 Stoichiometry    C2H4O
 Framework group  C1[X(C2H4O)]
 Deg. of freedom    15
 Full point group                 C1      NOp   1
 Largest Abelian subgroup         C1      NOp   1
 Largest concise Abelian subgroup C1      NOp   1
                         Standard orientation:                         
 ---------------------------------------------------------------------
 Center     Atomic      Atomic             Coordinates (Angstroms)
 Number     Number       Type             X           Y           Z
 ---------------------------------------------------------------------
      1          6           0       -0.258055    0.470554   -0.001938
      2          6           0        1.117960   -0.152493    0.000421
      3          1           0        1.664933    0.191468    0.885216
      4          8           0       -1.129603   -0.321361    0.000402
      5          1           0       -0.395280    1.547843   -0.005453
      6          1           0        0.919655   -1.246864    0.003903
      7          1           0        1.688086    0.170080   -0.877779
 ---------------------------------------------------------------------
 Rotational constants (GHZ):          49.7547568          11.4473839           9.8759514
 Standard basis: 6-31G(d) (6D, 7F)
 There are    53 symmetry adapted cartesian basis functions of A   symmetry.
 There are    53 symmetry adapted basis functions of A   symmetry.
    53 basis functions,   100 primitive gaussians,    53 cartesian basis functions
    12 alpha electrons       12 beta electrons
       nuclear repulsion energy        71.1814272732 Hartrees.
 NAtoms=    7 NActive=    7 NUniq=    7 SFac= 1.00D+00 NAtFMM=   60 NAOKFM=F Big=F
 Integral buffers will be    131072 words long.
 Raffenetti 2 integral format.
 Two-electron integral symmetry is turned on.
 One-electron integrals computed using PRISM.
 NBasis=    53 RedAO= T EigKep=  4.96D-03  NBF=    53
 NBsUse=    53 1.00D-06 EigRej= -1.00D+00 NBFU=    53
 ExpMin= 1.61D-01 ExpMax= 5.48D+03 ExpMxC= 8.25D+02 IAcc=3 IRadAn=         5 AccDes= 0.00D+00
 Harris functional with IExCor= 1009 and IRadAn=       5 diagonalized for initial guess.
 HarFok:  IExCor= 1009 AccDes= 0.00D+00 IRadAn=         5 IDoV= 1 UseB2=F ITyADJ=14
 ICtDFT=  3500011 ScaDFX=  1.000000  1.000000  1.000000  1.000000
 FoFCou: FMM=F IPFlag=           0 FMFlag=      100000 FMFlg1=           0
         NFxFlg=           0 DoJE=T BraDBF=F KetDBF=T FulRan=T
         wScrn=  0.000000 ICntrl=       500 IOpCl=  0 I1Cent=   200000004 NGrid=           0
         NMat0=    1 NMatS0=      1 NMatT0=    0 NMatD0=    1 NMtDS0=    0 NMtDT0=    0
 Petite list used in FoFCou.
 Keep R1 ints in memory in canonical form, NReq=4530250.
 Requested convergence on RMS density matrix=1.00D-08 within 128 cycles.
 Requested convergence on MAX density matrix=1.00D-06.
 Requested convergence on             energy=1.00D-06.
 No special actions if energy rises.
 Integral accuracy reduced to 1.0D-05 until final iterations.
 Initial convergence to 1.0D-05 achieved.  Increase integral accuracy.
 SCF Done:  E(RM062X) =  -153.743484783     A.U. after   14 cycles
            NFock= 14  Conv=0.31D-08     -V/T= 2.0072

 **********************************************************************

            Population analysis using the SCF density.

 **********************************************************************

 Orbital symmetries:
       Occupied  (A) (A) (A) (A) (A) (A) (A) (A) (A) (A) (A) (A)
       Virtual   (A) (A) (A) (A) (A) (A) (A) (A) (A) (A) (A) (A)
                 (A) (A) (A) (A) (A) (A) (A) (A) (A) (A) (A) (A)
                 (A) (A) (A) (A) (A) (A) (A) (A) (A) (A) (A) (A)
                 (A) (A) (A) (A) (A)
 The electronic state is 1-A.
 Alpha  occ. eigenvalues --  -19.63801 -10.63368 -10.54668  -1.18829  -0.83484
 Alpha  occ. eigenvalues --   -0.67060  -0.56216  -0.51421  -0.50379  -0.46056
 Alpha  occ. eigenvalues --   -0.43130  -0.32035
 Alpha virt. eigenvalues --    0.03964   0.16339   0.18058   0.20346   0.20653
 Alpha virt. eigenvalues --    0.28225   0.34330   0.57847   0.59366   0.64080
 Alpha virt. eigenvalues --    0.65706   0.73682   0.78347   0.82210   0.91481
 Alpha virt. eigenvalues --    0.92441   0.94755   0.98049   1.00201   1.07016
 Alpha virt. eigenvalues --    1.15841   1.25447   1.46256   1.50731   1.60162
 Alpha virt. eigenvalues --    1.72478   1.86607   1.88039   2.00148   2.12847
 Alpha virt. eigenvalues --    2.14778   2.22767   2.35515   2.38704   2.63809
 Alpha virt. eigenvalues --    2.64426   2.89526   3.02749   3.84479   4.11097
 Alpha virt. eigenvalues --    4.35340
          Condensed to atoms (all electrons):
               1          2          3          4          5          6
     1  C    4.554581   0.332629  -0.023981   0.593286   0.347527  -0.034778
     2  C    0.332629   5.397112   0.349933  -0.123851  -0.102146   0.364166
     3  H   -0.023981   0.349933   0.529741   0.002476   0.004675  -0.015321
     4  O    0.593286  -0.123851   0.002476   7.945571  -0.052066   0.009172
     5  H    0.347527  -0.102146   0.004675  -0.052066   0.656650   0.005030
     6  H   -0.034778   0.364166  -0.015321   0.009172   0.005030   0.487561
     7  H   -0.022482   0.350704  -0.025149   0.002525   0.004478  -0.016133
               7
     1  C   -0.022482
     2  C    0.350704
     3  H   -0.025149
     4  O    0.002525
     5  H    0.004478
     6  H   -0.016133
     7  H    0.527396
 Mulliken charges:
               1
     1  C    0.253219
     2  C   -0.568547
     3  H    0.177627
     4  O   -0.377114
     5  H    0.135851
     6  H    0.200302
     7  H    0.178662
 Sum of Mulliken charges =   0.00000
 Mulliken charges with hydrogens summed into heavy atoms:
               1
     1  C    0.389070
     2  C   -0.011956
     4  O   -0.377114
 Electronic spatial extent (au):  <R**2>=            157.8245
 Charge=              0.0000 electrons
 Dipole moment (field-independent basis, Debye):
    X=              1.9378    Y=              1.3929    Z=             -0.0052  Tot=              2.3865
 Quadrupole moment (field-independent basis, Debye-Ang):
   XX=            -20.6701   YY=            -17.3749   ZZ=            -17.6754
   XY=             -0.9133   XZ=             -0.0154   YZ=              0.0177
 Traceless Quadrupole moment (field-independent basis, Debye-Ang):
   XX=             -2.0966   YY=              1.1986   ZZ=              0.8981
   XY=             -0.9133   XZ=             -0.0154   YZ=              0.0177
 Octapole moment (field-independent basis, Debye-Ang**2):
  XXX=             -0.9113  YYY=             -0.5127  ZZZ=             -0.0007  XYY=             -1.5446
  XXY=              1.1887  XXZ=             -0.0735  XZZ=             -0.9351  YZZ=              0.1211
  YYZ=             -0.0012  XYZ=              0.0310
 Hexadecapole moment (field-independent basis, Debye-Ang**3):
 XXXX=           -134.9268 YYYY=            -42.0423 ZZZZ=            -22.2117 XXXY=              2.2709
 XXXZ=             -0.1792 YYYX=             -0.2308 YYYZ=             -0.0018 ZZZX=             -0.0235
 ZZZY=              0.0329 XXYY=            -29.5533 XXZZ=            -23.3703 YYZZ=            -11.5972
 XXYZ=              0.0446 YYXZ=              0.0103 ZZXY=              1.2453
 N-N= 7.118142727319D+01 E-N=-5.016020858381D+02  KE= 1.526470755036D+02
 1\1\GINC-NODE62\SP\RM062X\6-31G(d)\C2H4O1\YANZ\22-Sep-2023\0\\#m062x/6
 -31g(d) scf=tight\\tmpdir/M2_conf_0_28.gjf\\0,1\C,0,0.,0.,0.\C,0,1.510
 5,0.,0.\H,0,1.86828,0.,1.03554\O,0,-0.4673,-0.92457,-0.55994\H,0,-0.56
 937,0.79102,0.47906\H,0,1.78126,-0.92271,-0.55882\H,0,1.89544,0.9091,-
 0.47507\\Version=ES64L-G16RevA.03\State=1-A\HF=-153.7434848\RMSD=3.055
 e-09\Dipole=0.4684696,0.6962475,0.4211243\Quadrupole=-0.6317239,0.1462
 342,0.4854898,-1.1613467,-0.7240874,-0.3084346\PG=C01 [X(C2H4O1)]\\@


 A MAN IS NEVER SO BRILLIANT AS WHEN HE TAKES THE WORDS RIGHT OUT
 OF YOUR MOUTH. -- ARNOT SHEPPARD, JR.
 Job cpu time:       0 days  0 hours  0 minutes 21.1 seconds.
 Elapsed time:       0 days  0 hours  0 minutes  5.4 seconds.
 File lengths (MBytes):  RWF=      6 Int=      0 D2E=      0 Chk=      1 Scr=      1
 Normal termination of Gaussian 16 at Fri Sep 22 17:02:19 2023.
