 Entering Gaussian System, Link 0=g16
 Initial command:
 /share/apps/gaussian/g16/l1.exe "/tmp/55613.mgr/Gau-181346.inp" -scrdir="/tmp/55613.mgr/"
 Entering Link 1 = /share/apps/gaussian/g16/l1.exe PID=    181347.
  
 Copyright (c) 1988,1990,1992,1993,1995,1998,2003,2009,2016,
            Gaussian, Inc.  All Rights Reserved.
  
 This is part of the Gaussian(R) 16 program.  It is based on
 the Gaussian(R) 09 system (copyright 2009, Gaussian, Inc.),
 the Gaussian(R) 03 system (copyright 2003, Gaussian, Inc.),
 the Gaussian(R) 98 system (copyright 1998, Gaussian, Inc.),
 the Gaussian(R) 94 system (copyright 1995, Gaussian, Inc.),
 the Gaussian 92(TM) system (copyright 1992, Gaussian, Inc.),
 the Gaussian 90(TM) system (copyright 1990, Gaussian, Inc.),
 the Gaussian 88(TM) system (copyright 1988, Gaussian, Inc.),
 the Gaussian 86(TM) system (copyright 1986, Carnegie Mellon
 University), and the Gaussian 82(TM) system (copyright 1983,
 Carnegie Mellon University). Gaussian is a federally registered
 trademark of Gaussian, Inc.
  
 This software contains proprietary and confidential information,
 including trade secrets, belonging to Gaussian, Inc.
  
 This software is provided under written license and may be
 used, copied, transmitted, or stored only in accord with that
 written license.
  
 The following legend is applicable only to US Government
 contracts under FAR:
  
                    RESTRICTED RIGHTS LEGEND
  
 Use, reproduction and disclosure by the US Government is
 subject to restrictions as set forth in subparagraphs (a)
 and (c) of the Commercial Computer Software - Restricted
 Rights clause in FAR 52.227-19.
  
 Gaussian, Inc.
 340 Quinnipiac St., Bldg. 40, Wallingford CT 06492
  
  
 ---------------------------------------------------------------
 Warning -- This program may not be used in any manner that
 competes with the business of Gaussian, Inc. or will provide
 assistance to any competitor of Gaussian, Inc.  The licensee
 of this program is prohibited from giving any competitor of
 Gaussian, Inc. access to this program.  By using this program,
 the user acknowledges that Gaussian, Inc. is engaged in the
 business of creating and licensing software in the field of
 computational chemistry and represents and warrants to the
 licensee that it is not a competitor of Gaussian, Inc. and that
 it will not use this program in any manner prohibited above.
 ---------------------------------------------------------------
  

 Cite this work as:
 Gaussian 16, Revision A.03,
 M. J. Frisch, G. W. Trucks, H. B. Schlegel, G. E. Scuseria, 
 M. A. Robb, J. R. Cheeseman, G. Scalmani, V. Barone, 
 G. A. Petersson, H. Nakatsuji, X. Li, M. Caricato, A. V. Marenich, 
 J. Bloino, B. G. Janesko, R. Gomperts, B. Mennucci, H. P. Hratchian, 
 J. V. Ortiz, A. F. Izmaylov, J. L. Sonnenberg, D. Williams-Young, 
 F. Ding, F. Lipparini, F. Egidi, J. Goings, B. Peng, A. Petrone, 
 T. Henderson, D. Ranasinghe, V. G. Zakrzewski, J. Gao, N. Rega, 
 G. Zheng, W. Liang, M. Hada, M. Ehara, K. Toyota, R. Fukuda, 
 J. Hasegawa, M. Ishida, T. Nakajima, Y. Honda, O. Kitao, H. Nakai, 
 T. Vreven, K. Throssell, J. A. Montgomery, Jr., J. E. Peralta, 
 F. Ogliaro, M. J. Bearpark, J. J. Heyd, E. N. Brothers, K. N. Kudin, 
 V. N. Staroverov, T. A. Keith, R. Kobayashi, J. Normand, 
 K. Raghavachari, A. P. Rendell, J. C. Burant, S. S. Iyengar, 
 J. Tomasi, M. Cossi, J. M. Millam, M. Klene, C. Adamo, R. Cammi, 
 J. W. Ochterski, R. L. Martin, K. Morokuma, O. Farkas, 
 J. B. Foresman, and D. J. Fox, Gaussian, Inc., Wallingford CT, 2016.
 
 ******************************************
 Gaussian 16:  ES64L-G16RevA.03 25-Dec-2016
                22-Sep-2023 
 ******************************************
 %nprocshared=4
 Will use up to    4 processors via shared memory.
 %mem=4GB
 -------------------------
 #m062x/6-31g(d) scf=tight
 -------------------------
 1/38=1,172=1/1;
 2/12=2,17=6,18=5,40=1/2;
 3/5=1,6=6,7=1,11=2,25=1,30=1,74=-55/1,2,3;
 4//1;
 5/5=2,32=2,38=5/2;
 6/7=2,8=2,9=2,10=2,28=1/1;
 99/5=1,9=1/99;
 -----------------------
 tmpdir/M2_conf_0_41.gjf
 -----------------------
 Symbolic Z-matrix:
 Charge =  0 Multiplicity = 1
 C                     0.        0.        0. 
 C                     1.5329    0.        0. 
 C                     1.96732   0.        1.42004 
 H                    -0.29516   0.00019   1.07232 
 H                    -0.35468   0.87969  -0.54373 
 H                    -0.3545   -0.87994  -0.54346 
 O                     2.23885  -0.00017  -0.98062 
 O                     1.02611   0.00019   2.12775 
 H                     3.01037  -0.00016   1.71185 
 
                          Input orientation:                          
 ---------------------------------------------------------------------
 Center     Atomic      Atomic             Coordinates (Angstroms)
 Number     Number       Type             X           Y           Z
 ---------------------------------------------------------------------
      1          6           0        0.000000    0.000000    0.000000
      2          6           0        1.532900    0.000000    0.000000
      3          6           0        1.967320    0.000000    1.420040
      4          1           0       -0.295160    0.000190    1.072320
      5          1           0       -0.354680    0.879690   -0.543730
      6          1           0       -0.354500   -0.879940   -0.543460
      7          8           0        2.238850   -0.000170   -0.980620
      8          8           0        1.026110    0.000190    2.127750
      9          1           0        3.010370   -0.000160    1.711850
 ---------------------------------------------------------------------
                    Distance matrix (angstroms):
                    1          2          3          4          5
     1  C    0.000000
     2  C    1.532900   0.000000
     3  C    2.426286   1.485003   0.000000
     4  H    1.112200   2.119357   2.289045   0.000000
     5  H    1.093295   2.152314   3.165743   1.840837   0.000000
     6  H    1.093304   2.152190   3.165513   1.840895   1.759630
     7  O    2.444190   1.208297   2.415967   3.261253   2.773342
     8  O    2.362249   2.187271   1.177595   1.691061   3.133194
     9  H    3.463056   2.261271   1.083100   3.366827   4.145520
                    6          7          8          9
     6  H    0.000000
     7  O    2.773187   0.000000
     8  O    3.133062   3.336570   0.000000
     9  H    4.145212   2.800828   2.027378   0.000000
 Stoichiometry    C3H4O2
 Framework group  C1[X(C3H4O2)]
 Deg. of freedom    21
 Full point group                 C1      NOp   1
 Largest Abelian subgroup         C1      NOp   1
 Largest concise Abelian subgroup C1      NOp   1
                         Standard orientation:                         
 ---------------------------------------------------------------------
 Center     Atomic      Atomic             Coordinates (Angstroms)
 Number     Number       Type             X           Y           Z
 ---------------------------------------------------------------------
      1          6           0       -0.295999    1.358029    0.000029
      2          6           0       -0.542322   -0.154951   -0.000059
      3          6           0        0.789457   -0.811913    0.000038
      4          1           0        0.809816    1.477041   -0.000052
      5          1           0       -0.775586    1.795510   -0.879687
      6          1           0       -0.775514    1.795213    0.879943
      7          8           0       -1.623639   -0.694150   -0.000015
      8          8           0        1.639214    0.003343   -0.000037
      9          1           0        0.909866   -1.888300    0.000163
 ---------------------------------------------------------------------
 Rotational constants (GHZ):           9.8065883           4.9700196           3.3669571
 Standard basis: 6-31G(d) (6D, 7F)
 There are    83 symmetry adapted cartesian basis functions of A   symmetry.
 There are    83 symmetry adapted basis functions of A   symmetry.
    83 basis functions,   156 primitive gaussians,    83 cartesian basis functions
    19 alpha electrons       19 beta electrons
       nuclear repulsion energy       165.3227321997 Hartrees.
 NAtoms=    9 NActive=    9 NUniq=    9 SFac= 1.00D+00 NAtFMM=   60 NAOKFM=F Big=F
 Integral buffers will be    131072 words long.
 Raffenetti 2 integral format.
 Two-electron integral symmetry is turned on.
 One-electron integrals computed using PRISM.
 NBasis=    83 RedAO= T EigKep=  2.70D-03  NBF=    83
 NBsUse=    83 1.00D-06 EigRej= -1.00D+00 NBFU=    83
 ExpMin= 1.61D-01 ExpMax= 5.48D+03 ExpMxC= 8.25D+02 IAcc=3 IRadAn=         5 AccDes= 0.00D+00
 Harris functional with IExCor= 1009 and IRadAn=       5 diagonalized for initial guess.
 HarFok:  IExCor= 1009 AccDes= 0.00D+00 IRadAn=         5 IDoV= 1 UseB2=F ITyADJ=14
 ICtDFT=  3500011 ScaDFX=  1.000000  1.000000  1.000000  1.000000
 FoFCou: FMM=F IPFlag=           0 FMFlag=      100000 FMFlg1=           0
         NFxFlg=           0 DoJE=T BraDBF=F KetDBF=T FulRan=T
         wScrn=  0.000000 ICntrl=       500 IOpCl=  0 I1Cent=   200000004 NGrid=           0
         NMat0=    1 NMatS0=      1 NMatT0=    0 NMatD0=    1 NMtDS0=    0 NMtDT0=    0
 Petite list used in FoFCou.
 Keep R1 ints in memory in canonical form, NReq=9700327.
 Requested convergence on RMS density matrix=1.00D-08 within 128 cycles.
 Requested convergence on MAX density matrix=1.00D-06.
 Requested convergence on             energy=1.00D-06.
 No special actions if energy rises.
 Integral accuracy reduced to 1.0D-05 until final iterations.
 Initial convergence to 1.0D-05 achieved.  Increase integral accuracy.
 SCF Done:  E(RM062X) =  -266.994881609     A.U. after   14 cycles
            NFock= 14  Conv=0.99D-08     -V/T= 2.0067

 **********************************************************************

            Population analysis using the SCF density.

 **********************************************************************

 Orbital symmetries:
       Occupied  (A) (A) (A) (A) (A) (A) (A) (A) (A) (A) (A) (A)
                 (A) (A) (A) (A) (A) (A) (A)
       Virtual   (A) (A) (A) (A) (A) (A) (A) (A) (A) (A) (A) (A)
                 (A) (A) (A) (A) (A) (A) (A) (A) (A) (A) (A) (A)
                 (A) (A) (A) (A) (A) (A) (A) (A) (A) (A) (A) (A)
                 (A) (A) (A) (A) (A) (A) (A) (A) (A) (A) (A) (A)
                 (A) (A) (A) (A) (A) (A) (A) (A) (A) (A) (A) (A)
                 (A) (A) (A) (A)
 The electronic state is 1-A.
 Alpha  occ. eigenvalues --  -19.68232 -19.66059 -10.66062 -10.64956 -10.53449
 Alpha  occ. eigenvalues --   -1.23995  -1.18406  -0.84934  -0.77347  -0.65430
 Alpha  occ. eigenvalues --   -0.58121  -0.57662  -0.54478  -0.50271  -0.48002
 Alpha  occ. eigenvalues --   -0.45568  -0.43172  -0.39396  -0.31327
 Alpha virt. eigenvalues --   -0.05218   0.08814   0.16450   0.17464   0.23001
 Alpha virt. eigenvalues --    0.23661   0.24726   0.29906   0.34874   0.39767
 Alpha virt. eigenvalues --    0.53362   0.60091   0.62661   0.64454   0.67389
 Alpha virt. eigenvalues --    0.68299   0.71768   0.75545   0.78688   0.86577
 Alpha virt. eigenvalues --    0.87536   0.90162   0.93525   0.98392   1.01130
 Alpha virt. eigenvalues --    1.03163   1.05517   1.08455   1.13916   1.18917
 Alpha virt. eigenvalues --    1.22693   1.28658   1.35563   1.47428   1.53414
 Alpha virt. eigenvalues --    1.57357   1.68357   1.74052   1.76050   1.80325
 Alpha virt. eigenvalues --    1.84961   1.86016   1.93783   1.95760   2.05833
 Alpha virt. eigenvalues --    2.11037   2.25261   2.27253   2.31239   2.32209
 Alpha virt. eigenvalues --    2.38758   2.47663   2.56532   2.60354   2.67629
 Alpha virt. eigenvalues --    2.93282   3.01220   3.03040   3.10106   3.85793
 Alpha virt. eigenvalues --    4.05489   4.19466   4.27496   4.57473
          Condensed to atoms (all electrons):
               1          2          3          4          5          6
     1  C    5.416502   0.346812  -0.136070   0.365758   0.363666   0.363668
     2  C    0.346812   4.713190   0.293226  -0.023239  -0.026235  -0.026243
     3  C   -0.136070   0.293226   4.856102  -0.005855   0.004523   0.004522
     4  H    0.365758  -0.023239  -0.005855   0.451952  -0.016286  -0.016281
     5  H    0.363666  -0.026235   0.004523  -0.016286   0.496996  -0.017510
     6  H    0.363668  -0.026243   0.004522  -0.016281  -0.017510   0.496997
     7  O   -0.073854   0.537450  -0.058114   0.002761  -0.000135  -0.000137
     8  O   -0.052860  -0.089741   0.481673  -0.008157   0.001222   0.001222
     9  H    0.005832  -0.068940   0.345310  -0.000040  -0.000063  -0.000063
               7          8          9
     1  C   -0.073854  -0.052860   0.005832
     2  C    0.537450  -0.089741  -0.068940
     3  C   -0.058114   0.481673   0.345310
     4  H    0.002761  -0.008157  -0.000040
     5  H   -0.000135   0.001222  -0.000063
     6  H   -0.000137   0.001222  -0.000063
     7  O    7.999268   0.003531   0.007112
     8  O    0.003531   8.059845  -0.034085
     9  H    0.007112  -0.034085   0.560388
 Mulliken charges:
               1
     1  C   -0.599453
     2  C    0.343720
     3  C    0.214684
     4  H    0.249386
     5  H    0.193823
     6  H    0.193825
     7  O   -0.417883
     8  O   -0.362651
     9  H    0.184548
 Sum of Mulliken charges =  -0.00000
 Mulliken charges with hydrogens summed into heavy atoms:
               1
     1  C    0.037581
     2  C    0.343720
     3  C    0.399232
     7  O   -0.417883
     8  O   -0.362651
 Electronic spatial extent (au):  <R**2>=            366.7867
 Charge=             -0.0000 electrons
 Dipole moment (field-independent basis, Debye):
    X=              0.9904    Y=             -0.2538    Z=              0.0001  Tot=              1.0224
 Quadrupole moment (field-independent basis, Debye-Ang):
   XX=            -35.8258   YY=            -26.6270   ZZ=            -27.1117
   XY=             -3.5365   XZ=             -0.0000   YZ=             -0.0002
 Traceless Quadrupole moment (field-independent basis, Debye-Ang):
   XX=             -5.9710   YY=              3.2278   ZZ=              2.7431
   XY=             -3.5365   XZ=             -0.0000   YZ=             -0.0002
 Octapole moment (field-independent basis, Debye-Ang**2):
  XXX=              1.7377  YYY=             -6.2011  ZZZ=              0.0001  XYY=              3.5129
  XXY=              2.2028  XXZ=              0.0002  XZZ=             -0.3092  YZZ=             -0.6122
  YYZ=             -0.0003  XYZ=             -0.0002
 Hexadecapole moment (field-independent basis, Debye-Ang**3):
 XXXX=           -265.1429 YYYY=           -168.4835 ZZZZ=            -29.4452 XXXY=             -0.5965
 XXXZ=             -0.0003 YYYX=             -3.7634 YYYZ=             -0.0024 ZZZX=             -0.0007
 ZZZY=              0.0004 XXYY=            -66.7514 XXZZ=            -42.5060 YYZZ=            -31.7982
 XXYZ=             -0.0003 YYXZ=              0.0004 ZZXY=             -0.1604
 N-N= 1.653227321997D+02 E-N=-9.556426942282D+02  KE= 2.652134930921D+02
 1\1\GINC-NODE62\SP\RM062X\6-31G(d)\C3H4O2\YANZ\22-Sep-2023\0\\#m062x/6
 -31g(d) scf=tight\\tmpdir/M2_conf_0_41.gjf\\0,1\C,0,0.,0.,0.\C,0,1.532
 9,0.,0.\C,0,1.96732,0.,1.42004\H,0,-0.29516,0.00019,1.07232\H,0,-0.354
 68,0.87969,-0.54373\H,0,-0.3545,-0.87994,-0.54346\O,0,2.23885,-0.00017
 ,-0.98062\O,0,1.02611,0.00019,2.12775\H,0,3.01037,-0.00016,1.71185\\Ve
 rsion=ES64L-G16RevA.03\State=1-A\HF=-266.9948816\RMSD=9.928e-09\Dipole
 =0.035955,-0.0000229,0.400645\Quadrupole=1.3891947,2.0394481,-3.428642
 8,0.0001876,3.5781764,-0.0006887\PG=C01 [X(C3H4O2)]\\@


 TIMES HAVE CHANGED. IN THE BIBLE WHEN AN ASS
 SPOKE IT WAS CONSIDERED A MIRACLE.
 Job cpu time:       0 days  0 hours  0 minutes 38.2 seconds.
 Elapsed time:       0 days  0 hours  0 minutes  9.9 seconds.
 File lengths (MBytes):  RWF=      6 Int=      0 D2E=      0 Chk=      2 Scr=      1
 Normal termination of Gaussian 16 at Fri Sep 22 17:02:36 2023.
