 Entering Gaussian System, Link 0=g16
 Initial command:
 /share/apps/gaussian/g16/l1.exe "/tmp/55613.mgr/Gau-180929.inp" -scrdir="/tmp/55613.mgr/"
 Entering Link 1 = /share/apps/gaussian/g16/l1.exe PID=    180930.
  
 Copyright (c) 1988,1990,1992,1993,1995,1998,2003,2009,2016,
            Gaussian, Inc.  All Rights Reserved.
  
 This is part of the Gaussian(R) 16 program.  It is based on
 the Gaussian(R) 09 system (copyright 2009, Gaussian, Inc.),
 the Gaussian(R) 03 system (copyright 2003, Gaussian, Inc.),
 the Gaussian(R) 98 system (copyright 1998, Gaussian, Inc.),
 the Gaussian(R) 94 system (copyright 1995, Gaussian, Inc.),
 the Gaussian 92(TM) system (copyright 1992, Gaussian, Inc.),
 the Gaussian 90(TM) system (copyright 1990, Gaussian, Inc.),
 the Gaussian 88(TM) system (copyright 1988, Gaussian, Inc.),
 the Gaussian 86(TM) system (copyright 1986, Carnegie Mellon
 University), and the Gaussian 82(TM) system (copyright 1983,
 Carnegie Mellon University). Gaussian is a federally registered
 trademark of Gaussian, Inc.
  
 This software contains proprietary and confidential information,
 including trade secrets, belonging to Gaussian, Inc.
  
 This software is provided under written license and may be
 used, copied, transmitted, or stored only in accord with that
 written license.
  
 The following legend is applicable only to US Government
 contracts under FAR:
  
                    RESTRICTED RIGHTS LEGEND
  
 Use, reproduction and disclosure by the US Government is
 subject to restrictions as set forth in subparagraphs (a)
 and (c) of the Commercial Computer Software - Restricted
 Rights clause in FAR 52.227-19.
  
 Gaussian, Inc.
 340 Quinnipiac St., Bldg. 40, Wallingford CT 06492
  
  
 ---------------------------------------------------------------
 Warning -- This program may not be used in any manner that
 competes with the business of Gaussian, Inc. or will provide
 assistance to any competitor of Gaussian, Inc.  The licensee
 of this program is prohibited from giving any competitor of
 Gaussian, Inc. access to this program.  By using this program,
 the user acknowledges that Gaussian, Inc. is engaged in the
 business of creating and licensing software in the field of
 computational chemistry and represents and warrants to the
 licensee that it is not a competitor of Gaussian, Inc. and that
 it will not use this program in any manner prohibited above.
 ---------------------------------------------------------------
  

 Cite this work as:
 Gaussian 16, Revision A.03,
 M. J. Frisch, G. W. Trucks, H. B. Schlegel, G. E. Scuseria, 
 M. A. Robb, J. R. Cheeseman, G. Scalmani, V. Barone, 
 G. A. Petersson, H. Nakatsuji, X. Li, M. Caricato, A. V. Marenich, 
 J. Bloino, B. G. Janesko, R. Gomperts, B. Mennucci, H. P. Hratchian, 
 J. V. Ortiz, A. F. Izmaylov, J. L. Sonnenberg, D. Williams-Young, 
 F. Ding, F. Lipparini, F. Egidi, J. Goings, B. Peng, A. Petrone, 
 T. Henderson, D. Ranasinghe, V. G. Zakrzewski, J. Gao, N. Rega, 
 G. Zheng, W. Liang, M. Hada, M. Ehara, K. Toyota, R. Fukuda, 
 J. Hasegawa, M. Ishida, T. Nakajima, Y. Honda, O. Kitao, H. Nakai, 
 T. Vreven, K. Throssell, J. A. Montgomery, Jr., J. E. Peralta, 
 F. Ogliaro, M. J. Bearpark, J. J. Heyd, E. N. Brothers, K. N. Kudin, 
 V. N. Staroverov, T. A. Keith, R. Kobayashi, J. Normand, 
 K. Raghavachari, A. P. Rendell, J. C. Burant, S. S. Iyengar, 
 J. Tomasi, M. Cossi, J. M. Millam, M. Klene, C. Adamo, R. Cammi, 
 J. W. Ochterski, R. L. Martin, K. Morokuma, O. Farkas, 
 J. B. Foresman, and D. J. Fox, Gaussian, Inc., Wallingford CT, 2016.
 
 ******************************************
 Gaussian 16:  ES64L-G16RevA.03 25-Dec-2016
                22-Sep-2023 
 ******************************************
 %nprocshared=4
 Will use up to    4 processors via shared memory.
 %mem=4GB
 -------------------------
 #m062x/6-31g(d) scf=tight
 -------------------------
 1/38=1,172=1/1;
 2/12=2,17=6,18=5,40=1/2;
 3/5=1,6=6,7=1,11=2,25=1,30=1,74=-55/1,2,3;
 4//1;
 5/5=2,32=2,38=5/2;
 6/7=2,8=2,9=2,10=2,28=1/1;
 99/5=1,9=1/99;
 -----------------------
 tmpdir/M2_conf_0_42.gjf
 -----------------------
 Symbolic Z-matrix:
 Charge =  0 Multiplicity = 1
 C                     0.        0.        0. 
 C                     1.5329    0.        0. 
 O                     2.23731   0.        0.98173 
 H                    -0.29516   0.       -1.07232 
 H                    -0.35468  -0.87979   0.54358 
 H                    -0.3545    0.87984   0.54361 
 H                     1.85079   0.00018  -1.02692 
 
                          Input orientation:                          
 ---------------------------------------------------------------------
 Center     Atomic      Atomic             Coordinates (Angstroms)
 Number     Number       Type             X           Y           Z
 ---------------------------------------------------------------------
      1          6           0        0.000000    0.000000    0.000000
      2          6           0        1.532900    0.000000    0.000000
      3          8           0        2.237310    0.000000    0.981730
      4          1           0       -0.295160    0.000000   -1.072320
      5          1           0       -0.354680   -0.879790    0.543580
      6          1           0       -0.354500    0.879840    0.543610
      7          1           0        1.850790    0.000180   -1.026920
 ---------------------------------------------------------------------
                    Distance matrix (angstroms):
                    1          2          3          4          5
     1  C    0.000000
     2  C    1.532900   0.000000
     3  O    2.443225   1.208299   0.000000
     4  H    1.112200   2.119357   3.260755   0.000000
     5  H    1.093301   2.152317   2.772078   1.840844   0.000000
     6  H    1.093298   2.152187   2.771921   1.840888   1.759630
     7  H    2.116598   1.074997   2.045501   2.146430   2.846913
                    6          7
     6  H    0.000000
     7  H    2.846695   0.000000
 Stoichiometry    C2H4O
 Framework group  C1[X(C2H4O)]
 Deg. of freedom    15
 Full point group                 C1      NOp   1
 Largest Abelian subgroup         C1      NOp   1
 Largest concise Abelian subgroup C1      NOp   1
                         Standard orientation:                         
 ---------------------------------------------------------------------
 Center     Atomic      Atomic             Coordinates (Angstroms)
 Number     Number       Type             X           Y           Z
 ---------------------------------------------------------------------
      1          6           0       -1.188776   -0.153584    0.000006
      2          6           0        0.241156    0.398753   -0.000036
      3          8           0        1.251988   -0.263217    0.000001
      4          1           0       -1.850490    0.740353   -0.000048
      5          1           0       -1.323772   -0.788506   -0.879743
      6          1           0       -1.323585   -0.788357    0.879887
      7          1           0        0.167670    1.471236    0.000076
 ---------------------------------------------------------------------
 Rotational constants (GHZ):          57.3091718           9.9288418           8.9292674
 Standard basis: 6-31G(d) (6D, 7F)
 There are    53 symmetry adapted cartesian basis functions of A   symmetry.
 There are    53 symmetry adapted basis functions of A   symmetry.
    53 basis functions,   100 primitive gaussians,    53 cartesian basis functions
    12 alpha electrons       12 beta electrons
       nuclear repulsion energy        69.3271644702 Hartrees.
 NAtoms=    7 NActive=    7 NUniq=    7 SFac= 1.00D+00 NAtFMM=   60 NAOKFM=F Big=F
 Integral buffers will be    131072 words long.
 Raffenetti 2 integral format.
 Two-electron integral symmetry is turned on.
 One-electron integrals computed using PRISM.
 NBasis=    53 RedAO= T EigKep=  6.15D-03  NBF=    53
 NBsUse=    53 1.00D-06 EigRej= -1.00D+00 NBFU=    53
 ExpMin= 1.61D-01 ExpMax= 5.48D+03 ExpMxC= 8.25D+02 IAcc=3 IRadAn=         5 AccDes= 0.00D+00
 Harris functional with IExCor= 1009 and IRadAn=       5 diagonalized for initial guess.
 HarFok:  IExCor= 1009 AccDes= 0.00D+00 IRadAn=         5 IDoV= 1 UseB2=F ITyADJ=14
 ICtDFT=  3500011 ScaDFX=  1.000000  1.000000  1.000000  1.000000
 FoFCou: FMM=F IPFlag=           0 FMFlag=      100000 FMFlg1=           0
         NFxFlg=           0 DoJE=T BraDBF=F KetDBF=T FulRan=T
         wScrn=  0.000000 ICntrl=       500 IOpCl=  0 I1Cent=   200000004 NGrid=           0
         NMat0=    1 NMatS0=      1 NMatT0=    0 NMatD0=    1 NMtDS0=    0 NMtDT0=    0
 Petite list used in FoFCou.
 Keep R1 ints in memory in canonical form, NReq=4530250.
 Requested convergence on RMS density matrix=1.00D-08 within 128 cycles.
 Requested convergence on MAX density matrix=1.00D-06.
 Requested convergence on             energy=1.00D-06.
 No special actions if energy rises.
 Integral accuracy reduced to 1.0D-05 until final iterations.
 Initial convergence to 1.0D-05 achieved.  Increase integral accuracy.
 SCF Done:  E(RM062X) =  -153.745405496     A.U. after   14 cycles
            NFock= 14  Conv=0.46D-08     -V/T= 2.0084

 **********************************************************************

            Population analysis using the SCF density.

 **********************************************************************

 Orbital symmetries:
       Occupied  (A) (A) (A) (A) (A) (A) (A) (A) (A) (A) (A) (A)
       Virtual   (A) (A) (A) (A) (A) (A) (A) (A) (A) (A) (A) (A)
                 (A) (A) (A) (A) (A) (A) (A) (A) (A) (A) (A) (A)
                 (A) (A) (A) (A) (A) (A) (A) (A) (A) (A) (A) (A)
                 (A) (A) (A) (A) (A)
 The electronic state is 1-A.
 Alpha  occ. eigenvalues --  -19.64709 -10.64121 -10.55441  -1.16991  -0.84575
 Alpha  occ. eigenvalues --   -0.67155  -0.55252  -0.51078  -0.50727  -0.46759
 Alpha  occ. eigenvalues --   -0.42911  -0.32429
 Alpha virt. eigenvalues --    0.02271   0.14415   0.17345   0.21868   0.23142
 Alpha virt. eigenvalues --    0.29313   0.30874   0.57235   0.59777   0.61827
 Alpha virt. eigenvalues --    0.65404   0.72769   0.76709   0.84568   0.90676
 Alpha virt. eigenvalues --    0.92280   0.93123   0.99601   1.00278   1.07307
 Alpha virt. eigenvalues --    1.14965   1.26333   1.45403   1.49954   1.57395
 Alpha virt. eigenvalues --    1.77703   1.84854   1.85264   1.89691   2.09282
 Alpha virt. eigenvalues --    2.18270   2.24192   2.27443   2.41278   2.52351
 Alpha virt. eigenvalues --    2.64161   2.90996   2.99171   3.81984   4.10877
 Alpha virt. eigenvalues --    4.37648
          Condensed to atoms (all electrons):
               1          2          3          4          5          6
     1  C    5.378908   0.309877  -0.075034   0.349340   0.364800   0.364801
     2  C    0.309877   4.591344   0.558465  -0.025019  -0.021899  -0.021906
     3  O   -0.075034   0.558465   7.949908   0.003293  -0.000194  -0.000196
     4  H    0.349340  -0.025019   0.003293   0.541639  -0.019018  -0.019015
     5  H    0.364800  -0.021899  -0.000194  -0.019018   0.483853  -0.017471
     6  H    0.364801  -0.021906  -0.000196  -0.019015  -0.017471   0.483852
     7  H   -0.133236   0.367028  -0.047042   0.006275   0.004915   0.004915
               7
     1  C   -0.133236
     2  C    0.367028
     3  O   -0.047042
     4  H    0.006275
     5  H    0.004915
     6  H    0.004915
     7  H    0.663138
 Mulliken charges:
               1
     1  C   -0.559457
     2  C    0.242111
     3  O   -0.389201
     4  H    0.162505
     5  H    0.205015
     6  H    0.205019
     7  H    0.134008
 Sum of Mulliken charges =  -0.00000
 Mulliken charges with hydrogens summed into heavy atoms:
               1
     1  C    0.013082
     2  C    0.376119
     3  O   -0.389201
 Electronic spatial extent (au):  <R**2>=            168.5836
 Charge=             -0.0000 electrons
 Dipole moment (field-independent basis, Debye):
    X=             -2.3389    Y=              0.9757    Z=              0.0000  Tot=              2.5343
 Quadrupole moment (field-independent basis, Debye-Ang):
   XX=            -21.2065   YY=            -17.5118   ZZ=            -17.6224
   XY=              0.8429   XZ=              0.0001   YZ=             -0.0001
 Traceless Quadrupole moment (field-independent basis, Debye-Ang):
   XX=             -2.4262   YY=              1.2684   ZZ=              1.1578
   XY=              0.8429   XZ=              0.0001   YZ=             -0.0001
 Octapole moment (field-independent basis, Debye-Ang**2):
  XXX=              0.9711  YYY=              0.0210  ZZZ=              0.0003  XYY=              0.3029
  XXY=              0.5358  XXZ=             -0.0005  XZZ=              1.3031  YZZ=             -1.2391
  YYZ=             -0.0000  XYZ=             -0.0001
 Hexadecapole moment (field-independent basis, Debye-Ang**3):
 XXXX=           -153.2014 YYYY=            -41.0948 ZZZZ=            -21.8524 XXXY=             -2.1798
 XXXZ=              0.0010 YYYX=             -1.0002 YYYZ=              0.0002 ZZZX=             -0.0001
 ZZZY=             -0.0003 XXYY=            -29.9559 XXZZ=            -27.2773 YYZZ=            -10.0510
 XXYZ=              0.0002 YYXZ=              0.0004 ZZXY=              0.8323
 N-N= 6.932716447023D+01 E-N=-4.976958556335D+02  KE= 1.524650765029D+02
 1\1\GINC-NODE62\SP\RM062X\6-31G(d)\C2H4O1\YANZ\22-Sep-2023\0\\#m062x/6
 -31g(d) scf=tight\\tmpdir/M2_conf_0_42.gjf\\0,1\C,0,0.,0.,0.\C,0,1.532
 9,0.,0.\O,0,2.23731,0.,0.98173\H,0,-0.29516,0.,-1.07232\H,0,-0.35468,-
 0.87979,0.54358\H,0,-0.3545,0.87984,0.54361\H,0,1.85079,0.00018,-1.026
 92\\Version=ES64L-G16RevA.03\State=1-A\HF=-153.7454055\RMSD=4.581e-09\
 Dipole=-0.7200711,0.000028,-0.689646\Quadrupole=-1.0259648,0.860791,0.
 1651738,0.0000828,-1.3872109,0.0000739\PG=C01 [X(C2H4O1)]\\@


 TRUTH, IN SCIENCE, CAN BE DEFINED AS THE WORKING HYPOTHESIS 
 BEST FITTED TO OPEN THE WAY TO THE NEXT BETTER ONE.

                              -- KONRAD LORENZ
 Job cpu time:       0 days  0 hours  0 minutes 21.8 seconds.
 Elapsed time:       0 days  0 hours  0 minutes  5.7 seconds.
 File lengths (MBytes):  RWF=      6 Int=      0 D2E=      0 Chk=      1 Scr=      1
 Normal termination of Gaussian 16 at Fri Sep 22 17:02:23 2023.
