 Entering Gaussian System, Link 0=g16
 Initial command:
 /share/apps/gaussian/g16/l1.exe "/tmp/55613.mgr/Gau-179886.inp" -scrdir="/tmp/55613.mgr/"
 Entering Link 1 = /share/apps/gaussian/g16/l1.exe PID=    179893.
  
 Copyright (c) 1988,1990,1992,1993,1995,1998,2003,2009,2016,
            Gaussian, Inc.  All Rights Reserved.
  
 This is part of the Gaussian(R) 16 program.  It is based on
 the Gaussian(R) 09 system (copyright 2009, Gaussian, Inc.),
 the Gaussian(R) 03 system (copyright 2003, Gaussian, Inc.),
 the Gaussian(R) 98 system (copyright 1998, Gaussian, Inc.),
 the Gaussian(R) 94 system (copyright 1995, Gaussian, Inc.),
 the Gaussian 92(TM) system (copyright 1992, Gaussian, Inc.),
 the Gaussian 90(TM) system (copyright 1990, Gaussian, Inc.),
 the Gaussian 88(TM) system (copyright 1988, Gaussian, Inc.),
 the Gaussian 86(TM) system (copyright 1986, Carnegie Mellon
 University), and the Gaussian 82(TM) system (copyright 1983,
 Carnegie Mellon University). Gaussian is a federally registered
 trademark of Gaussian, Inc.
  
 This software contains proprietary and confidential information,
 including trade secrets, belonging to Gaussian, Inc.
  
 This software is provided under written license and may be
 used, copied, transmitted, or stored only in accord with that
 written license.
  
 The following legend is applicable only to US Government
 contracts under FAR:
  
                    RESTRICTED RIGHTS LEGEND
  
 Use, reproduction and disclosure by the US Government is
 subject to restrictions as set forth in subparagraphs (a)
 and (c) of the Commercial Computer Software - Restricted
 Rights clause in FAR 52.227-19.
  
 Gaussian, Inc.
 340 Quinnipiac St., Bldg. 40, Wallingford CT 06492
  
  
 ---------------------------------------------------------------
 Warning -- This program may not be used in any manner that
 competes with the business of Gaussian, Inc. or will provide
 assistance to any competitor of Gaussian, Inc.  The licensee
 of this program is prohibited from giving any competitor of
 Gaussian, Inc. access to this program.  By using this program,
 the user acknowledges that Gaussian, Inc. is engaged in the
 business of creating and licensing software in the field of
 computational chemistry and represents and warrants to the
 licensee that it is not a competitor of Gaussian, Inc. and that
 it will not use this program in any manner prohibited above.
 ---------------------------------------------------------------
  

 Cite this work as:
 Gaussian 16, Revision A.03,
 M. J. Frisch, G. W. Trucks, H. B. Schlegel, G. E. Scuseria, 
 M. A. Robb, J. R. Cheeseman, G. Scalmani, V. Barone, 
 G. A. Petersson, H. Nakatsuji, X. Li, M. Caricato, A. V. Marenich, 
 J. Bloino, B. G. Janesko, R. Gomperts, B. Mennucci, H. P. Hratchian, 
 J. V. Ortiz, A. F. Izmaylov, J. L. Sonnenberg, D. Williams-Young, 
 F. Ding, F. Lipparini, F. Egidi, J. Goings, B. Peng, A. Petrone, 
 T. Henderson, D. Ranasinghe, V. G. Zakrzewski, J. Gao, N. Rega, 
 G. Zheng, W. Liang, M. Hada, M. Ehara, K. Toyota, R. Fukuda, 
 J. Hasegawa, M. Ishida, T. Nakajima, Y. Honda, O. Kitao, H. Nakai, 
 T. Vreven, K. Throssell, J. A. Montgomery, Jr., J. E. Peralta, 
 F. Ogliaro, M. J. Bearpark, J. J. Heyd, E. N. Brothers, K. N. Kudin, 
 V. N. Staroverov, T. A. Keith, R. Kobayashi, J. Normand, 
 K. Raghavachari, A. P. Rendell, J. C. Burant, S. S. Iyengar, 
 J. Tomasi, M. Cossi, J. M. Millam, M. Klene, C. Adamo, R. Cammi, 
 J. W. Ochterski, R. L. Martin, K. Morokuma, O. Farkas, 
 J. B. Foresman, and D. J. Fox, Gaussian, Inc., Wallingford CT, 2016.
 
 ******************************************
 Gaussian 16:  ES64L-G16RevA.03 25-Dec-2016
                22-Sep-2023 
 ******************************************
 %nprocshared=4
 Will use up to    4 processors via shared memory.
 %mem=4GB
 -------------------------
 #m062x/6-31g(d) scf=tight
 -------------------------
 1/38=1,172=1/1;
 2/12=2,17=6,18=5,40=1/2;
 3/5=1,6=6,7=1,11=2,25=1,30=1,74=-55/1,2,3;
 4//1;
 5/5=2,32=2,38=5/2;
 6/7=2,8=2,9=2,10=2,28=1/1;
 99/5=1,9=1/99;
 ----------------------
 tmpdir/M2_conf_0_0.gjf
 ----------------------
 Symbolic Z-matrix:
 Charge =  0 Multiplicity = 1
 C                     0.        0.        0. 
 C                     1.4046    0.        0. 
 H                    -0.61373   0.       -0.89365 
 C                    -0.44215   0.        1.26898 
 H                     2.01833   0.       -0.89365 
 C                     1.84675   0.        1.26898 
 
                          Input orientation:                          
 ---------------------------------------------------------------------
 Center     Atomic      Atomic             Coordinates (Angstroms)
 Number     Number       Type             X           Y           Z
 ---------------------------------------------------------------------
      1          6           0        0.000000    0.000000    0.000000
      2          6           0        1.404600    0.000000    0.000000
      3          1           0       -0.613730    0.000000   -0.893650
      4          6           0       -0.442150    0.000000    1.268980
      5          1           0        2.018330    0.000000   -0.893650
      6          6           0        1.846750    0.000000    1.268980
 ---------------------------------------------------------------------
                    Distance matrix (angstroms):
                    1          2          3          4          5
     1  C    0.000000
     2  C    1.404600   0.000000
     3  H    1.084101   2.207321   0.000000
     4  C    1.343803   2.240713   2.169426   0.000000
     5  H    2.207321   1.084101   2.632060   3.275810   0.000000
     6  C    2.240713   1.343803   3.275810   2.288900   2.169426
                    6
     6  C    0.000000
 Stoichiometry    C4H2
 Framework group  C2V[SGV(C4H2)]
 Deg. of freedom     5
 Full point group                 C2V     NOp   4
 Largest Abelian subgroup         C2V     NOp   4
 Largest concise Abelian subgroup C2      NOp   2
                         Standard orientation:                         
 ---------------------------------------------------------------------
 Center     Atomic      Atomic             Coordinates (Angstroms)
 Number     Number       Type             X           Y           Z
 ---------------------------------------------------------------------
      1          6           0        0.000000    0.702300    0.516941
      2          6           0       -0.000000   -0.702300    0.516941
      3          1           0        0.000000    1.316030    1.410591
      4          6           0        0.000000    1.144450   -0.752039
      5          1           0       -0.000000   -1.316030    1.410591
      6          6           0       -0.000000   -1.144450   -0.752039
 ---------------------------------------------------------------------
 Rotational constants (GHZ):          21.1978947          10.8072962           7.1579616
 Standard basis: 6-31G(d) (6D, 7F)
 There are    24 symmetry adapted cartesian basis functions of A1  symmetry.
 There are     8 symmetry adapted cartesian basis functions of A2  symmetry.
 There are     8 symmetry adapted cartesian basis functions of B1  symmetry.
 There are    24 symmetry adapted cartesian basis functions of B2  symmetry.
 There are    24 symmetry adapted basis functions of A1  symmetry.
 There are     8 symmetry adapted basis functions of A2  symmetry.
 There are     8 symmetry adapted basis functions of B1  symmetry.
 There are    24 symmetry adapted basis functions of B2  symmetry.
    64 basis functions,   120 primitive gaussians,    64 cartesian basis functions
    13 alpha electrons       13 beta electrons
       nuclear repulsion energy        81.0435707598 Hartrees.
 NAtoms=    6 NActive=    6 NUniq=    3 SFac= 4.00D+00 NAtFMM=   60 NAOKFM=F Big=F
 Integral buffers will be    131072 words long.
 Raffenetti 2 integral format.
 Two-electron integral symmetry is turned on.
 One-electron integrals computed using PRISM.
 NBasis=    64 RedAO= T EigKep=  1.95D-03  NBF=    24     8     8    24
 NBsUse=    64 1.00D-06 EigRej= -1.00D+00 NBFU=    24     8     8    24
 ExpMin= 1.61D-01 ExpMax= 3.05D+03 ExpMxC= 4.57D+02 IAcc=3 IRadAn=         5 AccDes= 0.00D+00
 Harris functional with IExCor= 1009 and IRadAn=       5 diagonalized for initial guess.
 HarFok:  IExCor= 1009 AccDes= 0.00D+00 IRadAn=         5 IDoV= 1 UseB2=F ITyADJ=14
 ICtDFT=  3500011 ScaDFX=  1.000000  1.000000  1.000000  1.000000
 FoFCou: FMM=F IPFlag=           0 FMFlag=      100000 FMFlg1=           0
         NFxFlg=           0 DoJE=T BraDBF=F KetDBF=T FulRan=T
         wScrn=  0.000000 ICntrl=       500 IOpCl=  0 I1Cent=   200000004 NGrid=           0
         NMat0=    1 NMatS0=      1 NMatT0=    0 NMatD0=    1 NMtDS0=    0 NMtDT0=    0
 Petite list used in FoFCou.
 Initial guess orbital symmetries:
       Occupied  (A1) (B2) (B2) (A1) (A1) (B2) (A1) (A1) (B2) (B1)
                 (A1) (B2) (A2)
       Virtual   (A1) (B1) (B2) (A2) (A1) (B2) (A1) (B2) (B2) (A1)
                 (B1) (B2) (A1) (A2) (A1) (B1) (B2) (A1) (A2) (A1)
                 (B2) (B2) (A1) (B2) (A1) (B2) (B1) (B2) (B1) (A2)
                 (A1) (A2) (A1) (B1) (B2) (A1) (B2) (A1) (B2) (A2)
                 (B1) (A1) (A2) (B2) (A1) (B2) (B2) (A1) (B2) (A1)
                 (B2)
 The electronic state of the initial guess is 1-A1.
 Keep R1 ints in memory in symmetry-blocked form, NReq=5725006.
 Requested convergence on RMS density matrix=1.00D-08 within 128 cycles.
 Requested convergence on MAX density matrix=1.00D-06.
 Requested convergence on             energy=1.00D-06.
 No special actions if energy rises.
 Integral accuracy reduced to 1.0D-05 until final iterations.
 Initial convergence to 1.0D-05 achieved.  Increase integral accuracy.
 SCF Done:  E(RM062X) =  -153.222899923     A.U. after   14 cycles
            NFock= 14  Conv=0.68D-08     -V/T= 2.0072

 **********************************************************************

            Population analysis using the SCF density.

 **********************************************************************

 Orbital symmetries:
       Occupied  (B2) (A1) (A1) (B2) (A1) (B2) (A1) (B2) (A1) (B1)
                 (A1) (B2) (A2)
       Virtual   (A1) (B1) (B2) (A2) (A1) (B2) (A1) (B2) (B2) (A1)
                 (B1) (B2) (A1) (A2) (B1) (A1) (B2) (A1) (A2) (A1)
                 (B2) (B2) (A1) (B2) (A1) (B2) (B2) (B1) (B1) (A2)
                 (A1) (A2) (B1) (A1) (B2) (B2) (A1) (A1) (B2) (B1)
                 (A2) (A1) (A2) (B2) (A1) (B2) (B2) (A1) (B2) (A1)
                 (B2)
 The electronic state is 1-A1.
 Alpha  occ. eigenvalues --  -10.62452 -10.62450 -10.58033 -10.57970  -0.97279
 Alpha  occ. eigenvalues --   -0.80312  -0.68565  -0.55735  -0.55479  -0.43396
 Alpha  occ. eigenvalues --   -0.39218  -0.34297  -0.28553
 Alpha virt. eigenvalues --   -0.09507  -0.00926   0.00171   0.12893   0.16660
 Alpha virt. eigenvalues --    0.19350   0.30455   0.38321   0.45170   0.51196
 Alpha virt. eigenvalues --    0.55965   0.59197   0.59513   0.63110   0.65237
 Alpha virt. eigenvalues --    0.66145   0.67253   0.68379   0.72978   0.79026
 Alpha virt. eigenvalues --    0.84721   0.87947   0.89739   0.95416   1.02266
 Alpha virt. eigenvalues --    1.17488   1.33968   1.37390   1.42581   1.55300
 Alpha virt. eigenvalues --    1.60336   1.73238   1.76540   1.78532   1.87565
 Alpha virt. eigenvalues --    1.98965   1.99659   2.05827   2.25108   2.30168
 Alpha virt. eigenvalues --    2.31106   2.31955   2.48015   2.57123   2.67811
 Alpha virt. eigenvalues --    2.83149   2.95241   3.99935   4.05172   4.14306
 Alpha virt. eigenvalues --    4.42462
          Condensed to atoms (all electrons):
               1          2          3          4          5          6
     1  C    5.064786   0.388701   0.343617   0.550677  -0.021367  -0.075042
     2  C    0.388701   5.064786  -0.021367  -0.075042   0.343617   0.550677
     3  H    0.343617  -0.021367   0.453877  -0.018195  -0.007268   0.005133
     4  C    0.550677  -0.075042  -0.018195   5.495224   0.005133   0.035034
     5  H   -0.021367   0.343617  -0.007268   0.005133   0.453877  -0.018195
     6  C   -0.075042   0.550677   0.005133   0.035034  -0.018195   5.495224
 Mulliken charges:
               1
     1  C   -0.251372
     2  C   -0.251372
     3  H    0.244202
     4  C    0.007169
     5  H    0.244202
     6  C    0.007169
 Sum of Mulliken charges =  -0.00000
 Mulliken charges with hydrogens summed into heavy atoms:
               1
     1  C   -0.007169
     2  C   -0.007169
     4  C    0.007169
     6  C    0.007169
 Electronic spatial extent (au):  <R**2>=            192.1747
 Charge=             -0.0000 electrons
 Dipole moment (field-independent basis, Debye):
    X=             -0.0000    Y=              0.0000    Z=              3.6954  Tot=              3.6954
 Quadrupole moment (field-independent basis, Debye-Ang):
   XX=            -25.1794   YY=            -21.6200   ZZ=            -24.0076
   XY=              0.0000   XZ=             -0.0000   YZ=              0.0000
 Traceless Quadrupole moment (field-independent basis, Debye-Ang):
   XX=             -1.5771   YY=              1.9824   ZZ=             -0.4052
   XY=              0.0000   XZ=             -0.0000   YZ=              0.0000
 Octapole moment (field-independent basis, Debye-Ang**2):
  XXX=              0.0000  YYY=             -0.0000  ZZZ=             16.3913  XYY=              0.0000
  XXY=             -0.0000  XXZ=              1.5906  XZZ=              0.0000  YZZ=              0.0000
  YYZ=              9.6353  XYZ=              0.0000
 Hexadecapole moment (field-independent basis, Debye-Ang**3):
 XXXX=            -26.7389 YYYY=           -143.6654 ZZZZ=           -100.6765 XXXY=             -0.0000
 XXXZ=             -0.0000 YYYX=             -0.0000 YYYZ=              0.0000 ZZZX=             -0.0000
 ZZZY=             -0.0000 XXYY=            -33.0055 XXZZ=            -21.7339 YYZZ=            -44.4605
 XXYZ=              0.0000 YYXZ=             -0.0000 ZZXY=             -0.0000
 N-N= 8.104357075976D+01 E-N=-5.169786966313D+02  KE= 1.521242980811D+02
 Symmetry A1   KE= 7.478773609091D+01
 Symmetry A2   KE= 2.435878926838D+00
 Symmetry B1   KE= 1.979728727347D+00
 Symmetry B2   KE= 7.292095433599D+01
 1\1\GINC-NODE62\SP\RM062X\6-31G(d)\C4H2\YANZ\22-Sep-2023\0\\#m062x/6-3
 1g(d) scf=tight\\tmpdir/M2_conf_0_0.gjf\\0,1\C,0,0.,0.,0.\C,0,1.4046,0
 .,0.\H,0,-0.61373,0.,-0.89365\C,0,-0.44215,0.,1.26898\H,0,2.01833,0.,-
 0.89365\C,0,1.84675,0.,1.26898\\Version=ES64L-G16RevA.03\State=1-A1\HF
 =-153.2228999\RMSD=6.836e-09\Dipole=0.,0.,-1.453891\Quadrupole=1.47383
 35,-1.1725405,-0.301293,0.,0.,0.\PG=C02V [SGV(C4H2)]\\@


 NO MATTER HOW THIN YOU SLICE IT, IT'S STILL BALONEY

                                   -- ALFRED E. SMITH
 Job cpu time:       0 days  0 hours  0 minutes  9.0 seconds.
 Elapsed time:       0 days  0 hours  0 minutes  2.4 seconds.
 File lengths (MBytes):  RWF=      6 Int=      0 D2E=      0 Chk=      1 Scr=      1
 Normal termination of Gaussian 16 at Fri Sep 22 17:02:00 2023.
