 Entering Gaussian System, Link 0=g16
 Initial command:
 /share/apps/gaussian/g16/l1.exe "/tmp/55613.mgr/Gau-180389.inp" -scrdir="/tmp/55613.mgr/"
 Entering Link 1 = /share/apps/gaussian/g16/l1.exe PID=    180390.
  
 Copyright (c) 1988,1990,1992,1993,1995,1998,2003,2009,2016,
            Gaussian, Inc.  All Rights Reserved.
  
 This is part of the Gaussian(R) 16 program.  It is based on
 the Gaussian(R) 09 system (copyright 2009, Gaussian, Inc.),
 the Gaussian(R) 03 system (copyright 2003, Gaussian, Inc.),
 the Gaussian(R) 98 system (copyright 1998, Gaussian, Inc.),
 the Gaussian(R) 94 system (copyright 1995, Gaussian, Inc.),
 the Gaussian 92(TM) system (copyright 1992, Gaussian, Inc.),
 the Gaussian 90(TM) system (copyright 1990, Gaussian, Inc.),
 the Gaussian 88(TM) system (copyright 1988, Gaussian, Inc.),
 the Gaussian 86(TM) system (copyright 1986, Carnegie Mellon
 University), and the Gaussian 82(TM) system (copyright 1983,
 Carnegie Mellon University). Gaussian is a federally registered
 trademark of Gaussian, Inc.
  
 This software contains proprietary and confidential information,
 including trade secrets, belonging to Gaussian, Inc.
  
 This software is provided under written license and may be
 used, copied, transmitted, or stored only in accord with that
 written license.
  
 The following legend is applicable only to US Government
 contracts under FAR:
  
                    RESTRICTED RIGHTS LEGEND
  
 Use, reproduction and disclosure by the US Government is
 subject to restrictions as set forth in subparagraphs (a)
 and (c) of the Commercial Computer Software - Restricted
 Rights clause in FAR 52.227-19.
  
 Gaussian, Inc.
 340 Quinnipiac St., Bldg. 40, Wallingford CT 06492
  
  
 ---------------------------------------------------------------
 Warning -- This program may not be used in any manner that
 competes with the business of Gaussian, Inc. or will provide
 assistance to any competitor of Gaussian, Inc.  The licensee
 of this program is prohibited from giving any competitor of
 Gaussian, Inc. access to this program.  By using this program,
 the user acknowledges that Gaussian, Inc. is engaged in the
 business of creating and licensing software in the field of
 computational chemistry and represents and warrants to the
 licensee that it is not a competitor of Gaussian, Inc. and that
 it will not use this program in any manner prohibited above.
 ---------------------------------------------------------------
  

 Cite this work as:
 Gaussian 16, Revision A.03,
 M. J. Frisch, G. W. Trucks, H. B. Schlegel, G. E. Scuseria, 
 M. A. Robb, J. R. Cheeseman, G. Scalmani, V. Barone, 
 G. A. Petersson, H. Nakatsuji, X. Li, M. Caricato, A. V. Marenich, 
 J. Bloino, B. G. Janesko, R. Gomperts, B. Mennucci, H. P. Hratchian, 
 J. V. Ortiz, A. F. Izmaylov, J. L. Sonnenberg, D. Williams-Young, 
 F. Ding, F. Lipparini, F. Egidi, J. Goings, B. Peng, A. Petrone, 
 T. Henderson, D. Ranasinghe, V. G. Zakrzewski, J. Gao, N. Rega, 
 G. Zheng, W. Liang, M. Hada, M. Ehara, K. Toyota, R. Fukuda, 
 J. Hasegawa, M. Ishida, T. Nakajima, Y. Honda, O. Kitao, H. Nakai, 
 T. Vreven, K. Throssell, J. A. Montgomery, Jr., J. E. Peralta, 
 F. Ogliaro, M. J. Bearpark, J. J. Heyd, E. N. Brothers, K. N. Kudin, 
 V. N. Staroverov, T. A. Keith, R. Kobayashi, J. Normand, 
 K. Raghavachari, A. P. Rendell, J. C. Burant, S. S. Iyengar, 
 J. Tomasi, M. Cossi, J. M. Millam, M. Klene, C. Adamo, R. Cammi, 
 J. W. Ochterski, R. L. Martin, K. Morokuma, O. Farkas, 
 J. B. Foresman, and D. J. Fox, Gaussian, Inc., Wallingford CT, 2016.
 
 ******************************************
 Gaussian 16:  ES64L-G16RevA.03 25-Dec-2016
                22-Sep-2023 
 ******************************************
 %nprocshared=4
 Will use up to    4 processors via shared memory.
 %mem=4GB
 -------------------------
 #m062x/6-31g(d) scf=tight
 -------------------------
 1/38=1,172=1/1;
 2/12=2,17=6,18=5,40=1/2;
 3/5=1,6=6,7=1,11=2,25=1,30=1,74=-55/1,2,3;
 4//1;
 5/5=2,32=2,38=5/2;
 6/7=2,8=2,9=2,10=2,28=1/1;
 99/5=1,9=1/99;
 -----------------------
 tmpdir/M2_conf_0_11.gjf
 -----------------------
 Symbolic Z-matrix:
 Charge =  0 Multiplicity = 1
 C                     0.        0.        0. 
 C                     1.5353    0.        0. 
 H                    -0.43      0.       -1.00519 
 H                    -0.43      0.85105   0.5349 
 H                    -0.29447  -0.9364    0.51735 
 H                     1.80148  -0.92817   0.51301 
 H                     1.95686   0.86453   0.52461 
 H                     1.95686   0.01571  -1.01113 
 
                          Input orientation:                          
 ---------------------------------------------------------------------
 Center     Atomic      Atomic             Coordinates (Angstroms)
 Number     Number       Type             X           Y           Z
 ---------------------------------------------------------------------
      1          6           0        0.000000    0.000000    0.000000
      2          6           0        1.535300    0.000000    0.000000
      3          1           0       -0.430000    0.000000   -1.005190
      4          1           0       -0.430000    0.851050    0.534900
      5          1           0       -0.294470   -0.936400    0.517350
      6          1           0        1.801480   -0.928170    0.513010
      7          1           0        1.956860    0.864530    0.524610
      8          1           0        1.956860    0.015710   -1.011130
 ---------------------------------------------------------------------
                    Distance matrix (angstroms):
                    1          2          3          4          5
     1  C    0.000000
     2  C    1.535300   0.000000
     3  H    1.093301   2.207444   0.000000
     4  H    1.093300   2.207444   1.759592   0.000000
     5  H    1.109598   2.119565   1.792580   1.792667   0.000000
     6  H    2.090457   1.093403   2.854108   2.854051   2.095971
     7  H    2.202709   1.095601   2.963916   2.386920   2.883035
     8  H    2.202710   1.095602   2.386919   2.963967   2.882924
                    6          7          8
     6  H    0.000000
     7  H    1.799458   0.000000
     8  H    1.799460   1.754706   0.000000
 Stoichiometry    C2H6
 Framework group  C1[X(C2H6)]
 Deg. of freedom    18
 Full point group                 C1      NOp   1
 Largest Abelian subgroup         C1      NOp   1
 Largest concise Abelian subgroup C1      NOp   1
                         Standard orientation:                         
 ---------------------------------------------------------------------
 Center     Atomic      Atomic             Coordinates (Angstroms)
 Number     Number       Type             X           Y           Z
 ---------------------------------------------------------------------
      1          6           0       -0.765075   -0.013093   -0.000003
      2          6           0        0.770197   -0.003790    0.000003
      3          1           0       -1.192128   -0.501393    0.880051
      4          1           0       -1.192115   -0.502333   -0.879540
      5          1           0       -1.066022    1.054914   -0.000487
      6          1           0        1.029946    1.058312   -0.000655
      7          1           0        1.194803   -0.504645   -0.877035
      8          1           0        1.194789   -0.503555    0.877671
 ---------------------------------------------------------------------
 Rotational constants (GHZ):          79.1663393          20.0462380          19.9195932
 Standard basis: 6-31G(d) (6D, 7F)
 There are    42 symmetry adapted cartesian basis functions of A   symmetry.
 There are    42 symmetry adapted basis functions of A   symmetry.
    42 basis functions,    80 primitive gaussians,    42 cartesian basis functions
     9 alpha electrons        9 beta electrons
       nuclear repulsion energy        42.1258799553 Hartrees.
 NAtoms=    8 NActive=    8 NUniq=    8 SFac= 1.00D+00 NAtFMM=   60 NAOKFM=F Big=F
 Integral buffers will be    131072 words long.
 Raffenetti 2 integral format.
 Two-electron integral symmetry is turned on.
 One-electron integrals computed using PRISM.
 NBasis=    42 RedAO= T EigKep=  8.00D-03  NBF=    42
 NBsUse=    42 1.00D-06 EigRej= -1.00D+00 NBFU=    42
 ExpMin= 1.61D-01 ExpMax= 3.05D+03 ExpMxC= 4.57D+02 IAcc=3 IRadAn=         5 AccDes= 0.00D+00
 Harris functional with IExCor= 1009 and IRadAn=       5 diagonalized for initial guess.
 HarFok:  IExCor= 1009 AccDes= 0.00D+00 IRadAn=         5 IDoV= 1 UseB2=F ITyADJ=14
 ICtDFT=  3500011 ScaDFX=  1.000000  1.000000  1.000000  1.000000
 FoFCou: FMM=F IPFlag=           0 FMFlag=      100000 FMFlg1=           0
         NFxFlg=           0 DoJE=T BraDBF=F KetDBF=T FulRan=T
         wScrn=  0.000000 ICntrl=       500 IOpCl=  0 I1Cent=   200000004 NGrid=           0
         NMat0=    1 NMatS0=      1 NMatT0=    0 NMatD0=    1 NMtDS0=    0 NMtDT0=    0
 Petite list used in FoFCou.
 Keep R1 ints in memory in canonical form, NReq=3864510.
 Requested convergence on RMS density matrix=1.00D-08 within 128 cycles.
 Requested convergence on MAX density matrix=1.00D-06.
 Requested convergence on             energy=1.00D-06.
 No special actions if energy rises.
 Integral accuracy reduced to 1.0D-05 until final iterations.
 Initial convergence to 1.0D-05 achieved.  Increase integral accuracy.
 SCF Done:  E(RM062X) =  -79.7638936856     A.U. after   11 cycles
            NFock= 11  Conv=0.29D-08     -V/T= 2.0095

 **********************************************************************

            Population analysis using the SCF density.

 **********************************************************************

 Orbital symmetries:
       Occupied  (A) (A) (A) (A) (A) (A) (A) (A) (A)
       Virtual   (A) (A) (A) (A) (A) (A) (A) (A) (A) (A) (A) (A)
                 (A) (A) (A) (A) (A) (A) (A) (A) (A) (A) (A) (A)
                 (A) (A) (A) (A) (A) (A) (A) (A) (A)
 The electronic state is 1-A.
 Alpha  occ. eigenvalues --  -10.52944 -10.52871  -0.84363  -0.69269  -0.50744
 Alpha  occ. eigenvalues --   -0.49592  -0.41556  -0.39774  -0.39688
 Alpha virt. eigenvalues --    0.14560   0.17899   0.17976   0.20797   0.28193
 Alpha virt. eigenvalues --    0.28761   0.29555   0.56199   0.57765   0.59726
 Alpha virt. eigenvalues --    0.71315   0.73353   0.74712   0.92139   0.92374
 Alpha virt. eigenvalues --    0.97877   0.98475   0.99538   1.04960   1.07631
 Alpha virt. eigenvalues --    1.49201   1.53437   1.55410   1.97759   2.10353
 Alpha virt. eigenvalues --    2.17139   2.17522   2.20716   2.41704   2.48346
 Alpha virt. eigenvalues --    2.61913   4.16918   4.42066
          Condensed to atoms (all electrons):
               1          2          3          4          5          6
     1  C    5.098892   0.328404   0.388789   0.388790   0.394283  -0.046389
     2  C    0.328404   5.091516  -0.032781  -0.032782  -0.044828   0.396135
     3  H    0.388789  -0.032781   0.539681  -0.029605  -0.027163   0.003282
     4  H    0.388790  -0.032782  -0.029605   0.539665  -0.027153   0.003281
     5  H    0.394283  -0.044828  -0.027163  -0.027153   0.557198  -0.014279
     6  H   -0.046389   0.396135   0.003282   0.003281  -0.014279   0.547836
     7  H   -0.033039   0.389070   0.002813  -0.008650   0.003159  -0.025602
     8  H   -0.033039   0.389069  -0.008651   0.002813   0.003159  -0.025602
               7          8
     1  C   -0.033039  -0.033039
     2  C    0.389070   0.389069
     3  H    0.002813  -0.008651
     4  H   -0.008650   0.002813
     5  H    0.003159   0.003159
     6  H   -0.025602  -0.025602
     7  H    0.539822  -0.030700
     8  H   -0.030700   0.539823
 Mulliken charges:
               1
     1  C   -0.486691
     2  C   -0.483803
     3  H    0.163636
     4  H    0.163640
     5  H    0.155624
     6  H    0.161338
     7  H    0.163128
     8  H    0.163128
 Sum of Mulliken charges =  -0.00000
 Mulliken charges with hydrogens summed into heavy atoms:
               1
     1  C   -0.003791
     2  C    0.003791
 Electronic spatial extent (au):  <R**2>=            109.4207
 Charge=             -0.0000 electrons
 Dipole moment (field-independent basis, Debye):
    X=              0.0004    Y=              0.0026    Z=              0.0000  Tot=              0.0026
 Quadrupole moment (field-independent basis, Debye-Ang):
   XX=            -15.5560   YY=            -14.5644   ZZ=            -14.7490
   XY=             -0.0334   XZ=             -0.0000   YZ=              0.0000
 Traceless Quadrupole moment (field-independent basis, Debye-Ang):
   XX=             -0.5995   YY=              0.3921   ZZ=              0.2074
   XY=             -0.0334   XZ=             -0.0000   YZ=              0.0000
 Octapole moment (field-independent basis, Debye-Ang**2):
  XXX=             -0.0387  YYY=              1.2318  ZZZ=              0.0018  XYY=              0.0469
  XXY=             -0.6500  XXZ=              0.0004  XZZ=             -0.0076  YZZ=             -1.0814
  YYZ=             -0.0019  XYZ=             -0.0002
 Hexadecapole moment (field-independent basis, Debye-Ang**3):
 XXXX=            -93.0971 YYYY=            -28.4845 ZZZZ=            -28.2971 XXXY=             -0.0890
 XXXZ=             -0.0000 YYYX=             -0.0068 YYYZ=             -0.0001 ZZZX=              0.0002
 ZZZY=              0.0001 XXYY=            -19.4273 XXZZ=            -18.7912 YYZZ=             -9.5470
 XXYZ=              0.0005 YYXZ=             -0.0002 ZZXY=             -0.0035
 N-N= 4.212587995526D+01 E-N=-2.680278471577D+02  KE= 7.901319689779D+01
 1\1\GINC-NODE62\SP\RM062X\6-31G(d)\C2H6\YANZ\22-Sep-2023\0\\#m062x/6-3
 1g(d) scf=tight\\tmpdir/M2_conf_0_11.gjf\\0,1\C,0,0.,0.,0.\C,0,1.5353,
 0.,0.\H,0,-0.43,0.,-1.00519\H,0,-0.43,0.85105,0.5349\H,0,-0.29447,-0.9
 364,0.51735\H,0,1.80148,-0.92817,0.51301\H,0,1.95686,0.86453,0.52461\H
 ,0,1.95686,0.01571,-1.01113\\Version=ES64L-G16RevA.03\State=1-A\HF=-79
 .7638937\RMSD=2.897e-09\Dipole=0.0001529,-0.000903,0.0004887\Quadrupol
 e=-0.4460052,0.2596836,0.1863217,0.0178046,-0.0098246,-0.0581781\PG=C0
 1 [X(C2H6)]\\@


 TO DRY ONE'S EYES AND LAUGH AT A FALL
 AND BAFFLED, GET UP AND BEGIN AGAIN.
           R. BROWNING
 Job cpu time:       0 days  0 hours  0 minutes 16.7 seconds.
 Elapsed time:       0 days  0 hours  0 minutes  4.4 seconds.
 File lengths (MBytes):  RWF=      6 Int=      0 D2E=      0 Chk=      1 Scr=      1
 Normal termination of Gaussian 16 at Fri Sep 22 17:02:09 2023.
