 Entering Gaussian System, Link 0=g16
 Initial command:
 /share/apps/gaussian/g16/l1.exe "/tmp/55613.mgr/Gau-180449.inp" -scrdir="/tmp/55613.mgr/"
 Entering Link 1 = /share/apps/gaussian/g16/l1.exe PID=    180450.
  
 Copyright (c) 1988,1990,1992,1993,1995,1998,2003,2009,2016,
            Gaussian, Inc.  All Rights Reserved.
  
 This is part of the Gaussian(R) 16 program.  It is based on
 the Gaussian(R) 09 system (copyright 2009, Gaussian, Inc.),
 the Gaussian(R) 03 system (copyright 2003, Gaussian, Inc.),
 the Gaussian(R) 98 system (copyright 1998, Gaussian, Inc.),
 the Gaussian(R) 94 system (copyright 1995, Gaussian, Inc.),
 the Gaussian 92(TM) system (copyright 1992, Gaussian, Inc.),
 the Gaussian 90(TM) system (copyright 1990, Gaussian, Inc.),
 the Gaussian 88(TM) system (copyright 1988, Gaussian, Inc.),
 the Gaussian 86(TM) system (copyright 1986, Carnegie Mellon
 University), and the Gaussian 82(TM) system (copyright 1983,
 Carnegie Mellon University). Gaussian is a federally registered
 trademark of Gaussian, Inc.
  
 This software contains proprietary and confidential information,
 including trade secrets, belonging to Gaussian, Inc.
  
 This software is provided under written license and may be
 used, copied, transmitted, or stored only in accord with that
 written license.
  
 The following legend is applicable only to US Government
 contracts under FAR:
  
                    RESTRICTED RIGHTS LEGEND
  
 Use, reproduction and disclosure by the US Government is
 subject to restrictions as set forth in subparagraphs (a)
 and (c) of the Commercial Computer Software - Restricted
 Rights clause in FAR 52.227-19.
  
 Gaussian, Inc.
 340 Quinnipiac St., Bldg. 40, Wallingford CT 06492
  
  
 ---------------------------------------------------------------
 Warning -- This program may not be used in any manner that
 competes with the business of Gaussian, Inc. or will provide
 assistance to any competitor of Gaussian, Inc.  The licensee
 of this program is prohibited from giving any competitor of
 Gaussian, Inc. access to this program.  By using this program,
 the user acknowledges that Gaussian, Inc. is engaged in the
 business of creating and licensing software in the field of
 computational chemistry and represents and warrants to the
 licensee that it is not a competitor of Gaussian, Inc. and that
 it will not use this program in any manner prohibited above.
 ---------------------------------------------------------------
  

 Cite this work as:
 Gaussian 16, Revision A.03,
 M. J. Frisch, G. W. Trucks, H. B. Schlegel, G. E. Scuseria, 
 M. A. Robb, J. R. Cheeseman, G. Scalmani, V. Barone, 
 G. A. Petersson, H. Nakatsuji, X. Li, M. Caricato, A. V. Marenich, 
 J. Bloino, B. G. Janesko, R. Gomperts, B. Mennucci, H. P. Hratchian, 
 J. V. Ortiz, A. F. Izmaylov, J. L. Sonnenberg, D. Williams-Young, 
 F. Ding, F. Lipparini, F. Egidi, J. Goings, B. Peng, A. Petrone, 
 T. Henderson, D. Ranasinghe, V. G. Zakrzewski, J. Gao, N. Rega, 
 G. Zheng, W. Liang, M. Hada, M. Ehara, K. Toyota, R. Fukuda, 
 J. Hasegawa, M. Ishida, T. Nakajima, Y. Honda, O. Kitao, H. Nakai, 
 T. Vreven, K. Throssell, J. A. Montgomery, Jr., J. E. Peralta, 
 F. Ogliaro, M. J. Bearpark, J. J. Heyd, E. N. Brothers, K. N. Kudin, 
 V. N. Staroverov, T. A. Keith, R. Kobayashi, J. Normand, 
 K. Raghavachari, A. P. Rendell, J. C. Burant, S. S. Iyengar, 
 J. Tomasi, M. Cossi, J. M. Millam, M. Klene, C. Adamo, R. Cammi, 
 J. W. Ochterski, R. L. Martin, K. Morokuma, O. Farkas, 
 J. B. Foresman, and D. J. Fox, Gaussian, Inc., Wallingford CT, 2016.
 
 ******************************************
 Gaussian 16:  ES64L-G16RevA.03 25-Dec-2016
                22-Sep-2023 
 ******************************************
 %nprocshared=4
 Will use up to    4 processors via shared memory.
 %mem=4GB
 -------------------------
 #m062x/6-31g(d) scf=tight
 -------------------------
 1/38=1,172=1/1;
 2/12=2,17=6,18=5,40=1/2;
 3/5=1,6=6,7=1,11=2,25=1,30=1,74=-55/1,2,3;
 4//1;
 5/5=2,32=2,38=5/2;
 6/7=2,8=2,9=2,10=2,28=1/1;
 99/5=1,9=1/99;
 -----------------------
 tmpdir/M2_conf_0_19.gjf
 -----------------------
 Symbolic Z-matrix:
 Charge =  0 Multiplicity = 1
 H                     0.        0.        0. 
 C                     1.0933    0.        0. 
 C                     1.62487   0.        1.43778 
 H                     1.53073  -0.91225  -0.46201 
 H                     1.41605   0.92486  -0.48556 
 H                     2.24152  -0.87353   1.54871 
 O                     1.38622   0.83424   2.27867 
 
                          Input orientation:                          
 ---------------------------------------------------------------------
 Center     Atomic      Atomic             Coordinates (Angstroms)
 Number     Number       Type             X           Y           Z
 ---------------------------------------------------------------------
      1          1           0        0.000000    0.000000    0.000000
      2          6           0        1.093300    0.000000    0.000000
      3          6           0        1.624870    0.000000    1.437780
      4          1           0        1.530730   -0.912250   -0.462010
      5          1           0        1.416050    0.924860   -0.485560
      6          1           0        2.241520   -0.873530    1.548710
      7          8           0        1.386220    0.834240    2.278670
 ---------------------------------------------------------------------
                    Distance matrix (angstroms):
                    1          2          3          4          5
     1  H    0.000000
     2  C    1.093300   0.000000
     3  C    2.169658   1.532899   0.000000
     4  H    1.840866   1.112204   2.109565   0.000000
     5  H    1.759640   1.093299   2.144343   1.840837   0.000000
     6  H    2.861113   2.116593   1.074996   2.133006   2.837933
     7  O    2.794620   2.444196   1.208307   3.253066   2.765876
                    6          7
     6  H    0.000000
     7  O    2.044715   0.000000
 Stoichiometry    C2H4O
 Framework group  C1[X(C2H4O)]
 Deg. of freedom    15
 Full point group                 C1      NOp   1
 Largest Abelian subgroup         C1      NOp   1
 Largest concise Abelian subgroup C1      NOp   1
                         Standard orientation:                         
 ---------------------------------------------------------------------
 Center     Atomic      Atomic             Coordinates (Angstroms)
 Number     Number       Type             X           Y           Z
 ---------------------------------------------------------------------
      1          1           0       -1.348873   -0.794063   -0.872425
      2          6           0       -1.189036   -0.153831   -0.000726
      3          6           0        0.241253    0.397576   -0.001272
      4          1           0       -1.838866    0.748774    0.004130
      5          1           0       -1.315627   -0.779533    0.886841
      6          1           0        0.168461    1.470105   -0.002246
      7          8           0        1.252700   -0.263470   -0.000539
 ---------------------------------------------------------------------
 Rotational constants (GHZ):          57.3409538           9.9213052           8.9237857
 Standard basis: 6-31G(d) (6D, 7F)
 There are    53 symmetry adapted cartesian basis functions of A   symmetry.
 There are    53 symmetry adapted basis functions of A   symmetry.
    53 basis functions,   100 primitive gaussians,    53 cartesian basis functions
    12 alpha electrons       12 beta electrons
       nuclear repulsion energy        69.3195564668 Hartrees.
 NAtoms=    7 NActive=    7 NUniq=    7 SFac= 1.00D+00 NAtFMM=   60 NAOKFM=F Big=F
 Integral buffers will be    131072 words long.
 Raffenetti 2 integral format.
 Two-electron integral symmetry is turned on.
 One-electron integrals computed using PRISM.
 NBasis=    53 RedAO= T EigKep=  6.15D-03  NBF=    53
 NBsUse=    53 1.00D-06 EigRej= -1.00D+00 NBFU=    53
 ExpMin= 1.61D-01 ExpMax= 5.48D+03 ExpMxC= 8.25D+02 IAcc=3 IRadAn=         5 AccDes= 0.00D+00
 Harris functional with IExCor= 1009 and IRadAn=       5 diagonalized for initial guess.
 HarFok:  IExCor= 1009 AccDes= 0.00D+00 IRadAn=         5 IDoV= 1 UseB2=F ITyADJ=14
 ICtDFT=  3500011 ScaDFX=  1.000000  1.000000  1.000000  1.000000
 FoFCou: FMM=F IPFlag=           0 FMFlag=      100000 FMFlg1=           0
         NFxFlg=           0 DoJE=T BraDBF=F KetDBF=T FulRan=T
         wScrn=  0.000000 ICntrl=       500 IOpCl=  0 I1Cent=   200000004 NGrid=           0
         NMat0=    1 NMatS0=      1 NMatT0=    0 NMatD0=    1 NMtDS0=    0 NMtDT0=    0
 Petite list used in FoFCou.
 Keep R1 ints in memory in canonical form, NReq=4530250.
 Requested convergence on RMS density matrix=1.00D-08 within 128 cycles.
 Requested convergence on MAX density matrix=1.00D-06.
 Requested convergence on             energy=1.00D-06.
 No special actions if energy rises.
 Integral accuracy reduced to 1.0D-05 until final iterations.
 Initial convergence to 1.0D-05 achieved.  Increase integral accuracy.
 SCF Done:  E(RM062X) =  -153.745213160     A.U. after   14 cycles
            NFock= 14  Conv=0.43D-08     -V/T= 2.0084

 **********************************************************************

            Population analysis using the SCF density.

 **********************************************************************

 Orbital symmetries:
       Occupied  (A) (A) (A) (A) (A) (A) (A) (A) (A) (A) (A) (A)
       Virtual   (A) (A) (A) (A) (A) (A) (A) (A) (A) (A) (A) (A)
                 (A) (A) (A) (A) (A) (A) (A) (A) (A) (A) (A) (A)
                 (A) (A) (A) (A) (A) (A) (A) (A) (A) (A) (A) (A)
                 (A) (A) (A) (A) (A)
 The electronic state is 1-A.
 Alpha  occ. eigenvalues --  -19.64706 -10.64119 -10.55449  -1.16985  -0.84593
 Alpha  occ. eigenvalues --   -0.67158  -0.55239  -0.51088  -0.50741  -0.46727
 Alpha  occ. eigenvalues --   -0.42921  -0.32434
 Alpha virt. eigenvalues --    0.02255   0.14358   0.17320   0.21883   0.23277
 Alpha virt. eigenvalues --    0.29331   0.30834   0.57211   0.59795   0.61781
 Alpha virt. eigenvalues --    0.65529   0.72747   0.76652   0.84565   0.90626
 Alpha virt. eigenvalues --    0.92273   0.93078   0.99556   1.00248   1.07308
 Alpha virt. eigenvalues --    1.14966   1.26348   1.45554   1.49959   1.57387
 Alpha virt. eigenvalues --    1.77812   1.84738   1.85263   1.89633   2.09272
 Alpha virt. eigenvalues --    2.17969   2.24327   2.27507   2.41367   2.52298
 Alpha virt. eigenvalues --    2.64251   2.90940   2.99183   3.82007   4.10842
 Alpha virt. eigenvalues --    4.37602
          Condensed to atoms (all electrons):
               1          2          3          4          5          6
     1  H    0.481961   0.365496  -0.020799  -0.019109  -0.017607   0.004725
     2  C    0.365496   5.379148   0.309245   0.348991   0.364437  -0.133403
     3  C   -0.020799   0.309245   4.591848  -0.025733  -0.022293   0.367371
     4  H   -0.019109   0.348991  -0.025733   0.543308  -0.018934   0.006359
     5  H   -0.017607   0.364437  -0.022293  -0.018934   0.484886   0.004998
     6  H    0.004725  -0.133403   0.367371   0.006359   0.004998   0.663080
     7  O   -0.000184  -0.074942   0.558608   0.003348  -0.000267  -0.047132
               7
     1  H   -0.000184
     2  C   -0.074942
     3  C    0.558608
     4  H    0.003348
     5  H   -0.000267
     6  H   -0.047132
     7  O    7.949418
 Mulliken charges:
               1
     1  H    0.205518
     2  C   -0.558972
     3  C    0.241752
     4  H    0.161770
     5  H    0.204779
     6  H    0.134002
     7  O   -0.388850
 Sum of Mulliken charges =  -0.00000
 Mulliken charges with hydrogens summed into heavy atoms:
               1
     2  C    0.013096
     3  C    0.375754
     7  O   -0.388850
 Electronic spatial extent (au):  <R**2>=            168.6602
 Charge=             -0.0000 electrons
 Dipole moment (field-independent basis, Debye):
    X=             -2.3398    Y=              0.9731    Z=              0.0034  Tot=              2.5341
 Quadrupole moment (field-independent basis, Debye-Ang):
   XX=            -21.2144   YY=            -17.5045   ZZ=            -17.6225
   XY=              0.8664   XZ=              0.0225   YZ=              0.0043
 Traceless Quadrupole moment (field-independent basis, Debye-Ang):
   XX=             -2.4339   YY=              1.2760   ZZ=              1.1579
   XY=              0.8664   XZ=              0.0225   YZ=              0.0043
 Octapole moment (field-independent basis, Debye-Ang**2):
  XXX=              1.0158  YYY=              0.0228  ZZZ=              0.0180  XYY=              0.2864
  XXY=              0.4715  XXZ=             -0.0773  XZZ=              1.2905  YZZ=             -1.2408
  YYZ=             -0.0207  XYZ=             -0.0390
 Hexadecapole moment (field-independent basis, Debye-Ang**3):
 XXXX=           -153.4715 YYYY=            -41.0748 ZZZZ=            -21.8487 XXXY=             -2.0089
 XXXZ=              0.1579 YYYX=             -0.9818 YYYZ=              0.0251 ZZZX=              0.0116
 ZZZY=             -0.0111 XXYY=            -29.9395 XXZZ=            -27.2530 YYZZ=            -10.0531
 XXYZ=              0.0878 YYXZ=              0.0476 ZZXY=              0.8496
 N-N= 6.931955646683D+01 E-N=-4.976805073861D+02  KE= 1.524655567673D+02
 1\1\GINC-NODE62\SP\RM062X\6-31G(d)\C2H4O1\YANZ\22-Sep-2023\0\\#m062x/6
 -31g(d) scf=tight\\tmpdir/M2_conf_0_19.gjf\\0,1\H,0,0.,0.,0.\C,0,1.093
 3,0.,0.\C,0,1.62487,0.,1.43778\H,0,1.53073,-0.91225,-0.46201\H,0,1.416
 05,0.92486,-0.48556\H,0,2.24152,-0.87353,1.54871\O,0,1.38622,0.83424,2
 .27867\\Version=ES64L-G16RevA.03\State=1-A\HF=-153.7452132\RMSD=4.346e
 -09\Dipole=0.0906673,-0.5846673,-0.8024692\Quadrupole=0.9511251,0.3560
 498,-1.3071748,-0.1151556,0.0236181,-1.2203043\PG=C01 [X(C2H4O1)]\\@


 THE DIFFERENCE BETWEEN A NOOSE AND A HALO IS ONLY 12 INCHES.
 Job cpu time:       0 days  0 hours  0 minutes 20.6 seconds.
 Elapsed time:       0 days  0 hours  0 minutes  5.3 seconds.
 File lengths (MBytes):  RWF=      6 Int=      0 D2E=      0 Chk=      1 Scr=      1
 Normal termination of Gaussian 16 at Fri Sep 22 17:02:11 2023.
