 Entering Gaussian System, Link 0=g16
 Initial command:
 /share/apps/gaussian/g16/l1.exe "/tmp/55613.mgr/Gau-180584.inp" -scrdir="/tmp/55613.mgr/"
 Entering Link 1 = /share/apps/gaussian/g16/l1.exe PID=    180585.
  
 Copyright (c) 1988,1990,1992,1993,1995,1998,2003,2009,2016,
            Gaussian, Inc.  All Rights Reserved.
  
 This is part of the Gaussian(R) 16 program.  It is based on
 the Gaussian(R) 09 system (copyright 2009, Gaussian, Inc.),
 the Gaussian(R) 03 system (copyright 2003, Gaussian, Inc.),
 the Gaussian(R) 98 system (copyright 1998, Gaussian, Inc.),
 the Gaussian(R) 94 system (copyright 1995, Gaussian, Inc.),
 the Gaussian 92(TM) system (copyright 1992, Gaussian, Inc.),
 the Gaussian 90(TM) system (copyright 1990, Gaussian, Inc.),
 the Gaussian 88(TM) system (copyright 1988, Gaussian, Inc.),
 the Gaussian 86(TM) system (copyright 1986, Carnegie Mellon
 University), and the Gaussian 82(TM) system (copyright 1983,
 Carnegie Mellon University). Gaussian is a federally registered
 trademark of Gaussian, Inc.
  
 This software contains proprietary and confidential information,
 including trade secrets, belonging to Gaussian, Inc.
  
 This software is provided under written license and may be
 used, copied, transmitted, or stored only in accord with that
 written license.
  
 The following legend is applicable only to US Government
 contracts under FAR:
  
                    RESTRICTED RIGHTS LEGEND
  
 Use, reproduction and disclosure by the US Government is
 subject to restrictions as set forth in subparagraphs (a)
 and (c) of the Commercial Computer Software - Restricted
 Rights clause in FAR 52.227-19.
  
 Gaussian, Inc.
 340 Quinnipiac St., Bldg. 40, Wallingford CT 06492
  
  
 ---------------------------------------------------------------
 Warning -- This program may not be used in any manner that
 competes with the business of Gaussian, Inc. or will provide
 assistance to any competitor of Gaussian, Inc.  The licensee
 of this program is prohibited from giving any competitor of
 Gaussian, Inc. access to this program.  By using this program,
 the user acknowledges that Gaussian, Inc. is engaged in the
 business of creating and licensing software in the field of
 computational chemistry and represents and warrants to the
 licensee that it is not a competitor of Gaussian, Inc. and that
 it will not use this program in any manner prohibited above.
 ---------------------------------------------------------------
  

 Cite this work as:
 Gaussian 16, Revision A.03,
 M. J. Frisch, G. W. Trucks, H. B. Schlegel, G. E. Scuseria, 
 M. A. Robb, J. R. Cheeseman, G. Scalmani, V. Barone, 
 G. A. Petersson, H. Nakatsuji, X. Li, M. Caricato, A. V. Marenich, 
 J. Bloino, B. G. Janesko, R. Gomperts, B. Mennucci, H. P. Hratchian, 
 J. V. Ortiz, A. F. Izmaylov, J. L. Sonnenberg, D. Williams-Young, 
 F. Ding, F. Lipparini, F. Egidi, J. Goings, B. Peng, A. Petrone, 
 T. Henderson, D. Ranasinghe, V. G. Zakrzewski, J. Gao, N. Rega, 
 G. Zheng, W. Liang, M. Hada, M. Ehara, K. Toyota, R. Fukuda, 
 J. Hasegawa, M. Ishida, T. Nakajima, Y. Honda, O. Kitao, H. Nakai, 
 T. Vreven, K. Throssell, J. A. Montgomery, Jr., J. E. Peralta, 
 F. Ogliaro, M. J. Bearpark, J. J. Heyd, E. N. Brothers, K. N. Kudin, 
 V. N. Staroverov, T. A. Keith, R. Kobayashi, J. Normand, 
 K. Raghavachari, A. P. Rendell, J. C. Burant, S. S. Iyengar, 
 J. Tomasi, M. Cossi, J. M. Millam, M. Klene, C. Adamo, R. Cammi, 
 J. W. Ochterski, R. L. Martin, K. Morokuma, O. Farkas, 
 J. B. Foresman, and D. J. Fox, Gaussian, Inc., Wallingford CT, 2016.
 
 ******************************************
 Gaussian 16:  ES64L-G16RevA.03 25-Dec-2016
                22-Sep-2023 
 ******************************************
 %nprocshared=4
 Will use up to    4 processors via shared memory.
 %mem=4GB
 -------------------------
 #m062x/6-31g(d) scf=tight
 -------------------------
 1/38=1,172=1/1;
 2/12=2,17=6,18=5,40=1/2;
 3/5=1,6=6,7=1,11=2,25=1,30=1,74=-55/1,2,3;
 4//1;
 5/5=2,32=2,38=5/2;
 6/7=2,8=2,9=2,10=2,28=1/1;
 99/5=1,9=1/99;
 -----------------------
 tmpdir/M2_conf_0_27.gjf
 -----------------------
 Symbolic Z-matrix:
 Charge =  0 Multiplicity = 1
 C                     0.        0.        0. 
 C                     1.5105    0.        0. 
 H                     1.93647   0.        1.0094 
 O                    -0.4673    0.92457  -0.55994 
 H                    -0.56937  -0.79094   0.4792 
 H                     1.78126   0.92271  -0.55882 
 H                     1.89544  -0.9091   -0.47507 
 
                          Input orientation:                          
 ---------------------------------------------------------------------
 Center     Atomic      Atomic             Coordinates (Angstroms)
 Number     Number       Type             X           Y           Z
 ---------------------------------------------------------------------
      1          6           0        0.000000    0.000000    0.000000
      2          6           0        1.510500    0.000000    0.000000
      3          1           0        1.936470    0.000000    1.009400
      4          8           0       -0.467300    0.924570   -0.559940
      5          1           0       -0.569370   -0.790940    0.479200
      6          1           0        1.781260    0.922710   -0.558820
      7          1           0        1.895440   -0.909100   -0.475070
 ---------------------------------------------------------------------
                    Distance matrix (angstroms):
                    1          2          3          4          5
     1  C    0.000000
     2  C    1.510500   0.000000
     3  H    2.183759   1.095600   0.000000
     4  O    1.177596   2.253898   3.015919   0.000000
     5  H    1.086002   2.276198   2.680659   2.008284   0.000000
     6  H    2.082441   1.112198   1.826143   2.248561   3.088615
     7  H    2.155191   1.095597   1.741206   2.992004   2.645729
                    6          7
     6  H    0.000000
     7  H    1.837275   0.000000
 Stoichiometry    C2H4O
 Framework group  C1[X(C2H4O)]
 Deg. of freedom    15
 Full point group                 C1      NOp   1
 Largest Abelian subgroup         C1      NOp   1
 Largest concise Abelian subgroup C1      NOp   1
                         Standard orientation:                         
 ---------------------------------------------------------------------
 Center     Atomic      Atomic             Coordinates (Angstroms)
 Number     Number       Type             X           Y           Z
 ---------------------------------------------------------------------
      1          6           0       -0.261903    0.471409   -0.002958
      2          6           0        1.116076   -0.147279    0.000429
      3          1           0        1.719065    0.151013   -0.864305
      4          8           0       -1.130942   -0.323254    0.000739
      5          1           0       -0.402532    1.548253   -0.008456
      6          1           0        0.921233   -1.242264    0.005777
      7          1           0        1.684732    0.184247    0.876245
 ---------------------------------------------------------------------
 Rotational constants (GHZ):          50.0025919          11.4062208           9.8398191
 Standard basis: 6-31G(d) (6D, 7F)
 There are    53 symmetry adapted cartesian basis functions of A   symmetry.
 There are    53 symmetry adapted basis functions of A   symmetry.
    53 basis functions,   100 primitive gaussians,    53 cartesian basis functions
    12 alpha electrons       12 beta electrons
       nuclear repulsion energy        71.1322929702 Hartrees.
 NAtoms=    7 NActive=    7 NUniq=    7 SFac= 1.00D+00 NAtFMM=   60 NAOKFM=F Big=F
 Integral buffers will be    131072 words long.
 Raffenetti 2 integral format.
 Two-electron integral symmetry is turned on.
 One-electron integrals computed using PRISM.
 NBasis=    53 RedAO= T EigKep=  4.97D-03  NBF=    53
 NBsUse=    53 1.00D-06 EigRej= -1.00D+00 NBFU=    53
 ExpMin= 1.61D-01 ExpMax= 5.48D+03 ExpMxC= 8.25D+02 IAcc=3 IRadAn=         5 AccDes= 0.00D+00
 Harris functional with IExCor= 1009 and IRadAn=       5 diagonalized for initial guess.
 HarFok:  IExCor= 1009 AccDes= 0.00D+00 IRadAn=         5 IDoV= 1 UseB2=F ITyADJ=14
 ICtDFT=  3500011 ScaDFX=  1.000000  1.000000  1.000000  1.000000
 FoFCou: FMM=F IPFlag=           0 FMFlag=      100000 FMFlg1=           0
         NFxFlg=           0 DoJE=T BraDBF=F KetDBF=T FulRan=T
         wScrn=  0.000000 ICntrl=       500 IOpCl=  0 I1Cent=   200000004 NGrid=           0
         NMat0=    1 NMatS0=      1 NMatT0=    0 NMatD0=    1 NMtDS0=    0 NMtDT0=    0
 Petite list used in FoFCou.
 Keep R1 ints in memory in canonical form, NReq=4530250.
 Requested convergence on RMS density matrix=1.00D-08 within 128 cycles.
 Requested convergence on MAX density matrix=1.00D-06.
 Requested convergence on             energy=1.00D-06.
 No special actions if energy rises.
 Integral accuracy reduced to 1.0D-05 until final iterations.
 Initial convergence to 1.0D-05 achieved.  Increase integral accuracy.
 SCF Done:  E(RM062X) =  -153.743753413     A.U. after   14 cycles
            NFock= 14  Conv=0.32D-08     -V/T= 2.0072

 **********************************************************************

            Population analysis using the SCF density.

 **********************************************************************

 Orbital symmetries:
       Occupied  (A) (A) (A) (A) (A) (A) (A) (A) (A) (A) (A) (A)
       Virtual   (A) (A) (A) (A) (A) (A) (A) (A) (A) (A) (A) (A)
                 (A) (A) (A) (A) (A) (A) (A) (A) (A) (A) (A) (A)
                 (A) (A) (A) (A) (A) (A) (A) (A) (A) (A) (A) (A)
                 (A) (A) (A) (A) (A)
 The electronic state is 1-A.
 Alpha  occ. eigenvalues --  -19.63881 -10.63462 -10.54639  -1.18889  -0.83398
 Alpha  occ. eigenvalues --   -0.67156  -0.56409  -0.51189  -0.50573  -0.45891
 Alpha  occ. eigenvalues --   -0.43034  -0.32183
 Alpha virt. eigenvalues --    0.03829   0.16513   0.18083   0.20272   0.20808
 Alpha virt. eigenvalues --    0.28319   0.34504   0.57589   0.59257   0.64410
 Alpha virt. eigenvalues --    0.65979   0.73644   0.78173   0.82244   0.91429
 Alpha virt. eigenvalues --    0.92122   0.94706   0.98103   1.00604   1.06891
 Alpha virt. eigenvalues --    1.15745   1.25370   1.46833   1.50541   1.60131
 Alpha virt. eigenvalues --    1.72241   1.86400   1.87756   2.00290   2.12502
 Alpha virt. eigenvalues --    2.13199   2.22705   2.36988   2.38653   2.63915
 Alpha virt. eigenvalues --    2.64286   2.89633   3.02714   3.84421   4.10840
 Alpha virt. eigenvalues --    4.35444
          Condensed to atoms (all electrons):
               1          2          3          4          5          6
     1  C    4.546825   0.331393  -0.019981   0.593690   0.348993  -0.035152
     2  C    0.331393   5.401823   0.350612  -0.122317  -0.101641   0.364800
     3  H   -0.019981   0.350612   0.527141   0.002446   0.004168  -0.016970
     4  O    0.593690  -0.122317   0.002446   7.943573  -0.052134   0.008917
     5  H    0.348993  -0.101641   0.004168  -0.052134   0.654639   0.004968
     6  H   -0.035152   0.364800  -0.016970   0.008917   0.004968   0.489280
     7  H   -0.022216   0.349567  -0.027215   0.002377   0.004453  -0.015656
               7
     1  C   -0.022216
     2  C    0.349567
     3  H   -0.027215
     4  O    0.002377
     5  H    0.004453
     6  H   -0.015656
     7  H    0.530517
 Mulliken charges:
               1
     1  C    0.256449
     2  C   -0.574238
     3  H    0.179799
     4  O   -0.376551
     5  H    0.136554
     6  H    0.199814
     7  H    0.178174
 Sum of Mulliken charges =  -0.00000
 Mulliken charges with hydrogens summed into heavy atoms:
               1
     1  C    0.393003
     2  C   -0.016452
     4  O   -0.376551
 Electronic spatial extent (au):  <R**2>=            158.2600
 Charge=             -0.0000 electrons
 Dipole moment (field-independent basis, Debye):
    X=              1.9507    Y=              1.3919    Z=             -0.0076  Tot=              2.3964
 Quadrupole moment (field-independent basis, Debye-Ang):
   XX=            -20.5047   YY=            -17.3999   ZZ=            -17.7361
   XY=             -0.9471   XZ=             -0.0196   YZ=              0.0276
 Traceless Quadrupole moment (field-independent basis, Debye-Ang):
   XX=             -1.9578   YY=              1.1470   ZZ=              0.8108
   XY=             -0.9471   XZ=             -0.0196   YZ=              0.0276
 Octapole moment (field-independent basis, Debye-Ang**2):
  XXX=             -0.4692  YYY=             -0.4695  ZZZ=              0.0025  XYY=             -1.5843
  XXY=              1.1548  XXZ=             -0.1038  XZZ=             -0.9944  YZZ=              0.0864
  YYZ=             -0.0030  XYZ=              0.0494
 Hexadecapole moment (field-independent basis, Debye-Ang**3):
 XXXX=           -134.5527 YYYY=            -41.9885 ZZZZ=            -22.1868 XXXY=              2.2027
 XXXZ=             -0.2579 YYYX=             -0.2422 YYYZ=             -0.0031 ZZZX=             -0.0267
 ZZZY=              0.0494 XXYY=            -29.6858 XXZZ=            -23.4721 YYZZ=            -11.5793
 XXYZ=              0.0747 YYXZ=              0.0154 ZZXY=              1.1924
 N-N= 7.113229297023D+01 E-N=-5.014950384424D+02  KE= 1.526424832021D+02
 1\1\GINC-NODE62\SP\RM062X\6-31G(d)\C2H4O1\YANZ\22-Sep-2023\0\\#m062x/6
 -31g(d) scf=tight\\tmpdir/M2_conf_0_27.gjf\\0,1\C,0,0.,0.,0.\C,0,1.510
 5,0.,0.\H,0,1.93647,0.,1.0094\O,0,-0.4673,0.92457,-0.55994\H,0,-0.5693
 7,-0.79094,0.4792\H,0,1.78126,0.92271,-0.55882\H,0,1.89544,-0.9091,-0.
 47507\\Version=ES64L-G16RevA.03\State=1-A\HF=-153.7437534\RMSD=3.156e-
 09\Dipole=0.4758271,-0.6959638,0.4220355\Quadrupole=-0.5421787,0.12862
 85,0.4135502,1.150823,-0.667774,0.3000931\PG=C01 [X(C2H4O1)]\\@


    UPON JULIA'S CLOTHES

 WHENAS IN SILKS MY JULIA GOES,
 THEN, THEN, METHINKS, HOW SWEETLY FLOWS
 THAT LIQUEFACTION OF HER CLOTHES.

 NEXT, WHEN I CAST MINE EYES, AND SEE
 THAT BRAVE VIBRATION, EACH WAY FREE,
 O, HOW THAT GLITTERING TAKETH ME!
     -- ROBERT HERRICK, 1648
 Job cpu time:       0 days  0 hours  0 minutes 20.6 seconds.
 Elapsed time:       0 days  0 hours  0 minutes  5.3 seconds.
 File lengths (MBytes):  RWF=      6 Int=      0 D2E=      0 Chk=      1 Scr=      1
 Normal termination of Gaussian 16 at Fri Sep 22 17:02:14 2023.
