 Entering Gaussian System, Link 0=g16
 Initial command:
 /share/apps/gaussian/g16/l1.exe "/tmp/55613.mgr/Gau-181046.inp" -scrdir="/tmp/55613.mgr/"
 Entering Link 1 = /share/apps/gaussian/g16/l1.exe PID=    181047.
  
 Copyright (c) 1988,1990,1992,1993,1995,1998,2003,2009,2016,
            Gaussian, Inc.  All Rights Reserved.
  
 This is part of the Gaussian(R) 16 program.  It is based on
 the Gaussian(R) 09 system (copyright 2009, Gaussian, Inc.),
 the Gaussian(R) 03 system (copyright 2003, Gaussian, Inc.),
 the Gaussian(R) 98 system (copyright 1998, Gaussian, Inc.),
 the Gaussian(R) 94 system (copyright 1995, Gaussian, Inc.),
 the Gaussian 92(TM) system (copyright 1992, Gaussian, Inc.),
 the Gaussian 90(TM) system (copyright 1990, Gaussian, Inc.),
 the Gaussian 88(TM) system (copyright 1988, Gaussian, Inc.),
 the Gaussian 86(TM) system (copyright 1986, Carnegie Mellon
 University), and the Gaussian 82(TM) system (copyright 1983,
 Carnegie Mellon University). Gaussian is a federally registered
 trademark of Gaussian, Inc.
  
 This software contains proprietary and confidential information,
 including trade secrets, belonging to Gaussian, Inc.
  
 This software is provided under written license and may be
 used, copied, transmitted, or stored only in accord with that
 written license.
  
 The following legend is applicable only to US Government
 contracts under FAR:
  
                    RESTRICTED RIGHTS LEGEND
  
 Use, reproduction and disclosure by the US Government is
 subject to restrictions as set forth in subparagraphs (a)
 and (c) of the Commercial Computer Software - Restricted
 Rights clause in FAR 52.227-19.
  
 Gaussian, Inc.
 340 Quinnipiac St., Bldg. 40, Wallingford CT 06492
  
  
 ---------------------------------------------------------------
 Warning -- This program may not be used in any manner that
 competes with the business of Gaussian, Inc. or will provide
 assistance to any competitor of Gaussian, Inc.  The licensee
 of this program is prohibited from giving any competitor of
 Gaussian, Inc. access to this program.  By using this program,
 the user acknowledges that Gaussian, Inc. is engaged in the
 business of creating and licensing software in the field of
 computational chemistry and represents and warrants to the
 licensee that it is not a competitor of Gaussian, Inc. and that
 it will not use this program in any manner prohibited above.
 ---------------------------------------------------------------
  

 Cite this work as:
 Gaussian 16, Revision A.03,
 M. J. Frisch, G. W. Trucks, H. B. Schlegel, G. E. Scuseria, 
 M. A. Robb, J. R. Cheeseman, G. Scalmani, V. Barone, 
 G. A. Petersson, H. Nakatsuji, X. Li, M. Caricato, A. V. Marenich, 
 J. Bloino, B. G. Janesko, R. Gomperts, B. Mennucci, H. P. Hratchian, 
 J. V. Ortiz, A. F. Izmaylov, J. L. Sonnenberg, D. Williams-Young, 
 F. Ding, F. Lipparini, F. Egidi, J. Goings, B. Peng, A. Petrone, 
 T. Henderson, D. Ranasinghe, V. G. Zakrzewski, J. Gao, N. Rega, 
 G. Zheng, W. Liang, M. Hada, M. Ehara, K. Toyota, R. Fukuda, 
 J. Hasegawa, M. Ishida, T. Nakajima, Y. Honda, O. Kitao, H. Nakai, 
 T. Vreven, K. Throssell, J. A. Montgomery, Jr., J. E. Peralta, 
 F. Ogliaro, M. J. Bearpark, J. J. Heyd, E. N. Brothers, K. N. Kudin, 
 V. N. Staroverov, T. A. Keith, R. Kobayashi, J. Normand, 
 K. Raghavachari, A. P. Rendell, J. C. Burant, S. S. Iyengar, 
 J. Tomasi, M. Cossi, J. M. Millam, M. Klene, C. Adamo, R. Cammi, 
 J. W. Ochterski, R. L. Martin, K. Morokuma, O. Farkas, 
 J. B. Foresman, and D. J. Fox, Gaussian, Inc., Wallingford CT, 2016.
 
 ******************************************
 Gaussian 16:  ES64L-G16RevA.03 25-Dec-2016
                22-Sep-2023 
 ******************************************
 %nprocshared=4
 Will use up to    4 processors via shared memory.
 %mem=4GB
 -------------------------
 #m062x/6-31g(d) scf=tight
 -------------------------
 1/38=1,172=1/1;
 2/12=2,17=6,18=5,40=1/2;
 3/5=1,6=6,7=1,11=2,25=1,30=1,74=-55/1,2,3;
 4//1;
 5/5=2,32=2,38=5/2;
 6/7=2,8=2,9=2,10=2,28=1/1;
 99/5=1,9=1/99;
 -----------------------
 tmpdir/M2_conf_0_29.gjf
 -----------------------
 Symbolic Z-matrix:
 Charge =  0 Multiplicity = 1
 H                     0.        0.        0. 
 C                     1.0956    0.        0. 
 H                     1.41958   0.        1.0466 
 H                     1.52355   0.85227  -0.57227 
 H                     1.47977  -0.88547  -0.5137 
 
                          Input orientation:                          
 ---------------------------------------------------------------------
 Center     Atomic      Atomic             Coordinates (Angstroms)
 Number     Number       Type             X           Y           Z
 ---------------------------------------------------------------------
      1          1           0        0.000000    0.000000    0.000000
      2          6           0        1.095600    0.000000    0.000000
      3          1           0        1.419580    0.000000    1.046600
      4          1           0        1.523550    0.852270   -0.572270
      5          1           0        1.479770   -0.885470   -0.513700
 ---------------------------------------------------------------------
                    Distance matrix (angstroms):
                    1          2          3          4          5
     1  H    0.000000
     2  C    1.095600   0.000000
     3  H    1.763683   1.095598   0.000000
     4  H    1.837134   1.112204   1.832461   0.000000
     5  H    1.799351   1.093404   1.795053   1.739278   0.000000
 Stoichiometry    CH4
 Framework group  C1[X(CH4)]
 Deg. of freedom     9
 Full point group                 C1      NOp   1
 Largest Abelian subgroup         C1      NOp   1
 Largest concise Abelian subgroup C1      NOp   1
                         Standard orientation:                         
 ---------------------------------------------------------------------
 Center     Atomic      Atomic             Coordinates (Angstroms)
 Number     Number       Type             X           Y           Z
 ---------------------------------------------------------------------
      1          1           0       -0.672120   -0.865333   -0.093324
      2          6           0       -0.005016   -0.000836   -0.004131
      3          1           0       -0.622064    0.897489   -0.116384
      4          1           0        0.832502   -0.029321   -0.735397
      5          1           0        0.491779    0.002180    0.969890
 ---------------------------------------------------------------------
 Rotational constants (GHZ):         163.9237981         152.9864411         150.6315231
 Standard basis: 6-31G(d) (6D, 7F)
 There are    23 symmetry adapted cartesian basis functions of A   symmetry.
 There are    23 symmetry adapted basis functions of A   symmetry.
    23 basis functions,    44 primitive gaussians,    23 cartesian basis functions
     5 alpha electrons        5 beta electrons
       nuclear repulsion energy        13.3246225731 Hartrees.
 NAtoms=    5 NActive=    5 NUniq=    5 SFac= 1.00D+00 NAtFMM=   60 NAOKFM=F Big=F
 Integral buffers will be    131072 words long.
 Raffenetti 2 integral format.
 Two-electron integral symmetry is turned on.
 One-electron integrals computed using PRISM.
 NBasis=    23 RedAO= T EigKep=  1.84D-02  NBF=    23
 NBsUse=    23 1.00D-06 EigRej= -1.00D+00 NBFU=    23
 ExpMin= 1.61D-01 ExpMax= 3.05D+03 ExpMxC= 4.57D+02 IAcc=3 IRadAn=         5 AccDes= 0.00D+00
 Harris functional with IExCor= 1009 and IRadAn=       5 diagonalized for initial guess.
 HarFok:  IExCor= 1009 AccDes= 0.00D+00 IRadAn=         5 IDoV= 1 UseB2=F ITyADJ=14
 ICtDFT=  3500011 ScaDFX=  1.000000  1.000000  1.000000  1.000000
 FoFCou: FMM=F IPFlag=           0 FMFlag=      100000 FMFlg1=           0
         NFxFlg=           0 DoJE=T BraDBF=F KetDBF=T FulRan=T
         wScrn=  0.000000 ICntrl=       500 IOpCl=  0 I1Cent=   200000004 NGrid=           0
         NMat0=    1 NMatS0=      1 NMatT0=    0 NMatD0=    1 NMtDS0=    0 NMtDT0=    0
 Petite list used in FoFCou.
 Keep R1 ints in memory in canonical form, NReq=3489464.
 Requested convergence on RMS density matrix=1.00D-08 within 128 cycles.
 Requested convergence on MAX density matrix=1.00D-06.
 Requested convergence on             energy=1.00D-06.
 No special actions if energy rises.
 Integral accuracy reduced to 1.0D-05 until final iterations.
 Initial convergence to 1.0D-05 achieved.  Increase integral accuracy.
 SCF Done:  E(RM062X) =  -40.4806192918     A.U. after   10 cycles
            NFock= 10  Conv=0.83D-08     -V/T= 2.0106

 **********************************************************************

            Population analysis using the SCF density.

 **********************************************************************

 Orbital symmetries:
       Occupied  (A) (A) (A) (A) (A)
       Virtual   (A) (A) (A) (A) (A) (A) (A) (A) (A) (A) (A) (A)
                 (A) (A) (A) (A) (A) (A)
 The electronic state is 1-A.
 Alpha  occ. eigenvalues --  -10.52632  -0.77931  -0.46350  -0.44808  -0.44087
 Alpha virt. eigenvalues --    0.16551   0.21774   0.22175   0.22897   0.58071
 Alpha virt. eigenvalues --    0.58120   0.59529   0.95038   0.96169   0.97758
 Alpha virt. eigenvalues --    1.01754   1.13178   1.71838   1.71895   2.26974
 Alpha virt. eigenvalues --    2.30004   2.30318   4.21324
          Condensed to atoms (all electrons):
               1          2          3          4          5
     1  H    0.519328   0.384566  -0.028735  -0.021133  -0.023662
     2  C    0.384566   5.137516   0.384373   0.382294   0.383141
     3  H   -0.028735   0.384373   0.520677  -0.021527  -0.024041
     4  H   -0.021133   0.382294  -0.021527   0.527015  -0.031721
     5  H   -0.023662   0.383141  -0.024041  -0.031721   0.528356
 Mulliken charges:
               1
     1  H    0.169636
     2  C   -0.671890
     3  H    0.169254
     4  H    0.165073
     5  H    0.167928
 Sum of Mulliken charges =   0.00000
 Mulliken charges with hydrogens summed into heavy atoms:
               1
     2  C    0.000000
 Electronic spatial extent (au):  <R**2>=             35.7675
 Charge=              0.0000 electrons
 Dipole moment (field-independent basis, Debye):
    X=              0.0082    Y=              0.0032    Z=              0.0289  Tot=              0.0302
 Quadrupole moment (field-independent basis, Debye-Ang):
   XX=             -8.0612   YY=             -8.3615   ZZ=             -8.4730
   XY=              0.0024   XZ=              0.0195   YZ=             -0.0006
 Traceless Quadrupole moment (field-independent basis, Debye-Ang):
   XX=              0.2374   YY=             -0.0629   ZZ=             -0.1745
   XY=              0.0024   XZ=              0.0195   YZ=             -0.0006
 Octapole moment (field-independent basis, Debye-Ang**2):
  XXX=              0.1076  YYY=              0.0589  ZZZ=              0.4233  XYY=             -0.7495
  XXY=             -0.0477  XXZ=             -0.2409  XZZ=              0.6257  YZZ=             -0.0030
  YYZ=             -0.0851  XYZ=              0.0210
 Hexadecapole moment (field-independent basis, Debye-Ang**3):
 XXXX=            -16.1350 YYYY=            -15.1005 ZZZZ=            -15.1412 XXXY=              0.0388
 XXXZ=             -0.2404 YYYX=             -0.0120 YYYZ=             -0.0273 ZZZX=              0.1815
 ZZZY=              0.0127 XXYY=             -4.8703 XXZZ=             -4.9166 YYZZ=             -5.4554
 XXYZ=              0.0122 YYXZ=              0.1290 ZZXY=             -0.0143
 N-N= 1.332462257306D+01 E-N=-1.196470132049D+02  KE= 4.005681763576D+01
 1\1\GINC-NODE62\SP\RM062X\6-31G(d)\C1H4\YANZ\22-Sep-2023\0\\#m062x/6-3
 1g(d) scf=tight\\tmpdir/M2_conf_0_29.gjf\\0,1\H,0,0.,0.,0.\C,0,1.0956,
 0.,0.\H,0,1.41958,0.,1.0466\H,0,1.52355,0.85227,-0.57227\H,0,1.47977,-
 0.88547,-0.5137\\Version=ES64L-G16RevA.03\State=1-A\HF=-40.4806193\RMS
 D=8.316e-09\Dipole=0.0038767,-0.01076,-0.0032253\Quadrupole=0.0385188,
 -0.1268174,0.0882986,0.0196867,-0.1073478,-0.0264068\PG=C01 [X(C1H4)]\
 \@


 TIME GOES, YOU SAY?  AH NO!
 ALAS, TIME STAYS, WE GO.
    -- A. DOBSON (1840-1921)
 Job cpu time:       0 days  0 hours  0 minutes  7.9 seconds.
 Elapsed time:       0 days  0 hours  0 minutes  2.1 seconds.
 File lengths (MBytes):  RWF=      6 Int=      0 D2E=      0 Chk=      1 Scr=      1
 Normal termination of Gaussian 16 at Fri Sep 22 17:02:22 2023.
