 Entering Gaussian System, Link 0=g16
 Initial command:
 /share/apps/gaussian/g16/l1.exe "/tmp/55613.mgr/Gau-180205.inp" -scrdir="/tmp/55613.mgr/"
 Entering Link 1 = /share/apps/gaussian/g16/l1.exe PID=    180206.
  
 Copyright (c) 1988,1990,1992,1993,1995,1998,2003,2009,2016,
            Gaussian, Inc.  All Rights Reserved.
  
 This is part of the Gaussian(R) 16 program.  It is based on
 the Gaussian(R) 09 system (copyright 2009, Gaussian, Inc.),
 the Gaussian(R) 03 system (copyright 2003, Gaussian, Inc.),
 the Gaussian(R) 98 system (copyright 1998, Gaussian, Inc.),
 the Gaussian(R) 94 system (copyright 1995, Gaussian, Inc.),
 the Gaussian 92(TM) system (copyright 1992, Gaussian, Inc.),
 the Gaussian 90(TM) system (copyright 1990, Gaussian, Inc.),
 the Gaussian 88(TM) system (copyright 1988, Gaussian, Inc.),
 the Gaussian 86(TM) system (copyright 1986, Carnegie Mellon
 University), and the Gaussian 82(TM) system (copyright 1983,
 Carnegie Mellon University). Gaussian is a federally registered
 trademark of Gaussian, Inc.
  
 This software contains proprietary and confidential information,
 including trade secrets, belonging to Gaussian, Inc.
  
 This software is provided under written license and may be
 used, copied, transmitted, or stored only in accord with that
 written license.
  
 The following legend is applicable only to US Government
 contracts under FAR:
  
                    RESTRICTED RIGHTS LEGEND
  
 Use, reproduction and disclosure by the US Government is
 subject to restrictions as set forth in subparagraphs (a)
 and (c) of the Commercial Computer Software - Restricted
 Rights clause in FAR 52.227-19.
  
 Gaussian, Inc.
 340 Quinnipiac St., Bldg. 40, Wallingford CT 06492
  
  
 ---------------------------------------------------------------
 Warning -- This program may not be used in any manner that
 competes with the business of Gaussian, Inc. or will provide
 assistance to any competitor of Gaussian, Inc.  The licensee
 of this program is prohibited from giving any competitor of
 Gaussian, Inc. access to this program.  By using this program,
 the user acknowledges that Gaussian, Inc. is engaged in the
 business of creating and licensing software in the field of
 computational chemistry and represents and warrants to the
 licensee that it is not a competitor of Gaussian, Inc. and that
 it will not use this program in any manner prohibited above.
 ---------------------------------------------------------------
  

 Cite this work as:
 Gaussian 16, Revision A.03,
 M. J. Frisch, G. W. Trucks, H. B. Schlegel, G. E. Scuseria, 
 M. A. Robb, J. R. Cheeseman, G. Scalmani, V. Barone, 
 G. A. Petersson, H. Nakatsuji, X. Li, M. Caricato, A. V. Marenich, 
 J. Bloino, B. G. Janesko, R. Gomperts, B. Mennucci, H. P. Hratchian, 
 J. V. Ortiz, A. F. Izmaylov, J. L. Sonnenberg, D. Williams-Young, 
 F. Ding, F. Lipparini, F. Egidi, J. Goings, B. Peng, A. Petrone, 
 T. Henderson, D. Ranasinghe, V. G. Zakrzewski, J. Gao, N. Rega, 
 G. Zheng, W. Liang, M. Hada, M. Ehara, K. Toyota, R. Fukuda, 
 J. Hasegawa, M. Ishida, T. Nakajima, Y. Honda, O. Kitao, H. Nakai, 
 T. Vreven, K. Throssell, J. A. Montgomery, Jr., J. E. Peralta, 
 F. Ogliaro, M. J. Bearpark, J. J. Heyd, E. N. Brothers, K. N. Kudin, 
 V. N. Staroverov, T. A. Keith, R. Kobayashi, J. Normand, 
 K. Raghavachari, A. P. Rendell, J. C. Burant, S. S. Iyengar, 
 J. Tomasi, M. Cossi, J. M. Millam, M. Klene, C. Adamo, R. Cammi, 
 J. W. Ochterski, R. L. Martin, K. Morokuma, O. Farkas, 
 J. B. Foresman, and D. J. Fox, Gaussian, Inc., Wallingford CT, 2016.
 
 ******************************************
 Gaussian 16:  ES64L-G16RevA.03 25-Dec-2016
                22-Sep-2023 
 ******************************************
 %nprocshared=4
 Will use up to    4 processors via shared memory.
 %mem=4GB
 -------------------------
 #m062x/6-31g(d) scf=tight
 -------------------------
 1/38=1,172=1/1;
 2/12=2,17=6,18=5,40=1/2;
 3/5=1,6=6,7=1,11=2,25=1,30=1,74=-55/1,2,3;
 4//1;
 5/5=2,32=2,38=5/2;
 6/7=2,8=2,9=2,10=2,28=1/1;
 99/5=1,9=1/99;
 ----------------------
 tmpdir/M2_conf_0_2.gjf
 ----------------------
 Symbolic Z-matrix:
 Charge =  0 Multiplicity = 1
 C                     0.        0.        0. 
 C                     1.3896    0.        0. 
 H                    -0.35022   0.       -1.00513 
 H                    -0.64195   0.        0.87359 
 H                     2.03961   0.        0.86637 
 H                     1.74752   0.       -1.02723 
 
                          Input orientation:                          
 ---------------------------------------------------------------------
 Center     Atomic      Atomic             Coordinates (Angstroms)
 Number     Number       Type             X           Y           Z
 ---------------------------------------------------------------------
      1          6           0        0.000000    0.000000    0.000000
      2          6           0        1.389600    0.000000    0.000000
      3          1           0       -0.350220    0.000000   -1.005130
      4          1           0       -0.641950    0.000000    0.873590
      5          1           0        2.039610    0.000000    0.866370
      6          1           0        1.747520    0.000000   -1.027230
 ---------------------------------------------------------------------
                    Distance matrix (angstroms):
                    1          2          3          4          5
     1  C    0.000000
     2  C    1.389600   0.000000
     3  H    1.064397   2.009293   0.000000
     4  H    1.084094   2.211415   1.901235   0.000000
     5  H    2.215989   1.083102   3.035424   2.681570   0.000000
     6  H    2.027074   1.087800   2.097856   3.053307   1.915995
                    6
     6  H    0.000000
 Stoichiometry    C2H4
 Framework group  CS[SG(C2H4)]
 Deg. of freedom     9
 Full point group                 CS      NOp   2
 Largest Abelian subgroup         CS      NOp   2
 Largest concise Abelian subgroup C1      NOp   1
                         Standard orientation:                         
 ---------------------------------------------------------------------
 Center     Atomic      Atomic             Coordinates (Angstroms)
 Number     Number       Type             X           Y           Z
 ---------------------------------------------------------------------
      1          6           0        0.018275   -0.695785    0.000000
      2          6           0        0.018275    0.693815   -0.000000
      3          1           0       -0.986855   -1.046005    0.000000
      4          1           0        0.891865   -1.337735    0.000000
      5          1           0        0.884645    1.343825   -0.000000
      6          1           0       -1.008955    1.051735   -0.000000
 ---------------------------------------------------------------------
 Rotational constants (GHZ):         140.2244692          28.9996799          24.0300498
 Standard basis: 6-31G(d) (6D, 7F)
 There are    30 symmetry adapted cartesian basis functions of A'  symmetry.
 There are     8 symmetry adapted cartesian basis functions of A"  symmetry.
 There are    30 symmetry adapted basis functions of A'  symmetry.
 There are     8 symmetry adapted basis functions of A"  symmetry.
    38 basis functions,    72 primitive gaussians,    38 cartesian basis functions
     8 alpha electrons        8 beta electrons
       nuclear repulsion energy        32.8380740791 Hartrees.
 NAtoms=    6 NActive=    6 NUniq=    6 SFac= 1.00D+00 NAtFMM=   60 NAOKFM=F Big=F
 Integral buffers will be    131072 words long.
 Raffenetti 2 integral format.
 Two-electron integral symmetry is turned on.
 One-electron integrals computed using PRISM.
 NBasis=    38 RedAO= T EigKep=  7.32D-03  NBF=    30     8
 NBsUse=    38 1.00D-06 EigRej= -1.00D+00 NBFU=    30     8
 ExpMin= 1.61D-01 ExpMax= 3.05D+03 ExpMxC= 4.57D+02 IAcc=3 IRadAn=         5 AccDes= 0.00D+00
 Harris functional with IExCor= 1009 and IRadAn=       5 diagonalized for initial guess.
 HarFok:  IExCor= 1009 AccDes= 0.00D+00 IRadAn=         5 IDoV= 1 UseB2=F ITyADJ=14
 ICtDFT=  3500011 ScaDFX=  1.000000  1.000000  1.000000  1.000000
 FoFCou: FMM=F IPFlag=           0 FMFlag=      100000 FMFlg1=           0
         NFxFlg=           0 DoJE=T BraDBF=F KetDBF=T FulRan=T
         wScrn=  0.000000 ICntrl=       500 IOpCl=  0 I1Cent=   200000004 NGrid=           0
         NMat0=    1 NMatS0=      1 NMatT0=    0 NMatD0=    1 NMtDS0=    0 NMtDT0=    0
 Petite list used in FoFCou.
 Initial guess orbital symmetries:
       Occupied  (A') (A') (A') (A') (A') (A') (A') (A")
       Virtual   (A") (A') (A') (A') (A') (A') (A') (A") (A') (A')
                 (A") (A') (A') (A') (A') (A') (A') (A') (A") (A")
                 (A") (A') (A') (A') (A") (A') (A') (A') (A') (A')
 The electronic state of the initial guess is 1-A'.
 Keep R1 ints in memory in symmetry-blocked form, NReq=3732011.
 Requested convergence on RMS density matrix=1.00D-08 within 128 cycles.
 Requested convergence on MAX density matrix=1.00D-06.
 Requested convergence on             energy=1.00D-06.
 No special actions if energy rises.
 Integral accuracy reduced to 1.0D-05 until final iterations.
 Initial convergence to 1.0D-05 achieved.  Increase integral accuracy.
 SCF Done:  E(RM062X) =  -78.5251170422     A.U. after   12 cycles
            NFock= 12  Conv=0.18D-08     -V/T= 2.0105

 **********************************************************************

            Population analysis using the SCF density.

 **********************************************************************

 Orbital symmetries:
       Occupied  (A') (A') (A') (A') (A') (A') (A') (A")
       Virtual   (A") (A') (A') (A') (A') (A') (A') (A") (A') (A")
                 (A') (A') (A') (A') (A') (A') (A') (A') (A") (A")
                 (A") (A') (A') (A') (A") (A') (A') (A') (A') (A')
 The electronic state is 1-A'.
 Alpha  occ. eigenvalues --  -10.54896 -10.54669  -0.84293  -0.65559  -0.54473
 Alpha  occ. eigenvalues --   -0.45413  -0.42506  -0.31408
 Alpha virt. eigenvalues --    0.05107   0.15695   0.19932   0.21123   0.29602
 Alpha virt. eigenvalues --    0.34654   0.53684   0.61256   0.62503   0.69363
 Alpha virt. eigenvalues --    0.71631   0.72038   0.92832   0.95051   0.98101
 Alpha virt. eigenvalues --    1.00048   1.12667   1.31374   1.50337   1.61118
 Alpha virt. eigenvalues --    1.86046   1.97404   1.98851   2.14634   2.35990
 Alpha virt. eigenvalues --    2.37357   2.59361   2.70388   4.10588   4.29680
          Condensed to atoms (all electrons):
               1          2          3          4          5          6
     1  C    4.994437   0.643898   0.388808   0.382564  -0.033427  -0.045325
     2  C    0.643898   5.000157  -0.045004  -0.033566   0.382390   0.386229
     3  H    0.388808  -0.045004   0.533469  -0.030532   0.004512  -0.012928
     4  H    0.382564  -0.033566  -0.030532   0.508317  -0.003613   0.004447
     5  H   -0.033427   0.382390   0.004512  -0.003613   0.507779  -0.030282
     6  H   -0.045325   0.386229  -0.012928   0.004447  -0.030282   0.539500
 Mulliken charges:
               1
     1  C   -0.330955
     2  C   -0.334103
     3  H    0.161674
     4  H    0.172383
     5  H    0.172641
     6  H    0.158359
 Sum of Mulliken charges =  -0.00000
 Mulliken charges with hydrogens summed into heavy atoms:
               1
     1  C    0.003102
     2  C   -0.003102
 Electronic spatial extent (au):  <R**2>=             83.4624
 Charge=             -0.0000 electrons
 Dipole moment (field-independent basis, Debye):
    X=             -0.0268    Y=             -0.0027    Z=              0.0000  Tot=              0.0270
 Quadrupole moment (field-independent basis, Debye-Ang):
   XX=            -11.8330   YY=            -12.2679   ZZ=            -15.3301
   XY=              0.0120   XZ=             -0.0000   YZ=             -0.0000
 Traceless Quadrupole moment (field-independent basis, Debye-Ang):
   XX=              1.3106   YY=              0.8758   ZZ=             -2.1864
   XY=              0.0120   XZ=             -0.0000   YZ=             -0.0000
 Octapole moment (field-independent basis, Debye-Ang**2):
  XXX=             -0.4925  YYY=             -0.0350  ZZZ=              0.0000  XYY=              1.2444
  XXY=             -0.0141  XXZ=              0.0000  XZZ=             -0.0406  YZZ=             -0.0242
  YYZ=             -0.0000  XYZ=             -0.0000
 Hexadecapole moment (field-independent basis, Debye-Ang**3):
 XXXX=            -25.6547 YYYY=            -68.4085 ZZZZ=            -16.2100 XXXY=              0.0883
 XXXZ=             -0.0000 YYYX=              0.1816 YYYZ=              0.0000 ZZZX=             -0.0000
 ZZZY=              0.0000 XXYY=            -13.3179 XXZZ=             -7.6817 YYZZ=            -14.9728
 XXYZ=              0.0000 YYXZ=             -0.0000 ZZXY=              0.0576
 N-N= 3.283807407908D+01 E-N=-2.469288804359D+02  KE= 7.770596030365D+01
 Symmetry A'   KE= 7.568067281938D+01
 Symmetry A"   KE= 2.025287484273D+00
 1\1\GINC-NODE62\SP\RM062X\6-31G(d)\C2H4\YANZ\22-Sep-2023\0\\#m062x/6-3
 1g(d) scf=tight\\tmpdir/M2_conf_0_2.gjf\\0,1\C,0,0.,0.,0.\C,0,1.3896,0
 .,0.\H,0,-0.35022,0.,-1.00513\H,0,-0.64195,0.,0.87359\H,0,2.03961,0.,0
 .86637\H,0,1.74752,0.,-1.02723\\Version=ES64L-G16RevA.03\State=1-A'\HF
 =-78.525117\RMSD=1.766e-09\Dipole=-0.0010743,0.,-0.0105538\Quadrupole=
 0.6511299,-1.6255536,0.9744237,0.,0.0088927,0.\PG=CS [SG(C2H4)]\\@


 EDUCATION IS NOT TRAINING BUT RATHER THE PROCESS THAT EQUIPS YOU TO
 ENTERTAIN YOURSELF, A FRIEND, OR AN IDEA.  -- WALLACE STERLING
 Job cpu time:       0 days  0 hours  0 minutes  8.1 seconds.
 Elapsed time:       0 days  0 hours  0 minutes  2.2 seconds.
 File lengths (MBytes):  RWF=      6 Int=      0 D2E=      0 Chk=      1 Scr=      1
 Normal termination of Gaussian 16 at Fri Sep 22 17:02:04 2023.
