 Entering Gaussian System, Link 0=g16
 Initial command:
 /share/apps/gaussian/g16/l1.exe "/tmp/55613.mgr/Gau-180515.inp" -scrdir="/tmp/55613.mgr/"
 Entering Link 1 = /share/apps/gaussian/g16/l1.exe PID=    180516.
  
 Copyright (c) 1988,1990,1992,1993,1995,1998,2003,2009,2016,
            Gaussian, Inc.  All Rights Reserved.
  
 This is part of the Gaussian(R) 16 program.  It is based on
 the Gaussian(R) 09 system (copyright 2009, Gaussian, Inc.),
 the Gaussian(R) 03 system (copyright 2003, Gaussian, Inc.),
 the Gaussian(R) 98 system (copyright 1998, Gaussian, Inc.),
 the Gaussian(R) 94 system (copyright 1995, Gaussian, Inc.),
 the Gaussian 92(TM) system (copyright 1992, Gaussian, Inc.),
 the Gaussian 90(TM) system (copyright 1990, Gaussian, Inc.),
 the Gaussian 88(TM) system (copyright 1988, Gaussian, Inc.),
 the Gaussian 86(TM) system (copyright 1986, Carnegie Mellon
 University), and the Gaussian 82(TM) system (copyright 1983,
 Carnegie Mellon University). Gaussian is a federally registered
 trademark of Gaussian, Inc.
  
 This software contains proprietary and confidential information,
 including trade secrets, belonging to Gaussian, Inc.
  
 This software is provided under written license and may be
 used, copied, transmitted, or stored only in accord with that
 written license.
  
 The following legend is applicable only to US Government
 contracts under FAR:
  
                    RESTRICTED RIGHTS LEGEND
  
 Use, reproduction and disclosure by the US Government is
 subject to restrictions as set forth in subparagraphs (a)
 and (c) of the Commercial Computer Software - Restricted
 Rights clause in FAR 52.227-19.
  
 Gaussian, Inc.
 340 Quinnipiac St., Bldg. 40, Wallingford CT 06492
  
  
 ---------------------------------------------------------------
 Warning -- This program may not be used in any manner that
 competes with the business of Gaussian, Inc. or will provide
 assistance to any competitor of Gaussian, Inc.  The licensee
 of this program is prohibited from giving any competitor of
 Gaussian, Inc. access to this program.  By using this program,
 the user acknowledges that Gaussian, Inc. is engaged in the
 business of creating and licensing software in the field of
 computational chemistry and represents and warrants to the
 licensee that it is not a competitor of Gaussian, Inc. and that
 it will not use this program in any manner prohibited above.
 ---------------------------------------------------------------
  

 Cite this work as:
 Gaussian 16, Revision A.03,
 M. J. Frisch, G. W. Trucks, H. B. Schlegel, G. E. Scuseria, 
 M. A. Robb, J. R. Cheeseman, G. Scalmani, V. Barone, 
 G. A. Petersson, H. Nakatsuji, X. Li, M. Caricato, A. V. Marenich, 
 J. Bloino, B. G. Janesko, R. Gomperts, B. Mennucci, H. P. Hratchian, 
 J. V. Ortiz, A. F. Izmaylov, J. L. Sonnenberg, D. Williams-Young, 
 F. Ding, F. Lipparini, F. Egidi, J. Goings, B. Peng, A. Petrone, 
 T. Henderson, D. Ranasinghe, V. G. Zakrzewski, J. Gao, N. Rega, 
 G. Zheng, W. Liang, M. Hada, M. Ehara, K. Toyota, R. Fukuda, 
 J. Hasegawa, M. Ishida, T. Nakajima, Y. Honda, O. Kitao, H. Nakai, 
 T. Vreven, K. Throssell, J. A. Montgomery, Jr., J. E. Peralta, 
 F. Ogliaro, M. J. Bearpark, J. J. Heyd, E. N. Brothers, K. N. Kudin, 
 V. N. Staroverov, T. A. Keith, R. Kobayashi, J. Normand, 
 K. Raghavachari, A. P. Rendell, J. C. Burant, S. S. Iyengar, 
 J. Tomasi, M. Cossi, J. M. Millam, M. Klene, C. Adamo, R. Cammi, 
 J. W. Ochterski, R. L. Martin, K. Morokuma, O. Farkas, 
 J. B. Foresman, and D. J. Fox, Gaussian, Inc., Wallingford CT, 2016.
 
 ******************************************
 Gaussian 16:  ES64L-G16RevA.03 25-Dec-2016
                22-Sep-2023 
 ******************************************
 %nprocshared=4
 Will use up to    4 processors via shared memory.
 %mem=4GB
 -------------------------
 #m062x/6-31g(d) scf=tight
 -------------------------
 1/38=1,172=1/1;
 2/12=2,17=6,18=5,40=1/2;
 3/5=1,6=6,7=1,11=2,25=1,30=1,74=-55/1,2,3;
 4//1;
 5/5=2,32=2,38=5/2;
 6/7=2,8=2,9=2,10=2,28=1/1;
 99/5=1,9=1/99;
 -----------------------
 tmpdir/M2_conf_0_17.gjf
 -----------------------
 Symbolic Z-matrix:
 Charge =  0 Multiplicity = 1
 C                     0.        0.        0. 
 C                     1.5364    0.        0. 
 C                     1.93366   0.        1.48053 
 H                    -0.26618  -0.00019   1.0605 
 H                    -0.42156  -0.87735  -0.50287 
 H                    -0.42156   0.87744  -0.50272 
 H                     1.9664    0.87984  -0.4861 
 H                     1.9664   -0.87984  -0.4861 
 H                     1.0242   -0.00018   2.05369 
 O                     3.06373   0.        1.90822 
 
                          Input orientation:                          
 ---------------------------------------------------------------------
 Center     Atomic      Atomic             Coordinates (Angstroms)
 Number     Number       Type             X           Y           Z
 ---------------------------------------------------------------------
      1          6           0        0.000000    0.000000    0.000000
      2          6           0        1.536400    0.000000    0.000000
      3          6           0        1.933660    0.000000    1.480530
      4          1           0       -0.266180   -0.000190    1.060500
      5          1           0       -0.421560   -0.877350   -0.502870
      6          1           0       -0.421560    0.877440   -0.502720
      7          1           0        1.966400    0.879840   -0.486100
      8          1           0        1.966400   -0.879840   -0.486100
      9          1           0        1.024200   -0.000180    2.053690
     10          8           0        3.063730    0.000000    1.908220
 ---------------------------------------------------------------------
                    Distance matrix (angstroms):
                    1          2          3          4          5
     1  C    0.000000
     2  C    1.536400   0.000000
     3  C    2.435367   1.532901   0.000000
     4  H    1.093395   2.091400   2.239581   0.000000
     5  H    1.095598   2.203685   3.201668   1.799355   0.000000
     6  H    1.095601   2.203687   3.201600   1.799454   1.754790
     7  H    2.208425   1.093303   2.154721   2.854967   2.964853
     8  H    2.208425   1.093303   2.154721   2.854850   2.388020
     9  H    2.294914   2.116599   1.075002   1.628345   3.065232
    10  O    3.609397   2.444185   1.208295   3.436121   4.327857
                    6          7          8          9         10
     6  H    0.000000
     7  H    2.388019   0.000000
     8  H    2.964905   1.759680   0.000000
     9  H    3.065236   2.848282   2.848171   0.000000
    10  O    4.327791   2.776872   2.776872   2.044711   0.000000
 Stoichiometry    C3H6O
 Framework group  C1[X(C3H6O)]
 Deg. of freedom    24
 Full point group                 C1      NOp   1
 Largest Abelian subgroup         C1      NOp   1
 Largest concise Abelian subgroup C1      NOp   1
                         Standard orientation:                         
 ---------------------------------------------------------------------
 Center     Atomic      Atomic             Coordinates (Angstroms)
 Number     Number       Type             X           Y           Z
 ---------------------------------------------------------------------
      1          6           0       -1.708168   -0.261363    0.000024
      2          6           0       -0.463772    0.639750   -0.000024
      3          6           0        0.726330   -0.326398    0.000025
      4          1           0       -1.301765   -1.276424   -0.000115
      5          1           0       -2.344546   -0.101360   -0.877334
      6          1           0       -2.344456   -0.101392    0.877456
      7          1           0       -0.400597    1.285707    0.879783
      8          1           0       -0.400599    1.285617   -0.879897
      9          1           0        0.325883   -1.324031   -0.000104
     10          8           0        1.892466   -0.010006    0.000008
 ---------------------------------------------------------------------
 Rotational constants (GHZ):          29.9419525           4.3254675           3.9639887
 Standard basis: 6-31G(d) (6D, 7F)
 There are    72 symmetry adapted cartesian basis functions of A   symmetry.
 There are    72 symmetry adapted basis functions of A   symmetry.
    72 basis functions,   136 primitive gaussians,    72 cartesian basis functions
    16 alpha electrons       16 beta electrons
       nuclear repulsion energy       116.7803543565 Hartrees.
 NAtoms=   10 NActive=   10 NUniq=   10 SFac= 1.00D+00 NAtFMM=   60 NAOKFM=F Big=F
 Integral buffers will be    131072 words long.
 Raffenetti 2 integral format.
 Two-electron integral symmetry is turned on.
 One-electron integrals computed using PRISM.
 NBasis=    72 RedAO= T EigKep=  4.43D-03  NBF=    72
 NBsUse=    72 1.00D-06 EigRej= -1.00D+00 NBFU=    72
 ExpMin= 1.61D-01 ExpMax= 5.48D+03 ExpMxC= 8.25D+02 IAcc=3 IRadAn=         5 AccDes= 0.00D+00
 Harris functional with IExCor= 1009 and IRadAn=       5 diagonalized for initial guess.
 HarFok:  IExCor= 1009 AccDes= 0.00D+00 IRadAn=         5 IDoV= 1 UseB2=F ITyADJ=14
 ICtDFT=  3500011 ScaDFX=  1.000000  1.000000  1.000000  1.000000
 FoFCou: FMM=F IPFlag=           0 FMFlag=      100000 FMFlg1=           0
         NFxFlg=           0 DoJE=T BraDBF=F KetDBF=T FulRan=T
         wScrn=  0.000000 ICntrl=       500 IOpCl=  0 I1Cent=   200000004 NGrid=           0
         NMat0=    1 NMatS0=      1 NMatT0=    0 NMatD0=    1 NMtDS0=    0 NMtDT0=    0
 Petite list used in FoFCou.
 Keep R1 ints in memory in canonical form, NReq=7043300.
 Requested convergence on RMS density matrix=1.00D-08 within 128 cycles.
 Requested convergence on MAX density matrix=1.00D-06.
 Requested convergence on             energy=1.00D-06.
 No special actions if energy rises.
 Integral accuracy reduced to 1.0D-05 until final iterations.
 Initial convergence to 1.0D-05 achieved.  Increase integral accuracy.
 SCF Done:  E(RM062X) =  -193.029120839     A.U. after   14 cycles
            NFock= 14  Conv=0.47D-08     -V/T= 2.0081

 **********************************************************************

            Population analysis using the SCF density.

 **********************************************************************

 Orbital symmetries:
       Occupied  (A) (A) (A) (A) (A) (A) (A) (A) (A) (A) (A) (A)
                 (A) (A) (A) (A)
       Virtual   (A) (A) (A) (A) (A) (A) (A) (A) (A) (A) (A) (A)
                 (A) (A) (A) (A) (A) (A) (A) (A) (A) (A) (A) (A)
                 (A) (A) (A) (A) (A) (A) (A) (A) (A) (A) (A) (A)
                 (A) (A) (A) (A) (A) (A) (A) (A) (A) (A) (A) (A)
                 (A) (A) (A) (A) (A) (A) (A) (A)
 The electronic state is 1-A.
 Alpha  occ. eigenvalues --  -19.64672 -10.63761 -10.55558 -10.54799  -1.16946
 Alpha  occ. eigenvalues --   -0.89240  -0.73985  -0.68041  -0.54159  -0.53623
 Alpha  occ. eigenvalues --   -0.52275  -0.45841  -0.45039  -0.43691  -0.40911
 Alpha  occ. eigenvalues --   -0.32444
 Alpha virt. eigenvalues --    0.02025   0.14561   0.15292   0.17584   0.20015
 Alpha virt. eigenvalues --    0.22744   0.26654   0.28436   0.32322   0.38684
 Alpha virt. eigenvalues --    0.53782   0.57842   0.60481   0.65504   0.68144
 Alpha virt. eigenvalues --    0.70162   0.75795   0.78770   0.79051   0.85278
 Alpha virt. eigenvalues --    0.91114   0.92171   0.93591   0.95937   0.99831
 Alpha virt. eigenvalues --    1.01488   1.02250   1.08000   1.14226   1.16627
 Alpha virt. eigenvalues --    1.42038   1.47746   1.57194   1.57641   1.74749
 Alpha virt. eigenvalues --    1.80694   1.82913   1.86229   1.98214   1.99922
 Alpha virt. eigenvalues --    2.06812   2.13626   2.14586   2.22469   2.30679
 Alpha virt. eigenvalues --    2.42270   2.43652   2.56425   2.60285   2.65845
 Alpha virt. eigenvalues --    2.94795   3.02158   3.90499   4.12556   4.28378
 Alpha virt. eigenvalues --    4.50223
          Condensed to atoms (all electrons):
               1          2          3          4          5          6
     1  C    5.169455   0.289606  -0.039264   0.392117   0.383355   0.383359
     2  C    0.289606   5.378603   0.314550  -0.065492  -0.027163  -0.027165
     3  C   -0.039264   0.314550   4.613467  -0.017047   0.001473   0.001472
     4  H    0.392117  -0.065492  -0.017047   0.549570  -0.023637  -0.023626
     5  H    0.383355  -0.027163   0.001473  -0.023637   0.518129  -0.026551
     6  H    0.383359  -0.027165   0.001472  -0.023626  -0.026551   0.518111
     7  H   -0.030845   0.372525  -0.023209   0.003281   0.002760  -0.006920
     8  H   -0.030848   0.372533  -0.023210   0.003281  -0.006920   0.002760
     9  H   -0.003909  -0.150012   0.368337   0.017074   0.000163   0.000163
    10  O    0.004068  -0.074430   0.555530   0.000691  -0.000073  -0.000073
               7          8          9         10
     1  C   -0.030845  -0.030848  -0.003909   0.004068
     2  C    0.372525   0.372533  -0.150012  -0.074430
     3  C   -0.023209  -0.023210   0.368337   0.555530
     4  H    0.003281   0.003281   0.017074   0.000691
     5  H    0.002760  -0.006920   0.000163  -0.000073
     6  H   -0.006920   0.002760   0.000163  -0.000073
     7  H    0.496274  -0.019662   0.004856  -0.000425
     8  H   -0.019662   0.496268   0.004855  -0.000427
     9  H    0.004856   0.004855   0.676827  -0.045905
    10  O   -0.000425  -0.000427  -0.045905   7.959308
 Mulliken charges:
               1
     1  C   -0.517093
     2  C   -0.383554
     3  C    0.247902
     4  H    0.163788
     5  H    0.178465
     6  H    0.178470
     7  H    0.201365
     8  H    0.201370
     9  H    0.127552
    10  O   -0.398264
 Sum of Mulliken charges =  -0.00000
 Mulliken charges with hydrogens summed into heavy atoms:
               1
     1  C    0.003630
     2  C    0.019180
     3  C    0.375454
    10  O   -0.398264
 Electronic spatial extent (au):  <R**2>=            333.7752
 Charge=              0.0000 electrons
 Dipole moment (field-independent basis, Debye):
    X=             -2.6228    Y=             -0.1294    Z=             -0.0001  Tot=              2.6260
 Quadrupole moment (field-independent basis, Debye-Ang):
   XX=            -30.7454   YY=            -24.2648   ZZ=            -23.9305
   XY=             -0.6069   XZ=             -0.0000   YZ=              0.0001
 Traceless Quadrupole moment (field-independent basis, Debye-Ang):
   XX=             -4.4318   YY=              2.0488   ZZ=              2.3830
   XY=             -0.6069   XZ=             -0.0000   YZ=              0.0001
 Octapole moment (field-independent basis, Debye-Ang**2):
  XXX=             -6.2615  YYY=              0.3464  ZZZ=              0.0000  XYY=              2.6710
  XXY=              0.7942  XXZ=              0.0001  XZZ=              1.8390  YZZ=              1.3332
  YYZ=             -0.0003  XYZ=             -0.0002
 Hexadecapole moment (field-independent basis, Debye-Ang**3):
 XXXX=           -332.9220 YYYY=            -70.4456 ZZZZ=            -34.8282 XXXY=             -1.4165
 XXXZ=             -0.0006 YYYX=             -0.8905 YYYZ=              0.0005 ZZZX=             -0.0003
 ZZZY=             -0.0002 XXYY=            -67.0016 XXZZ=            -54.3465 YYZZ=            -16.8301
 XXYZ=              0.0002 YYXZ=              0.0002 ZZXY=             -0.9934
 N-N= 1.167803543565D+02 E-N=-6.832675313044D+02  KE= 1.914727216561D+02
 1\1\GINC-NODE62\SP\RM062X\6-31G(d)\C3H6O1\YANZ\22-Sep-2023\0\\#m062x/6
 -31g(d) scf=tight\\tmpdir/M2_conf_0_17.gjf\\0,1\C,0,0.,0.,0.\C,0,1.536
 4,0.,0.\C,0,1.93366,0.,1.48053\H,0,-0.26618,-0.00019,1.0605\H,0,-0.421
 56,-0.87735,-0.50287\H,0,-0.42156,0.87744,-0.50272\H,0,1.9664,0.87984,
 -0.4861\H,0,1.9664,-0.87984,-0.4861\H,0,1.0242,-0.00018,2.05369\O,0,3.
 06373,0.,1.90822\\Version=ES64L-G16RevA.03\State=1-A\HF=-193.0291208\R
 MSD=4.655e-09\Dipole=-0.8656281,-0.0000288,-0.5639898\Quadrupole=-2.06
 62273,1.771727,0.2945003,-0.0000096,-2.1480497,-0.0000871\PG=C01 [X(C3
 H6O1)]\\@



 WE LOSE BECAUSE WE WIN

 GAMBLERS,

 RECOLLECTING WHICH,

 TOSS THEIR DICE AGAIN....


                          EMILY DICKINSON  BOLTS OF MELODY NO. 533
 Job cpu time:       0 days  0 hours  0 minutes 40.4 seconds.
 Elapsed time:       0 days  0 hours  0 minutes 10.4 seconds.
 File lengths (MBytes):  RWF=      6 Int=      0 D2E=      0 Chk=      1 Scr=      1
 Normal termination of Gaussian 16 at Fri Sep 22 17:02:17 2023.
