 Entering Gaussian System, Link 0=g16
 Initial command:
 /share/apps/gaussian/g16/l1.exe "/tmp/55613.mgr/Gau-181145.inp" -scrdir="/tmp/55613.mgr/"
 Entering Link 1 = /share/apps/gaussian/g16/l1.exe PID=    181146.
  
 Copyright (c) 1988,1990,1992,1993,1995,1998,2003,2009,2016,
            Gaussian, Inc.  All Rights Reserved.
  
 This is part of the Gaussian(R) 16 program.  It is based on
 the Gaussian(R) 09 system (copyright 2009, Gaussian, Inc.),
 the Gaussian(R) 03 system (copyright 2003, Gaussian, Inc.),
 the Gaussian(R) 98 system (copyright 1998, Gaussian, Inc.),
 the Gaussian(R) 94 system (copyright 1995, Gaussian, Inc.),
 the Gaussian 92(TM) system (copyright 1992, Gaussian, Inc.),
 the Gaussian 90(TM) system (copyright 1990, Gaussian, Inc.),
 the Gaussian 88(TM) system (copyright 1988, Gaussian, Inc.),
 the Gaussian 86(TM) system (copyright 1986, Carnegie Mellon
 University), and the Gaussian 82(TM) system (copyright 1983,
 Carnegie Mellon University). Gaussian is a federally registered
 trademark of Gaussian, Inc.
  
 This software contains proprietary and confidential information,
 including trade secrets, belonging to Gaussian, Inc.
  
 This software is provided under written license and may be
 used, copied, transmitted, or stored only in accord with that
 written license.
  
 The following legend is applicable only to US Government
 contracts under FAR:
  
                    RESTRICTED RIGHTS LEGEND
  
 Use, reproduction and disclosure by the US Government is
 subject to restrictions as set forth in subparagraphs (a)
 and (c) of the Commercial Computer Software - Restricted
 Rights clause in FAR 52.227-19.
  
 Gaussian, Inc.
 340 Quinnipiac St., Bldg. 40, Wallingford CT 06492
  
  
 ---------------------------------------------------------------
 Warning -- This program may not be used in any manner that
 competes with the business of Gaussian, Inc. or will provide
 assistance to any competitor of Gaussian, Inc.  The licensee
 of this program is prohibited from giving any competitor of
 Gaussian, Inc. access to this program.  By using this program,
 the user acknowledges that Gaussian, Inc. is engaged in the
 business of creating and licensing software in the field of
 computational chemistry and represents and warrants to the
 licensee that it is not a competitor of Gaussian, Inc. and that
 it will not use this program in any manner prohibited above.
 ---------------------------------------------------------------
  

 Cite this work as:
 Gaussian 16, Revision A.03,
 M. J. Frisch, G. W. Trucks, H. B. Schlegel, G. E. Scuseria, 
 M. A. Robb, J. R. Cheeseman, G. Scalmani, V. Barone, 
 G. A. Petersson, H. Nakatsuji, X. Li, M. Caricato, A. V. Marenich, 
 J. Bloino, B. G. Janesko, R. Gomperts, B. Mennucci, H. P. Hratchian, 
 J. V. Ortiz, A. F. Izmaylov, J. L. Sonnenberg, D. Williams-Young, 
 F. Ding, F. Lipparini, F. Egidi, J. Goings, B. Peng, A. Petrone, 
 T. Henderson, D. Ranasinghe, V. G. Zakrzewski, J. Gao, N. Rega, 
 G. Zheng, W. Liang, M. Hada, M. Ehara, K. Toyota, R. Fukuda, 
 J. Hasegawa, M. Ishida, T. Nakajima, Y. Honda, O. Kitao, H. Nakai, 
 T. Vreven, K. Throssell, J. A. Montgomery, Jr., J. E. Peralta, 
 F. Ogliaro, M. J. Bearpark, J. J. Heyd, E. N. Brothers, K. N. Kudin, 
 V. N. Staroverov, T. A. Keith, R. Kobayashi, J. Normand, 
 K. Raghavachari, A. P. Rendell, J. C. Burant, S. S. Iyengar, 
 J. Tomasi, M. Cossi, J. M. Millam, M. Klene, C. Adamo, R. Cammi, 
 J. W. Ochterski, R. L. Martin, K. Morokuma, O. Farkas, 
 J. B. Foresman, and D. J. Fox, Gaussian, Inc., Wallingford CT, 2016.
 
 ******************************************
 Gaussian 16:  ES64L-G16RevA.03 25-Dec-2016
                22-Sep-2023 
 ******************************************
 %nprocshared=4
 Will use up to    4 processors via shared memory.
 %mem=4GB
 -------------------------
 #m062x/6-31g(d) scf=tight
 -------------------------
 1/38=1,172=1/1;
 2/12=2,17=6,18=5,40=1/2;
 3/5=1,6=6,7=1,11=2,25=1,30=1,74=-55/1,2,3;
 4//1;
 5/5=2,32=2,38=5/2;
 6/7=2,8=2,9=2,10=2,28=1/1;
 99/5=1,9=1/99;
 -----------------------
 tmpdir/M2_conf_0_26.gjf
 -----------------------
 Symbolic Z-matrix:
 Charge =  0 Multiplicity = 1
 C                     0.        0.        0. 
 C                     1.5364    0.        0. 
 H                     1.92062   0.        1.02602 
 H                    -0.43      0.01561   1.00507 
 H                    -0.43     -0.85917  -0.52177 
 H                    -0.29447   0.92825  -0.53183 
 H                     1.80258   0.92009  -0.52736 
 H                     1.95796  -0.87257  -0.51112 
 
                          Input orientation:                          
 ---------------------------------------------------------------------
 Center     Atomic      Atomic             Coordinates (Angstroms)
 Number     Number       Type             X           Y           Z
 ---------------------------------------------------------------------
      1          6           0        0.000000    0.000000    0.000000
      2          6           0        1.536400    0.000000    0.000000
      3          1           0        1.920620    0.000000    1.026020
      4          1           0       -0.430000    0.015610    1.005070
      5          1           0       -0.430000   -0.859170   -0.521770
      6          1           0       -0.294470    0.928250   -0.531830
      7          1           0        1.802580    0.920090   -0.527360
      8          1           0        1.957960   -0.872570   -0.511120
 ---------------------------------------------------------------------
                    Distance matrix (angstroms):
                    1          2          3          4          5
     1  C    0.000000
     2  C    1.536400   0.000000
     3  H    2.177498   1.095601   0.000000
     4  H    1.093302   2.208424   2.350765   0.000000
     5  H    1.093306   2.208426   2.942659   1.759682   0.000000
     6  H    1.109596   2.120513   2.862720   1.792580   1.792579
     7  H    2.091404   1.093401   1.809278   2.854967   2.854857
     8  H    2.203685   1.095598   1.767929   2.964802   2.388021
                    6          7          8
     6  H    0.000000
     7  H    2.097071   0.000000
     8  H    2.883890   1.799455   0.000000
 Stoichiometry    C2H6
 Framework group  C1[X(C2H6)]
 Deg. of freedom    18
 Full point group                 C1      NOp   1
 Largest Abelian subgroup         C1      NOp   1
 Largest concise Abelian subgroup C1      NOp   1
                         Standard orientation:                         
 ---------------------------------------------------------------------
 Center     Atomic      Atomic             Coordinates (Angstroms)
 Number     Number       Type             X           Y           Z
 ---------------------------------------------------------------------
      1          6           0        0.763562   -0.011812    0.002954
      2          6           0       -0.772816   -0.004061   -0.000089
      3          1           0       -1.158337   -0.591088   -0.840989
      4          1           0        1.192357   -0.578139   -0.828139
      5          1           0        1.189694   -0.417974    0.924236
      6          1           0        1.063595    1.052058   -0.093824
      7          1           0       -1.033473    1.053390   -0.096953
      8          1           0       -1.198315   -0.423012    0.918478
 ---------------------------------------------------------------------
 Rotational constants (GHZ):          78.7905872          20.0770553          19.9603408
 Standard basis: 6-31G(d) (6D, 7F)
 There are    42 symmetry adapted cartesian basis functions of A   symmetry.
 There are    42 symmetry adapted basis functions of A   symmetry.
    42 basis functions,    80 primitive gaussians,    42 cartesian basis functions
     9 alpha electrons        9 beta electrons
       nuclear repulsion energy        42.1321081541 Hartrees.
 NAtoms=    8 NActive=    8 NUniq=    8 SFac= 1.00D+00 NAtFMM=   60 NAOKFM=F Big=F
 Integral buffers will be    131072 words long.
 Raffenetti 2 integral format.
 Two-electron integral symmetry is turned on.
 One-electron integrals computed using PRISM.
 NBasis=    42 RedAO= T EigKep=  7.94D-03  NBF=    42
 NBsUse=    42 1.00D-06 EigRej= -1.00D+00 NBFU=    42
 ExpMin= 1.61D-01 ExpMax= 3.05D+03 ExpMxC= 4.57D+02 IAcc=3 IRadAn=         5 AccDes= 0.00D+00
 Harris functional with IExCor= 1009 and IRadAn=       5 diagonalized for initial guess.
 HarFok:  IExCor= 1009 AccDes= 0.00D+00 IRadAn=         5 IDoV= 1 UseB2=F ITyADJ=14
 ICtDFT=  3500011 ScaDFX=  1.000000  1.000000  1.000000  1.000000
 FoFCou: FMM=F IPFlag=           0 FMFlag=      100000 FMFlg1=           0
         NFxFlg=           0 DoJE=T BraDBF=F KetDBF=T FulRan=T
         wScrn=  0.000000 ICntrl=       500 IOpCl=  0 I1Cent=   200000004 NGrid=           0
         NMat0=    1 NMatS0=      1 NMatT0=    0 NMatD0=    1 NMtDS0=    0 NMtDT0=    0
 Petite list used in FoFCou.
 Keep R1 ints in memory in canonical form, NReq=3864510.
 Requested convergence on RMS density matrix=1.00D-08 within 128 cycles.
 Requested convergence on MAX density matrix=1.00D-06.
 Requested convergence on             energy=1.00D-06.
 No special actions if energy rises.
 Integral accuracy reduced to 1.0D-05 until final iterations.
 Initial convergence to 1.0D-05 achieved.  Increase integral accuracy.
 SCF Done:  E(RM062X) =  -79.7637196867     A.U. after   11 cycles
            NFock= 11  Conv=0.78D-08     -V/T= 2.0095

 **********************************************************************

            Population analysis using the SCF density.

 **********************************************************************

 Orbital symmetries:
       Occupied  (A) (A) (A) (A) (A) (A) (A) (A) (A)
       Virtual   (A) (A) (A) (A) (A) (A) (A) (A) (A) (A) (A) (A)
                 (A) (A) (A) (A) (A) (A) (A) (A) (A) (A) (A) (A)
                 (A) (A) (A) (A) (A) (A) (A) (A) (A)
 The electronic state is 1-A.
 Alpha  occ. eigenvalues --  -10.52910 -10.52875  -0.84373  -0.69186  -0.50755
 Alpha  occ. eigenvalues --   -0.49715  -0.41396  -0.39816  -0.39695
 Alpha virt. eigenvalues --    0.14512   0.17860   0.17979   0.20881   0.28126
 Alpha virt. eigenvalues --    0.28795   0.29491   0.56182   0.57900   0.59706
 Alpha virt. eigenvalues --    0.71206   0.73312   0.74470   0.92173   0.92417
 Alpha virt. eigenvalues --    0.97662   0.98630   0.99570   1.04964   1.07712
 Alpha virt. eigenvalues --    1.49588   1.53109   1.55400   1.97887   2.10704
 Alpha virt. eigenvalues --    2.16868   2.18114   2.20935   2.41440   2.47676
 Alpha virt. eigenvalues --    2.61950   4.16938   4.42124
          Condensed to atoms (all electrons):
               1          2          3          4          5          6
     1  C    5.102699   0.327601  -0.035708   0.389547   0.388436   0.393830
     2  C    0.327601   5.090322   0.389611  -0.032859  -0.032892  -0.044865
     3  H   -0.035708   0.389611   0.539750  -0.009126   0.002960   0.003293
     4  H    0.389547  -0.032859  -0.009126   0.540304  -0.029736  -0.027302
     5  H    0.388436  -0.032892   0.002960  -0.029736   0.540307  -0.026939
     6  H    0.393830  -0.044865   0.003293  -0.027302  -0.026939   0.557835
     7  H   -0.046101   0.396152  -0.024555   0.003240   0.003306  -0.014205
     8  H   -0.032857   0.389258  -0.029235   0.002773  -0.008596   0.003186
               7          8
     1  C   -0.046101  -0.032857
     2  C    0.396152   0.389258
     3  H   -0.024555  -0.029235
     4  H    0.003240   0.002773
     5  H    0.003306  -0.008596
     6  H   -0.014205   0.003186
     7  H    0.546459  -0.026030
     8  H   -0.026030   0.537947
 Mulliken charges:
               1
     1  C   -0.487446
     2  C   -0.482328
     3  H    0.163009
     4  H    0.163158
     5  H    0.163154
     6  H    0.155166
     7  H    0.161732
     8  H    0.163555
 Sum of Mulliken charges =  -0.00000
 Mulliken charges with hydrogens summed into heavy atoms:
               1
     1  C   -0.005968
     2  C    0.005968
 Electronic spatial extent (au):  <R**2>=            109.3031
 Charge=             -0.0000 electrons
 Dipole moment (field-independent basis, Debye):
    X=              0.0034    Y=              0.0016    Z=             -0.0015  Tot=              0.0041
 Quadrupole moment (field-independent basis, Debye-Ang):
   XX=            -15.6327   YY=            -14.5523   ZZ=            -14.7175
   XY=              0.0078   XZ=             -0.0406   YZ=              0.0035
 Traceless Quadrupole moment (field-independent basis, Debye-Ang):
   XX=             -0.6652   YY=              0.4152   ZZ=              0.2500
   XY=              0.0078   XZ=             -0.0406   YZ=              0.0035
 Octapole moment (field-independent basis, Debye-Ang**2):
  XXX=              0.1450  YYY=              1.1906  ZZZ=              0.2794  XYY=             -0.0629
  XXY=             -0.6003  XXZ=              0.1246  XZZ=             -0.0127  YZZ=             -1.0608
  YYZ=             -0.3154  XYZ=              0.0028
 Hexadecapole moment (field-independent basis, Debye-Ang**3):
 XXXX=            -93.0959 YYYY=            -28.5019 ZZZZ=            -28.3175 XXXY=             -0.0247
 XXXZ=             -0.1803 YYYX=             -0.0278 YYYZ=             -0.0213 ZZZX=             -0.0372
 ZZZY=              0.0301 XXYY=            -19.4066 XXZZ=            -18.7928 YYZZ=             -9.5414
 XXYZ=              0.0284 YYXZ=             -0.0077 ZZXY=              0.0105
 N-N= 4.213210815409D+01 E-N=-2.680420981232D+02  KE= 7.901371743705D+01
 1\1\GINC-NODE62\SP\RM062X\6-31G(d)\C2H6\YANZ\22-Sep-2023\0\\#m062x/6-3
 1g(d) scf=tight\\tmpdir/M2_conf_0_26.gjf\\0,1\C,0,0.,0.,0.\C,0,1.5364,
 0.,0.\H,0,1.92062,0.,1.02602\H,0,-0.43,0.01561,1.00507\H,0,-0.43,-0.85
 917,-0.52177\H,0,-0.29447,0.92825,-0.53183\H,0,1.80258,0.92009,-0.5273
 6\H,0,1.95796,-0.87257,-0.51112\\Version=ES64L-G16RevA.03\State=1-A\HF
 =-79.7637197\RMSD=7.750e-09\Dipole=-0.0013381,0.0008582,0.0001343\Quad
 rupole=-0.4947181,0.2659926,0.2287255,-0.0179812,-0.022648,-0.0585373\
 PG=C01 [X(C2H6)]\\@


 THE MOLECULE ALSO HAS A BODY.  WHEN THIS BODY IS HIT, THE MOLECULE
 FEELS HURT ALL OVER -- A. KITAIGORODSKI
 Job cpu time:       0 days  0 hours  0 minutes 16.2 seconds.
 Elapsed time:       0 days  0 hours  0 minutes  4.3 seconds.
 File lengths (MBytes):  RWF=      6 Int=      0 D2E=      0 Chk=      1 Scr=      1
 Normal termination of Gaussian 16 at Fri Sep 22 17:02:27 2023.
