 Entering Gaussian System, Link 0=g16
 Initial command:
 /share/apps/gaussian/g16/l1.exe "/tmp/55613.mgr/Gau-179889.inp" -scrdir="/tmp/55613.mgr/"
 Entering Link 1 = /share/apps/gaussian/g16/l1.exe PID=    179892.
  
 Copyright (c) 1988,1990,1992,1993,1995,1998,2003,2009,2016,
            Gaussian, Inc.  All Rights Reserved.
  
 This is part of the Gaussian(R) 16 program.  It is based on
 the Gaussian(R) 09 system (copyright 2009, Gaussian, Inc.),
 the Gaussian(R) 03 system (copyright 2003, Gaussian, Inc.),
 the Gaussian(R) 98 system (copyright 1998, Gaussian, Inc.),
 the Gaussian(R) 94 system (copyright 1995, Gaussian, Inc.),
 the Gaussian 92(TM) system (copyright 1992, Gaussian, Inc.),
 the Gaussian 90(TM) system (copyright 1990, Gaussian, Inc.),
 the Gaussian 88(TM) system (copyright 1988, Gaussian, Inc.),
 the Gaussian 86(TM) system (copyright 1986, Carnegie Mellon
 University), and the Gaussian 82(TM) system (copyright 1983,
 Carnegie Mellon University). Gaussian is a federally registered
 trademark of Gaussian, Inc.
  
 This software contains proprietary and confidential information,
 including trade secrets, belonging to Gaussian, Inc.
  
 This software is provided under written license and may be
 used, copied, transmitted, or stored only in accord with that
 written license.
  
 The following legend is applicable only to US Government
 contracts under FAR:
  
                    RESTRICTED RIGHTS LEGEND
  
 Use, reproduction and disclosure by the US Government is
 subject to restrictions as set forth in subparagraphs (a)
 and (c) of the Commercial Computer Software - Restricted
 Rights clause in FAR 52.227-19.
  
 Gaussian, Inc.
 340 Quinnipiac St., Bldg. 40, Wallingford CT 06492
  
  
 ---------------------------------------------------------------
 Warning -- This program may not be used in any manner that
 competes with the business of Gaussian, Inc. or will provide
 assistance to any competitor of Gaussian, Inc.  The licensee
 of this program is prohibited from giving any competitor of
 Gaussian, Inc. access to this program.  By using this program,
 the user acknowledges that Gaussian, Inc. is engaged in the
 business of creating and licensing software in the field of
 computational chemistry and represents and warrants to the
 licensee that it is not a competitor of Gaussian, Inc. and that
 it will not use this program in any manner prohibited above.
 ---------------------------------------------------------------
  

 Cite this work as:
 Gaussian 16, Revision A.03,
 M. J. Frisch, G. W. Trucks, H. B. Schlegel, G. E. Scuseria, 
 M. A. Robb, J. R. Cheeseman, G. Scalmani, V. Barone, 
 G. A. Petersson, H. Nakatsuji, X. Li, M. Caricato, A. V. Marenich, 
 J. Bloino, B. G. Janesko, R. Gomperts, B. Mennucci, H. P. Hratchian, 
 J. V. Ortiz, A. F. Izmaylov, J. L. Sonnenberg, D. Williams-Young, 
 F. Ding, F. Lipparini, F. Egidi, J. Goings, B. Peng, A. Petrone, 
 T. Henderson, D. Ranasinghe, V. G. Zakrzewski, J. Gao, N. Rega, 
 G. Zheng, W. Liang, M. Hada, M. Ehara, K. Toyota, R. Fukuda, 
 J. Hasegawa, M. Ishida, T. Nakajima, Y. Honda, O. Kitao, H. Nakai, 
 T. Vreven, K. Throssell, J. A. Montgomery, Jr., J. E. Peralta, 
 F. Ogliaro, M. J. Bearpark, J. J. Heyd, E. N. Brothers, K. N. Kudin, 
 V. N. Staroverov, T. A. Keith, R. Kobayashi, J. Normand, 
 K. Raghavachari, A. P. Rendell, J. C. Burant, S. S. Iyengar, 
 J. Tomasi, M. Cossi, J. M. Millam, M. Klene, C. Adamo, R. Cammi, 
 J. W. Ochterski, R. L. Martin, K. Morokuma, O. Farkas, 
 J. B. Foresman, and D. J. Fox, Gaussian, Inc., Wallingford CT, 2016.
 
 ******************************************
 Gaussian 16:  ES64L-G16RevA.03 25-Dec-2016
                22-Sep-2023 
 ******************************************
 %nprocshared=4
 Will use up to    4 processors via shared memory.
 %mem=4GB
 -------------------------
 #m062x/6-31g(d) scf=tight
 -------------------------
 1/38=1,172=1/1;
 2/12=2,17=6,18=5,40=1/2;
 3/5=1,6=6,7=1,11=2,25=1,30=1,74=-55/1,2,3;
 4//1;
 5/5=2,32=2,38=5/2;
 6/7=2,8=2,9=2,10=2,28=1/1;
 99/5=1,9=1/99;
 ----------------------
 tmpdir/M2_conf_0_9.gjf
 ----------------------
 Symbolic Z-matrix:
 Charge =  0 Multiplicity = 1
 C                     0.        0.        0. 
 C                     1.4703    0.        0. 
 C                     1.9078    0.        1.27059 
 H                    -0.61373   0.       -0.89365 
 O                    -0.38984   0.        1.11883 
 H                     2.08403   0.       -0.89365 
 H                     2.93859   0.        1.60313 
 H                     1.05306   0.        1.94344 
 
                          Input orientation:                          
 ---------------------------------------------------------------------
 Center     Atomic      Atomic             Coordinates (Angstroms)
 Number     Number       Type             X           Y           Z
 ---------------------------------------------------------------------
      1          6           0        0.000000    0.000000    0.000000
      2          6           0        1.470300    0.000000    0.000000
      3          6           0        1.907800    0.000000    1.270590
      4          1           0       -0.613730    0.000000   -0.893650
      5          8           0       -0.389840    0.000000    1.118830
      6          1           0        2.084030    0.000000   -0.893650
      7          1           0        2.938590    0.000000    1.603130
      8          1           0        1.053060    0.000000    1.943440
 ---------------------------------------------------------------------
                    Distance matrix (angstroms):
                    1          2          3          4          5
     1  C    0.000000
     2  C    1.470300   0.000000
     3  C    2.292182   1.343803   0.000000
     4  H    1.084101   2.267552   3.322958   0.000000
     5  O    1.184802   2.170691   2.302646   2.024896   0.000000
     6  H    2.267552   1.084101   2.171403   2.697760   3.189061
     7  H    3.347437   2.173914   1.083102   4.341991   3.363479
     8  H    2.210406   1.987724   1.087799   3.290482   1.661909
                    6          7          8
     6  H    0.000000
     7  H    2.638974   0.000000
     8  H    3.018605   1.915994   0.000000
 Stoichiometry    C3H4O
 Framework group  CS[SG(C3H4O)]
 Deg. of freedom    13
 Full point group                 CS      NOp   2
 Largest Abelian subgroup         CS      NOp   2
 Largest concise Abelian subgroup C1      NOp   1
                         Standard orientation:                         
 ---------------------------------------------------------------------
 Center     Atomic      Atomic             Coordinates (Angstroms)
 Number     Number       Type             X           Y           Z
 ---------------------------------------------------------------------
      1          6           0       -0.954075   -0.176942    0.000000
      2          6           0        0.000000    0.941774    0.000000
      3          6           0        1.250654    0.450173    0.000000
      4          1           0       -2.032279   -0.064026    0.000000
      5          8           0       -0.355751   -1.199568    0.000000
      6          1           0       -0.281708    1.988633    0.000000
      7          1           0        2.172553    1.018691    0.000000
      8          1           0        1.207969   -0.636788    0.000000
 ---------------------------------------------------------------------
 Rotational constants (GHZ):          19.8926807           8.6271598           6.0174718
 Standard basis: 6-31G(d) (6D, 7F)
 There are    52 symmetry adapted cartesian basis functions of A'  symmetry.
 There are    16 symmetry adapted cartesian basis functions of A"  symmetry.
 There are    52 symmetry adapted basis functions of A'  symmetry.
 There are    16 symmetry adapted basis functions of A"  symmetry.
    68 basis functions,   128 primitive gaussians,    68 cartesian basis functions
    15 alpha electrons       15 beta electrons
       nuclear repulsion energy       110.3391598925 Hartrees.
 NAtoms=    8 NActive=    8 NUniq=    8 SFac= 1.00D+00 NAtFMM=   60 NAOKFM=F Big=F
 Integral buffers will be    131072 words long.
 Raffenetti 2 integral format.
 Two-electron integral symmetry is turned on.
 One-electron integrals computed using PRISM.
 NBasis=    68 RedAO= T EigKep=  2.32D-03  NBF=    52    16
 NBsUse=    68 1.00D-06 EigRej= -1.00D+00 NBFU=    52    16
 ExpMin= 1.61D-01 ExpMax= 5.48D+03 ExpMxC= 8.25D+02 IAcc=3 IRadAn=         5 AccDes= 0.00D+00
 Harris functional with IExCor= 1009 and IRadAn=       5 diagonalized for initial guess.
 HarFok:  IExCor= 1009 AccDes= 0.00D+00 IRadAn=         5 IDoV= 1 UseB2=F ITyADJ=14
 ICtDFT=  3500011 ScaDFX=  1.000000  1.000000  1.000000  1.000000
 FoFCou: FMM=F IPFlag=           0 FMFlag=      100000 FMFlg1=           0
         NFxFlg=           0 DoJE=T BraDBF=F KetDBF=T FulRan=T
         wScrn=  0.000000 ICntrl=       500 IOpCl=  0 I1Cent=   200000004 NGrid=           0
         NMat0=    1 NMatS0=      1 NMatT0=    0 NMatD0=    1 NMtDS0=    0 NMtDT0=    0
 Petite list used in FoFCou.
 Initial guess orbital symmetries:
       Occupied  (A') (A') (A') (A') (A') (A') (A') (A') (A') (A')
                 (A') (A") (A') (A") (A')
       Virtual   (A") (A") (A') (A') (A') (A') (A') (A') (A') (A')
                 (A") (A') (A") (A') (A") (A') (A') (A') (A') (A')
                 (A') (A') (A") (A') (A') (A') (A') (A') (A") (A")
                 (A') (A") (A") (A') (A') (A") (A') (A') (A') (A')
                 (A") (A") (A') (A') (A') (A") (A') (A') (A') (A')
                 (A') (A') (A')
 The electronic state of the initial guess is 1-A'.
 Keep R1 ints in memory in symmetry-blocked form, NReq=6330619.
 Requested convergence on RMS density matrix=1.00D-08 within 128 cycles.
 Requested convergence on MAX density matrix=1.00D-06.
 Requested convergence on             energy=1.00D-06.
 No special actions if energy rises.
 Integral accuracy reduced to 1.0D-05 until final iterations.
 Initial convergence to 1.0D-05 achieved.  Increase integral accuracy.
 SCF Done:  E(RM062X) =  -191.777359874     A.U. after   15 cycles
            NFock= 15  Conv=0.99D-08     -V/T= 2.0063

 **********************************************************************

            Population analysis using the SCF density.

 **********************************************************************

 Orbital symmetries:
       Occupied  (A') (A') (A') (A') (A') (A') (A') (A') (A') (A')
                 (A") (A') (A') (A') (A")
       Virtual   (A") (A") (A') (A') (A') (A') (A') (A') (A') (A')
                 (A") (A') (A") (A') (A") (A') (A') (A') (A') (A')
                 (A') (A') (A') (A") (A') (A') (A') (A') (A") (A")
                 (A') (A") (A") (A') (A') (A") (A') (A') (A') (A')
                 (A") (A") (A') (A') (A') (A") (A') (A') (A') (A')
                 (A') (A') (A')
 The electronic state is 1-A'.
 Alpha  occ. eigenvalues --  -19.63387 -10.63692 -10.54845 -10.54541  -1.19621
 Alpha  occ. eigenvalues --   -0.87569  -0.73949  -0.62264  -0.59515  -0.54229
 Alpha  occ. eigenvalues --   -0.48752  -0.47746  -0.41906  -0.32625  -0.32340
 Alpha virt. eigenvalues --   -0.01676   0.12130   0.16670   0.19601   0.21284
 Alpha virt. eigenvalues --    0.26807   0.30129   0.35911   0.39670   0.56379
 Alpha virt. eigenvalues --    0.57021   0.61861   0.63648   0.69709   0.70139
 Alpha virt. eigenvalues --    0.74014   0.78657   0.86371   0.90289   0.92881
 Alpha virt. eigenvalues --    0.95479   0.97147   1.03952   1.06257   1.14224
 Alpha virt. eigenvalues --    1.16917   1.26902   1.31461   1.39014   1.47934
 Alpha virt. eigenvalues --    1.57558   1.61764   1.73668   1.79945   1.83316
 Alpha virt. eigenvalues --    1.88048   2.05425   2.09901   2.15072   2.29993
 Alpha virt. eigenvalues --    2.30466   2.38506   2.39900   2.49801   2.63689
 Alpha virt. eigenvalues --    2.64679   2.82647   3.02484   3.08800   3.91959
 Alpha virt. eigenvalues --    4.16576   4.19082   4.39809
          Condensed to atoms (all electrons):
               1          2          3          4          5          6
     1  C    4.566513   0.366294  -0.044278   0.367592   0.554104  -0.031119
     2  C    0.366294   5.170769   0.643177  -0.092324  -0.133597   0.359212
     3  C   -0.044278   0.643177   5.106569   0.005494  -0.078512  -0.036721
     4  H    0.367592  -0.092324   0.005494   0.598983  -0.042667   0.002029
     5  O    0.554104  -0.133597  -0.078512  -0.042667   8.102228   0.003995
     6  H   -0.031119   0.359212  -0.036721   0.002029   0.003995   0.534783
     7  H    0.004940  -0.034469   0.360484  -0.000015   0.002977  -0.002150
     8  H   -0.033716  -0.038837   0.376270   0.001008   0.017494   0.004452
               7          8
     1  C    0.004940  -0.033716
     2  C   -0.034469  -0.038837
     3  C    0.360484   0.376270
     4  H   -0.000015   0.001008
     5  O    0.002977   0.017494
     6  H   -0.002150   0.004452
     7  H    0.522852  -0.022839
     8  H   -0.022839   0.440749
 Mulliken charges:
               1
     1  C    0.249670
     2  C   -0.240224
     3  C   -0.332481
     4  H    0.159900
     5  O   -0.426024
     6  H    0.165519
     7  H    0.168221
     8  H    0.255419
 Sum of Mulliken charges =   0.00000
 Mulliken charges with hydrogens summed into heavy atoms:
               1
     1  C    0.409570
     2  C   -0.074705
     3  C    0.091158
     5  O   -0.426024
 Electronic spatial extent (au):  <R**2>=            229.7047
 Charge=             -0.0000 electrons
 Dipole moment (field-independent basis, Debye):
    X=             -0.6201    Y=              1.7902    Z=              0.0000  Tot=              1.8945
 Quadrupole moment (field-independent basis, Debye-Ang):
   XX=            -19.5759   YY=            -25.3913   ZZ=            -24.3779
   XY=             -0.8383   XZ=              0.0000   YZ=              0.0000
 Traceless Quadrupole moment (field-independent basis, Debye-Ang):
   XX=              3.5391   YY=             -2.2762   ZZ=             -1.2629
   XY=             -0.8383   XZ=              0.0000   YZ=              0.0000
 Octapole moment (field-independent basis, Debye-Ang**2):
  XXX=             -2.9452  YYY=              1.5331  ZZZ=              0.0000  XYY=              1.2050
  XXY=             -0.1377  XXZ=              0.0000  XZZ=             -1.7333  YZZ=             -3.0958
  YYZ=              0.0000  XYZ=              0.0000
 Hexadecapole moment (field-independent basis, Debye-Ang**3):
 XXXX=           -129.3704 YYYY=           -126.0226 ZZZZ=            -22.7437 XXXY=            -15.1176
 XXXZ=              0.0000 YYYX=            -24.3473 YYYZ=              0.0000 ZZZX=              0.0000
 ZZZY=              0.0000 XXYY=            -43.8319 XXZZ=            -28.9462 YYZZ=            -25.9197
 XXYZ=              0.0000 YYXZ=              0.0000 ZZXY=             -7.3109
 N-N= 1.103391598925D+02 E-N=-6.684104156859D+02  KE= 1.905687079959D+02
 Symmetry A'   KE= 1.847727031799D+02
 Symmetry A"   KE= 5.796004816054D+00
 1\1\GINC-NODE62\SP\RM062X\6-31G(d)\C3H4O1\YANZ\22-Sep-2023\0\\#m062x/6
 -31g(d) scf=tight\\tmpdir/M2_conf_0_9.gjf\\0,1\C,0,0.,0.,0.\C,0,1.4703
 ,0.,0.\C,0,1.9078,0.,1.27059\H,0,-0.61373,0.,-0.89365\O,0,-0.38984,0.,
 1.11883\H,0,2.08403,0.,-0.89365\H,0,2.93859,0.,1.60313\H,0,1.05306,0.,
 1.94344\\Version=ES64L-G16RevA.03\State=1-A'\HF=-191.7773599\RMSD=9.87
 6e-09\Dipole=0.3776028,0.,-0.6426476\Quadrupole=-0.487261,-0.93891,1.4
 261709,0.,2.0362857,0.\PG=CS [SG(C3H4O1)]\\@


 "PERFECTION IS NOT AN ACCIDENT"
         --  EAGLE ELECTRIC MANUFACTURING CO.,INC. NY
 Job cpu time:       0 days  0 hours  0 minutes 18.9 seconds.
 Elapsed time:       0 days  0 hours  0 minutes  4.9 seconds.
 File lengths (MBytes):  RWF=      6 Int=      0 D2E=      0 Chk=      1 Scr=      1
 Normal termination of Gaussian 16 at Fri Sep 22 17:02:02 2023.
