 Entering Gaussian System, Link 0=g16
 Initial command:
 /share/apps/gaussian/g16/l1.exe "/tmp/55613.mgr/Gau-181634.inp" -scrdir="/tmp/55613.mgr/"
 Entering Link 1 = /share/apps/gaussian/g16/l1.exe PID=    181635.
  
 Copyright (c) 1988,1990,1992,1993,1995,1998,2003,2009,2016,
            Gaussian, Inc.  All Rights Reserved.
  
 This is part of the Gaussian(R) 16 program.  It is based on
 the Gaussian(R) 09 system (copyright 2009, Gaussian, Inc.),
 the Gaussian(R) 03 system (copyright 2003, Gaussian, Inc.),
 the Gaussian(R) 98 system (copyright 1998, Gaussian, Inc.),
 the Gaussian(R) 94 system (copyright 1995, Gaussian, Inc.),
 the Gaussian 92(TM) system (copyright 1992, Gaussian, Inc.),
 the Gaussian 90(TM) system (copyright 1990, Gaussian, Inc.),
 the Gaussian 88(TM) system (copyright 1988, Gaussian, Inc.),
 the Gaussian 86(TM) system (copyright 1986, Carnegie Mellon
 University), and the Gaussian 82(TM) system (copyright 1983,
 Carnegie Mellon University). Gaussian is a federally registered
 trademark of Gaussian, Inc.
  
 This software contains proprietary and confidential information,
 including trade secrets, belonging to Gaussian, Inc.
  
 This software is provided under written license and may be
 used, copied, transmitted, or stored only in accord with that
 written license.
  
 The following legend is applicable only to US Government
 contracts under FAR:
  
                    RESTRICTED RIGHTS LEGEND
  
 Use, reproduction and disclosure by the US Government is
 subject to restrictions as set forth in subparagraphs (a)
 and (c) of the Commercial Computer Software - Restricted
 Rights clause in FAR 52.227-19.
  
 Gaussian, Inc.
 340 Quinnipiac St., Bldg. 40, Wallingford CT 06492
  
  
 ---------------------------------------------------------------
 Warning -- This program may not be used in any manner that
 competes with the business of Gaussian, Inc. or will provide
 assistance to any competitor of Gaussian, Inc.  The licensee
 of this program is prohibited from giving any competitor of
 Gaussian, Inc. access to this program.  By using this program,
 the user acknowledges that Gaussian, Inc. is engaged in the
 business of creating and licensing software in the field of
 computational chemistry and represents and warrants to the
 licensee that it is not a competitor of Gaussian, Inc. and that
 it will not use this program in any manner prohibited above.
 ---------------------------------------------------------------
  

 Cite this work as:
 Gaussian 16, Revision A.03,
 M. J. Frisch, G. W. Trucks, H. B. Schlegel, G. E. Scuseria, 
 M. A. Robb, J. R. Cheeseman, G. Scalmani, V. Barone, 
 G. A. Petersson, H. Nakatsuji, X. Li, M. Caricato, A. V. Marenich, 
 J. Bloino, B. G. Janesko, R. Gomperts, B. Mennucci, H. P. Hratchian, 
 J. V. Ortiz, A. F. Izmaylov, J. L. Sonnenberg, D. Williams-Young, 
 F. Ding, F. Lipparini, F. Egidi, J. Goings, B. Peng, A. Petrone, 
 T. Henderson, D. Ranasinghe, V. G. Zakrzewski, J. Gao, N. Rega, 
 G. Zheng, W. Liang, M. Hada, M. Ehara, K. Toyota, R. Fukuda, 
 J. Hasegawa, M. Ishida, T. Nakajima, Y. Honda, O. Kitao, H. Nakai, 
 T. Vreven, K. Throssell, J. A. Montgomery, Jr., J. E. Peralta, 
 F. Ogliaro, M. J. Bearpark, J. J. Heyd, E. N. Brothers, K. N. Kudin, 
 V. N. Staroverov, T. A. Keith, R. Kobayashi, J. Normand, 
 K. Raghavachari, A. P. Rendell, J. C. Burant, S. S. Iyengar, 
 J. Tomasi, M. Cossi, J. M. Millam, M. Klene, C. Adamo, R. Cammi, 
 J. W. Ochterski, R. L. Martin, K. Morokuma, O. Farkas, 
 J. B. Foresman, and D. J. Fox, Gaussian, Inc., Wallingford CT, 2016.
 
 ******************************************
 Gaussian 16:  ES64L-G16RevA.03 25-Dec-2016
                22-Sep-2023 
 ******************************************
 %nprocshared=4
 Will use up to    4 processors via shared memory.
 %mem=4GB
 -------------------------
 #m062x/6-31g(d) scf=tight
 -------------------------
 1/38=1,172=1/1;
 2/12=2,17=6,18=5,40=1/2;
 3/5=1,6=6,7=1,11=2,25=1,30=1,74=-55/1,2,3;
 4//1;
 5/5=2,32=2,38=5/2;
 6/7=2,8=2,9=2,10=2,28=1/1;
 99/5=1,9=1/99;
 -----------------------
 tmpdir/M2_conf_0_57.gjf
 -----------------------
 Symbolic Z-matrix:
 Charge =  0 Multiplicity = 1
 C                     0.        0.        0. 
 C                     1.5027    0.        0. 
 H                     1.84134   0.        1.04532 
 O                    -0.38984   0.96461  -0.56684 
 H                    -0.60409  -0.77507   0.45546 
 H                     1.75036   0.91323  -0.53664 
 H                     1.91236  -0.89062  -0.49632 
 
                          Input orientation:                          
 ---------------------------------------------------------------------
 Center     Atomic      Atomic             Coordinates (Angstroms)
 Number     Number       Type             X           Y           Z
 ---------------------------------------------------------------------
      1          6           0        0.000000    0.000000    0.000000
      2          6           0        1.502700    0.000000    0.000000
      3          1           0        1.841340    0.000000    1.045320
      4          8           0       -0.389840    0.964610   -0.566840
      5          1           0       -0.604090   -0.775070    0.455460
      6          1           0        1.750360    0.913230   -0.536640
      7          1           0        1.912360   -0.890620   -0.496320
 ---------------------------------------------------------------------
                    Distance matrix (angstroms):
                    1          2          3          4          5
     1  C    0.000000
     2  C    1.502700   0.000000
     3  H    2.117363   1.098804   0.000000
     4  O    1.184802   2.198519   2.916796   0.000000
     5  H    1.083098   2.290577   2.632261   2.029159   0.000000
     6  H    2.045906   1.087799   1.828897   2.141030   3.062361
     7  H    2.167177   1.098799   1.781825   2.957529   2.692909
                    6          7
     6  H    0.000000
     7  H    1.811559   0.000000
 Stoichiometry    C2H4O
 Framework group  C1[X(C2H4O)]
 Deg. of freedom    15
 Full point group                 C1      NOp   1
 Largest Abelian subgroup         C1      NOp   1
 Largest concise Abelian subgroup C1      NOp   1
                         Standard orientation:                         
 ---------------------------------------------------------------------
 Center     Atomic      Atomic             Coordinates (Angstroms)
 Number     Number       Type             X           Y           Z
 ---------------------------------------------------------------------
      1          6           0        0.258880    0.498277   -0.005257
      2          6           0       -1.094142   -0.155481    0.001128
      3          1           0       -1.628847    0.181543    0.899948
      4          8           0        1.096664   -0.339477    0.001157
      5          1           0        0.411672    1.570506   -0.014309
      6          1           0       -0.856288   -1.216922    0.009828
      7          1           0       -1.688276    0.123910   -0.879953
 ---------------------------------------------------------------------
 Rotational constants (GHZ):          47.2861388          11.9802510          10.1731862
 Standard basis: 6-31G(d) (6D, 7F)
 There are    53 symmetry adapted cartesian basis functions of A   symmetry.
 There are    53 symmetry adapted basis functions of A   symmetry.
    53 basis functions,   100 primitive gaussians,    53 cartesian basis functions
    12 alpha electrons       12 beta electrons
       nuclear repulsion energy        71.5967134073 Hartrees.
 NAtoms=    7 NActive=    7 NUniq=    7 SFac= 1.00D+00 NAtFMM=   60 NAOKFM=F Big=F
 Integral buffers will be    131072 words long.
 Raffenetti 2 integral format.
 Two-electron integral symmetry is turned on.
 One-electron integrals computed using PRISM.
 NBasis=    53 RedAO= T EigKep=  4.82D-03  NBF=    53
 NBsUse=    53 1.00D-06 EigRej= -1.00D+00 NBFU=    53
 ExpMin= 1.61D-01 ExpMax= 5.48D+03 ExpMxC= 8.25D+02 IAcc=3 IRadAn=         5 AccDes= 0.00D+00
 Harris functional with IExCor= 1009 and IRadAn=       5 diagonalized for initial guess.
 HarFok:  IExCor= 1009 AccDes= 0.00D+00 IRadAn=         5 IDoV= 1 UseB2=F ITyADJ=14
 ICtDFT=  3500011 ScaDFX=  1.000000  1.000000  1.000000  1.000000
 FoFCou: FMM=F IPFlag=           0 FMFlag=      100000 FMFlg1=           0
         NFxFlg=           0 DoJE=T BraDBF=F KetDBF=T FulRan=T
         wScrn=  0.000000 ICntrl=       500 IOpCl=  0 I1Cent=   200000004 NGrid=           0
         NMat0=    1 NMatS0=      1 NMatT0=    0 NMatD0=    1 NMtDS0=    0 NMtDT0=    0
 Petite list used in FoFCou.
 Keep R1 ints in memory in canonical form, NReq=4530250.
 Requested convergence on RMS density matrix=1.00D-08 within 128 cycles.
 Requested convergence on MAX density matrix=1.00D-06.
 Requested convergence on             energy=1.00D-06.
 No special actions if energy rises.
 Integral accuracy reduced to 1.0D-05 until final iterations.
 Initial convergence to 1.0D-05 achieved.  Increase integral accuracy.
 SCF Done:  E(RM062X) =  -153.737537357     A.U. after   14 cycles
            NFock= 14  Conv=0.95D-08     -V/T= 2.0069

 **********************************************************************

            Population analysis using the SCF density.

 **********************************************************************

 Orbital symmetries:
       Occupied  (A) (A) (A) (A) (A) (A) (A) (A) (A) (A) (A) (A)
       Virtual   (A) (A) (A) (A) (A) (A) (A) (A) (A) (A) (A) (A)
                 (A) (A) (A) (A) (A) (A) (A) (A) (A) (A) (A) (A)
                 (A) (A) (A) (A) (A) (A) (A) (A) (A) (A) (A) (A)
                 (A) (A) (A) (A) (A)
 The electronic state is 1-A.
 Alpha  occ. eigenvalues --  -19.63623 -10.63348 -10.54238  -1.18515  -0.83371
 Alpha  occ. eigenvalues --   -0.67486  -0.56129  -0.51450  -0.50029  -0.46200
 Alpha  occ. eigenvalues --   -0.42742  -0.31785
 Alpha virt. eigenvalues --    0.03727   0.16655   0.17968   0.20656   0.21038
 Alpha virt. eigenvalues --    0.27473   0.34704   0.58103   0.59016   0.64095
 Alpha virt. eigenvalues --    0.65345   0.73289   0.78436   0.82058   0.91494
 Alpha virt. eigenvalues --    0.92633   0.96023   0.99218   1.00121   1.06988
 Alpha virt. eigenvalues --    1.15903   1.25460   1.46360   1.48810   1.59903
 Alpha virt. eigenvalues --    1.70731   1.86980   1.89124   2.05216   2.12208
 Alpha virt. eigenvalues --    2.15052   2.24657   2.35285   2.37935   2.63474
 Alpha virt. eigenvalues --    2.64792   2.87573   3.02157   3.83701   4.11368
 Alpha virt. eigenvalues --    4.35362
          Condensed to atoms (all electrons):
               1          2          3          4          5          6
     1  C    4.567330   0.344161  -0.026227   0.580845   0.342780  -0.039192
     2  C    0.344161   5.395849   0.346413  -0.143272  -0.096896   0.371771
     3  H   -0.026227   0.346413   0.537654   0.003077   0.004986  -0.015296
     4  O    0.580845  -0.143272   0.003077   7.978886  -0.047110   0.009621
     5  H    0.342780  -0.096896   0.004986  -0.047110   0.642911   0.004952
     6  H   -0.039192   0.371771  -0.015296   0.009621   0.004952   0.477672
     7  H   -0.022253   0.348298  -0.022948   0.003261   0.004447  -0.017450
               7
     1  C   -0.022253
     2  C    0.348298
     3  H   -0.022948
     4  O    0.003261
     5  H    0.004447
     6  H   -0.017450
     7  H    0.531767
 Mulliken charges:
               1
     1  C    0.252556
     2  C   -0.566324
     3  H    0.172342
     4  O   -0.385308
     5  H    0.143931
     6  H    0.207922
     7  H    0.174880
 Sum of Mulliken charges =  -0.00000
 Mulliken charges with hydrogens summed into heavy atoms:
               1
     1  C    0.396487
     2  C   -0.011179
     4  O   -0.385308
 Electronic spatial extent (au):  <R**2>=            154.7154
 Charge=             -0.0000 electrons
 Dipole moment (field-independent basis, Debye):
    X=             -1.8314    Y=              1.4940    Z=             -0.0140  Tot=              2.3636
 Quadrupole moment (field-independent basis, Debye-Ang):
   XX=            -20.7259   YY=            -17.2243   ZZ=            -17.6476
   XY=              1.0302   XZ=              0.0372   YZ=              0.0469
 Traceless Quadrupole moment (field-independent basis, Debye-Ang):
   XX=             -2.1933   YY=              1.3083   ZZ=              0.8850
   XY=              1.0302   XZ=              0.0372   YZ=              0.0469
 Octapole moment (field-independent basis, Debye-Ang**2):
  XXX=              1.1107  YYY=             -0.2144  ZZZ=             -0.0003  XYY=              1.6765
  XXY=              1.0921  XXZ=             -0.1836  XZZ=              0.8670  YZZ=              0.0605
  YYZ=             -0.0076  XYZ=             -0.0842
 Hexadecapole moment (field-independent basis, Debye-Ang**3):
 XXXX=           -130.4792 YYYY=            -42.3698 ZZZZ=            -22.3359 XXXY=             -1.8383
 XXXZ=              0.4398 YYYX=              0.2807 YYYZ=             -0.0109 ZZZX=              0.0569
 ZZZY=              0.0856 XXYY=            -28.9325 XXZZ=            -22.6540 YYZZ=            -11.7244
 XXYZ=              0.1217 YYXZ=             -0.0251 ZZXY=             -1.1335
 N-N= 7.159671340728D+01 E-N=-5.024836051822D+02  KE= 1.526828311418D+02
 1\1\GINC-NODE62\SP\RM062X\6-31G(d)\C2H4O1\YANZ\22-Sep-2023\0\\#m062x/6
 -31g(d) scf=tight\\tmpdir/M2_conf_0_57.gjf\\0,1\C,0,0.,0.,0.\C,0,1.502
 7,0.,0.\H,0,1.84134,0.,1.04532\O,0,-0.38984,0.96461,-0.56684\H,0,-0.60
 409,-0.77507,0.45546\H,0,1.75036,0.91323,-0.53664\H,0,1.91236,-0.89062
 ,-0.49632\\Version=ES64L-G16RevA.03\State=1-A\HF=-153.7375374\RMSD=9.4
 83e-09\Dipole=0.3930312,-0.7271424,0.4260225\Quadrupole=-0.5381869,0.0
 619877,0.4761993,1.266081,-0.7970963,0.3305527\PG=C01 [X(C2H4O1)]\\@


 MORNING PEOPLE ARE USUALLY ADMIRED AS EARLY BIRDS.
 RECALL BEN FRANKLIN'S APHORISM THAT THE EARLY BIRD GETS THE WORM.
 I IDENTIFY WITH THE WORM. --  CRAIG JAGGER, MINNEAPOLIS, KS.
 Job cpu time:       0 days  0 hours  0 minutes 21.4 seconds.
 Elapsed time:       0 days  0 hours  0 minutes  5.6 seconds.
 File lengths (MBytes):  RWF=      6 Int=      0 D2E=      0 Chk=      1 Scr=      1
 Normal termination of Gaussian 16 at Fri Sep 22 17:02:37 2023.
