 Entering Gaussian System, Link 0=g16
 Initial command:
 /share/apps/gaussian/g16/l1.exe "/tmp/55613.mgr/Gau-181367.inp" -scrdir="/tmp/55613.mgr/"
 Entering Link 1 = /share/apps/gaussian/g16/l1.exe PID=    181368.
  
 Copyright (c) 1988,1990,1992,1993,1995,1998,2003,2009,2016,
            Gaussian, Inc.  All Rights Reserved.
  
 This is part of the Gaussian(R) 16 program.  It is based on
 the Gaussian(R) 09 system (copyright 2009, Gaussian, Inc.),
 the Gaussian(R) 03 system (copyright 2003, Gaussian, Inc.),
 the Gaussian(R) 98 system (copyright 1998, Gaussian, Inc.),
 the Gaussian(R) 94 system (copyright 1995, Gaussian, Inc.),
 the Gaussian 92(TM) system (copyright 1992, Gaussian, Inc.),
 the Gaussian 90(TM) system (copyright 1990, Gaussian, Inc.),
 the Gaussian 88(TM) system (copyright 1988, Gaussian, Inc.),
 the Gaussian 86(TM) system (copyright 1986, Carnegie Mellon
 University), and the Gaussian 82(TM) system (copyright 1983,
 Carnegie Mellon University). Gaussian is a federally registered
 trademark of Gaussian, Inc.
  
 This software contains proprietary and confidential information,
 including trade secrets, belonging to Gaussian, Inc.
  
 This software is provided under written license and may be
 used, copied, transmitted, or stored only in accord with that
 written license.
  
 The following legend is applicable only to US Government
 contracts under FAR:
  
                    RESTRICTED RIGHTS LEGEND
  
 Use, reproduction and disclosure by the US Government is
 subject to restrictions as set forth in subparagraphs (a)
 and (c) of the Commercial Computer Software - Restricted
 Rights clause in FAR 52.227-19.
  
 Gaussian, Inc.
 340 Quinnipiac St., Bldg. 40, Wallingford CT 06492
  
  
 ---------------------------------------------------------------
 Warning -- This program may not be used in any manner that
 competes with the business of Gaussian, Inc. or will provide
 assistance to any competitor of Gaussian, Inc.  The licensee
 of this program is prohibited from giving any competitor of
 Gaussian, Inc. access to this program.  By using this program,
 the user acknowledges that Gaussian, Inc. is engaged in the
 business of creating and licensing software in the field of
 computational chemistry and represents and warrants to the
 licensee that it is not a competitor of Gaussian, Inc. and that
 it will not use this program in any manner prohibited above.
 ---------------------------------------------------------------
  

 Cite this work as:
 Gaussian 16, Revision A.03,
 M. J. Frisch, G. W. Trucks, H. B. Schlegel, G. E. Scuseria, 
 M. A. Robb, J. R. Cheeseman, G. Scalmani, V. Barone, 
 G. A. Petersson, H. Nakatsuji, X. Li, M. Caricato, A. V. Marenich, 
 J. Bloino, B. G. Janesko, R. Gomperts, B. Mennucci, H. P. Hratchian, 
 J. V. Ortiz, A. F. Izmaylov, J. L. Sonnenberg, D. Williams-Young, 
 F. Ding, F. Lipparini, F. Egidi, J. Goings, B. Peng, A. Petrone, 
 T. Henderson, D. Ranasinghe, V. G. Zakrzewski, J. Gao, N. Rega, 
 G. Zheng, W. Liang, M. Hada, M. Ehara, K. Toyota, R. Fukuda, 
 J. Hasegawa, M. Ishida, T. Nakajima, Y. Honda, O. Kitao, H. Nakai, 
 T. Vreven, K. Throssell, J. A. Montgomery, Jr., J. E. Peralta, 
 F. Ogliaro, M. J. Bearpark, J. J. Heyd, E. N. Brothers, K. N. Kudin, 
 V. N. Staroverov, T. A. Keith, R. Kobayashi, J. Normand, 
 K. Raghavachari, A. P. Rendell, J. C. Burant, S. S. Iyengar, 
 J. Tomasi, M. Cossi, J. M. Millam, M. Klene, C. Adamo, R. Cammi, 
 J. W. Ochterski, R. L. Martin, K. Morokuma, O. Farkas, 
 J. B. Foresman, and D. J. Fox, Gaussian, Inc., Wallingford CT, 2016.
 
 ******************************************
 Gaussian 16:  ES64L-G16RevA.03 25-Dec-2016
                22-Sep-2023 
 ******************************************
 %nprocshared=4
 Will use up to    4 processors via shared memory.
 %mem=4GB
 -------------------------
 #m062x/6-31g(d) scf=tight
 -------------------------
 1/38=1,172=1/1;
 2/12=2,17=6,18=5,40=1/2;
 3/5=1,6=6,7=1,11=2,25=1,30=1,74=-55/1,2,3;
 4//1;
 5/5=2,32=2,38=5/2;
 6/7=2,8=2,9=2,10=2,28=1/1;
 99/5=1,9=1/99;
 -----------------------
 tmpdir/M2_conf_0_38.gjf
 -----------------------
 Symbolic Z-matrix:
 Charge =  0 Multiplicity = 1
 C                     0.        0.        0. 
 C                     1.3357    0.        0. 
 C                     1.84409   0.        1.39527 
 H                    -0.43389   0.        1.00362 
 H                    -0.6229    0.       -0.8896 
 H                     1.99385   0.       -0.8602 
 H                     0.96049   0.00019   2.06644 
 O                     2.99934   0.        1.74935 
 
                          Input orientation:                          
 ---------------------------------------------------------------------
 Center     Atomic      Atomic             Coordinates (Angstroms)
 Number     Number       Type             X           Y           Z
 ---------------------------------------------------------------------
      1          6           0        0.000000    0.000000    0.000000
      2          6           0        1.335700    0.000000    0.000000
      3          6           0        1.844090    0.000000    1.395270
      4          1           0       -0.433890    0.000000    1.003620
      5          1           0       -0.622900    0.000000   -0.889600
      6          1           0        1.993850    0.000000   -0.860200
      7          1           0        0.960490    0.000190    2.066440
      8          8           0        2.999340    0.000000    1.749350
 ---------------------------------------------------------------------
                    Distance matrix (angstroms):
                    1          2          3          4          5
     1  C    0.000000
     2  C    1.335700   0.000000
     3  C    2.312455   1.485005   0.000000
     4  H    1.093395   2.034380   2.311403   0.000000
     5  H    1.085998   2.151163   3.362539   1.902632   0.000000
     6  H    2.171493   1.083100   2.260436   3.060677   2.616915
     7  H    2.278753   2.100228   1.109603   1.753249   3.353401
     8  O    3.472213   2.414109   1.208294   3.513286   4.481593
                    6          7          8
     6  H    0.000000
     7  H    3.103716   0.000000
     8  O    2.796562   2.063360   0.000000
 Stoichiometry    C3H4O
 Framework group  C1[X(C3H4O)]
 Deg. of freedom    18
 Full point group                 C1      NOp   1
 Largest Abelian subgroup         C1      NOp   1
 Largest concise Abelian subgroup C1      NOp   1
                         Standard orientation:                         
 ---------------------------------------------------------------------
 Center     Atomic      Atomic             Coordinates (Angstroms)
 Number     Number       Type             X           Y           Z
 ---------------------------------------------------------------------
      1          6           0       -1.682117   -0.202441   -0.000011
      2          6           0       -0.583167    0.556770    0.000010
      3          6           0        0.628184   -0.302223   -0.000016
      4          1           0       -1.468644   -1.274795   -0.000042
      5          1           0       -2.700258    0.175424    0.000001
      6          1           0       -0.530609    1.638594    0.000042
      7          1           0        0.282692   -1.356668    0.000144
      8          8           0        1.779928    0.063101   -0.000006
 ---------------------------------------------------------------------
 Rotational constants (GHZ):          43.6083706           4.9070495           4.4107303
 Standard basis: 6-31G(d) (6D, 7F)
 There are    68 symmetry adapted cartesian basis functions of A   symmetry.
 There are    68 symmetry adapted basis functions of A   symmetry.
    68 basis functions,   128 primitive gaussians,    68 cartesian basis functions
    15 alpha electrons       15 beta electrons
       nuclear repulsion energy       103.9332919587 Hartrees.
 NAtoms=    8 NActive=    8 NUniq=    8 SFac= 1.00D+00 NAtFMM=   60 NAOKFM=F Big=F
 Integral buffers will be    131072 words long.
 Raffenetti 2 integral format.
 Two-electron integral symmetry is turned on.
 One-electron integrals computed using PRISM.
 NBasis=    68 RedAO= T EigKep=  3.58D-03  NBF=    68
 NBsUse=    68 1.00D-06 EigRej= -1.00D+00 NBFU=    68
 ExpMin= 1.61D-01 ExpMax= 5.48D+03 ExpMxC= 8.25D+02 IAcc=3 IRadAn=         5 AccDes= 0.00D+00
 Harris functional with IExCor= 1009 and IRadAn=       5 diagonalized for initial guess.
 HarFok:  IExCor= 1009 AccDes= 0.00D+00 IRadAn=         5 IDoV= 1 UseB2=F ITyADJ=14
 ICtDFT=  3500011 ScaDFX=  1.000000  1.000000  1.000000  1.000000
 FoFCou: FMM=F IPFlag=           0 FMFlag=      100000 FMFlg1=           0
         NFxFlg=           0 DoJE=T BraDBF=F KetDBF=T FulRan=T
         wScrn=  0.000000 ICntrl=       500 IOpCl=  0 I1Cent=   200000004 NGrid=           0
         NMat0=    1 NMatS0=      1 NMatT0=    0 NMatD0=    1 NMtDS0=    0 NMtDT0=    0
 Petite list used in FoFCou.
 Keep R1 ints in memory in canonical form, NReq=6324883.
 Requested convergence on RMS density matrix=1.00D-08 within 128 cycles.
 Requested convergence on MAX density matrix=1.00D-06.
 Requested convergence on             energy=1.00D-06.
 No special actions if energy rises.
 Integral accuracy reduced to 1.0D-05 until final iterations.
 Initial convergence to 1.0D-05 achieved.  Increase integral accuracy.
 SCF Done:  E(RM062X) =  -191.810516579     A.U. after   14 cycles
            NFock= 14  Conv=0.79D-08     -V/T= 2.0083

 **********************************************************************

            Population analysis using the SCF density.

 **********************************************************************

 Orbital symmetries:
       Occupied  (A) (A) (A) (A) (A) (A) (A) (A) (A) (A) (A) (A)
                 (A) (A) (A)
       Virtual   (A) (A) (A) (A) (A) (A) (A) (A) (A) (A) (A) (A)
                 (A) (A) (A) (A) (A) (A) (A) (A) (A) (A) (A) (A)
                 (A) (A) (A) (A) (A) (A) (A) (A) (A) (A) (A) (A)
                 (A) (A) (A) (A) (A) (A) (A) (A) (A) (A) (A) (A)
                 (A) (A) (A) (A) (A)
 The electronic state is 1-A.
 Alpha  occ. eigenvalues --  -19.64250 -10.63971 -10.58016 -10.56970  -1.16738
 Alpha  occ. eigenvalues --   -0.91314  -0.72389  -0.66581  -0.55514  -0.53814
 Alpha  occ. eigenvalues --   -0.49055  -0.47146  -0.46563  -0.35121  -0.32893
 Alpha virt. eigenvalues --   -0.01535   0.10073   0.14004   0.16476   0.22297
 Alpha virt. eigenvalues --    0.22938   0.31648   0.35550   0.39951   0.55762
 Alpha virt. eigenvalues --    0.55984   0.63508   0.64069   0.67071   0.68045
 Alpha virt. eigenvalues --    0.71707   0.75610   0.86388   0.88789   0.91422
 Alpha virt. eigenvalues --    0.93063   0.95619   1.01100   1.06941   1.11016
 Alpha virt. eigenvalues --    1.17504   1.20024   1.30808   1.39337   1.47673
 Alpha virt. eigenvalues --    1.60266   1.67796   1.70281   1.77303   1.84504
 Alpha virt. eigenvalues --    1.89760   1.93538   2.03782   2.14694   2.20586
 Alpha virt. eigenvalues --    2.25053   2.31995   2.40700   2.48640   2.64329
 Alpha virt. eigenvalues --    2.66319   2.85204   2.97834   3.05723   3.93973
 Alpha virt. eigenvalues --    4.10373   4.21769   4.42616
          Condensed to atoms (all electrons):
               1          2          3          4          5          6
     1  C    5.117450   0.533829  -0.018052   0.387505   0.369990  -0.035568
     2  C    0.533829   5.198233   0.332103  -0.061191  -0.024017   0.369696
     3  C   -0.018052   0.332103   4.564272  -0.015057   0.002861  -0.024804
     4  H    0.387505  -0.061191  -0.015057   0.516415  -0.026564   0.004013
     5  H    0.369990  -0.024017   0.002861  -0.026564   0.487204  -0.001920
     6  H   -0.035568   0.369696  -0.024804   0.004013  -0.001920   0.487820
     7  H    0.011367  -0.154456   0.376466   0.014848   0.000192   0.003912
     8  O    0.003614  -0.068579   0.550455   0.000477  -0.000082  -0.000124
               7          8
     1  C    0.011367   0.003614
     2  C   -0.154456  -0.068579
     3  C    0.376466   0.550455
     4  H    0.014848   0.000477
     5  H    0.000192  -0.000082
     6  H    0.003912  -0.000124
     7  H    0.677615  -0.046977
     8  O   -0.046977   7.983114
 Mulliken charges:
               1
     1  C   -0.370136
     2  C   -0.125617
     3  C    0.231756
     4  H    0.179554
     5  H    0.192334
     6  H    0.196974
     7  H    0.117034
     8  O   -0.421899
 Sum of Mulliken charges =  -0.00000
 Mulliken charges with hydrogens summed into heavy atoms:
               1
     1  C    0.001752
     2  C    0.071357
     3  C    0.348790
     8  O   -0.421899
 Electronic spatial extent (au):  <R**2>=            287.5504
 Charge=             -0.0000 electrons
 Dipole moment (field-independent basis, Debye):
    X=             -3.1274    Y=             -0.3471    Z=              0.0000  Tot=              3.1466
 Quadrupole moment (field-independent basis, Debye-Ang):
   XX=            -26.6829   YY=            -21.3815   ZZ=            -24.5359
   XY=             -0.4707   XZ=              0.0000   YZ=              0.0001
 Traceless Quadrupole moment (field-independent basis, Debye-Ang):
   XX=             -2.4828   YY=              2.8186   ZZ=             -0.3358
   XY=             -0.4707   XZ=              0.0000   YZ=              0.0001
 Octapole moment (field-independent basis, Debye-Ang**2):
  XXX=            -11.7060  YYY=              1.6798  ZZZ=             -0.0000  XYY=              0.7620
  XXY=              0.2911  XXZ=              0.0001  XZZ=              4.3511  YZZ=             -0.0589
  YYZ=              0.0002  XYZ=             -0.0001
 Hexadecapole moment (field-independent basis, Debye-Ang**3):
 XXXX=           -272.3269 YYYY=            -55.4303 ZZZZ=            -22.9981 XXXY=             -2.6665
 XXXZ=              0.0000 YYYX=             -0.0469 YYYZ=              0.0001 ZZZX=             -0.0000
 ZZZY=              0.0001 XXYY=            -56.5478 XXZZ=            -51.5915 YYZZ=            -14.7982
 XXYZ=              0.0003 YYXZ=              0.0000 ZZXY=              0.2491
 N-N= 1.039332919587D+02 E-N=-6.551012153290D+02  KE= 1.902403247002D+02
 1\1\GINC-NODE62\SP\RM062X\6-31G(d)\C3H4O1\YANZ\22-Sep-2023\0\\#m062x/6
 -31g(d) scf=tight\\tmpdir/M2_conf_0_38.gjf\\0,1\C,0,0.,0.,0.\C,0,1.335
 7,0.,0.\C,0,1.84409,0.,1.39527\H,0,-0.43389,0.,1.00362\H,0,-0.6229,0.,
 -0.8896\H,0,1.99385,0.,-0.8602\H,0,0.96049,0.00019,2.06644\O,0,2.99934
 ,0.,1.74935\\Version=ES64L-G16RevA.03\State=1-A\HF=-191.8105166\RMSD=7
 .923e-09\Dipole=-1.0899443,0.0000145,-0.5870102\Quadrupole=-0.8998306,
 -0.2496643,1.1494949,0.0000157,-1.7193884,0.0000245\PG=C01 [X(C3H4O1)]
 \\@


 Sometimes the fool who rushes in gets the job done.
                                    -- Al Bernstein
 Job cpu time:       0 days  0 hours  0 minutes 30.9 seconds.
 Elapsed time:       0 days  0 hours  0 minutes  8.0 seconds.
 File lengths (MBytes):  RWF=      6 Int=      0 D2E=      0 Chk=      1 Scr=      1
 Normal termination of Gaussian 16 at Fri Sep 22 17:02:34 2023.
