 Entering Gaussian System, Link 0=g16
 Initial command:
 /share/apps/gaussian/g16/l1.exe "/tmp/55613.mgr/Gau-181106.inp" -scrdir="/tmp/55613.mgr/"
 Entering Link 1 = /share/apps/gaussian/g16/l1.exe PID=    181107.
  
 Copyright (c) 1988,1990,1992,1993,1995,1998,2003,2009,2016,
            Gaussian, Inc.  All Rights Reserved.
  
 This is part of the Gaussian(R) 16 program.  It is based on
 the Gaussian(R) 09 system (copyright 2009, Gaussian, Inc.),
 the Gaussian(R) 03 system (copyright 2003, Gaussian, Inc.),
 the Gaussian(R) 98 system (copyright 1998, Gaussian, Inc.),
 the Gaussian(R) 94 system (copyright 1995, Gaussian, Inc.),
 the Gaussian 92(TM) system (copyright 1992, Gaussian, Inc.),
 the Gaussian 90(TM) system (copyright 1990, Gaussian, Inc.),
 the Gaussian 88(TM) system (copyright 1988, Gaussian, Inc.),
 the Gaussian 86(TM) system (copyright 1986, Carnegie Mellon
 University), and the Gaussian 82(TM) system (copyright 1983,
 Carnegie Mellon University). Gaussian is a federally registered
 trademark of Gaussian, Inc.
  
 This software contains proprietary and confidential information,
 including trade secrets, belonging to Gaussian, Inc.
  
 This software is provided under written license and may be
 used, copied, transmitted, or stored only in accord with that
 written license.
  
 The following legend is applicable only to US Government
 contracts under FAR:
  
                    RESTRICTED RIGHTS LEGEND
  
 Use, reproduction and disclosure by the US Government is
 subject to restrictions as set forth in subparagraphs (a)
 and (c) of the Commercial Computer Software - Restricted
 Rights clause in FAR 52.227-19.
  
 Gaussian, Inc.
 340 Quinnipiac St., Bldg. 40, Wallingford CT 06492
  
  
 ---------------------------------------------------------------
 Warning -- This program may not be used in any manner that
 competes with the business of Gaussian, Inc. or will provide
 assistance to any competitor of Gaussian, Inc.  The licensee
 of this program is prohibited from giving any competitor of
 Gaussian, Inc. access to this program.  By using this program,
 the user acknowledges that Gaussian, Inc. is engaged in the
 business of creating and licensing software in the field of
 computational chemistry and represents and warrants to the
 licensee that it is not a competitor of Gaussian, Inc. and that
 it will not use this program in any manner prohibited above.
 ---------------------------------------------------------------
  

 Cite this work as:
 Gaussian 16, Revision A.03,
 M. J. Frisch, G. W. Trucks, H. B. Schlegel, G. E. Scuseria, 
 M. A. Robb, J. R. Cheeseman, G. Scalmani, V. Barone, 
 G. A. Petersson, H. Nakatsuji, X. Li, M. Caricato, A. V. Marenich, 
 J. Bloino, B. G. Janesko, R. Gomperts, B. Mennucci, H. P. Hratchian, 
 J. V. Ortiz, A. F. Izmaylov, J. L. Sonnenberg, D. Williams-Young, 
 F. Ding, F. Lipparini, F. Egidi, J. Goings, B. Peng, A. Petrone, 
 T. Henderson, D. Ranasinghe, V. G. Zakrzewski, J. Gao, N. Rega, 
 G. Zheng, W. Liang, M. Hada, M. Ehara, K. Toyota, R. Fukuda, 
 J. Hasegawa, M. Ishida, T. Nakajima, Y. Honda, O. Kitao, H. Nakai, 
 T. Vreven, K. Throssell, J. A. Montgomery, Jr., J. E. Peralta, 
 F. Ogliaro, M. J. Bearpark, J. J. Heyd, E. N. Brothers, K. N. Kudin, 
 V. N. Staroverov, T. A. Keith, R. Kobayashi, J. Normand, 
 K. Raghavachari, A. P. Rendell, J. C. Burant, S. S. Iyengar, 
 J. Tomasi, M. Cossi, J. M. Millam, M. Klene, C. Adamo, R. Cammi, 
 J. W. Ochterski, R. L. Martin, K. Morokuma, O. Farkas, 
 J. B. Foresman, and D. J. Fox, Gaussian, Inc., Wallingford CT, 2016.
 
 ******************************************
 Gaussian 16:  ES64L-G16RevA.03 25-Dec-2016
                22-Sep-2023 
 ******************************************
 %nprocshared=4
 Will use up to    4 processors via shared memory.
 %mem=4GB
 -------------------------
 #m062x/6-31g(d) scf=tight
 -------------------------
 1/38=1,172=1/1;
 2/12=2,17=6,18=5,40=1/2;
 3/5=1,6=6,7=1,11=2,25=1,30=1,74=-55/1,2,3;
 4//1;
 5/5=2,32=2,38=5/2;
 6/7=2,8=2,9=2,10=2,28=1/1;
 99/5=1,9=1/99;
 -----------------------
 tmpdir/M2_conf_0_45.gjf
 -----------------------
 Symbolic Z-matrix:
 Charge =  0 Multiplicity = 1
 C                     0.        0.        0. 
 C                     1.504     0.        0. 
 O                    -0.38984   0.       -1.11883 
 H                    -0.60409   0.        0.89899 
 H                     1.75166   0.       -1.05923 
 H                     1.91366   0.87904   0.51655 
 H                     1.91366  -0.87904   0.51655 
 
                          Input orientation:                          
 ---------------------------------------------------------------------
 Center     Atomic      Atomic             Coordinates (Angstroms)
 Number     Number       Type             X           Y           Z
 ---------------------------------------------------------------------
      1          6           0        0.000000    0.000000    0.000000
      2          6           0        1.504000    0.000000    0.000000
      3          8           0       -0.389840    0.000000   -1.118830
      4          1           0       -0.604090    0.000000    0.898990
      5          1           0        1.751660    0.000000   -1.059230
      6          1           0        1.913660    0.879040    0.516550
      7          1           0        1.913660   -0.879040    0.516550
 ---------------------------------------------------------------------
                    Distance matrix (angstroms):
                    1          2          3          4          5
     1  C    0.000000
     2  C    1.504000   0.000000
     3  O    1.184802   2.199639   0.000000
     4  H    1.083101   2.291774   2.029163   0.000000
     5  H    2.047018   1.087798   2.142329   3.063361   0.000000
     6  H    2.168324   1.098798   2.958596   2.694074   1.811640
     7  H    2.168324   1.098798   2.958596   2.694074   1.811640
                    6          7
     6  H    0.000000
     7  H    1.758080   0.000000
 Stoichiometry    C2H4O
 Framework group  CS[SG(C2H2O),X(H2)]
 Deg. of freedom    10
 Full point group                 CS      NOp   2
 Largest Abelian subgroup         CS      NOp   2
 Largest concise Abelian subgroup CS      NOp   2
                         Standard orientation:                         
 ---------------------------------------------------------------------
 Center     Atomic      Atomic             Coordinates (Angstroms)
 Number     Number       Type             X           Y           Z
 ---------------------------------------------------------------------
      1          6           0        0.000000    0.564624    0.000000
      2          6           0       -0.896540   -0.642949    0.000000
      3          8           0        1.130702    0.210690   -0.000000
      4          1           0       -0.361705    1.585543    0.000000
      5          1           0       -0.193707   -1.473208    0.000000
      6          1           0       -1.555482   -0.663951    0.879040
      7          1           0       -1.555482   -0.663951   -0.879040
 ---------------------------------------------------------------------
 Rotational constants (GHZ):          47.4895285          11.9228201          10.1249115
 Standard basis: 6-31G(d) (6D, 7F)
 There are    39 symmetry adapted cartesian basis functions of A'  symmetry.
 There are    14 symmetry adapted cartesian basis functions of A"  symmetry.
 There are    39 symmetry adapted basis functions of A'  symmetry.
 There are    14 symmetry adapted basis functions of A"  symmetry.
    53 basis functions,   100 primitive gaussians,    53 cartesian basis functions
    12 alpha electrons       12 beta electrons
       nuclear repulsion energy        71.5220800768 Hartrees.
 NAtoms=    7 NActive=    7 NUniq=    6 SFac= 1.36D+00 NAtFMM=   60 NAOKFM=F Big=F
 Integral buffers will be    131072 words long.
 Raffenetti 2 integral format.
 Two-electron integral symmetry is turned on.
 One-electron integrals computed using PRISM.
 NBasis=    53 RedAO= T EigKep=  4.84D-03  NBF=    39    14
 NBsUse=    53 1.00D-06 EigRej= -1.00D+00 NBFU=    39    14
 ExpMin= 1.61D-01 ExpMax= 5.48D+03 ExpMxC= 8.25D+02 IAcc=3 IRadAn=         5 AccDes= 0.00D+00
 Harris functional with IExCor= 1009 and IRadAn=       5 diagonalized for initial guess.
 HarFok:  IExCor= 1009 AccDes= 0.00D+00 IRadAn=         5 IDoV= 1 UseB2=F ITyADJ=14
 ICtDFT=  3500011 ScaDFX=  1.000000  1.000000  1.000000  1.000000
 FoFCou: FMM=F IPFlag=           0 FMFlag=      100000 FMFlg1=           0
         NFxFlg=           0 DoJE=T BraDBF=F KetDBF=T FulRan=T
         wScrn=  0.000000 ICntrl=       500 IOpCl=  0 I1Cent=   200000004 NGrid=           0
         NMat0=    1 NMatS0=      1 NMatT0=    0 NMatD0=    1 NMtDS0=    0 NMtDT0=    0
 Petite list used in FoFCou.
 Initial guess orbital symmetries:
       Occupied  (A') (A') (A') (A') (A') (A') (A') (A') (A") (A')
                 (A") (A')
       Virtual   (A") (A') (A') (A') (A") (A') (A') (A') (A") (A')
                 (A") (A') (A') (A') (A') (A") (A') (A') (A') (A")
                 (A') (A') (A") (A') (A") (A') (A") (A') (A') (A')
                 (A") (A') (A") (A') (A') (A") (A') (A') (A') (A')
                 (A')
 The electronic state of the initial guess is 1-A'.
 Keep R1 ints in memory in symmetry-blocked form, NReq=4533903.
 Requested convergence on RMS density matrix=1.00D-08 within 128 cycles.
 Requested convergence on MAX density matrix=1.00D-06.
 Requested convergence on             energy=1.00D-06.
 No special actions if energy rises.
 Integral accuracy reduced to 1.0D-05 until final iterations.
 Initial convergence to 1.0D-05 achieved.  Increase integral accuracy.
 SCF Done:  E(RM062X) =  -153.738270842     A.U. after   14 cycles
            NFock= 14  Conv=0.36D-08     -V/T= 2.0070

 **********************************************************************

            Population analysis using the SCF density.

 **********************************************************************

 Orbital symmetries:
       Occupied  (A') (A') (A') (A') (A') (A') (A') (A") (A') (A')
                 (A") (A')
       Virtual   (A") (A') (A') (A") (A') (A') (A') (A") (A') (A")
                 (A') (A') (A') (A') (A') (A") (A') (A') (A') (A")
                 (A') (A') (A") (A') (A") (A') (A") (A') (A') (A')
                 (A") (A') (A") (A') (A") (A') (A') (A') (A') (A')
                 (A')
 The electronic state is 1-A'.
 Alpha  occ. eigenvalues --  -19.63718 -10.63453 -10.54213  -1.18577  -0.83252
 Alpha  occ. eigenvalues --   -0.67574  -0.56331  -0.51147  -0.50254  -0.46026
 Alpha  occ. eigenvalues --   -0.42676  -0.31950
 Alpha virt. eigenvalues --    0.03590   0.16861   0.17979   0.20840   0.20959
 Alpha virt. eigenvalues --    0.27530   0.34873   0.57835   0.58856   0.64491
 Alpha virt. eigenvalues --    0.65615   0.73216   0.78218   0.82068   0.91448
 Alpha virt. eigenvalues --    0.92277   0.95961   0.99234   1.00611   1.06846
 Alpha virt. eigenvalues --    1.15781   1.25589   1.46962   1.48413   1.59889
 Alpha virt. eigenvalues --    1.70645   1.86803   1.88607   2.05230   2.12187
 Alpha virt. eigenvalues --    2.13083   2.24545   2.36880   2.37819   2.63307
 Alpha virt. eigenvalues --    2.64757   2.87643   3.02107   3.83611   4.11067
 Alpha virt. eigenvalues --    4.35474
          Condensed to atoms (all electrons):
               1          2          3          4          5          6
     1  C    4.559346   0.342534   0.581332   0.344237  -0.039517  -0.021858
     2  C    0.342534   5.400172  -0.141191  -0.096225   0.372522   0.347262
     3  O    0.581332  -0.141191   7.976092  -0.047207   0.009268   0.003065
     4  H    0.344237  -0.096225  -0.047207   0.640811   0.004867   0.004417
     5  H   -0.039517   0.372522   0.009268   0.004867   0.479303  -0.016981
     6  H   -0.021858   0.347262   0.003065   0.004417  -0.016981   0.534811
     7  H   -0.021858   0.347262   0.003065   0.004417  -0.016981  -0.025103
               7
     1  C   -0.021858
     2  C    0.347262
     3  O    0.003065
     4  H    0.004417
     5  H   -0.016981
     6  H   -0.025103
     7  H    0.534811
 Mulliken charges:
               1
     1  C    0.255784
     2  C   -0.572337
     3  O   -0.384425
     4  H    0.144683
     5  H    0.207520
     6  H    0.174387
     7  H    0.174387
 Sum of Mulliken charges =  -0.00000
 Mulliken charges with hydrogens summed into heavy atoms:
               1
     1  C    0.400467
     2  C   -0.016042
     3  O   -0.384425
 Electronic spatial extent (au):  <R**2>=            155.2556
 Charge=             -0.0000 electrons
 Dipole moment (field-independent basis, Debye):
    X=             -2.3243    Y=              0.4604    Z=              0.0000  Tot=              2.3694
 Quadrupole moment (field-independent basis, Debye-Ang):
   XX=            -20.7215   YY=            -17.0873   ZZ=            -17.7086
   XY=             -0.7645   XZ=              0.0000   YZ=              0.0000
 Traceless Quadrupole moment (field-independent basis, Debye-Ang):
   XX=             -2.2157   YY=              1.4185   ZZ=              0.7972
   XY=             -0.7645   XZ=              0.0000   YZ=              0.0000
 Octapole moment (field-independent basis, Debye-Ang**2):
  XXX=              0.3283  YYY=              2.4479  ZZZ=             -0.0000  XYY=              1.3888
  XXY=             -0.5387  XXZ=             -0.0000  XZZ=              0.8047  YZZ=              0.4527
  YYZ=             -0.0000  XYZ=             -0.0000
 Hexadecapole moment (field-independent basis, Debye-Ang**3):
 XXXX=           -109.2484 YYYY=            -62.0785 ZZZZ=            -22.3096 XXXY=            -17.9865
 XXXZ=              0.0000 YYYX=            -19.1845 YYYZ=              0.0000 ZZZX=              0.0000
 ZZZY=              0.0000 XXYY=            -29.7286 XXZZ=            -19.4570 YYZZ=            -15.0151
 XXYZ=              0.0000 YYXZ=             -0.0000 ZZXY=             -5.1770
 N-N= 7.152208007683D+01 E-N=-5.023238057785D+02  KE= 1.526752704618D+02
 Symmetry A'   KE= 1.471319601473D+02
 Symmetry A"   KE= 5.543310314420D+00
 1\1\GINC-NODE62\SP\RM062X\6-31G(d)\C2H4O1\YANZ\22-Sep-2023\0\\#m062x/6
 -31g(d) scf=tight\\tmpdir/M2_conf_0_45.gjf\\0,1\C,0,0.,0.,0.\C,0,1.504
 ,0.,0.\O,0,-0.38984,0.,-1.11883\H,0,-0.60409,0.,0.89899\H,0,1.75166,0.
 ,-1.05923\H,0,1.91366,0.87904,0.51655\H,0,1.91366,-0.87904,0.51655\\Ve
 rsion=ES64L-G16RevA.03\State=1-A'\HF=-153.7382708\RMSD=3.640e-09\Dipol
 e=0.3996698,0.,0.8421889\Quadrupole=-0.4495212,0.5926832,-0.143162,0.,
 -1.4576311,0.\PG=CS [SG(C2H2O1),X(H2)]\\@


 LET US PLACE AT THE END OF EVERY CHAPTER.....THE
 TWO LETTERS USED BY THE ROMAN JUDGES WHEN THEY DID
 NOT UNDERSTAND A PLEADING.
 N. L. -NON LIQUET- IT IS NOT CLEAR.
                                              -- VOLTAIRE
 Job cpu time:       0 days  0 hours  0 minutes 12.8 seconds.
 Elapsed time:       0 days  0 hours  0 minutes  3.4 seconds.
 File lengths (MBytes):  RWF=      6 Int=      0 D2E=      0 Chk=      1 Scr=      1
 Normal termination of Gaussian 16 at Fri Sep 22 17:02:25 2023.
