 Entering Gaussian System, Link 0=g16
 Initial command:
 /share/apps/gaussian/g16/l1.exe "/tmp/55613.mgr/Gau-179890.inp" -scrdir="/tmp/55613.mgr/"
 Entering Link 1 = /share/apps/gaussian/g16/l1.exe PID=    179895.
  
 Copyright (c) 1988,1990,1992,1993,1995,1998,2003,2009,2016,
            Gaussian, Inc.  All Rights Reserved.
  
 This is part of the Gaussian(R) 16 program.  It is based on
 the Gaussian(R) 09 system (copyright 2009, Gaussian, Inc.),
 the Gaussian(R) 03 system (copyright 2003, Gaussian, Inc.),
 the Gaussian(R) 98 system (copyright 1998, Gaussian, Inc.),
 the Gaussian(R) 94 system (copyright 1995, Gaussian, Inc.),
 the Gaussian 92(TM) system (copyright 1992, Gaussian, Inc.),
 the Gaussian 90(TM) system (copyright 1990, Gaussian, Inc.),
 the Gaussian 88(TM) system (copyright 1988, Gaussian, Inc.),
 the Gaussian 86(TM) system (copyright 1986, Carnegie Mellon
 University), and the Gaussian 82(TM) system (copyright 1983,
 Carnegie Mellon University). Gaussian is a federally registered
 trademark of Gaussian, Inc.
  
 This software contains proprietary and confidential information,
 including trade secrets, belonging to Gaussian, Inc.
  
 This software is provided under written license and may be
 used, copied, transmitted, or stored only in accord with that
 written license.
  
 The following legend is applicable only to US Government
 contracts under FAR:
  
                    RESTRICTED RIGHTS LEGEND
  
 Use, reproduction and disclosure by the US Government is
 subject to restrictions as set forth in subparagraphs (a)
 and (c) of the Commercial Computer Software - Restricted
 Rights clause in FAR 52.227-19.
  
 Gaussian, Inc.
 340 Quinnipiac St., Bldg. 40, Wallingford CT 06492
  
  
 ---------------------------------------------------------------
 Warning -- This program may not be used in any manner that
 competes with the business of Gaussian, Inc. or will provide
 assistance to any competitor of Gaussian, Inc.  The licensee
 of this program is prohibited from giving any competitor of
 Gaussian, Inc. access to this program.  By using this program,
 the user acknowledges that Gaussian, Inc. is engaged in the
 business of creating and licensing software in the field of
 computational chemistry and represents and warrants to the
 licensee that it is not a competitor of Gaussian, Inc. and that
 it will not use this program in any manner prohibited above.
 ---------------------------------------------------------------
  

 Cite this work as:
 Gaussian 16, Revision A.03,
 M. J. Frisch, G. W. Trucks, H. B. Schlegel, G. E. Scuseria, 
 M. A. Robb, J. R. Cheeseman, G. Scalmani, V. Barone, 
 G. A. Petersson, H. Nakatsuji, X. Li, M. Caricato, A. V. Marenich, 
 J. Bloino, B. G. Janesko, R. Gomperts, B. Mennucci, H. P. Hratchian, 
 J. V. Ortiz, A. F. Izmaylov, J. L. Sonnenberg, D. Williams-Young, 
 F. Ding, F. Lipparini, F. Egidi, J. Goings, B. Peng, A. Petrone, 
 T. Henderson, D. Ranasinghe, V. G. Zakrzewski, J. Gao, N. Rega, 
 G. Zheng, W. Liang, M. Hada, M. Ehara, K. Toyota, R. Fukuda, 
 J. Hasegawa, M. Ishida, T. Nakajima, Y. Honda, O. Kitao, H. Nakai, 
 T. Vreven, K. Throssell, J. A. Montgomery, Jr., J. E. Peralta, 
 F. Ogliaro, M. J. Bearpark, J. J. Heyd, E. N. Brothers, K. N. Kudin, 
 V. N. Staroverov, T. A. Keith, R. Kobayashi, J. Normand, 
 K. Raghavachari, A. P. Rendell, J. C. Burant, S. S. Iyengar, 
 J. Tomasi, M. Cossi, J. M. Millam, M. Klene, C. Adamo, R. Cammi, 
 J. W. Ochterski, R. L. Martin, K. Morokuma, O. Farkas, 
 J. B. Foresman, and D. J. Fox, Gaussian, Inc., Wallingford CT, 2016.
 
 ******************************************
 Gaussian 16:  ES64L-G16RevA.03 25-Dec-2016
                22-Sep-2023 
 ******************************************
 %nprocshared=4
 Will use up to    4 processors via shared memory.
 %mem=4GB
 -------------------------
 #m062x/6-31g(d) scf=tight
 -------------------------
 1/38=1,172=1/1;
 2/12=2,17=6,18=5,40=1/2;
 3/5=1,6=6,7=1,11=2,25=1,30=1,74=-55/1,2,3;
 4//1;
 5/5=2,32=2,38=5/2;
 6/7=2,8=2,9=2,10=2,28=1/1;
 99/5=1,9=1/99;
 -----------------------
 tmpdir/M2_conf_0_12.gjf
 -----------------------
 Symbolic Z-matrix:
 Charge =  0 Multiplicity = 1
 C                     0.        0.        0. 
 H                     1.0922    0.        0. 
 H                    -0.43743   0.       -1.02257 
 H                    -0.32275  -0.85104   0.6057 
 H                    -0.35997   0.93635   0.47422 
 
                          Input orientation:                          
 ---------------------------------------------------------------------
 Center     Atomic      Atomic             Coordinates (Angstroms)
 Number     Number       Type             X           Y           Z
 ---------------------------------------------------------------------
      1          6           0        0.000000    0.000000    0.000000
      2          1           0        1.092200    0.000000    0.000000
      3          1           0       -0.437430    0.000000   -1.022570
      4          1           0       -0.322750   -0.851040    0.605700
      5          1           0       -0.359970    0.936350    0.474220
 ---------------------------------------------------------------------
                    Distance matrix (angstroms):
                    1          2          3          4          5
     1  C    0.000000
     2  H    1.092200   0.000000
     3  H    1.112203   1.839950   0.000000
     4  H    1.093302   1.758757   1.840838   0.000000
     5  H    1.109601   1.791768   1.767238   1.792606   0.000000
 Stoichiometry    CH4
 Framework group  C1[X(CH4)]
 Deg. of freedom     9
 Full point group                 C1      NOp   1
 Largest Abelian subgroup         C1      NOp   1
 Largest concise Abelian subgroup C1      NOp   1
                         Standard orientation:                         
 ---------------------------------------------------------------------
 Center     Atomic      Atomic             Coordinates (Angstroms)
 Number     Number       Type             X           Y           Z
 ---------------------------------------------------------------------
      1          6           0       -0.002156    0.000972   -0.010387
      2          1           0       -0.627573   -0.860359   -0.255059
      3          1           0        0.911709    0.071055   -0.640414
      4          1           0       -0.636859    0.888952   -0.073258
      5          1           0        0.365659   -0.105479    1.031052
 ---------------------------------------------------------------------
 Rotational constants (GHZ):         162.2147755         151.5396609         151.4494843
 Standard basis: 6-31G(d) (6D, 7F)
 There are    23 symmetry adapted cartesian basis functions of A   symmetry.
 There are    23 symmetry adapted basis functions of A   symmetry.
    23 basis functions,    44 primitive gaussians,    23 cartesian basis functions
     5 alpha electrons        5 beta electrons
       nuclear repulsion energy        13.2932644045 Hartrees.
 NAtoms=    5 NActive=    5 NUniq=    5 SFac= 1.00D+00 NAtFMM=   60 NAOKFM=F Big=F
 Integral buffers will be    131072 words long.
 Raffenetti 2 integral format.
 Two-electron integral symmetry is turned on.
 One-electron integrals computed using PRISM.
 NBasis=    23 RedAO= T EigKep=  1.85D-02  NBF=    23
 NBsUse=    23 1.00D-06 EigRej= -1.00D+00 NBFU=    23
 ExpMin= 1.61D-01 ExpMax= 3.05D+03 ExpMxC= 4.57D+02 IAcc=3 IRadAn=         5 AccDes= 0.00D+00
 Harris functional with IExCor= 1009 and IRadAn=       5 diagonalized for initial guess.
 HarFok:  IExCor= 1009 AccDes= 0.00D+00 IRadAn=         5 IDoV= 1 UseB2=F ITyADJ=14
 ICtDFT=  3500011 ScaDFX=  1.000000  1.000000  1.000000  1.000000
 FoFCou: FMM=F IPFlag=           0 FMFlag=      100000 FMFlg1=           0
         NFxFlg=           0 DoJE=T BraDBF=F KetDBF=T FulRan=T
         wScrn=  0.000000 ICntrl=       500 IOpCl=  0 I1Cent=   200000004 NGrid=           0
         NMat0=    1 NMatS0=      1 NMatT0=    0 NMatD0=    1 NMtDS0=    0 NMtDT0=    0
 Petite list used in FoFCou.
 Keep R1 ints in memory in canonical form, NReq=3489464.
 Requested convergence on RMS density matrix=1.00D-08 within 128 cycles.
 Requested convergence on MAX density matrix=1.00D-06.
 Requested convergence on             energy=1.00D-06.
 No special actions if energy rises.
 Integral accuracy reduced to 1.0D-05 until final iterations.
 Initial convergence to 1.0D-05 achieved.  Increase integral accuracy.
 SCF Done:  E(RM062X) =  -40.4805460812     A.U. after   10 cycles
            NFock= 10  Conv=0.48D-08     -V/T= 2.0109

 **********************************************************************

            Population analysis using the SCF density.

 **********************************************************************

 Orbital symmetries:
       Occupied  (A) (A) (A) (A) (A)
       Virtual   (A) (A) (A) (A) (A) (A) (A) (A) (A) (A) (A) (A)
                 (A) (A) (A) (A) (A) (A)
 The electronic state is 1-A.
 Alpha  occ. eigenvalues --  -10.52742  -0.77843  -0.46170  -0.44885  -0.44036
 Alpha virt. eigenvalues --    0.16487   0.21581   0.22283   0.22743   0.58001
 Alpha virt. eigenvalues --    0.58424   0.59468   0.94669   0.96373   0.97232
 Alpha virt. eigenvalues --    1.01532   1.13328   1.71686   1.71865   2.26654
 Alpha virt. eigenvalues --    2.29163   2.30456   4.21162
          Condensed to atoms (all electrons):
               1          2          3          4          5
     1  C    5.138362   0.384394   0.382810   0.384285   0.381023
     2  H    0.384394   0.520132  -0.021000  -0.028925  -0.025014
     3  H    0.382810  -0.021000   0.521674  -0.020967  -0.029514
     4  H    0.384285  -0.028925  -0.020967   0.520453  -0.024980
     5  H    0.381023  -0.025014  -0.029514  -0.024980   0.535155
 Mulliken charges:
               1
     1  C   -0.670874
     2  H    0.170412
     3  H    0.166997
     4  H    0.170134
     5  H    0.163330
 Sum of Mulliken charges =  -0.00000
 Mulliken charges with hydrogens summed into heavy atoms:
               1
     1  C   -0.000000
 Electronic spatial extent (au):  <R**2>=             35.8639
 Charge=             -0.0000 electrons
 Dipole moment (field-independent basis, Debye):
    X=             -0.0107    Y=             -0.0039    Z=              0.0320  Tot=              0.0340
 Quadrupole moment (field-independent basis, Debye-Ang):
   XX=             -8.0835   YY=             -8.3781   ZZ=             -8.4557
   XY=              0.0013   XZ=             -0.0013   YZ=              0.0081
 Traceless Quadrupole moment (field-independent basis, Debye-Ang):
   XX=              0.2222   YY=             -0.0723   ZZ=             -0.1499
   XY=              0.0013   XZ=             -0.0013   YZ=              0.0081
 Octapole moment (field-independent basis, Debye-Ang**2):
  XXX=              0.1745  YYY=              0.0340  ZZZ=              0.5872  XYY=             -0.7333
  XXY=              0.0479  XXZ=             -0.3840  XZZ=              0.4845  YZZ=             -0.0918
  YYZ=             -0.1439  XYZ=             -0.1290
 Hexadecapole moment (field-independent basis, Debye-Ang**3):
 XXXX=            -15.9635 YYYY=            -15.1025 ZZZZ=            -15.2592 XXXY=              0.0382
 XXXZ=             -0.3957 YYYX=             -0.0495 YYYZ=              0.1374 ZZZX=              0.2001
 ZZZY=             -0.1155 XXYY=             -4.8975 XXZZ=             -5.0728 YYZZ=             -5.4413
 XXYZ=              0.0148 YYXZ=              0.1710 ZZXY=              0.0189
 N-N= 1.329326440449D+01 E-N=-1.195749153163D+02  KE= 4.004350841583D+01
 1\1\GINC-NODE62\SP\RM062X\6-31G(d)\C1H4\YANZ\22-Sep-2023\0\\#m062x/6-3
 1g(d) scf=tight\\tmpdir/M2_conf_0_12.gjf\\0,1\C,0,0.,0.,0.\H,0,1.0922,
 0.,0.\H,0,-0.43743,0.,-1.02257\H,0,-0.32275,-0.85104,0.6057\H,0,-0.359
 97,0.93635,0.47422\\Version=ES64L-G16RevA.03\State=1-A\HF=-40.4805461\
 RMSD=4.761e-09\Dipole=0.0008124,0.0071208,0.0112963\Quadrupole=0.01792
 98,-0.0299756,0.0120459,-0.0562723,0.0874129,-0.0992882\PG=C01 [X(C1H4
 )]\\@


 NO MATTER HOW THIN YOU SLICE IT, IT'S STILL BALONEY

                                   -- ALFRED E. SMITH
 Job cpu time:       0 days  0 hours  0 minutes  7.8 seconds.
 Elapsed time:       0 days  0 hours  0 minutes  2.1 seconds.
 File lengths (MBytes):  RWF=      6 Int=      0 D2E=      0 Chk=      1 Scr=      1
 Normal termination of Gaussian 16 at Fri Sep 22 17:02:00 2023.
