 Entering Gaussian System, Link 0=g16
 Initial command:
 /share/apps/gaussian/g16/l1.exe "/tmp/55613.mgr/Gau-181787.inp" -scrdir="/tmp/55613.mgr/"
 Entering Link 1 = /share/apps/gaussian/g16/l1.exe PID=    181788.
  
 Copyright (c) 1988,1990,1992,1993,1995,1998,2003,2009,2016,
            Gaussian, Inc.  All Rights Reserved.
  
 This is part of the Gaussian(R) 16 program.  It is based on
 the Gaussian(R) 09 system (copyright 2009, Gaussian, Inc.),
 the Gaussian(R) 03 system (copyright 2003, Gaussian, Inc.),
 the Gaussian(R) 98 system (copyright 1998, Gaussian, Inc.),
 the Gaussian(R) 94 system (copyright 1995, Gaussian, Inc.),
 the Gaussian 92(TM) system (copyright 1992, Gaussian, Inc.),
 the Gaussian 90(TM) system (copyright 1990, Gaussian, Inc.),
 the Gaussian 88(TM) system (copyright 1988, Gaussian, Inc.),
 the Gaussian 86(TM) system (copyright 1986, Carnegie Mellon
 University), and the Gaussian 82(TM) system (copyright 1983,
 Carnegie Mellon University). Gaussian is a federally registered
 trademark of Gaussian, Inc.
  
 This software contains proprietary and confidential information,
 including trade secrets, belonging to Gaussian, Inc.
  
 This software is provided under written license and may be
 used, copied, transmitted, or stored only in accord with that
 written license.
  
 The following legend is applicable only to US Government
 contracts under FAR:
  
                    RESTRICTED RIGHTS LEGEND
  
 Use, reproduction and disclosure by the US Government is
 subject to restrictions as set forth in subparagraphs (a)
 and (c) of the Commercial Computer Software - Restricted
 Rights clause in FAR 52.227-19.
  
 Gaussian, Inc.
 340 Quinnipiac St., Bldg. 40, Wallingford CT 06492
  
  
 ---------------------------------------------------------------
 Warning -- This program may not be used in any manner that
 competes with the business of Gaussian, Inc. or will provide
 assistance to any competitor of Gaussian, Inc.  The licensee
 of this program is prohibited from giving any competitor of
 Gaussian, Inc. access to this program.  By using this program,
 the user acknowledges that Gaussian, Inc. is engaged in the
 business of creating and licensing software in the field of
 computational chemistry and represents and warrants to the
 licensee that it is not a competitor of Gaussian, Inc. and that
 it will not use this program in any manner prohibited above.
 ---------------------------------------------------------------
  

 Cite this work as:
 Gaussian 16, Revision A.03,
 M. J. Frisch, G. W. Trucks, H. B. Schlegel, G. E. Scuseria, 
 M. A. Robb, J. R. Cheeseman, G. Scalmani, V. Barone, 
 G. A. Petersson, H. Nakatsuji, X. Li, M. Caricato, A. V. Marenich, 
 J. Bloino, B. G. Janesko, R. Gomperts, B. Mennucci, H. P. Hratchian, 
 J. V. Ortiz, A. F. Izmaylov, J. L. Sonnenberg, D. Williams-Young, 
 F. Ding, F. Lipparini, F. Egidi, J. Goings, B. Peng, A. Petrone, 
 T. Henderson, D. Ranasinghe, V. G. Zakrzewski, J. Gao, N. Rega, 
 G. Zheng, W. Liang, M. Hada, M. Ehara, K. Toyota, R. Fukuda, 
 J. Hasegawa, M. Ishida, T. Nakajima, Y. Honda, O. Kitao, H. Nakai, 
 T. Vreven, K. Throssell, J. A. Montgomery, Jr., J. E. Peralta, 
 F. Ogliaro, M. J. Bearpark, J. J. Heyd, E. N. Brothers, K. N. Kudin, 
 V. N. Staroverov, T. A. Keith, R. Kobayashi, J. Normand, 
 K. Raghavachari, A. P. Rendell, J. C. Burant, S. S. Iyengar, 
 J. Tomasi, M. Cossi, J. M. Millam, M. Klene, C. Adamo, R. Cammi, 
 J. W. Ochterski, R. L. Martin, K. Morokuma, O. Farkas, 
 J. B. Foresman, and D. J. Fox, Gaussian, Inc., Wallingford CT, 2016.
 
 ******************************************
 Gaussian 16:  ES64L-G16RevA.03 25-Dec-2016
                22-Sep-2023 
 ******************************************
 %nprocshared=4
 Will use up to    4 processors via shared memory.
 %mem=4GB
 -------------------------
 #m062x/6-31g(d) scf=tight
 -------------------------
 1/38=1,172=1/1;
 2/12=2,17=6,18=5,40=1/2;
 3/5=1,6=6,7=1,11=2,25=1,30=1,74=-55/1,2,3;
 4//1;
 5/5=2,32=2,38=5/2;
 6/7=2,8=2,9=2,10=2,28=1/1;
 99/5=1,9=1/99;
 -----------------------
 tmpdir/M2_conf_0_56.gjf
 -----------------------
 Symbolic Z-matrix:
 Charge =  0 Multiplicity = 1
 C                     0.        0.        0. 
 C                     1.5027    0.        0. 
 C                     1.75977   0.        1.48055 
 O                    -0.38984   0.        1.11883 
 H                    -0.60409   0.       -0.89899 
 H                     1.91236  -0.87904  -0.51655 
 H                     1.91236   0.87904  -0.51655 
 O                     0.72412   0.        2.05604 
 H                     2.74884   0.        1.92195 
 
                          Input orientation:                          
 ---------------------------------------------------------------------
 Center     Atomic      Atomic             Coordinates (Angstroms)
 Number     Number       Type             X           Y           Z
 ---------------------------------------------------------------------
      1          6           0        0.000000    0.000000    0.000000
      2          6           0        1.502700    0.000000    0.000000
      3          6           0        1.759770    0.000000    1.480550
      4          8           0       -0.389840    0.000000    1.118830
      5          1           0       -0.604090    0.000000   -0.898990
      6          1           0        1.912360   -0.879040   -0.516550
      7          1           0        1.912360    0.879040   -0.516550
      8          8           0        0.724120    0.000000    2.056040
      9          1           0        2.748840    0.000000    1.921950
 ---------------------------------------------------------------------
                    Distance matrix (angstroms):
                    1          2          3          4          5
     1  C    0.000000
     2  C    1.502700   0.000000
     3  C    2.299743   1.502702   0.000000
     4  O    1.184802   2.198520   2.179831   0.000000
     5  H    1.083101   2.290578   3.354109   2.029163   0.000000
     6  H    2.167177   1.098798   2.187328   2.957584   2.692859
     7  H    2.167177   1.098798   2.187328   2.957584   2.692859
     8  O    2.179828   2.198519   1.184804   1.455771   3.239806
     9  H    3.354104   2.290580   1.083094   3.239802   4.381762
                    6          7          8          9
     6  H    0.000000
     7  H    1.758080   0.000000
     8  O    2.966959   2.966959   0.000000
     9  H    2.723728   2.723728   2.029155   0.000000
 Stoichiometry    C3H4O2
 Framework group  CS[SG(C3H2O2),X(H2)]
 Deg. of freedom    14
 Full point group                 CS      NOp   2
 Largest Abelian subgroup         CS      NOp   2
 Largest concise Abelian subgroup CS      NOp   2
                         Standard orientation:                         
 ---------------------------------------------------------------------
 Center     Atomic      Atomic             Coordinates (Angstroms)
 Number     Number       Type             X           Y           Z
 ---------------------------------------------------------------------
      1          6           0       -1.025505    0.559647    0.000000
      2          6           0       -0.742784   -0.916218    0.000000
      3          6           0        0.759692   -0.890143    0.000000
      4          8           0        0.000000    1.153024    0.000000
      5          1           0       -2.022095    0.983811    0.000000
      6          1           0       -1.173035   -1.415747    0.879040
      7          1           0       -1.173035   -1.415747   -0.879040
      8          8           0        1.130056    0.235286    0.000000
      9          1           0        1.379295   -1.778505    0.000000
 ---------------------------------------------------------------------
 Rotational constants (GHZ):           9.7195180           8.4348449           4.6451601
 Standard basis: 6-31G(d) (6D, 7F)
 There are    61 symmetry adapted cartesian basis functions of A'  symmetry.
 There are    22 symmetry adapted cartesian basis functions of A"  symmetry.
 There are    61 symmetry adapted basis functions of A'  symmetry.
 There are    22 symmetry adapted basis functions of A"  symmetry.
    83 basis functions,   156 primitive gaussians,    83 cartesian basis functions
    19 alpha electrons       19 beta electrons
       nuclear repulsion energy       182.0385585796 Hartrees.
 NAtoms=    9 NActive=    9 NUniq=    8 SFac= 1.27D+00 NAtFMM=   60 NAOKFM=F Big=F
 Integral buffers will be    131072 words long.
 Raffenetti 2 integral format.
 Two-electron integral symmetry is turned on.
 One-electron integrals computed using PRISM.
 NBasis=    83 RedAO= T EigKep=  3.42D-03  NBF=    61    22
 NBsUse=    83 1.00D-06 EigRej= -1.00D+00 NBFU=    61    22
 ExpMin= 1.61D-01 ExpMax= 5.48D+03 ExpMxC= 8.25D+02 IAcc=3 IRadAn=         5 AccDes= 0.00D+00
 Harris functional with IExCor= 1009 and IRadAn=       5 diagonalized for initial guess.
 HarFok:  IExCor= 1009 AccDes= 0.00D+00 IRadAn=         5 IDoV= 1 UseB2=F ITyADJ=14
 ICtDFT=  3500011 ScaDFX=  1.000000  1.000000  1.000000  1.000000
 FoFCou: FMM=F IPFlag=           0 FMFlag=      100000 FMFlg1=           0
         NFxFlg=           0 DoJE=T BraDBF=F KetDBF=T FulRan=T
         wScrn=  0.000000 ICntrl=       500 IOpCl=  0 I1Cent=   200000004 NGrid=           0
         NMat0=    1 NMatS0=      1 NMatT0=    0 NMatD0=    1 NMtDS0=    0 NMtDT0=    0
 Petite list used in FoFCou.
 Initial guess orbital symmetries:
       Occupied  (A') (A') (A') (A') (A') (A') (A') (A') (A') (A')
                 (A') (A") (A') (A') (A") (A') (A") (A') (A")
       Virtual   (A') (A") (A') (A') (A') (A") (A') (A') (A') (A')
                 (A") (A') (A') (A") (A') (A') (A') (A') (A") (A')
                 (A') (A") (A') (A') (A') (A") (A') (A") (A') (A')
                 (A") (A') (A') (A") (A") (A') (A') (A") (A') (A')
                 (A') (A") (A') (A') (A") (A') (A') (A") (A') (A")
                 (A') (A") (A') (A") (A') (A') (A') (A') (A') (A')
                 (A') (A') (A') (A')
 The electronic state of the initial guess is 1-A'.
 Keep R1 ints in memory in symmetry-blocked form, NReq=9708548.
 Requested convergence on RMS density matrix=1.00D-08 within 128 cycles.
 Requested convergence on MAX density matrix=1.00D-06.
 Requested convergence on             energy=1.00D-06.
 No special actions if energy rises.
 Integral accuracy reduced to 1.0D-05 until final iterations.
 Initial convergence to 1.0D-05 achieved.  Increase integral accuracy.
 SCF Done:  E(RM062X) =  -266.707351455     A.U. after   17 cycles
            NFock= 17  Conv=0.40D-08     -V/T= 2.0043

 **********************************************************************

            Population analysis using the SCF density.

 **********************************************************************

 Orbital symmetries:
       Occupied  (A') (A') (A') (A') (A') (A') (A') (A') (A') (A')
                 (A') (A") (A') (A') (A") (A") (A') (A') (A")
       Virtual   (A') (A") (A') (A') (A') (A") (A') (A') (A') (A')
                 (A") (A') (A") (A') (A') (A') (A') (A") (A') (A')
                 (A') (A") (A') (A') (A") (A') (A') (A") (A') (A')
                 (A') (A') (A") (A") (A") (A') (A') (A") (A') (A')
                 (A') (A') (A") (A') (A") (A') (A') (A') (A") (A")
                 (A") (A') (A") (A') (A') (A') (A') (A') (A') (A')
                 (A') (A') (A') (A')
 The electronic state is 1-A'.
 Alpha  occ. eigenvalues --  -19.77297 -19.77196 -10.58348 -10.58197 -10.55643
 Alpha  occ. eigenvalues --   -1.38081  -1.19733  -0.87919  -0.77521  -0.67771
 Alpha  occ. eigenvalues --   -0.65489  -0.62071  -0.54940  -0.54839  -0.47776
 Alpha  occ. eigenvalues --   -0.46328  -0.44142  -0.42378  -0.13211
 Alpha virt. eigenvalues --    0.00216   0.01129   0.17407   0.19566   0.20207
 Alpha virt. eigenvalues --    0.22706   0.24230   0.30913   0.37742   0.39086
 Alpha virt. eigenvalues --    0.58686   0.61400   0.62113   0.63418   0.66924
 Alpha virt. eigenvalues --    0.72352   0.75574   0.76916   0.76997   0.84595
 Alpha virt. eigenvalues --    0.85416   0.92243   0.94602   0.95101   0.97401
 Alpha virt. eigenvalues --    0.98145   1.01496   1.07899   1.09264   1.20441
 Alpha virt. eigenvalues --    1.38179   1.39402   1.44698   1.48859   1.52508
 Alpha virt. eigenvalues --    1.56284   1.61287   1.62916   1.73046   1.84633
 Alpha virt. eigenvalues --    1.89768   1.97978   1.98040   2.09461   2.09976
 Alpha virt. eigenvalues --    2.17564   2.34106   2.39563   2.40799   2.46301
 Alpha virt. eigenvalues --    2.52732   2.54425   2.70281   2.70623   2.83839
 Alpha virt. eigenvalues --    2.91398   2.95116   3.12636   3.23624   3.78399
 Alpha virt. eigenvalues --    4.14154   4.21794   4.24609   4.46814
          Condensed to atoms (all electrons):
               1          2          3          4          5          6
     1  C    5.234080   0.393924   0.059072   0.237592   0.378049  -0.075191
     2  C    0.393924   5.026923   0.393382  -0.058004  -0.033594   0.367030
     3  C    0.059072   0.393382   5.235465  -0.106840   0.002216  -0.072402
     4  O    0.237592  -0.058004  -0.106840   7.879395  -0.027896   0.005395
     5  H    0.378049  -0.033594   0.002216  -0.027896   0.455882   0.000761
     6  H   -0.075191   0.367030  -0.072402   0.005395   0.000761   0.743535
     7  H   -0.075191   0.367030  -0.072402   0.005395   0.000761  -0.103616
     8  O   -0.107448  -0.057649   0.234939   0.177173   0.003564   0.005358
     9  H    0.002158  -0.033563   0.378568   0.003574   0.000005   0.000726
               7          8          9
     1  C   -0.075191  -0.107448   0.002158
     2  C    0.367030  -0.057649  -0.033563
     3  C   -0.072402   0.234939   0.378568
     4  O    0.005395   0.177173   0.003574
     5  H    0.000761   0.003564   0.000005
     6  H   -0.103616   0.005358   0.000726
     7  H    0.743535   0.005358   0.000726
     8  O    0.005358   7.883022  -0.027937
     9  H    0.000726  -0.027937   0.456123
 Mulliken charges:
               1
     1  C   -0.047044
     2  C   -0.365479
     3  C   -0.051996
     4  O   -0.115783
     5  H    0.220251
     6  H    0.128404
     7  H    0.128404
     8  O   -0.116378
     9  H    0.219620
 Sum of Mulliken charges =  -0.00000
 Mulliken charges with hydrogens summed into heavy atoms:
               1
     1  C    0.173207
     2  C   -0.108671
     3  C    0.167624
     4  O   -0.115783
     8  O   -0.116378
 Electronic spatial extent (au):  <R**2>=            293.4400
 Charge=             -0.0000 electrons
 Dipole moment (field-independent basis, Debye):
    X=             -0.5246    Y=             -0.5649    Z=              0.0000  Tot=              0.7709
 Quadrupole moment (field-independent basis, Debye-Ang):
   XX=            -26.4622   YY=            -28.0707   ZZ=            -30.4605
   XY=             -3.6537   XZ=             -0.0000   YZ=             -0.0000
 Traceless Quadrupole moment (field-independent basis, Debye-Ang):
   XX=              1.8689   YY=              0.2605   ZZ=             -2.1294
   XY=             -3.6537   XZ=             -0.0000   YZ=             -0.0000
 Octapole moment (field-independent basis, Debye-Ang**2):
  XXX=              1.5924  YYY=              4.1227  ZZZ=              0.0000  XYY=              4.1761
  XXY=              3.2102  XXZ=              0.0000  XZZ=              2.4302  YZZ=              3.0986
  YYZ=              0.0000  XYZ=              0.0000
 Hexadecapole moment (field-independent basis, Debye-Ang**3):
 XXXX=           -155.7257 YYYY=           -160.4267 ZZZZ=            -36.1401 XXXY=             -7.0142
 XXXZ=              0.0000 YYYX=             -5.1179 YYYZ=             -0.0000 ZZZX=              0.0000
 ZZZY=             -0.0000 XXYY=            -49.7357 XXZZ=            -36.7538 YYZZ=            -35.4779
 XXYZ=             -0.0000 YYXZ=              0.0000 ZZXY=              3.0194
 N-N= 1.820385585796D+02 E-N=-9.881757817964D+02  KE= 2.655713745988D+02
 Symmetry A'   KE= 2.520581917861D+02
 Symmetry A"   KE= 1.351318281274D+01
 1\1\GINC-NODE62\SP\RM062X\6-31G(d)\C3H4O2\YANZ\22-Sep-2023\0\\#m062x/6
 -31g(d) scf=tight\\tmpdir/M2_conf_0_56.gjf\\0,1\C,0,0.,0.,0.\C,0,1.502
 7,0.,0.\C,0,1.75977,0.,1.48055\O,0,-0.38984,0.,1.11883\H,0,-0.60409,0.
 ,-0.89899\H,0,1.91236,-0.87904,-0.51655\H,0,1.91236,0.87904,-0.51655\O
 ,0,0.72412,0.,2.05604\H,0,2.74884,0.,1.92195\\Version=ES64L-G16RevA.03
 \State=1-A'\HF=-266.7073515\RMSD=4.029e-09\Dipole=0.1794343,0.,-0.2445
 376\Quadrupole=1.2398818,-1.583146,0.3432643,0.,2.7450986,0.\PG=CS [SG
 (C3H2O2),X(H2)]\\@


 IF MATHEMATICALLY YOU END UP WITH THE INCORRECT ANSWER,
 TRY MULTIPLYING BY THE PAGE NUMBER.
 Job cpu time:       0 days  0 hours  0 minutes 28.3 seconds.
 Elapsed time:       0 days  0 hours  0 minutes  7.3 seconds.
 File lengths (MBytes):  RWF=      6 Int=      0 D2E=      0 Chk=      2 Scr=      1
 Normal termination of Gaussian 16 at Fri Sep 22 17:02:43 2023.
