 Entering Gaussian System, Link 0=g16
 Initial command:
 /share/apps/gaussian/g16/l1.exe "/tmp/55613.mgr/Gau-181538.inp" -scrdir="/tmp/55613.mgr/"
 Entering Link 1 = /share/apps/gaussian/g16/l1.exe PID=    181539.
  
 Copyright (c) 1988,1990,1992,1993,1995,1998,2003,2009,2016,
            Gaussian, Inc.  All Rights Reserved.
  
 This is part of the Gaussian(R) 16 program.  It is based on
 the Gaussian(R) 09 system (copyright 2009, Gaussian, Inc.),
 the Gaussian(R) 03 system (copyright 2003, Gaussian, Inc.),
 the Gaussian(R) 98 system (copyright 1998, Gaussian, Inc.),
 the Gaussian(R) 94 system (copyright 1995, Gaussian, Inc.),
 the Gaussian 92(TM) system (copyright 1992, Gaussian, Inc.),
 the Gaussian 90(TM) system (copyright 1990, Gaussian, Inc.),
 the Gaussian 88(TM) system (copyright 1988, Gaussian, Inc.),
 the Gaussian 86(TM) system (copyright 1986, Carnegie Mellon
 University), and the Gaussian 82(TM) system (copyright 1983,
 Carnegie Mellon University). Gaussian is a federally registered
 trademark of Gaussian, Inc.
  
 This software contains proprietary and confidential information,
 including trade secrets, belonging to Gaussian, Inc.
  
 This software is provided under written license and may be
 used, copied, transmitted, or stored only in accord with that
 written license.
  
 The following legend is applicable only to US Government
 contracts under FAR:
  
                    RESTRICTED RIGHTS LEGEND
  
 Use, reproduction and disclosure by the US Government is
 subject to restrictions as set forth in subparagraphs (a)
 and (c) of the Commercial Computer Software - Restricted
 Rights clause in FAR 52.227-19.
  
 Gaussian, Inc.
 340 Quinnipiac St., Bldg. 40, Wallingford CT 06492
  
  
 ---------------------------------------------------------------
 Warning -- This program may not be used in any manner that
 competes with the business of Gaussian, Inc. or will provide
 assistance to any competitor of Gaussian, Inc.  The licensee
 of this program is prohibited from giving any competitor of
 Gaussian, Inc. access to this program.  By using this program,
 the user acknowledges that Gaussian, Inc. is engaged in the
 business of creating and licensing software in the field of
 computational chemistry and represents and warrants to the
 licensee that it is not a competitor of Gaussian, Inc. and that
 it will not use this program in any manner prohibited above.
 ---------------------------------------------------------------
  

 Cite this work as:
 Gaussian 16, Revision A.03,
 M. J. Frisch, G. W. Trucks, H. B. Schlegel, G. E. Scuseria, 
 M. A. Robb, J. R. Cheeseman, G. Scalmani, V. Barone, 
 G. A. Petersson, H. Nakatsuji, X. Li, M. Caricato, A. V. Marenich, 
 J. Bloino, B. G. Janesko, R. Gomperts, B. Mennucci, H. P. Hratchian, 
 J. V. Ortiz, A. F. Izmaylov, J. L. Sonnenberg, D. Williams-Young, 
 F. Ding, F. Lipparini, F. Egidi, J. Goings, B. Peng, A. Petrone, 
 T. Henderson, D. Ranasinghe, V. G. Zakrzewski, J. Gao, N. Rega, 
 G. Zheng, W. Liang, M. Hada, M. Ehara, K. Toyota, R. Fukuda, 
 J. Hasegawa, M. Ishida, T. Nakajima, Y. Honda, O. Kitao, H. Nakai, 
 T. Vreven, K. Throssell, J. A. Montgomery, Jr., J. E. Peralta, 
 F. Ogliaro, M. J. Bearpark, J. J. Heyd, E. N. Brothers, K. N. Kudin, 
 V. N. Staroverov, T. A. Keith, R. Kobayashi, J. Normand, 
 K. Raghavachari, A. P. Rendell, J. C. Burant, S. S. Iyengar, 
 J. Tomasi, M. Cossi, J. M. Millam, M. Klene, C. Adamo, R. Cammi, 
 J. W. Ochterski, R. L. Martin, K. Morokuma, O. Farkas, 
 J. B. Foresman, and D. J. Fox, Gaussian, Inc., Wallingford CT, 2016.
 
 ******************************************
 Gaussian 16:  ES64L-G16RevA.03 25-Dec-2016
                22-Sep-2023 
 ******************************************
 %nprocshared=4
 Will use up to    4 processors via shared memory.
 %mem=4GB
 -------------------------
 #m062x/6-31g(d) scf=tight
 -------------------------
 1/38=1,172=1/1;
 2/12=2,17=6,18=5,40=1/2;
 3/5=1,6=6,7=1,11=2,25=1,30=1,74=-55/1,2,3;
 4//1;
 5/5=2,32=2,38=5/2;
 6/7=2,8=2,9=2,10=2,28=1/1;
 99/5=1,9=1/99;
 -----------------------
 tmpdir/M2_conf_0_52.gjf
 -----------------------
 Symbolic Z-matrix:
 Charge =  0 Multiplicity = 1
 C                     0.        0.        0. 
 C                     1.3438    0.        0. 
 C                     1.76531   0.        1.44237 
 H                    -0.35022   0.        1.00513 
 H                    -0.64195   0.       -0.87359 
 H                     1.99381   0.       -0.86637 
 H                     0.81807   0.        1.9772 
 H                     2.37603   0.87904   1.69069 
 H                     2.37603  -0.87904   1.69069 
 
                          Input orientation:                          
 ---------------------------------------------------------------------
 Center     Atomic      Atomic             Coordinates (Angstroms)
 Number     Number       Type             X           Y           Z
 ---------------------------------------------------------------------
      1          6           0        0.000000    0.000000    0.000000
      2          6           0        1.343800    0.000000    0.000000
      3          6           0        1.765310    0.000000    1.442370
      4          1           0       -0.350220    0.000000    1.005130
      5          1           0       -0.641950    0.000000   -0.873590
      6          1           0        1.993810    0.000000   -0.866370
      7          1           0        0.818070    0.000000    1.977200
      8          1           0        2.376030    0.879040    1.690690
      9          1           0        2.376030   -0.879040    1.690690
 ---------------------------------------------------------------------
                    Distance matrix (angstroms):
                    1          2          3          4          5
     1  C    0.000000
     2  C    1.343800   0.000000
     3  C    2.279638   1.502698   0.000000
     4  H    1.064397   1.969769   2.160242   0.000000
     5  H    1.084094   2.169415   3.340445   1.901235   0.000000
     6  H    2.173908   1.083102   2.320020   2.999498   2.635770
     7  H    2.139757   2.045901   1.087799   1.519810   3.202915
     8  H    3.045761   2.167174   1.098796   2.945360   4.056655
     9  H    3.045761   2.167174   1.098796   2.945360   4.056655
                    6          7          8          9
     6  H    0.000000
     7  H    3.077053   0.000000
     8  H    2.730817   1.811640   0.000000
     9  H    2.730817   1.811640   1.758080   0.000000
 Stoichiometry    C3H6
 Framework group  CS[SG(C3H4),X(H2)]
 Deg. of freedom    14
 Full point group                 CS      NOp   2
 Largest Abelian subgroup         CS      NOp   2
 Largest concise Abelian subgroup CS      NOp   2
                         Standard orientation:                         
 ---------------------------------------------------------------------
 Center     Atomic      Atomic             Coordinates (Angstroms)
 Number     Number       Type             X           Y           Z
 ---------------------------------------------------------------------
      1          6           0       -1.187810   -0.002511   -0.000000
      2          6           0        0.000000    0.625905    0.000000
      3          6           0        1.047092   -0.451917    0.000000
      4          1           0       -1.027335   -1.054742   -0.000000
      5          1           0       -2.163768    0.469469   -0.000000
      6          1           0        0.169406    1.695677    0.000000
      7          1           0        0.459917   -1.367632   -0.000000
      8          1           0        1.703043   -0.385814    0.879040
      9          1           0        1.703043   -0.385814   -0.879040
 ---------------------------------------------------------------------
 Rotational constants (GHZ):          37.7745408          11.1733419           9.1068177
 Standard basis: 6-31G(d) (6D, 7F)
 There are    43 symmetry adapted cartesian basis functions of A'  symmetry.
 There are    14 symmetry adapted cartesian basis functions of A"  symmetry.
 There are    43 symmetry adapted basis functions of A'  symmetry.
 There are    14 symmetry adapted basis functions of A"  symmetry.
    57 basis functions,   108 primitive gaussians,    57 cartesian basis functions
    12 alpha electrons       12 beta electrons
       nuclear repulsion energy        72.3613444433 Hartrees.
 NAtoms=    9 NActive=    9 NUniq=    8 SFac= 1.27D+00 NAtFMM=   60 NAOKFM=F Big=F
 Integral buffers will be    131072 words long.
 Raffenetti 2 integral format.
 Two-electron integral symmetry is turned on.
 One-electron integrals computed using PRISM.
 NBasis=    57 RedAO= T EigKep=  4.14D-03  NBF=    43    14
 NBsUse=    57 1.00D-06 EigRej= -1.00D+00 NBFU=    43    14
 ExpMin= 1.61D-01 ExpMax= 3.05D+03 ExpMxC= 4.57D+02 IAcc=3 IRadAn=         5 AccDes= 0.00D+00
 Harris functional with IExCor= 1009 and IRadAn=       5 diagonalized for initial guess.
 HarFok:  IExCor= 1009 AccDes= 0.00D+00 IRadAn=         5 IDoV= 1 UseB2=F ITyADJ=14
 ICtDFT=  3500011 ScaDFX=  1.000000  1.000000  1.000000  1.000000
 FoFCou: FMM=F IPFlag=           0 FMFlag=      100000 FMFlg1=           0
         NFxFlg=           0 DoJE=T BraDBF=F KetDBF=T FulRan=T
         wScrn=  0.000000 ICntrl=       500 IOpCl=  0 I1Cent=   200000004 NGrid=           0
         NMat0=    1 NMatS0=      1 NMatT0=    0 NMatD0=    1 NMtDS0=    0 NMtDT0=    0
 Petite list used in FoFCou.
 Initial guess orbital symmetries:
       Occupied  (A') (A') (A') (A') (A') (A') (A') (A') (A") (A')
                 (A') (A")
       Virtual   (A") (A') (A') (A') (A") (A') (A') (A') (A') (A')
                 (A") (A') (A') (A") (A') (A") (A') (A') (A') (A")
                 (A') (A') (A') (A') (A') (A') (A') (A") (A") (A")
                 (A') (A') (A') (A") (A') (A') (A') (A") (A") (A')
                 (A') (A') (A') (A') (A')
 The electronic state of the initial guess is 1-A'.
 Keep R1 ints in memory in symmetry-blocked form, NReq=4893764.
 Requested convergence on RMS density matrix=1.00D-08 within 128 cycles.
 Requested convergence on MAX density matrix=1.00D-06.
 Requested convergence on             energy=1.00D-06.
 No special actions if energy rises.
 Integral accuracy reduced to 1.0D-05 until final iterations.
 Initial convergence to 1.0D-05 achieved.  Increase integral accuracy.
 SCF Done:  E(RM062X) =  -117.807269850     A.U. after   13 cycles
            NFock= 13  Conv=0.31D-08     -V/T= 2.0080

 **********************************************************************

            Population analysis using the SCF density.

 **********************************************************************

 Orbital symmetries:
       Occupied  (A') (A') (A') (A') (A') (A') (A') (A") (A') (A')
                 (A') (A")
       Virtual   (A") (A') (A') (A') (A") (A') (A') (A') (A') (A')
                 (A") (A') (A') (A") (A") (A') (A') (A') (A') (A')
                 (A") (A') (A') (A') (A') (A') (A') (A") (A") (A")
                 (A') (A') (A') (A") (A') (A') (A') (A") (A") (A')
                 (A') (A') (A') (A') (A')
 The electronic state is 1-A'.
 Alpha  occ. eigenvalues --  -10.54624 -10.53349 -10.52921  -0.89604  -0.75130
 Alpha  occ. eigenvalues --   -0.64167  -0.54872  -0.47163  -0.45245  -0.44051
 Alpha  occ. eigenvalues --   -0.39917  -0.30363
 Alpha virt. eigenvalues --    0.06642   0.15798   0.18022   0.20235   0.22113
 Alpha virt. eigenvalues --    0.23186   0.26764   0.33851   0.41807   0.53580
 Alpha virt. eigenvalues --    0.58369   0.62796   0.66421   0.67716   0.71778
 Alpha virt. eigenvalues --    0.72280   0.78297   0.82861   0.93673   0.93998
 Alpha virt. eigenvalues --    0.94421   0.99565   1.02658   1.03842   1.14363
 Alpha virt. eigenvalues --    1.29953   1.34899   1.47143   1.55828   1.76903
 Alpha virt. eigenvalues --    1.77765   1.95940   2.09692   2.11666   2.15157
 Alpha virt. eigenvalues --    2.31651   2.33027   2.37126   2.42863   2.57108
 Alpha virt. eigenvalues --    2.76867   2.83339   4.14411   4.25056   4.41701
          Condensed to atoms (all electrons):
               1          2          3          4          5          6
     1  C    5.056291   0.676793  -0.073651   0.401159   0.374370  -0.036844
     2  C    0.676793   4.865193   0.377590  -0.055818  -0.035252   0.376542
     3  C   -0.073651   0.377590   5.143024  -0.042576   0.007530  -0.038602
     4  H    0.401159  -0.055818  -0.042576   0.563740  -0.030708   0.005353
     5  H    0.374370  -0.035252   0.007530  -0.030708   0.528641  -0.002944
     6  H   -0.036844   0.376542  -0.038602   0.005353  -0.002944   0.523260
     7  H   -0.023457  -0.055850   0.403026   0.004807   0.001299   0.003566
     8  H   -0.000806  -0.034890   0.369510   0.001582  -0.000265   0.000364
     9  H   -0.000806  -0.034890   0.369510   0.001582  -0.000265   0.000364
               7          8          9
     1  C   -0.023457  -0.000806  -0.000806
     2  C   -0.055850  -0.034890  -0.034890
     3  C    0.403026   0.369510   0.369510
     4  H    0.004807   0.001582   0.001582
     5  H    0.001299  -0.000265  -0.000265
     6  H    0.003566   0.000364   0.000364
     7  H    0.551757  -0.023598  -0.023598
     8  H   -0.023598   0.558926  -0.035003
     9  H   -0.023598  -0.035003   0.558926
 Mulliken charges:
               1
     1  C   -0.373048
     2  C   -0.079419
     3  C   -0.515360
     4  H    0.150879
     5  H    0.157595
     6  H    0.168942
     7  H    0.162048
     8  H    0.164181
     9  H    0.164181
 Sum of Mulliken charges =  -0.00000
 Mulliken charges with hydrogens summed into heavy atoms:
               1
     1  C   -0.064574
     2  C    0.089522
     3  C   -0.024949
 Electronic spatial extent (au):  <R**2>=            181.1114
 Charge=             -0.0000 electrons
 Dipole moment (field-independent basis, Debye):
    X=              0.2403    Y=              0.1346    Z=              0.0000  Tot=              0.2754
 Quadrupole moment (field-independent basis, Debye-Ang):
   XX=            -19.4405   YY=            -18.6168   ZZ=            -21.4864
   XY=              0.2919   XZ=              0.0000   YZ=             -0.0000
 Traceless Quadrupole moment (field-independent basis, Debye-Ang):
   XX=              0.4074   YY=              1.2311   ZZ=             -1.6385
   XY=              0.2919   XZ=              0.0000   YZ=             -0.0000
 Octapole moment (field-independent basis, Debye-Ang**2):
  XXX=             -1.8786  YYY=              1.8478  ZZZ=             -0.0000  XYY=             -0.5807
  XXY=              1.3602  XXZ=              0.0000  XZZ=              2.0214  YZZ=             -0.3366
  YYZ=              0.0000  XYZ=             -0.0000
 Hexadecapole moment (field-independent basis, Debye-Ang**3):
 XXXX=           -146.0968 YYYY=            -60.7571 ZZZZ=            -29.0454 XXXY=              8.4888
 XXXZ=              0.0000 YYYX=             13.0692 YYYZ=             -0.0000 ZZZX=             -0.0000
 ZZZY=              0.0000 XXYY=            -37.5208 XXZZ=            -30.1297 YYZZ=            -16.8409
 XXYZ=             -0.0000 YYXZ=              0.0000 ZZXY=              3.9101
 N-N= 7.236134444328D+01 E-N=-4.168777734598D+02  KE= 1.168755995506D+02
 Symmetry A'   KE= 1.128629696386D+02
 Symmetry A"   KE= 4.012629912021D+00
 1\1\GINC-NODE62\SP\RM062X\6-31G(d)\C3H6\YANZ\22-Sep-2023\0\\#m062x/6-3
 1g(d) scf=tight\\tmpdir/M2_conf_0_52.gjf\\0,1\C,0,0.,0.,0.\C,0,1.3438,
 0.,0.\C,0,1.76531,0.,1.44237\H,0,-0.35022,0.,1.00513\H,0,-0.64195,0.,-
 0.87359\H,0,1.99381,0.,-0.86637\H,0,0.81807,0.,1.9772\H,0,2.37603,0.87
 904,1.69069\H,0,2.37603,-0.87904,1.69069\\Version=ES64L-G16RevA.03\Sta
 te=1-A'\HF=-117.8072699\RMSD=3.143e-09\Dipole=0.1083341,0.,-0.0025924\
 Quadrupole=0.6162356,-1.2181942,0.6019586,0.,-0.3752455,0.\PG=CS [SG(C
 3H4),X(H2)]\\@


 Sometimes the fool who rushes in gets the job done.
                                    -- Al Bernstein
 Job cpu time:       0 days  0 hours  0 minutes 17.3 seconds.
 Elapsed time:       0 days  0 hours  0 minutes  4.5 seconds.
 File lengths (MBytes):  RWF=      6 Int=      0 D2E=      0 Chk=      1 Scr=      1
 Normal termination of Gaussian 16 at Fri Sep 22 17:02:34 2023.
