 Entering Gaussian System, Link 0=g16
 Initial command:
 /share/apps/gaussian/g16/l1.exe "/tmp/55613.mgr/Gau-181670.inp" -scrdir="/tmp/55613.mgr/"
 Entering Link 1 = /share/apps/gaussian/g16/l1.exe PID=    181671.
  
 Copyright (c) 1988,1990,1992,1993,1995,1998,2003,2009,2016,
            Gaussian, Inc.  All Rights Reserved.
  
 This is part of the Gaussian(R) 16 program.  It is based on
 the Gaussian(R) 09 system (copyright 2009, Gaussian, Inc.),
 the Gaussian(R) 03 system (copyright 2003, Gaussian, Inc.),
 the Gaussian(R) 98 system (copyright 1998, Gaussian, Inc.),
 the Gaussian(R) 94 system (copyright 1995, Gaussian, Inc.),
 the Gaussian 92(TM) system (copyright 1992, Gaussian, Inc.),
 the Gaussian 90(TM) system (copyright 1990, Gaussian, Inc.),
 the Gaussian 88(TM) system (copyright 1988, Gaussian, Inc.),
 the Gaussian 86(TM) system (copyright 1986, Carnegie Mellon
 University), and the Gaussian 82(TM) system (copyright 1983,
 Carnegie Mellon University). Gaussian is a federally registered
 trademark of Gaussian, Inc.
  
 This software contains proprietary and confidential information,
 including trade secrets, belonging to Gaussian, Inc.
  
 This software is provided under written license and may be
 used, copied, transmitted, or stored only in accord with that
 written license.
  
 The following legend is applicable only to US Government
 contracts under FAR:
  
                    RESTRICTED RIGHTS LEGEND
  
 Use, reproduction and disclosure by the US Government is
 subject to restrictions as set forth in subparagraphs (a)
 and (c) of the Commercial Computer Software - Restricted
 Rights clause in FAR 52.227-19.
  
 Gaussian, Inc.
 340 Quinnipiac St., Bldg. 40, Wallingford CT 06492
  
  
 ---------------------------------------------------------------
 Warning -- This program may not be used in any manner that
 competes with the business of Gaussian, Inc. or will provide
 assistance to any competitor of Gaussian, Inc.  The licensee
 of this program is prohibited from giving any competitor of
 Gaussian, Inc. access to this program.  By using this program,
 the user acknowledges that Gaussian, Inc. is engaged in the
 business of creating and licensing software in the field of
 computational chemistry and represents and warrants to the
 licensee that it is not a competitor of Gaussian, Inc. and that
 it will not use this program in any manner prohibited above.
 ---------------------------------------------------------------
  

 Cite this work as:
 Gaussian 16, Revision A.03,
 M. J. Frisch, G. W. Trucks, H. B. Schlegel, G. E. Scuseria, 
 M. A. Robb, J. R. Cheeseman, G. Scalmani, V. Barone, 
 G. A. Petersson, H. Nakatsuji, X. Li, M. Caricato, A. V. Marenich, 
 J. Bloino, B. G. Janesko, R. Gomperts, B. Mennucci, H. P. Hratchian, 
 J. V. Ortiz, A. F. Izmaylov, J. L. Sonnenberg, D. Williams-Young, 
 F. Ding, F. Lipparini, F. Egidi, J. Goings, B. Peng, A. Petrone, 
 T. Henderson, D. Ranasinghe, V. G. Zakrzewski, J. Gao, N. Rega, 
 G. Zheng, W. Liang, M. Hada, M. Ehara, K. Toyota, R. Fukuda, 
 J. Hasegawa, M. Ishida, T. Nakajima, Y. Honda, O. Kitao, H. Nakai, 
 T. Vreven, K. Throssell, J. A. Montgomery, Jr., J. E. Peralta, 
 F. Ogliaro, M. J. Bearpark, J. J. Heyd, E. N. Brothers, K. N. Kudin, 
 V. N. Staroverov, T. A. Keith, R. Kobayashi, J. Normand, 
 K. Raghavachari, A. P. Rendell, J. C. Burant, S. S. Iyengar, 
 J. Tomasi, M. Cossi, J. M. Millam, M. Klene, C. Adamo, R. Cammi, 
 J. W. Ochterski, R. L. Martin, K. Morokuma, O. Farkas, 
 J. B. Foresman, and D. J. Fox, Gaussian, Inc., Wallingford CT, 2016.
 
 ******************************************
 Gaussian 16:  ES64L-G16RevA.03 25-Dec-2016
                22-Sep-2023 
 ******************************************
 %nprocshared=4
 Will use up to    4 processors via shared memory.
 %mem=4GB
 -------------------------
 #m062x/6-31g(d) scf=tight
 -------------------------
 1/38=1,172=1/1;
 2/12=2,17=6,18=5,40=1/2;
 3/5=1,6=6,7=1,11=2,25=1,30=1,74=-55/1,2,3;
 4//1;
 5/5=2,32=2,38=5/2;
 6/7=2,8=2,9=2,10=2,28=1/1;
 99/5=1,9=1/99;
 -----------------------
 tmpdir/M2_conf_0_60.gjf
 -----------------------
 Symbolic Z-matrix:
 Charge =  0 Multiplicity = 1
 C                     0.        0.        0. 
 C                     1.5027    0.        0. 
 H                     1.98524   0.        0.98717 
 O                    -0.38984   0.96461  -0.56684 
 H                    -0.60409  -0.77507   0.45546 
 H                     1.75036   0.91323  -0.53664 
 H                     1.91236  -0.89062  -0.49632 
 
                          Input orientation:                          
 ---------------------------------------------------------------------
 Center     Atomic      Atomic             Coordinates (Angstroms)
 Number     Number       Type             X           Y           Z
 ---------------------------------------------------------------------
      1          6           0        0.000000    0.000000    0.000000
      2          6           0        1.502700    0.000000    0.000000
      3          1           0        1.985240    0.000000    0.987170
      4          8           0       -0.389840    0.964610   -0.566840
      5          1           0       -0.604090   -0.775070    0.455460
      6          1           0        1.750360    0.913230   -0.536640
      7          1           0        1.912360   -0.890620   -0.496320
 ---------------------------------------------------------------------
                    Distance matrix (angstroms):
                    1          2          3          4          5
     1  C    0.000000
     2  C    1.502700   0.000000
     3  H    2.217134   1.098795   0.000000
     4  O    1.184802   2.198519   2.997737   0.000000
     5  H    1.083098   2.290577   2.754647   2.029159   0.000000
     6  H    2.045906   1.087799   1.791969   2.141030   3.062361
     7  H    2.167177   1.098799   1.731837   2.957529   2.692909
                    6          7
     6  H    0.000000
     7  H    1.811559   0.000000
 Stoichiometry    C2H4O
 Framework group  C1[X(C2H4O)]
 Deg. of freedom    15
 Full point group                 C1      NOp   1
 Largest Abelian subgroup         C1      NOp   1
 Largest concise Abelian subgroup C1      NOp   1
                         Standard orientation:                         
 ---------------------------------------------------------------------
 Center     Atomic      Atomic             Coordinates (Angstroms)
 Number     Number       Type             X           Y           Z
 ---------------------------------------------------------------------
      1          6           0       -0.267611    0.499938   -0.005498
      2          6           0        1.090416   -0.143365    0.000209
      3          1           0        1.740728    0.094718   -0.852879
      4          8           0       -1.098906   -0.344249    0.001644
      5          1           0       -0.428672    1.570955   -0.014722
      6          1           0        0.860760   -1.206606    0.009307
      7          1           0        1.681598    0.155482    0.876881
 ---------------------------------------------------------------------
 Rotational constants (GHZ):          47.7543554          11.8905093          10.0938007
 Standard basis: 6-31G(d) (6D, 7F)
 There are    53 symmetry adapted cartesian basis functions of A   symmetry.
 There are    53 symmetry adapted basis functions of A   symmetry.
    53 basis functions,   100 primitive gaussians,    53 cartesian basis functions
    12 alpha electrons       12 beta electrons
       nuclear repulsion energy        71.4956747273 Hartrees.
 NAtoms=    7 NActive=    7 NUniq=    7 SFac= 1.00D+00 NAtFMM=   60 NAOKFM=F Big=F
 Integral buffers will be    131072 words long.
 Raffenetti 2 integral format.
 Two-electron integral symmetry is turned on.
 One-electron integrals computed using PRISM.
 NBasis=    53 RedAO= T EigKep=  4.84D-03  NBF=    53
 NBsUse=    53 1.00D-06 EigRej= -1.00D+00 NBFU=    53
 ExpMin= 1.61D-01 ExpMax= 5.48D+03 ExpMxC= 8.25D+02 IAcc=3 IRadAn=         5 AccDes= 0.00D+00
 Harris functional with IExCor= 1009 and IRadAn=       5 diagonalized for initial guess.
 HarFok:  IExCor= 1009 AccDes= 0.00D+00 IRadAn=         5 IDoV= 1 UseB2=F ITyADJ=14
 ICtDFT=  3500011 ScaDFX=  1.000000  1.000000  1.000000  1.000000
 FoFCou: FMM=F IPFlag=           0 FMFlag=      100000 FMFlg1=           0
         NFxFlg=           0 DoJE=T BraDBF=F KetDBF=T FulRan=T
         wScrn=  0.000000 ICntrl=       500 IOpCl=  0 I1Cent=   200000004 NGrid=           0
         NMat0=    1 NMatS0=      1 NMatT0=    0 NMatD0=    1 NMtDS0=    0 NMtDT0=    0
 Petite list used in FoFCou.
 Keep R1 ints in memory in canonical form, NReq=4530250.
 Requested convergence on RMS density matrix=1.00D-08 within 128 cycles.
 Requested convergence on MAX density matrix=1.00D-06.
 Requested convergence on             energy=1.00D-06.
 No special actions if energy rises.
 Integral accuracy reduced to 1.0D-05 until final iterations.
 Initial convergence to 1.0D-05 achieved.  Increase integral accuracy.
 SCF Done:  E(RM062X) =  -153.737903522     A.U. after   13 cycles
            NFock= 13  Conv=0.79D-08     -V/T= 2.0070

 **********************************************************************

            Population analysis using the SCF density.

 **********************************************************************

 Orbital symmetries:
       Occupied  (A) (A) (A) (A) (A) (A) (A) (A) (A) (A) (A) (A)
       Virtual   (A) (A) (A) (A) (A) (A) (A) (A) (A) (A) (A) (A)
                 (A) (A) (A) (A) (A) (A) (A) (A) (A) (A) (A) (A)
                 (A) (A) (A) (A) (A) (A) (A) (A) (A) (A) (A) (A)
                 (A) (A) (A) (A) (A)
 The electronic state is 1-A.
 Alpha  occ. eigenvalues --  -19.63797 -10.63555 -10.54176  -1.18644  -0.83204
 Alpha  occ. eigenvalues --   -0.67677  -0.56571  -0.50948  -0.50433  -0.45835
 Alpha  occ. eigenvalues --   -0.42517  -0.32122
 Alpha virt. eigenvalues --    0.03454   0.17006   0.18004   0.20798   0.21072
 Alpha virt. eigenvalues --    0.27635   0.35100   0.57558   0.58749   0.64725
 Alpha virt. eigenvalues --    0.66101   0.73157   0.78080   0.82110   0.91376
 Alpha virt. eigenvalues --    0.91946   0.95875   0.99254   1.01130   1.06702
 Alpha virt. eigenvalues --    1.15649   1.25449   1.47478   1.48212   1.59871
 Alpha virt. eigenvalues --    1.70586   1.86419   1.88328   2.05399   2.10931
 Alpha virt. eigenvalues --    2.12372   2.24494   2.37749   2.38526   2.63179
 Alpha virt. eigenvalues --    2.64984   2.87813   3.02081   3.83550   4.10816
 Alpha virt. eigenvalues --    4.35515
          Condensed to atoms (all electrons):
               1          2          3          4          5          6
     1  C    4.551375   0.341165  -0.017636   0.581956   0.345829  -0.040012
     2  C    0.341165   5.405910   0.347541  -0.139646  -0.095788   0.373413
     3  H   -0.017636   0.347541   0.532811   0.003052   0.003894  -0.018919
     4  O    0.581956  -0.139646   0.003052   7.974115  -0.047286   0.008841
     5  H    0.345829  -0.095788   0.003894  -0.047286   0.638651   0.004808
     6  H   -0.040012   0.373413  -0.018919   0.008841   0.004808   0.481051
     7  H   -0.021595   0.346064  -0.027592   0.002874   0.004393  -0.016466
               7
     1  C   -0.021595
     2  C    0.346064
     3  H   -0.027592
     4  O    0.002874
     5  H    0.004393
     6  H   -0.016466
     7  H    0.538308
 Mulliken charges:
               1
     1  C    0.258918
     2  C   -0.578658
     3  H    0.176849
     4  O   -0.383907
     5  H    0.145499
     6  H    0.207286
     7  H    0.174014
 Sum of Mulliken charges =  -0.00000
 Mulliken charges with hydrogens summed into heavy atoms:
               1
     1  C    0.404417
     2  C   -0.020510
     4  O   -0.383907
 Electronic spatial extent (au):  <R**2>=            155.6029
 Charge=             -0.0000 electrons
 Dipole moment (field-independent basis, Debye):
    X=              1.8522    Y=              1.4897    Z=             -0.0125  Tot=              2.3770
 Quadrupole moment (field-independent basis, Debye-Ang):
   XX=            -20.3846   YY=            -17.2691   ZZ=            -17.7820
   XY=             -1.1181   XZ=             -0.0236   YZ=              0.0489
 Traceless Quadrupole moment (field-independent basis, Debye-Ang):
   XX=             -1.9060   YY=              1.2094   ZZ=              0.6965
   XY=             -1.1181   XZ=             -0.0236   YZ=              0.0489
 Octapole moment (field-independent basis, Debye-Ang**2):
  XXX=             -0.2240  YYY=             -0.1345  ZZZ=              0.0148  XYY=             -1.7556
  XXY=              0.9986  XXZ=             -0.1599  XZZ=             -1.0048  YZZ=             -0.0129
  YYZ=             -0.0115  XYZ=              0.0926
 Hexadecapole moment (field-independent basis, Debye-Ang**3):
 XXXX=           -129.7735 YYYY=            -42.2438 ZZZZ=            -22.2740 XXXY=              1.6294
 XXXZ=             -0.3995 YYYX=             -0.3329 YYYZ=             -0.0128 ZZZX=             -0.0225
 ZZZY=              0.0829 XXYY=            -29.1944 XXZZ=            -22.8895 YYZZ=            -11.6793
 XXYZ=              0.1449 YYXZ=              0.0233 ZZXY=              1.0196
 N-N= 7.149567472731D+01 E-N=-5.022618834367D+02  KE= 1.526728986044D+02
 1\1\GINC-NODE62\SP\RM062X\6-31G(d)\C2H4O1\YANZ\22-Sep-2023\0\\#m062x/6
 -31g(d) scf=tight\\tmpdir/M2_conf_0_60.gjf\\0,1\C,0,0.,0.,0.\C,0,1.502
 7,0.,0.\H,0,1.98524,0.,0.98717\O,0,-0.38984,0.96461,-0.56684\H,0,-0.60
 409,-0.77507,0.45546\H,0,1.75036,0.91323,-0.53664\H,0,1.91236,-0.89062
 ,-0.49632\\Version=ES64L-G16RevA.03\State=1-A\HF=-153.7379035\RMSD=7.9
 50e-09\Dipole=0.4076334,-0.7256534,0.4263844\Quadrupole=-0.3495343,0.0
 297278,0.3198064,1.2461226,-0.6868972,0.3127025\PG=C01 [X(C2H4O1)]\\@


 MORNING PEOPLE ARE USUALLY ADMIRED AS EARLY BIRDS.
 RECALL BEN FRANKLIN'S APHORISM THAT THE EARLY BIRD GETS THE WORM.
 I IDENTIFY WITH THE WORM. --  CRAIG JAGGER, MINNEAPOLIS, KS.
 Job cpu time:       0 days  0 hours  0 minutes 19.6 seconds.
 Elapsed time:       0 days  0 hours  0 minutes  5.1 seconds.
 File lengths (MBytes):  RWF=      6 Int=      0 D2E=      0 Chk=      1 Scr=      1
 Normal termination of Gaussian 16 at Fri Sep 22 17:02:37 2023.
