 Entering Gaussian System, Link 0=g16
 Initial command:
 /share/apps/gaussian/g16/l1.exe "/tmp/55613.mgr/Gau-179891.inp" -scrdir="/tmp/55613.mgr/"
 Entering Link 1 = /share/apps/gaussian/g16/l1.exe PID=    179897.
  
 Copyright (c) 1988,1990,1992,1993,1995,1998,2003,2009,2016,
            Gaussian, Inc.  All Rights Reserved.
  
 This is part of the Gaussian(R) 16 program.  It is based on
 the Gaussian(R) 09 system (copyright 2009, Gaussian, Inc.),
 the Gaussian(R) 03 system (copyright 2003, Gaussian, Inc.),
 the Gaussian(R) 98 system (copyright 1998, Gaussian, Inc.),
 the Gaussian(R) 94 system (copyright 1995, Gaussian, Inc.),
 the Gaussian 92(TM) system (copyright 1992, Gaussian, Inc.),
 the Gaussian 90(TM) system (copyright 1990, Gaussian, Inc.),
 the Gaussian 88(TM) system (copyright 1988, Gaussian, Inc.),
 the Gaussian 86(TM) system (copyright 1986, Carnegie Mellon
 University), and the Gaussian 82(TM) system (copyright 1983,
 Carnegie Mellon University). Gaussian is a federally registered
 trademark of Gaussian, Inc.
  
 This software contains proprietary and confidential information,
 including trade secrets, belonging to Gaussian, Inc.
  
 This software is provided under written license and may be
 used, copied, transmitted, or stored only in accord with that
 written license.
  
 The following legend is applicable only to US Government
 contracts under FAR:
  
                    RESTRICTED RIGHTS LEGEND
  
 Use, reproduction and disclosure by the US Government is
 subject to restrictions as set forth in subparagraphs (a)
 and (c) of the Commercial Computer Software - Restricted
 Rights clause in FAR 52.227-19.
  
 Gaussian, Inc.
 340 Quinnipiac St., Bldg. 40, Wallingford CT 06492
  
  
 ---------------------------------------------------------------
 Warning -- This program may not be used in any manner that
 competes with the business of Gaussian, Inc. or will provide
 assistance to any competitor of Gaussian, Inc.  The licensee
 of this program is prohibited from giving any competitor of
 Gaussian, Inc. access to this program.  By using this program,
 the user acknowledges that Gaussian, Inc. is engaged in the
 business of creating and licensing software in the field of
 computational chemistry and represents and warrants to the
 licensee that it is not a competitor of Gaussian, Inc. and that
 it will not use this program in any manner prohibited above.
 ---------------------------------------------------------------
  

 Cite this work as:
 Gaussian 16, Revision A.03,
 M. J. Frisch, G. W. Trucks, H. B. Schlegel, G. E. Scuseria, 
 M. A. Robb, J. R. Cheeseman, G. Scalmani, V. Barone, 
 G. A. Petersson, H. Nakatsuji, X. Li, M. Caricato, A. V. Marenich, 
 J. Bloino, B. G. Janesko, R. Gomperts, B. Mennucci, H. P. Hratchian, 
 J. V. Ortiz, A. F. Izmaylov, J. L. Sonnenberg, D. Williams-Young, 
 F. Ding, F. Lipparini, F. Egidi, J. Goings, B. Peng, A. Petrone, 
 T. Henderson, D. Ranasinghe, V. G. Zakrzewski, J. Gao, N. Rega, 
 G. Zheng, W. Liang, M. Hada, M. Ehara, K. Toyota, R. Fukuda, 
 J. Hasegawa, M. Ishida, T. Nakajima, Y. Honda, O. Kitao, H. Nakai, 
 T. Vreven, K. Throssell, J. A. Montgomery, Jr., J. E. Peralta, 
 F. Ogliaro, M. J. Bearpark, J. J. Heyd, E. N. Brothers, K. N. Kudin, 
 V. N. Staroverov, T. A. Keith, R. Kobayashi, J. Normand, 
 K. Raghavachari, A. P. Rendell, J. C. Burant, S. S. Iyengar, 
 J. Tomasi, M. Cossi, J. M. Millam, M. Klene, C. Adamo, R. Cammi, 
 J. W. Ochterski, R. L. Martin, K. Morokuma, O. Farkas, 
 J. B. Foresman, and D. J. Fox, Gaussian, Inc., Wallingford CT, 2016.
 
 ******************************************
 Gaussian 16:  ES64L-G16RevA.03 25-Dec-2016
                22-Sep-2023 
 ******************************************
 %nprocshared=4
 Will use up to    4 processors via shared memory.
 %mem=4GB
 -------------------------
 #m062x/6-31g(d) scf=tight
 -------------------------
 1/38=1,172=1/1;
 2/12=2,17=6,18=5,40=1/2;
 3/5=1,6=6,7=1,11=2,25=1,30=1,74=-55/1,2,3;
 4//1;
 5/5=2,32=2,38=5/2;
 6/7=2,8=2,9=2,10=2,28=1/1;
 99/5=1,9=1/99;
 -----------------------
 tmpdir/M2_conf_0_15.gjf
 -----------------------
 Symbolic Z-matrix:
 Charge =  0 Multiplicity = 1
 C                     0.        0.        0. 
 C                     1.5364    0.        0. 
 H                     1.98961   0.        0.99494 
 H                    -0.26618  -0.92817  -0.51301 
 H                    -0.42156   0.86453  -0.52461 
 H                    -0.42156   0.01571   1.01113 
 H                     1.9664    0.85105  -0.5349 
 H                     1.83087  -0.9364   -0.51735 
 
                          Input orientation:                          
 ---------------------------------------------------------------------
 Center     Atomic      Atomic             Coordinates (Angstroms)
 Number     Number       Type             X           Y           Z
 ---------------------------------------------------------------------
      1          6           0        0.000000    0.000000    0.000000
      2          6           0        1.536400    0.000000    0.000000
      3          1           0        1.989610    0.000000    0.994940
      4          1           0       -0.266180   -0.928170   -0.513010
      5          1           0       -0.421560    0.864530   -0.524610
      6          1           0       -0.421560    0.015710    1.011130
      7          1           0        1.966400    0.851050   -0.534900
      8          1           0        1.830870   -0.936400   -0.517350
 ---------------------------------------------------------------------
                    Distance matrix (angstroms):
                    1          2          3          4          5
     1  C    0.000000
     2  C    1.536400   0.000000
     3  H    2.224512   1.093300   0.000000
     4  H    1.093403   2.091405   2.867752   0.000000
     5  H    1.095601   2.203687   2.978286   1.799458   0.000000
     6  H    1.095602   2.203687   2.411276   1.799460   1.754706
     7  H    2.208423   1.093300   1.750781   2.854911   2.388020
     8  H    2.120514   1.109598   1.785795   2.097071   2.883894
                    6          7          8
     6  H    0.000000
     7  H    2.964853   0.000000
     8  H    2.883783   1.792667   0.000000
 Stoichiometry    C2H6
 Framework group  C1[X(C2H6)]
 Deg. of freedom    18
 Full point group                 C1      NOp   1
 Largest Abelian subgroup         C1      NOp   1
 Largest concise Abelian subgroup C1      NOp   1
                         Standard orientation:                         
 ---------------------------------------------------------------------
 Center     Atomic      Atomic             Coordinates (Angstroms)
 Number     Number       Type             X           Y           Z
 ---------------------------------------------------------------------
      1          6           0        0.772035   -0.004376    0.001343
      2          6           0       -0.764341   -0.012971    0.000550
      3          1           0       -1.215569   -0.451038    0.894863
      4          1           0        1.032314    1.056181   -0.053458
      5          1           0        1.197091   -0.549654   -0.848563
      6          1           0        1.195678   -0.458761    0.903787
      7          1           0       -1.190923   -0.546389   -0.853147
      8          1           0       -1.064754    1.053749   -0.054840
 ---------------------------------------------------------------------
 Rotational constants (GHZ):          79.4236378          19.9922555          19.8569989
 Standard basis: 6-31G(d) (6D, 7F)
 There are    42 symmetry adapted cartesian basis functions of A   symmetry.
 There are    42 symmetry adapted basis functions of A   symmetry.
    42 basis functions,    80 primitive gaussians,    42 cartesian basis functions
     9 alpha electrons        9 beta electrons
       nuclear repulsion energy        42.1008861509 Hartrees.
 NAtoms=    8 NActive=    8 NUniq=    8 SFac= 1.00D+00 NAtFMM=   60 NAOKFM=F Big=F
 Integral buffers will be    131072 words long.
 Raffenetti 2 integral format.
 Two-electron integral symmetry is turned on.
 One-electron integrals computed using PRISM.
 NBasis=    42 RedAO= T EigKep=  8.07D-03  NBF=    42
 NBsUse=    42 1.00D-06 EigRej= -1.00D+00 NBFU=    42
 ExpMin= 1.61D-01 ExpMax= 3.05D+03 ExpMxC= 4.57D+02 IAcc=3 IRadAn=         5 AccDes= 0.00D+00
 Harris functional with IExCor= 1009 and IRadAn=       5 diagonalized for initial guess.
 HarFok:  IExCor= 1009 AccDes= 0.00D+00 IRadAn=         5 IDoV= 1 UseB2=F ITyADJ=14
 ICtDFT=  3500011 ScaDFX=  1.000000  1.000000  1.000000  1.000000
 FoFCou: FMM=F IPFlag=           0 FMFlag=      100000 FMFlg1=           0
         NFxFlg=           0 DoJE=T BraDBF=F KetDBF=T FulRan=T
         wScrn=  0.000000 ICntrl=       500 IOpCl=  0 I1Cent=   200000004 NGrid=           0
         NMat0=    1 NMatS0=      1 NMatT0=    0 NMatD0=    1 NMtDS0=    0 NMtDT0=    0
 Petite list used in FoFCou.
 Keep R1 ints in memory in canonical form, NReq=3864510.
 Requested convergence on RMS density matrix=1.00D-08 within 128 cycles.
 Requested convergence on MAX density matrix=1.00D-06.
 Requested convergence on             energy=1.00D-06.
 No special actions if energy rises.
 Integral accuracy reduced to 1.0D-05 until final iterations.
 Initial convergence to 1.0D-05 achieved.  Increase integral accuracy.
 SCF Done:  E(RM062X) =  -79.7638509789     A.U. after   12 cycles
            NFock= 12  Conv=0.20D-08     -V/T= 2.0095

 **********************************************************************

            Population analysis using the SCF density.

 **********************************************************************

 Orbital symmetries:
       Occupied  (A) (A) (A) (A) (A) (A) (A) (A) (A)
       Virtual   (A) (A) (A) (A) (A) (A) (A) (A) (A) (A) (A) (A)
                 (A) (A) (A) (A) (A) (A) (A) (A) (A) (A) (A) (A)
                 (A) (A) (A) (A) (A) (A) (A) (A) (A)
 The electronic state is 1-A.
 Alpha  occ. eigenvalues --  -10.52953 -10.52911  -0.84324  -0.69341  -0.50725
 Alpha  occ. eigenvalues --   -0.49493  -0.41646  -0.39751  -0.39687
 Alpha virt. eigenvalues --    0.14587   0.17934   0.17990   0.20720   0.28169
 Alpha virt. eigenvalues --    0.28731   0.29574   0.56265   0.57665   0.59727
 Alpha virt. eigenvalues --    0.71368   0.73286   0.74856   0.92138   0.92392
 Alpha virt. eigenvalues --    0.97981   0.98354   0.99537   1.04948   1.07581
 Alpha virt. eigenvalues --    1.49044   1.53384   1.55594   1.97473   2.09787
 Alpha virt. eigenvalues --    2.16835   2.17587   2.20787   2.41766   2.48688
 Alpha virt. eigenvalues --    2.61783   4.16832   4.42004
          Condensed to atoms (all electrons):
               1          2          3          4          5          6
     1  C    5.089260   0.328841  -0.031053   0.396301   0.389216   0.388560
     2  C    0.328841   5.099783   0.388355  -0.046197  -0.032850  -0.032924
     3  H   -0.031053   0.388355   0.539844   0.003183   0.002712  -0.008319
     4  H    0.396301  -0.046197   0.003183   0.547288  -0.025747  -0.025534
     5  H    0.389216  -0.032850   0.002712  -0.025747   0.539316  -0.030636
     6  H    0.388560  -0.032924  -0.008319  -0.025534  -0.030636   0.539384
     7  H   -0.032777   0.388625  -0.030621   0.003244  -0.008629   0.002823
     8  H   -0.044864   0.394161  -0.027914  -0.014225   0.003127   0.003167
               7          8
     1  C   -0.032777  -0.044864
     2  C    0.388625   0.394161
     3  H   -0.030621  -0.027914
     4  H    0.003244  -0.014225
     5  H   -0.008629   0.003127
     6  H    0.002823   0.003167
     7  H    0.540818  -0.026888
     8  H   -0.026888   0.558027
 Mulliken charges:
               1
     1  C   -0.483484
     2  C   -0.487795
     3  H    0.163812
     4  H    0.161687
     5  H    0.163491
     6  H    0.163479
     7  H    0.163403
     8  H    0.155408
 Sum of Mulliken charges =  -0.00000
 Mulliken charges with hydrogens summed into heavy atoms:
               1
     1  C    0.005173
     2  C   -0.005173
 Electronic spatial extent (au):  <R**2>=            109.5939
 Charge=             -0.0000 electrons
 Dipole moment (field-independent basis, Debye):
    X=             -0.0013    Y=              0.0033    Z=             -0.0014  Tot=              0.0038
 Quadrupole moment (field-independent basis, Debye-Ang):
   XX=            -15.5012   YY=            -14.5717   ZZ=            -14.7744
   XY=             -0.0215   XZ=             -0.0222   YZ=              0.0019
 Traceless Quadrupole moment (field-independent basis, Debye-Ang):
   XX=             -0.5521   YY=              0.3774   ZZ=              0.1747
   XY=             -0.0215   XZ=             -0.0222   YZ=              0.0019
 Octapole moment (field-independent basis, Debye-Ang**2):
  XXX=             -0.1092  YYY=              1.2158  ZZZ=              0.1516  XYY=              0.0578
  XXY=             -0.6715  XXZ=              0.0761  XZZ=              0.0099  YZZ=             -1.0545
  YYZ=             -0.1775  XYZ=             -0.0057
 Hexadecapole moment (field-independent basis, Debye-Ang**3):
 XXXX=            -93.2220 YYYY=            -28.4816 ZZZZ=            -28.2904 XXXY=             -0.0350
 XXXZ=             -0.1106 YYYX=              0.0119 YYYZ=             -0.0143 ZZZX=             -0.0148
 ZZZY=              0.0187 XXYY=            -19.4603 XXZZ=            -18.8137 YYZZ=             -9.5451
 XXYZ=              0.0189 YYXZ=             -0.0081 ZZXY=             -0.0112
 N-N= 4.210088615091D+01 E-N=-2.679742208863D+02  KE= 7.900989370724D+01
 1\1\GINC-NODE62\SP\RM062X\6-31G(d)\C2H6\YANZ\22-Sep-2023\0\\#m062x/6-3
 1g(d) scf=tight\\tmpdir/M2_conf_0_15.gjf\\0,1\C,0,0.,0.,0.\C,0,1.5364,
 0.,0.\H,0,1.98961,0.,0.99494\H,0,-0.26618,-0.92817,-0.51301\H,0,-0.421
 56,0.86453,-0.52461\H,0,-0.42156,0.01571,1.01113\H,0,1.9664,0.85105,-0
 .5349\H,0,1.83087,-0.9364,-0.51735\\Version=ES64L-G16RevA.03\State=1-A
 \HF=-79.763851\RMSD=1.961e-09\Dipole=0.0004974,-0.0009408,-0.0010748\Q
 uadrupole=-0.4106774,0.2530158,0.1576617,-0.0180191,0.0092673,0.058454
 6\PG=C01 [X(C2H6)]\\@


 "PERFECTION IS NOT AN ACCIDENT"
         --  EAGLE ELECTRIC MANUFACTURING CO.,INC. NY
 Job cpu time:       0 days  0 hours  0 minutes 18.1 seconds.
 Elapsed time:       0 days  0 hours  0 minutes  4.7 seconds.
 File lengths (MBytes):  RWF=      6 Int=      0 D2E=      0 Chk=      1 Scr=      1
 Normal termination of Gaussian 16 at Fri Sep 22 17:02:02 2023.
