 Entering Gaussian System, Link 0=g16
 Initial command:
 /share/apps/gaussian/g16/l1.exe "/tmp/55613.mgr/Gau-180160.inp" -scrdir="/tmp/55613.mgr/"
 Entering Link 1 = /share/apps/gaussian/g16/l1.exe PID=    180161.
  
 Copyright (c) 1988,1990,1992,1993,1995,1998,2003,2009,2016,
            Gaussian, Inc.  All Rights Reserved.
  
 This is part of the Gaussian(R) 16 program.  It is based on
 the Gaussian(R) 09 system (copyright 2009, Gaussian, Inc.),
 the Gaussian(R) 03 system (copyright 2003, Gaussian, Inc.),
 the Gaussian(R) 98 system (copyright 1998, Gaussian, Inc.),
 the Gaussian(R) 94 system (copyright 1995, Gaussian, Inc.),
 the Gaussian 92(TM) system (copyright 1992, Gaussian, Inc.),
 the Gaussian 90(TM) system (copyright 1990, Gaussian, Inc.),
 the Gaussian 88(TM) system (copyright 1988, Gaussian, Inc.),
 the Gaussian 86(TM) system (copyright 1986, Carnegie Mellon
 University), and the Gaussian 82(TM) system (copyright 1983,
 Carnegie Mellon University). Gaussian is a federally registered
 trademark of Gaussian, Inc.
  
 This software contains proprietary and confidential information,
 including trade secrets, belonging to Gaussian, Inc.
  
 This software is provided under written license and may be
 used, copied, transmitted, or stored only in accord with that
 written license.
  
 The following legend is applicable only to US Government
 contracts under FAR:
  
                    RESTRICTED RIGHTS LEGEND
  
 Use, reproduction and disclosure by the US Government is
 subject to restrictions as set forth in subparagraphs (a)
 and (c) of the Commercial Computer Software - Restricted
 Rights clause in FAR 52.227-19.
  
 Gaussian, Inc.
 340 Quinnipiac St., Bldg. 40, Wallingford CT 06492
  
  
 ---------------------------------------------------------------
 Warning -- This program may not be used in any manner that
 competes with the business of Gaussian, Inc. or will provide
 assistance to any competitor of Gaussian, Inc.  The licensee
 of this program is prohibited from giving any competitor of
 Gaussian, Inc. access to this program.  By using this program,
 the user acknowledges that Gaussian, Inc. is engaged in the
 business of creating and licensing software in the field of
 computational chemistry and represents and warrants to the
 licensee that it is not a competitor of Gaussian, Inc. and that
 it will not use this program in any manner prohibited above.
 ---------------------------------------------------------------
  

 Cite this work as:
 Gaussian 16, Revision A.03,
 M. J. Frisch, G. W. Trucks, H. B. Schlegel, G. E. Scuseria, 
 M. A. Robb, J. R. Cheeseman, G. Scalmani, V. Barone, 
 G. A. Petersson, H. Nakatsuji, X. Li, M. Caricato, A. V. Marenich, 
 J. Bloino, B. G. Janesko, R. Gomperts, B. Mennucci, H. P. Hratchian, 
 J. V. Ortiz, A. F. Izmaylov, J. L. Sonnenberg, D. Williams-Young, 
 F. Ding, F. Lipparini, F. Egidi, J. Goings, B. Peng, A. Petrone, 
 T. Henderson, D. Ranasinghe, V. G. Zakrzewski, J. Gao, N. Rega, 
 G. Zheng, W. Liang, M. Hada, M. Ehara, K. Toyota, R. Fukuda, 
 J. Hasegawa, M. Ishida, T. Nakajima, Y. Honda, O. Kitao, H. Nakai, 
 T. Vreven, K. Throssell, J. A. Montgomery, Jr., J. E. Peralta, 
 F. Ogliaro, M. J. Bearpark, J. J. Heyd, E. N. Brothers, K. N. Kudin, 
 V. N. Staroverov, T. A. Keith, R. Kobayashi, J. Normand, 
 K. Raghavachari, A. P. Rendell, J. C. Burant, S. S. Iyengar, 
 J. Tomasi, M. Cossi, J. M. Millam, M. Klene, C. Adamo, R. Cammi, 
 J. W. Ochterski, R. L. Martin, K. Morokuma, O. Farkas, 
 J. B. Foresman, and D. J. Fox, Gaussian, Inc., Wallingford CT, 2016.
 
 ******************************************
 Gaussian 16:  ES64L-G16RevA.03 25-Dec-2016
                22-Sep-2023 
 ******************************************
 %nprocshared=4
 Will use up to    4 processors via shared memory.
 %mem=4GB
 -------------------------
 #m062x/6-31g(d) scf=tight
 -------------------------
 1/38=1,172=1/1;
 2/12=2,17=6,18=5,40=1/2;
 3/5=1,6=6,7=1,11=2,25=1,30=1,74=-55/1,2,3;
 4//1;
 5/5=2,32=2,38=5/2;
 6/7=2,8=2,9=2,10=2,28=1/1;
 99/5=1,9=1/99;
 ----------------------
 tmpdir/M2_conf_0_4.gjf
 ----------------------
 Symbolic Z-matrix:
 Charge =  0 Multiplicity = 1
 C                     0.        0.        0. 
 C                     1.4703    0.        0. 
 C                     1.90136   0.        1.27279 
 H                    -0.61373   0.       -0.89365 
 O                    -0.38984   0.        1.11883 
 H                     2.08403   0.       -0.89365 
 H                     2.93045   0.        1.61054 
 H                     1.04323   0.        1.9413 
 
                          Input orientation:                          
 ---------------------------------------------------------------------
 Center     Atomic      Atomic             Coordinates (Angstroms)
 Number     Number       Type             X           Y           Z
 ---------------------------------------------------------------------
      1          6           0        0.000000    0.000000    0.000000
      2          6           0        1.470300    0.000000    0.000000
      3          6           0        1.901360    0.000000    1.272790
      4          1           0       -0.613730    0.000000   -0.893650
      5          8           0       -0.389840    0.000000    1.118830
      6          1           0        2.084030    0.000000   -0.893650
      7          1           0        2.930450    0.000000    1.610540
      8          1           0        1.043230    0.000000    1.941300
 ---------------------------------------------------------------------
                    Distance matrix (angstroms):
                    1          2          3          4          5
     1  C    0.000000
     2  C    1.470300   0.000000
     3  C    2.288048   1.343803   0.000000
     4  H    1.084101   2.267552   3.319509   0.000000
     5  O    1.184802   2.170691   2.296367   2.024896   0.000000
     6  H    2.267552   1.084101   2.174128   2.697760   3.189061
     7  H    3.343857   2.173908   1.083098   4.339606   3.356502
     8  H    2.203854   1.987721   1.087793   3.283665   1.652316
                    6          7          8
     6  H    0.000000
     7  H    2.643368   0.000000
     8  H    3.019968   1.915986   0.000000
 Stoichiometry    C3H4O
 Framework group  CS[SG(C3H4O)]
 Deg. of freedom    13
 Full point group                 CS      NOp   2
 Largest Abelian subgroup         CS      NOp   2
 Largest concise Abelian subgroup C1      NOp   1
                         Standard orientation:                         
 ---------------------------------------------------------------------
 Center     Atomic      Atomic             Coordinates (Angstroms)
 Number     Number       Type             X           Y           Z
 ---------------------------------------------------------------------
      1          6           0       -0.953178   -0.175870    0.000000
      2          6           0        0.000000    0.943609    0.000000
      3          6           0        1.248547    0.446681    0.000000
      4          1           0       -2.031473   -0.063818    0.000000
      5          8           0       -0.354035   -1.198017    0.000000
      6          1           0       -0.282547    1.990243    0.000000
      7          1           0        2.172855    1.011266    0.000000
      8          1           0        1.201232   -0.640082    0.000000
 ---------------------------------------------------------------------
 Rotational constants (GHZ):          19.8572777           8.6611615           6.0307329
 Standard basis: 6-31G(d) (6D, 7F)
 There are    52 symmetry adapted cartesian basis functions of A'  symmetry.
 There are    16 symmetry adapted cartesian basis functions of A"  symmetry.
 There are    52 symmetry adapted basis functions of A'  symmetry.
 There are    16 symmetry adapted basis functions of A"  symmetry.
    68 basis functions,   128 primitive gaussians,    68 cartesian basis functions
    15 alpha electrons       15 beta electrons
       nuclear repulsion energy       110.4062134138 Hartrees.
 NAtoms=    8 NActive=    8 NUniq=    8 SFac= 1.00D+00 NAtFMM=   60 NAOKFM=F Big=F
 Integral buffers will be    131072 words long.
 Raffenetti 2 integral format.
 Two-electron integral symmetry is turned on.
 One-electron integrals computed using PRISM.
 NBasis=    68 RedAO= T EigKep=  2.32D-03  NBF=    52    16
 NBsUse=    68 1.00D-06 EigRej= -1.00D+00 NBFU=    52    16
 ExpMin= 1.61D-01 ExpMax= 5.48D+03 ExpMxC= 8.25D+02 IAcc=3 IRadAn=         5 AccDes= 0.00D+00
 Harris functional with IExCor= 1009 and IRadAn=       5 diagonalized for initial guess.
 HarFok:  IExCor= 1009 AccDes= 0.00D+00 IRadAn=         5 IDoV= 1 UseB2=F ITyADJ=14
 ICtDFT=  3500011 ScaDFX=  1.000000  1.000000  1.000000  1.000000
 FoFCou: FMM=F IPFlag=           0 FMFlag=      100000 FMFlg1=           0
         NFxFlg=           0 DoJE=T BraDBF=F KetDBF=T FulRan=T
         wScrn=  0.000000 ICntrl=       500 IOpCl=  0 I1Cent=   200000004 NGrid=           0
         NMat0=    1 NMatS0=      1 NMatT0=    0 NMatD0=    1 NMtDS0=    0 NMtDT0=    0
 Petite list used in FoFCou.
 Initial guess orbital symmetries:
       Occupied  (A') (A') (A') (A') (A') (A') (A') (A') (A') (A')
                 (A') (A") (A') (A") (A')
       Virtual   (A") (A") (A') (A') (A') (A') (A') (A') (A') (A')
                 (A") (A') (A") (A') (A") (A') (A') (A') (A') (A')
                 (A') (A') (A") (A') (A') (A') (A') (A') (A") (A")
                 (A') (A") (A") (A') (A') (A") (A') (A') (A') (A')
                 (A") (A") (A') (A') (A') (A") (A') (A') (A') (A')
                 (A') (A') (A')
 The electronic state of the initial guess is 1-A'.
 Keep R1 ints in memory in symmetry-blocked form, NReq=6330619.
 Requested convergence on RMS density matrix=1.00D-08 within 128 cycles.
 Requested convergence on MAX density matrix=1.00D-06.
 Requested convergence on             energy=1.00D-06.
 No special actions if energy rises.
 Integral accuracy reduced to 1.0D-05 until final iterations.
 Initial convergence to 1.0D-05 achieved.  Increase integral accuracy.
 SCF Done:  E(RM062X) =  -191.776365730     A.U. after   15 cycles
            NFock= 15  Conv=0.99D-08     -V/T= 2.0063

 **********************************************************************

            Population analysis using the SCF density.

 **********************************************************************

 Orbital symmetries:
       Occupied  (A') (A') (A') (A') (A') (A') (A') (A') (A') (A')
                 (A") (A') (A') (A') (A")
       Virtual   (A") (A") (A') (A') (A') (A') (A') (A') (A') (A')
                 (A") (A') (A") (A') (A") (A') (A') (A') (A') (A')
                 (A') (A') (A') (A") (A') (A') (A') (A') (A") (A")
                 (A') (A") (A") (A') (A') (A") (A') (A') (A') (A')
                 (A") (A") (A') (A') (A') (A") (A') (A') (A') (A')
                 (A') (A') (A')
 The electronic state is 1-A'.
 Alpha  occ. eigenvalues --  -19.63377 -10.63695 -10.54835 -10.54506  -1.19650
 Alpha  occ. eigenvalues --   -0.87568  -0.73962  -0.62247  -0.59527  -0.54284
 Alpha  occ. eigenvalues --   -0.48771  -0.47715  -0.41878  -0.32594  -0.32326
 Alpha virt. eigenvalues --   -0.01678   0.12127   0.16668   0.19626   0.21289
 Alpha virt. eigenvalues --    0.26847   0.30164   0.35895   0.39657   0.56405
 Alpha virt. eigenvalues --    0.57027   0.61837   0.63653   0.69790   0.70125
 Alpha virt. eigenvalues --    0.73944   0.78701   0.86328   0.90302   0.92844
 Alpha virt. eigenvalues --    0.95509   0.97136   1.03984   1.06253   1.14219
 Alpha virt. eigenvalues --    1.16995   1.26989   1.31413   1.39011   1.47905
 Alpha virt. eigenvalues --    1.57638   1.61762   1.73745   1.79874   1.83403
 Alpha virt. eigenvalues --    1.87988   2.05340   2.09840   2.15399   2.30163
 Alpha virt. eigenvalues --    2.30567   2.38455   2.39878   2.49676   2.63803
 Alpha virt. eigenvalues --    2.64660   2.82690   3.02541   3.08796   3.92065
 Alpha virt. eigenvalues --    4.16684   4.19152   4.39801
          Condensed to atoms (all electrons):
               1          2          3          4          5          6
     1  C    4.567594   0.366085  -0.044662   0.367772   0.553703  -0.031227
     2  C    0.366085   5.171027   0.643407  -0.092226  -0.133802   0.359537
     3  C   -0.044662   0.643407   5.109155   0.005510  -0.080852  -0.036466
     4  H    0.367772  -0.092226   0.005510   0.598483  -0.042572   0.001986
     5  O    0.553703  -0.133802  -0.080852  -0.042572   8.106403   0.003970
     6  H   -0.031227   0.359537  -0.036466   0.001986   0.003970   0.534078
     7  H    0.005008  -0.034661   0.360153  -0.000015   0.003060  -0.002128
     8  H   -0.034255  -0.038390   0.376411   0.001010   0.016994   0.004410
               7          8
     1  C    0.005008  -0.034255
     2  C   -0.034661  -0.038390
     3  C    0.360153   0.376411
     4  H   -0.000015   0.001010
     5  O    0.003060   0.016994
     6  H   -0.002128   0.004410
     7  H    0.523718  -0.022823
     8  H   -0.022823   0.439671
 Mulliken charges:
               1
     1  C    0.249983
     2  C   -0.240976
     3  C   -0.332655
     4  H    0.160052
     5  O   -0.426904
     6  H    0.165841
     7  H    0.167688
     8  H    0.256972
 Sum of Mulliken charges =  -0.00000
 Mulliken charges with hydrogens summed into heavy atoms:
               1
     1  C    0.410035
     2  C   -0.075135
     3  C    0.092004
     5  O   -0.426904
 Electronic spatial extent (au):  <R**2>=            229.3403
 Charge=             -0.0000 electrons
 Dipole moment (field-independent basis, Debye):
    X=             -0.6277    Y=              1.7834    Z=              0.0000  Tot=              1.8906
 Quadrupole moment (field-independent basis, Debye-Ang):
   XX=            -19.5921   YY=            -25.3856   ZZ=            -24.3761
   XY=             -0.8562   XZ=              0.0000   YZ=             -0.0000
 Traceless Quadrupole moment (field-independent basis, Debye-Ang):
   XX=              3.5258   YY=             -2.2677   ZZ=             -1.2582
   XY=             -0.8562   XZ=              0.0000   YZ=             -0.0000
 Octapole moment (field-independent basis, Debye-Ang**2):
  XXX=             -2.9713  YYY=              1.5310  ZZZ=              0.0000  XYY=              1.1699
  XXY=             -0.1611  XXZ=              0.0000  XZZ=             -1.7283  YZZ=             -3.0942
  YYZ=             -0.0000  XYZ=             -0.0000
 Hexadecapole moment (field-independent basis, Debye-Ang**3):
 XXXX=           -129.1094 YYYY=           -125.8174 ZZZZ=            -22.7407 XXXY=            -15.0047
 XXXZ=              0.0000 YYYX=            -24.2372 YYYZ=             -0.0000 ZZZX=              0.0000
 ZZZY=             -0.0000 XXYY=            -43.8090 XXZZ=            -28.8883 YYZZ=            -25.8983
 XXYZ=             -0.0000 YYXZ=             -0.0000 ZZXY=             -7.2530
 N-N= 1.104062134138D+02 E-N=-6.685483711970D+02  KE= 1.905740664967D+02
 Symmetry A'   KE= 1.847764133676D+02
 Symmetry A"   KE= 5.797653129131D+00
 1\1\GINC-NODE62\SP\RM062X\6-31G(d)\C3H4O1\YANZ\22-Sep-2023\0\\#m062x/6
 -31g(d) scf=tight\\tmpdir/M2_conf_0_4.gjf\\0,1\C,0,0.,0.,0.\C,0,1.4703
 ,0.,0.\C,0,1.90136,0.,1.27279\H,0,-0.61373,0.,-0.89365\O,0,-0.38984,0.
 ,1.11883\H,0,2.08403,0.,-0.89365\H,0,2.93045,0.,1.61054\H,0,1.04323,0.
 ,1.9413\\Version=ES64L-G16RevA.03\State=1-A'\HF=-191.7763657\RMSD=9.88
 9e-09\Dipole=0.3741425,0.,-0.6428932\Quadrupole=-0.5041053,-0.9354232,
 1.4395285,0.,2.0246181,0.\PG=CS [SG(C3H4O1)]\\@


 IF YOU'RE NOT PART OF THE SOLUTION,
 THEN YOU'RE PART OF THE PRECIPITATE.
 Job cpu time:       0 days  0 hours  0 minutes 18.2 seconds.
 Elapsed time:       0 days  0 hours  0 minutes  4.7 seconds.
 File lengths (MBytes):  RWF=      6 Int=      0 D2E=      0 Chk=      1 Scr=      1
 Normal termination of Gaussian 16 at Fri Sep 22 17:02:06 2023.
