 Entering Gaussian System, Link 0=g16
 Initial command:
 /share/apps/gaussian/g16/l1.exe "/tmp/55613.mgr/Gau-180551.inp" -scrdir="/tmp/55613.mgr/"
 Entering Link 1 = /share/apps/gaussian/g16/l1.exe PID=    180552.
  
 Copyright (c) 1988,1990,1992,1993,1995,1998,2003,2009,2016,
            Gaussian, Inc.  All Rights Reserved.
  
 This is part of the Gaussian(R) 16 program.  It is based on
 the Gaussian(R) 09 system (copyright 2009, Gaussian, Inc.),
 the Gaussian(R) 03 system (copyright 2003, Gaussian, Inc.),
 the Gaussian(R) 98 system (copyright 1998, Gaussian, Inc.),
 the Gaussian(R) 94 system (copyright 1995, Gaussian, Inc.),
 the Gaussian 92(TM) system (copyright 1992, Gaussian, Inc.),
 the Gaussian 90(TM) system (copyright 1990, Gaussian, Inc.),
 the Gaussian 88(TM) system (copyright 1988, Gaussian, Inc.),
 the Gaussian 86(TM) system (copyright 1986, Carnegie Mellon
 University), and the Gaussian 82(TM) system (copyright 1983,
 Carnegie Mellon University). Gaussian is a federally registered
 trademark of Gaussian, Inc.
  
 This software contains proprietary and confidential information,
 including trade secrets, belonging to Gaussian, Inc.
  
 This software is provided under written license and may be
 used, copied, transmitted, or stored only in accord with that
 written license.
  
 The following legend is applicable only to US Government
 contracts under FAR:
  
                    RESTRICTED RIGHTS LEGEND
  
 Use, reproduction and disclosure by the US Government is
 subject to restrictions as set forth in subparagraphs (a)
 and (c) of the Commercial Computer Software - Restricted
 Rights clause in FAR 52.227-19.
  
 Gaussian, Inc.
 340 Quinnipiac St., Bldg. 40, Wallingford CT 06492
  
  
 ---------------------------------------------------------------
 Warning -- This program may not be used in any manner that
 competes with the business of Gaussian, Inc. or will provide
 assistance to any competitor of Gaussian, Inc.  The licensee
 of this program is prohibited from giving any competitor of
 Gaussian, Inc. access to this program.  By using this program,
 the user acknowledges that Gaussian, Inc. is engaged in the
 business of creating and licensing software in the field of
 computational chemistry and represents and warrants to the
 licensee that it is not a competitor of Gaussian, Inc. and that
 it will not use this program in any manner prohibited above.
 ---------------------------------------------------------------
  

 Cite this work as:
 Gaussian 16, Revision A.03,
 M. J. Frisch, G. W. Trucks, H. B. Schlegel, G. E. Scuseria, 
 M. A. Robb, J. R. Cheeseman, G. Scalmani, V. Barone, 
 G. A. Petersson, H. Nakatsuji, X. Li, M. Caricato, A. V. Marenich, 
 J. Bloino, B. G. Janesko, R. Gomperts, B. Mennucci, H. P. Hratchian, 
 J. V. Ortiz, A. F. Izmaylov, J. L. Sonnenberg, D. Williams-Young, 
 F. Ding, F. Lipparini, F. Egidi, J. Goings, B. Peng, A. Petrone, 
 T. Henderson, D. Ranasinghe, V. G. Zakrzewski, J. Gao, N. Rega, 
 G. Zheng, W. Liang, M. Hada, M. Ehara, K. Toyota, R. Fukuda, 
 J. Hasegawa, M. Ishida, T. Nakajima, Y. Honda, O. Kitao, H. Nakai, 
 T. Vreven, K. Throssell, J. A. Montgomery, Jr., J. E. Peralta, 
 F. Ogliaro, M. J. Bearpark, J. J. Heyd, E. N. Brothers, K. N. Kudin, 
 V. N. Staroverov, T. A. Keith, R. Kobayashi, J. Normand, 
 K. Raghavachari, A. P. Rendell, J. C. Burant, S. S. Iyengar, 
 J. Tomasi, M. Cossi, J. M. Millam, M. Klene, C. Adamo, R. Cammi, 
 J. W. Ochterski, R. L. Martin, K. Morokuma, O. Farkas, 
 J. B. Foresman, and D. J. Fox, Gaussian, Inc., Wallingford CT, 2016.
 
 ******************************************
 Gaussian 16:  ES64L-G16RevA.03 25-Dec-2016
                22-Sep-2023 
 ******************************************
 %nprocshared=4
 Will use up to    4 processors via shared memory.
 %mem=4GB
 -------------------------
 #m062x/6-31g(d) scf=tight
 -------------------------
 1/38=1,172=1/1;
 2/12=2,17=6,18=5,40=1/2;
 3/5=1,6=6,7=1,11=2,25=1,30=1,74=-55/1,2,3;
 4//1;
 5/5=2,32=2,38=5/2;
 6/7=2,8=2,9=2,10=2,28=1/1;
 99/5=1,9=1/99;
 -----------------------
 tmpdir/M2_conf_0_24.gjf
 -----------------------
 Symbolic Z-matrix:
 Charge =  0 Multiplicity = 1
 C                     0.        0.        0. 
 C                     1.5364    0.        0. 
 C                     1.90464   0.        1.46493 
 H                    -0.43     -0.87975  -0.48625 
 H                    -0.43      0.87992  -0.48594 
 H                    -0.29447  -0.00019   1.06981 
 H                     1.95796   0.87735  -0.50287 
 H                     1.95796  -0.87735  -0.50287 
 O                     0.97026   0.        2.18164 
 H                     2.94032   0.        1.79167 
 
                          Input orientation:                          
 ---------------------------------------------------------------------
 Center     Atomic      Atomic             Coordinates (Angstroms)
 Number     Number       Type             X           Y           Z
 ---------------------------------------------------------------------
      1          6           0        0.000000    0.000000    0.000000
      2          6           0        1.536400    0.000000    0.000000
      3          6           0        1.904640    0.000000    1.464930
      4          1           0       -0.430000   -0.879750   -0.486250
      5          1           0       -0.430000    0.879920   -0.485940
      6          1           0       -0.294470   -0.000190    1.069810
      7          1           0        1.957960    0.877350   -0.502870
      8          1           0        1.957960   -0.877350   -0.502870
      9          8           0        0.970260    0.000000    2.181640
     10          1           0        2.940320    0.000000    1.791670
 ---------------------------------------------------------------------
                    Distance matrix (angstroms):
                    1          2          3          4          5
     1  C    0.000000
     2  C    1.536400   0.000000
     3  C    2.402847   1.510503   0.000000
     4  H    1.093297   2.208422   3.167271   0.000000
     5  H    1.093296   2.208422   3.167128   1.759670   0.000000
     6  H    1.109597   2.120514   2.234324   1.792573   1.792574
     7  H    2.203685   1.095598   2.155185   2.964798   2.388021
     8  H    2.203685   1.095598   2.155185   2.388019   2.964901
     9  O    2.387668   2.253901   1.177599   3.138841   3.138626
    10  H    3.443191   2.276197   1.085998   4.161963   4.161829
                    6          7          8          9         10
     6  H    0.000000
     7  H    2.883893   0.000000
     8  H    2.883778   1.754700   0.000000
     9  O    1.683956   2.991971   2.991971   0.000000
    10  H    3.314355   2.645692   2.645692   2.008286   0.000000
 Stoichiometry    C3H6O
 Framework group  C1[X(C3H6O)]
 Deg. of freedom    24
 Full point group                 C1      NOp   1
 Largest Abelian subgroup         C1      NOp   1
 Largest concise Abelian subgroup C1      NOp   1
                         Standard orientation:                         
 ---------------------------------------------------------------------
 Center     Atomic      Atomic             Coordinates (Angstroms)
 Number     Number       Type             X           Y           Z
 ---------------------------------------------------------------------
      1          6           0       -1.267144   -0.499162    0.000001
      2          6           0       -0.498816    0.831326    0.000001
      3          6           0        0.953931    0.417626    0.000000
      4          1           0       -1.903261   -0.628367   -0.879749
      5          1           0       -1.902993   -0.628521    0.879921
      6          1           0       -0.487972   -1.289160   -0.000189
      7          1           0       -0.723475    1.447864    0.877351
      8          1           0       -0.723475    1.447864   -0.877349
      9          8           0        1.107318   -0.749940    0.000001
     10          1           0        1.754807    1.151104    0.000000
 ---------------------------------------------------------------------
 Rotational constants (GHZ):          15.2018453           7.4803763           5.3433184
 Standard basis: 6-31G(d) (6D, 7F)
 There are    72 symmetry adapted cartesian basis functions of A   symmetry.
 There are    72 symmetry adapted basis functions of A   symmetry.
    72 basis functions,   136 primitive gaussians,    72 cartesian basis functions
    16 alpha electrons       16 beta electrons
       nuclear repulsion energy       123.0734293672 Hartrees.
 NAtoms=   10 NActive=   10 NUniq=   10 SFac= 1.00D+00 NAtFMM=   60 NAOKFM=F Big=F
 Integral buffers will be    131072 words long.
 Raffenetti 2 integral format.
 Two-electron integral symmetry is turned on.
 One-electron integrals computed using PRISM.
 NBasis=    72 RedAO= T EigKep=  3.85D-03  NBF=    72
 NBsUse=    72 1.00D-06 EigRej= -1.00D+00 NBFU=    72
 ExpMin= 1.61D-01 ExpMax= 5.48D+03 ExpMxC= 8.25D+02 IAcc=3 IRadAn=         5 AccDes= 0.00D+00
 Harris functional with IExCor= 1009 and IRadAn=       5 diagonalized for initial guess.
 HarFok:  IExCor= 1009 AccDes= 0.00D+00 IRadAn=         5 IDoV= 1 UseB2=F ITyADJ=14
 ICtDFT=  3500011 ScaDFX=  1.000000  1.000000  1.000000  1.000000
 FoFCou: FMM=F IPFlag=           0 FMFlag=      100000 FMFlg1=           0
         NFxFlg=           0 DoJE=T BraDBF=F KetDBF=T FulRan=T
         wScrn=  0.000000 ICntrl=       500 IOpCl=  0 I1Cent=   200000004 NGrid=           0
         NMat0=    1 NMatS0=      1 NMatT0=    0 NMatD0=    1 NMtDS0=    0 NMtDT0=    0
 Petite list used in FoFCou.
 Keep R1 ints in memory in canonical form, NReq=7043300.
 Requested convergence on RMS density matrix=1.00D-08 within 128 cycles.
 Requested convergence on MAX density matrix=1.00D-06.
 Requested convergence on             energy=1.00D-06.
 No special actions if energy rises.
 Integral accuracy reduced to 1.0D-05 until final iterations.
 Initial convergence to 1.0D-05 achieved.  Increase integral accuracy.
 SCF Done:  E(RM062X) =  -193.016609734     A.U. after   14 cycles
            NFock= 14  Conv=0.46D-08     -V/T= 2.0069

 **********************************************************************

            Population analysis using the SCF density.

 **********************************************************************

 Orbital symmetries:
       Occupied  (A) (A) (A) (A) (A) (A) (A) (A) (A) (A) (A) (A)
                 (A) (A) (A) (A)
       Virtual   (A) (A) (A) (A) (A) (A) (A) (A) (A) (A) (A) (A)
                 (A) (A) (A) (A) (A) (A) (A) (A) (A) (A) (A) (A)
                 (A) (A) (A) (A) (A) (A) (A) (A) (A) (A) (A) (A)
                 (A) (A) (A) (A) (A) (A) (A) (A) (A) (A) (A) (A)
                 (A) (A) (A) (A) (A) (A) (A) (A)
 The electronic state is 1-A.
 Alpha  occ. eigenvalues --  -19.64395 -10.63699 -10.54822 -10.51309  -1.20071
 Alpha  occ. eigenvalues --   -0.86584  -0.74645  -0.64344  -0.58015  -0.53760
 Alpha  occ. eigenvalues --   -0.53426  -0.45464  -0.42381  -0.40305  -0.39562
 Alpha  occ. eigenvalues --   -0.32164
 Alpha virt. eigenvalues --    0.03305   0.15172   0.17542   0.17646   0.20679
 Alpha virt. eigenvalues --    0.26039   0.27527   0.27948   0.31814   0.37326
 Alpha virt. eigenvalues --    0.55481   0.58292   0.63827   0.64225   0.68206
 Alpha virt. eigenvalues --    0.70935   0.75700   0.81537   0.81817   0.83757
 Alpha virt. eigenvalues --    0.90253   0.91367   0.94460   0.97664   0.99328
 Alpha virt. eigenvalues --    1.02091   1.05083   1.09604   1.14464   1.30204
 Alpha virt. eigenvalues --    1.42977   1.48699   1.57254   1.59649   1.64330
 Alpha virt. eigenvalues --    1.80118   1.85871   1.93606   2.00063   2.03206
 Alpha virt. eigenvalues --    2.10147   2.13516   2.14756   2.26841   2.36426
 Alpha virt. eigenvalues --    2.40746   2.49900   2.52543   2.64183   2.74557
 Alpha virt. eigenvalues --    2.93835   3.04636   3.93507   4.12755   4.27351
 Alpha virt. eigenvalues --    4.49357
          Condensed to atoms (all electrons):
               1          2          3          4          5          6
     1  C    5.210409   0.345447  -0.051575   0.378282   0.378291   0.393441
     2  C    0.345447   5.363569   0.313305  -0.033146  -0.033145  -0.045239
     3  C   -0.051575   0.313305   4.597395   0.002766   0.002764  -0.022833
     4  H    0.378282  -0.033146   0.002766   0.545840  -0.026659  -0.021286
     5  H    0.378291  -0.033145   0.002764  -0.026659   0.545824  -0.021286
     6  H    0.393441  -0.045239  -0.022833  -0.021286  -0.021286   0.452376
     7  H   -0.029585   0.366708  -0.023671   0.002606  -0.006443   0.002778
     8  H   -0.029586   0.366708  -0.023670  -0.006442   0.002607   0.002777
     9  O   -0.068979  -0.124852   0.580421   0.002144   0.002143   0.008886
    10  H    0.003735  -0.098508   0.366562  -0.000045  -0.000045   0.001274
               7          8          9         10
     1  C   -0.029585  -0.029586  -0.068979   0.003735
     2  C    0.366708   0.366708  -0.124852  -0.098508
     3  C   -0.023671  -0.023670   0.580421   0.366562
     4  H    0.002606  -0.006442   0.002144  -0.000045
     5  H   -0.006443   0.002607   0.002143  -0.000045
     6  H    0.002778   0.002777   0.008886   0.001274
     7  H    0.527144  -0.026211   0.001550   0.002579
     8  H   -0.026211   0.527145   0.001550   0.002579
     9  O    0.001550   0.001550   8.026456  -0.045658
    10  H    0.002579   0.002579  -0.045658   0.617768
 Mulliken charges:
               1
     1  C   -0.529880
     2  C   -0.420845
     3  C    0.258536
     4  H    0.155942
     5  H    0.155949
     6  H    0.249112
     7  H    0.182544
     8  H    0.182543
     9  O   -0.383661
    10  H    0.149760
 Sum of Mulliken charges =  -0.00000
 Mulliken charges with hydrogens summed into heavy atoms:
               1
     1  C    0.031123
     2  C   -0.055758
     3  C    0.408296
     9  O   -0.383661
 Electronic spatial extent (au):  <R**2>=            271.0473
 Charge=             -0.0000 electrons
 Dipole moment (field-independent basis, Debye):
    X=             -0.1585    Y=              2.1568    Z=             -0.0000  Tot=              2.1626
 Quadrupole moment (field-independent basis, Debye-Ang):
   XX=            -25.9917   YY=            -25.0927   ZZ=            -24.0974
   XY=              2.3942   XZ=             -0.0001   YZ=              0.0000
 Traceless Quadrupole moment (field-independent basis, Debye-Ang):
   XX=             -0.9311   YY=             -0.0321   ZZ=              0.9632
   XY=              2.3942   XZ=             -0.0001   YZ=              0.0000
 Octapole moment (field-independent basis, Debye-Ang**2):
  XXX=              5.8969  YYY=             -0.9969  ZZZ=              0.0003  XYY=              1.4485
  XXY=              3.0495  XXZ=             -0.0001  XZZ=              1.1203  YZZ=             -0.0573
  YYZ=             -0.0001  XYZ=              0.0002
 Hexadecapole moment (field-independent basis, Debye-Ang**3):
 XXXX=           -203.9886 YYYY=           -111.2616 ZZZZ=            -35.5078 XXXY=              3.9949
 XXXZ=              0.0006 YYYX=             -2.7099 YYYZ=              0.0003 ZZZX=             -0.0005
 ZZZY=             -0.0003 XXYY=            -53.0627 XXZZ=            -37.3507 YYZZ=            -23.3101
 XXYZ=             -0.0002 YYXZ=             -0.0002 ZZXY=             -1.4920
 N-N= 1.230734293672D+02 E-N=-6.962300286094D+02  KE= 1.916945285748D+02
 1\1\GINC-NODE62\SP\RM062X\6-31G(d)\C3H6O1\YANZ\22-Sep-2023\0\\#m062x/6
 -31g(d) scf=tight\\tmpdir/M2_conf_0_24.gjf\\0,1\C,0,0.,0.,0.\C,0,1.536
 4,0.,0.\C,0,1.90464,0.,1.46493\H,0,-0.43,-0.87975,-0.48625\H,0,-0.43,0
 .87992,-0.48594\H,0,-0.29447,-0.00019,1.06981\H,0,1.95796,0.87735,-0.5
 0287\H,0,1.95796,-0.87735,-0.50287\O,0,0.97026,0.,2.18164\H,0,2.94032,
 0.,1.79167\\Version=ES64L-G16RevA.03\State=1-A\HF=-193.0166097\RMSD=4.
 568e-09\Dipole=0.703627,-0.0000022,-0.4783497\Quadrupole=1.3507027,0.7
 161319,-2.0668346,-0.0000039,0.6002428,-0.0000469\PG=C01 [X(C3H6O1)]\\
 @


 The hours that make us happy make us wise.
                         -- John Masefield
 Job cpu time:       0 days  0 hours  0 minutes 40.3 seconds.
 Elapsed time:       0 days  0 hours  0 minutes 10.4 seconds.
 File lengths (MBytes):  RWF=      6 Int=      0 D2E=      0 Chk=      1 Scr=      1
 Normal termination of Gaussian 16 at Fri Sep 22 17:02:18 2023.
