 Entering Gaussian System, Link 0=g16
 Initial command:
 /share/apps/gaussian/g16/l1.exe "/tmp/55613.mgr/Gau-180178.inp" -scrdir="/tmp/55613.mgr/"
 Entering Link 1 = /share/apps/gaussian/g16/l1.exe PID=    180179.
  
 Copyright (c) 1988,1990,1992,1993,1995,1998,2003,2009,2016,
            Gaussian, Inc.  All Rights Reserved.
  
 This is part of the Gaussian(R) 16 program.  It is based on
 the Gaussian(R) 09 system (copyright 2009, Gaussian, Inc.),
 the Gaussian(R) 03 system (copyright 2003, Gaussian, Inc.),
 the Gaussian(R) 98 system (copyright 1998, Gaussian, Inc.),
 the Gaussian(R) 94 system (copyright 1995, Gaussian, Inc.),
 the Gaussian 92(TM) system (copyright 1992, Gaussian, Inc.),
 the Gaussian 90(TM) system (copyright 1990, Gaussian, Inc.),
 the Gaussian 88(TM) system (copyright 1988, Gaussian, Inc.),
 the Gaussian 86(TM) system (copyright 1986, Carnegie Mellon
 University), and the Gaussian 82(TM) system (copyright 1983,
 Carnegie Mellon University). Gaussian is a federally registered
 trademark of Gaussian, Inc.
  
 This software contains proprietary and confidential information,
 including trade secrets, belonging to Gaussian, Inc.
  
 This software is provided under written license and may be
 used, copied, transmitted, or stored only in accord with that
 written license.
  
 The following legend is applicable only to US Government
 contracts under FAR:
  
                    RESTRICTED RIGHTS LEGEND
  
 Use, reproduction and disclosure by the US Government is
 subject to restrictions as set forth in subparagraphs (a)
 and (c) of the Commercial Computer Software - Restricted
 Rights clause in FAR 52.227-19.
  
 Gaussian, Inc.
 340 Quinnipiac St., Bldg. 40, Wallingford CT 06492
  
  
 ---------------------------------------------------------------
 Warning -- This program may not be used in any manner that
 competes with the business of Gaussian, Inc. or will provide
 assistance to any competitor of Gaussian, Inc.  The licensee
 of this program is prohibited from giving any competitor of
 Gaussian, Inc. access to this program.  By using this program,
 the user acknowledges that Gaussian, Inc. is engaged in the
 business of creating and licensing software in the field of
 computational chemistry and represents and warrants to the
 licensee that it is not a competitor of Gaussian, Inc. and that
 it will not use this program in any manner prohibited above.
 ---------------------------------------------------------------
  

 Cite this work as:
 Gaussian 16, Revision A.03,
 M. J. Frisch, G. W. Trucks, H. B. Schlegel, G. E. Scuseria, 
 M. A. Robb, J. R. Cheeseman, G. Scalmani, V. Barone, 
 G. A. Petersson, H. Nakatsuji, X. Li, M. Caricato, A. V. Marenich, 
 J. Bloino, B. G. Janesko, R. Gomperts, B. Mennucci, H. P. Hratchian, 
 J. V. Ortiz, A. F. Izmaylov, J. L. Sonnenberg, D. Williams-Young, 
 F. Ding, F. Lipparini, F. Egidi, J. Goings, B. Peng, A. Petrone, 
 T. Henderson, D. Ranasinghe, V. G. Zakrzewski, J. Gao, N. Rega, 
 G. Zheng, W. Liang, M. Hada, M. Ehara, K. Toyota, R. Fukuda, 
 J. Hasegawa, M. Ishida, T. Nakajima, Y. Honda, O. Kitao, H. Nakai, 
 T. Vreven, K. Throssell, J. A. Montgomery, Jr., J. E. Peralta, 
 F. Ogliaro, M. J. Bearpark, J. J. Heyd, E. N. Brothers, K. N. Kudin, 
 V. N. Staroverov, T. A. Keith, R. Kobayashi, J. Normand, 
 K. Raghavachari, A. P. Rendell, J. C. Burant, S. S. Iyengar, 
 J. Tomasi, M. Cossi, J. M. Millam, M. Klene, C. Adamo, R. Cammi, 
 J. W. Ochterski, R. L. Martin, K. Morokuma, O. Farkas, 
 J. B. Foresman, and D. J. Fox, Gaussian, Inc., Wallingford CT, 2016.
 
 ******************************************
 Gaussian 16:  ES64L-G16RevA.03 25-Dec-2016
                22-Sep-2023 
 ******************************************
 %nprocshared=4
 Will use up to    4 processors via shared memory.
 %mem=4GB
 -------------------------
 #m062x/6-31g(d) scf=tight
 -------------------------
 1/38=1,172=1/1;
 2/12=2,17=6,18=5,40=1/2;
 3/5=1,6=6,7=1,11=2,25=1,30=1,74=-55/1,2,3;
 4//1;
 5/5=2,32=2,38=5/2;
 6/7=2,8=2,9=2,10=2,28=1/1;
 99/5=1,9=1/99;
 ----------------------
 tmpdir/M2_conf_0_8.gjf
 ----------------------
 Symbolic Z-matrix:
 Charge =  0 Multiplicity = 1
 C                     0.        0.        0. 
 C                     1.4703    0.        0. 
 H                     2.09645   0.        0.88499 
 H                    -0.61373   0.        0.89365 
 O                    -0.38984   0.       -1.11883 
 O                     1.86014   0.       -1.11883 
 
                          Input orientation:                          
 ---------------------------------------------------------------------
 Center     Atomic      Atomic             Coordinates (Angstroms)
 Number     Number       Type             X           Y           Z
 ---------------------------------------------------------------------
      1          6           0        0.000000    0.000000    0.000000
      2          6           0        1.470300    0.000000    0.000000
      3          1           0        2.096450    0.000000    0.884990
      4          1           0       -0.613730    0.000000    0.893650
      5          8           0       -0.389840    0.000000   -1.118830
      6          8           0        1.860140    0.000000   -1.118830
 ---------------------------------------------------------------------
                    Distance matrix (angstroms):
                    1          2          3          4          5
     1  C    0.000000
     2  C    1.470300   0.000000
     3  H    2.275590   1.084099   0.000000
     4  H    1.084101   2.267552   2.710194   0.000000
     5  O    1.184802   2.170691   3.193264   2.024896   0.000000
     6  O    2.170691   1.184802   2.017706   3.189061   2.249980
                    6
     6  O    0.000000
 Stoichiometry    C2H2O2
 Framework group  CS[SG(C2H2O2)]
 Deg. of freedom     9
 Full point group                 CS      NOp   2
 Largest Abelian subgroup         CS      NOp   2
 Largest concise Abelian subgroup C1      NOp   1
                         Standard orientation:                         
 ---------------------------------------------------------------------
 Center     Atomic      Atomic             Coordinates (Angstroms)
 Number     Number       Type             X           Y           Z
 ---------------------------------------------------------------------
      1          6           0       -0.537421   -0.735564    0.000000
      2          6           0       -0.537421    0.734736   -0.000000
      3          1           0       -1.422411    1.360886   -0.000000
      4          1           0       -1.431071   -1.349294    0.000000
      5          8           0        0.581409   -1.125404    0.000000
      6          8           0        0.581409    1.124576   -0.000000
 ---------------------------------------------------------------------
 Rotational constants (GHZ):          23.2776589           8.8417196           6.4077994
 Standard basis: 6-31G(d) (6D, 7F)
 There are    48 symmetry adapted cartesian basis functions of A'  symmetry.
 There are    16 symmetry adapted cartesian basis functions of A"  symmetry.
 There are    48 symmetry adapted basis functions of A'  symmetry.
 There are    16 symmetry adapted basis functions of A"  symmetry.
    64 basis functions,   120 primitive gaussians,    64 cartesian basis functions
    15 alpha electrons       15 beta electrons
       nuclear repulsion energy       109.9797313817 Hartrees.
 NAtoms=    6 NActive=    6 NUniq=    6 SFac= 1.00D+00 NAtFMM=   60 NAOKFM=F Big=F
 Integral buffers will be    131072 words long.
 Raffenetti 2 integral format.
 Two-electron integral symmetry is turned on.
 One-electron integrals computed using PRISM.
 NBasis=    64 RedAO= T EigKep=  2.30D-03  NBF=    48    16
 NBsUse=    64 1.00D-06 EigRej= -1.00D+00 NBFU=    48    16
 ExpMin= 1.61D-01 ExpMax= 5.48D+03 ExpMxC= 8.25D+02 IAcc=3 IRadAn=         5 AccDes= 0.00D+00
 Harris functional with IExCor= 1009 and IRadAn=       5 diagonalized for initial guess.
 HarFok:  IExCor= 1009 AccDes= 0.00D+00 IRadAn=         5 IDoV= 1 UseB2=F ITyADJ=14
 ICtDFT=  3500011 ScaDFX=  1.000000  1.000000  1.000000  1.000000
 FoFCou: FMM=F IPFlag=           0 FMFlag=      100000 FMFlg1=           0
         NFxFlg=           0 DoJE=T BraDBF=F KetDBF=T FulRan=T
         wScrn=  0.000000 ICntrl=       500 IOpCl=  0 I1Cent=   200000004 NGrid=           0
         NMat0=    1 NMatS0=      1 NMatT0=    0 NMatD0=    1 NMtDS0=    0 NMtDT0=    0
 Petite list used in FoFCou.
 Initial guess orbital symmetries:
       Occupied  (A') (A') (A') (A') (A') (A') (A') (A') (A') (A')
                 (A') (A") (A") (A') (A')
       Virtual   (A") (A") (A') (A') (A') (A') (A') (A") (A') (A")
                 (A') (A') (A') (A') (A') (A') (A') (A") (A') (A')
                 (A") (A') (A') (A') (A") (A") (A") (A') (A') (A')
                 (A") (A") (A') (A') (A') (A') (A") (A') (A') (A")
                 (A") (A') (A') (A') (A') (A') (A') (A') (A')
 The electronic state of the initial guess is 1-A'.
 Keep R1 ints in memory in symmetry-blocked form, NReq=5724326.
 Requested convergence on RMS density matrix=1.00D-08 within 128 cycles.
 Requested convergence on MAX density matrix=1.00D-06.
 Requested convergence on             energy=1.00D-06.
 No special actions if energy rises.
 Integral accuracy reduced to 1.0D-05 until final iterations.
 Initial convergence to 1.0D-05 achieved.  Increase integral accuracy.
 SCF Done:  E(RM062X) =  -227.690937021     A.U. after   15 cycles
            NFock= 15  Conv=0.25D-08     -V/T= 2.0060

 **********************************************************************

            Population analysis using the SCF density.

 **********************************************************************

 Orbital symmetries:
       Occupied  (A') (A') (A') (A') (A') (A') (A') (A') (A') (A')
                 (A") (A') (A") (A') (A')
       Virtual   (A") (A") (A') (A') (A') (A') (A') (A") (A') (A")
                 (A') (A') (A') (A') (A') (A') (A') (A") (A') (A')
                 (A") (A') (A') (A') (A") (A") (A") (A') (A') (A')
                 (A") (A") (A') (A') (A') (A') (A") (A') (A") (A')
                 (A") (A') (A') (A') (A') (A') (A') (A') (A')
 The electronic state is 1-A'.
 Alpha  occ. eigenvalues --  -19.66316 -19.66245 -10.64655 -10.64569  -1.23678
 Alpha  occ. eigenvalues --   -1.17559  -0.80278  -0.65952  -0.63717  -0.54929
 Alpha  occ. eigenvalues --   -0.52809  -0.52437  -0.44355  -0.36514  -0.34027
 Alpha virt. eigenvalues --   -0.05059   0.09692   0.17308   0.17575   0.23735
 Alpha virt. eigenvalues --    0.33473   0.42610   0.54645   0.55129   0.61325
 Alpha virt. eigenvalues --    0.72280   0.73266   0.78463   0.85827   0.88057
 Alpha virt. eigenvalues --    0.90093   0.90313   0.98880   0.99598   1.03091
 Alpha virt. eigenvalues --    1.10429   1.14745   1.25859   1.26228   1.35123
 Alpha virt. eigenvalues --    1.51438   1.63550   1.71907   1.74414   1.77004
 Alpha virt. eigenvalues --    1.79891   1.91430   2.05489   2.08708   2.14650
 Alpha virt. eigenvalues --    2.25345   2.31202   2.38093   2.53667   2.55441
 Alpha virt. eigenvalues --    2.68620   2.74756   2.97665   3.05007   3.14478
 Alpha virt. eigenvalues --    3.73159   4.04055   4.15647   4.34113
          Condensed to atoms (all electrons):
               1          2          3          4          5          6
     1  C    4.828462   0.273745  -0.081169   0.341332   0.562874  -0.095097
     2  C    0.273745   4.831986   0.342162  -0.082238  -0.095179   0.562217
     3  H   -0.081169   0.342162   0.612713   0.008916   0.004144  -0.043555
     4  H    0.341332  -0.082238   0.008916   0.613936  -0.042904   0.004229
     5  O    0.562874  -0.095179   0.004144  -0.042904   7.933843  -0.037253
     6  O   -0.095097   0.562217  -0.043555   0.004229  -0.037253   7.934612
 Mulliken charges:
               1
     1  C    0.169854
     2  C    0.167307
     3  H    0.156790
     4  H    0.156730
     5  O   -0.325526
     6  O   -0.325154
 Sum of Mulliken charges =  -0.00000
 Mulliken charges with hydrogens summed into heavy atoms:
               1
     1  C    0.326584
     2  C    0.324096
     5  O   -0.325526
     6  O   -0.325154
 Electronic spatial extent (au):  <R**2>=            203.7682
 Charge=             -0.0000 electrons
 Dipole moment (field-independent basis, Debye):
    X=             -3.7616    Y=             -0.0008    Z=             -0.0000  Tot=              3.7616
 Quadrupole moment (field-independent basis, Debye-Ang):
   XX=            -21.0865   YY=            -23.9589   ZZ=            -20.7953
   XY=             -0.0049   XZ=              0.0000   YZ=              0.0000
 Traceless Quadrupole moment (field-independent basis, Debye-Ang):
   XX=              0.8604   YY=             -2.0120   ZZ=              1.1516
   XY=             -0.0049   XZ=              0.0000   YZ=              0.0000
 Octapole moment (field-independent basis, Debye-Ang**2):
  XXX=              0.9159  YYY=              0.0504  ZZZ=             -0.0000  XYY=             -4.1608
  XXY=             -0.0130  XXZ=             -0.0000  XZZ=              1.4372  YZZ=             -0.0038
  YYZ=             -0.0000  XYZ=              0.0000
 Hexadecapole moment (field-independent basis, Debye-Ang**3):
 XXXX=            -71.7810 YYYY=           -153.6302 ZZZZ=            -16.5052 XXXY=              0.0373
 XXXZ=              0.0000 YYYX=             -0.0605 YYYZ=              0.0000 ZZZX=             -0.0000
 ZZZY=              0.0000 XXYY=            -34.9702 XXZZ=            -14.9934 YYZZ=            -26.7615
 XXYZ=              0.0000 YYXZ=              0.0000 ZZXY=              0.0052
 N-N= 1.099797313817D+02 E-N=-7.544992060190D+02  KE= 2.263431661202D+02
 Symmetry A'   KE= 2.192072550593D+02
 Symmetry A"   KE= 7.135911060834D+00
 1\1\GINC-NODE62\SP\RM062X\6-31G(d)\C2H2O2\YANZ\22-Sep-2023\0\\#m062x/6
 -31g(d) scf=tight\\tmpdir/M2_conf_0_8.gjf\\0,1\C,0,0.,0.,0.\C,0,1.4703
 ,0.,0.\H,0,2.09645,0.,0.88499\H,0,-0.61373,0.,0.89365\O,0,-0.38984,0.,
 -1.11883\O,0,1.86014,0.,-1.11883\\Version=ES64L-G16RevA.03\State=1-A'\
 HF=-227.690937\RMSD=2.543e-09\Dipole=-0.0003338,0.,1.4799448\Quadrupol
 e=-1.4959014,0.8562023,0.6396991,0.,0.0036386,0.\PG=CS [SG(C2H2O2)]\\@


 IF YOU'RE NOT PART OF THE SOLUTION,
 THEN YOU'RE PART OF THE PRECIPITATE.
 Job cpu time:       0 days  0 hours  0 minutes 15.3 seconds.
 Elapsed time:       0 days  0 hours  0 minutes  4.0 seconds.
 File lengths (MBytes):  RWF=      6 Int=      0 D2E=      0 Chk=      1 Scr=      1
 Normal termination of Gaussian 16 at Fri Sep 22 17:02:06 2023.
