 Entering Gaussian System, Link 0=g16
 Initial command:
 /share/apps/gaussian/g16/l1.exe "/tmp/55613.mgr/Gau-181898.inp" -scrdir="/tmp/55613.mgr/"
 Entering Link 1 = /share/apps/gaussian/g16/l1.exe PID=    181899.
  
 Copyright (c) 1988,1990,1992,1993,1995,1998,2003,2009,2016,
            Gaussian, Inc.  All Rights Reserved.
  
 This is part of the Gaussian(R) 16 program.  It is based on
 the Gaussian(R) 09 system (copyright 2009, Gaussian, Inc.),
 the Gaussian(R) 03 system (copyright 2003, Gaussian, Inc.),
 the Gaussian(R) 98 system (copyright 1998, Gaussian, Inc.),
 the Gaussian(R) 94 system (copyright 1995, Gaussian, Inc.),
 the Gaussian 92(TM) system (copyright 1992, Gaussian, Inc.),
 the Gaussian 90(TM) system (copyright 1990, Gaussian, Inc.),
 the Gaussian 88(TM) system (copyright 1988, Gaussian, Inc.),
 the Gaussian 86(TM) system (copyright 1986, Carnegie Mellon
 University), and the Gaussian 82(TM) system (copyright 1983,
 Carnegie Mellon University). Gaussian is a federally registered
 trademark of Gaussian, Inc.
  
 This software contains proprietary and confidential information,
 including trade secrets, belonging to Gaussian, Inc.
  
 This software is provided under written license and may be
 used, copied, transmitted, or stored only in accord with that
 written license.
  
 The following legend is applicable only to US Government
 contracts under FAR:
  
                    RESTRICTED RIGHTS LEGEND
  
 Use, reproduction and disclosure by the US Government is
 subject to restrictions as set forth in subparagraphs (a)
 and (c) of the Commercial Computer Software - Restricted
 Rights clause in FAR 52.227-19.
  
 Gaussian, Inc.
 340 Quinnipiac St., Bldg. 40, Wallingford CT 06492
  
  
 ---------------------------------------------------------------
 Warning -- This program may not be used in any manner that
 competes with the business of Gaussian, Inc. or will provide
 assistance to any competitor of Gaussian, Inc.  The licensee
 of this program is prohibited from giving any competitor of
 Gaussian, Inc. access to this program.  By using this program,
 the user acknowledges that Gaussian, Inc. is engaged in the
 business of creating and licensing software in the field of
 computational chemistry and represents and warrants to the
 licensee that it is not a competitor of Gaussian, Inc. and that
 it will not use this program in any manner prohibited above.
 ---------------------------------------------------------------
  

 Cite this work as:
 Gaussian 16, Revision A.03,
 M. J. Frisch, G. W. Trucks, H. B. Schlegel, G. E. Scuseria, 
 M. A. Robb, J. R. Cheeseman, G. Scalmani, V. Barone, 
 G. A. Petersson, H. Nakatsuji, X. Li, M. Caricato, A. V. Marenich, 
 J. Bloino, B. G. Janesko, R. Gomperts, B. Mennucci, H. P. Hratchian, 
 J. V. Ortiz, A. F. Izmaylov, J. L. Sonnenberg, D. Williams-Young, 
 F. Ding, F. Lipparini, F. Egidi, J. Goings, B. Peng, A. Petrone, 
 T. Henderson, D. Ranasinghe, V. G. Zakrzewski, J. Gao, N. Rega, 
 G. Zheng, W. Liang, M. Hada, M. Ehara, K. Toyota, R. Fukuda, 
 J. Hasegawa, M. Ishida, T. Nakajima, Y. Honda, O. Kitao, H. Nakai, 
 T. Vreven, K. Throssell, J. A. Montgomery, Jr., J. E. Peralta, 
 F. Ogliaro, M. J. Bearpark, J. J. Heyd, E. N. Brothers, K. N. Kudin, 
 V. N. Staroverov, T. A. Keith, R. Kobayashi, J. Normand, 
 K. Raghavachari, A. P. Rendell, J. C. Burant, S. S. Iyengar, 
 J. Tomasi, M. Cossi, J. M. Millam, M. Klene, C. Adamo, R. Cammi, 
 J. W. Ochterski, R. L. Martin, K. Morokuma, O. Farkas, 
 J. B. Foresman, and D. J. Fox, Gaussian, Inc., Wallingford CT, 2016.
 
 ******************************************
 Gaussian 16:  ES64L-G16RevA.03 25-Dec-2016
                22-Sep-2023 
 ******************************************
 %nprocshared=4
 Will use up to    4 processors via shared memory.
 %mem=4GB
 -------------------------
 #m062x/6-31g(d) scf=tight
 -------------------------
 1/38=1,172=1/1;
 2/12=2,17=6,18=5,40=1/2;
 3/5=1,6=6,7=1,11=2,25=1,30=1,74=-55/1,2,3;
 4//1;
 5/5=2,32=2,38=5/2;
 6/7=2,8=2,9=2,10=2,28=1/1;
 99/5=1,9=1/99;
 -----------------------
 tmpdir/M2_conf_0_59.gjf
 -----------------------
 Symbolic Z-matrix:
 Charge =  0 Multiplicity = 1
 C                     0.        0.        0. 
 C                     1.5027    0.        0. 
 H                     1.84097   0.        1.04543 
 O                    -0.38984  -0.96461  -0.56684 
 H                    -0.60409   0.77507   0.45546 
 H                     1.75036  -0.91323  -0.53664 
 H                     1.91236   0.89062  -0.49632 
 
                          Input orientation:                          
 ---------------------------------------------------------------------
 Center     Atomic      Atomic             Coordinates (Angstroms)
 Number     Number       Type             X           Y           Z
 ---------------------------------------------------------------------
      1          6           0        0.000000    0.000000    0.000000
      2          6           0        1.502700    0.000000    0.000000
      3          1           0        1.840970    0.000000    1.045430
      4          8           0       -0.389840   -0.964610   -0.566840
      5          1           0       -0.604090    0.775070    0.455460
      6          1           0        1.750360   -0.913230   -0.536640
      7          1           0        1.912360    0.890620   -0.496320
 ---------------------------------------------------------------------
                    Distance matrix (angstroms):
                    1          2          3          4          5
     1  C    0.000000
     2  C    1.502700   0.000000
     3  H    2.117096   1.098795   0.000000
     4  O    1.184802   2.198519   2.916573   0.000000
     5  H    1.083098   2.290577   2.631942   2.029159   0.000000
     6  H    2.045906   1.087799   1.828974   2.141030   3.062361
     7  H    2.167177   1.098799   1.781935   2.957529   2.692909
                    6          7
     6  H    0.000000
     7  H    1.811559   0.000000
 Stoichiometry    C2H4O
 Framework group  C1[X(C2H4O)]
 Deg. of freedom    15
 Full point group                 C1      NOp   1
 Largest Abelian subgroup         C1      NOp   1
 Largest concise Abelian subgroup C1      NOp   1
                         Standard orientation:                         
 ---------------------------------------------------------------------
 Center     Atomic      Atomic             Coordinates (Angstroms)
 Number     Number       Type             X           Y           Z
 ---------------------------------------------------------------------
      1          6           0       -0.258858    0.498272   -0.005283
      2          6           0        1.094152   -0.155508    0.001137
      3          1           0        1.628548    0.181756    0.900039
      4          8           0       -1.096657   -0.339467    0.001161
      5          1           0       -0.411632    1.570503   -0.014380
      6          1           0        0.856280   -1.216944    0.009880
      7          1           0        1.688296    0.123836   -0.879952
 ---------------------------------------------------------------------
 Rotational constants (GHZ):          47.2851239          11.9804993          10.1733878
 Standard basis: 6-31G(d) (6D, 7F)
 There are    53 symmetry adapted cartesian basis functions of A   symmetry.
 There are    53 symmetry adapted basis functions of A   symmetry.
    53 basis functions,   100 primitive gaussians,    53 cartesian basis functions
    12 alpha electrons       12 beta electrons
       nuclear repulsion energy        71.5970318171 Hartrees.
 NAtoms=    7 NActive=    7 NUniq=    7 SFac= 1.00D+00 NAtFMM=   60 NAOKFM=F Big=F
 Integral buffers will be    131072 words long.
 Raffenetti 2 integral format.
 Two-electron integral symmetry is turned on.
 One-electron integrals computed using PRISM.
 NBasis=    53 RedAO= T EigKep=  4.82D-03  NBF=    53
 NBsUse=    53 1.00D-06 EigRej= -1.00D+00 NBFU=    53
 ExpMin= 1.61D-01 ExpMax= 5.48D+03 ExpMxC= 8.25D+02 IAcc=3 IRadAn=         5 AccDes= 0.00D+00
 Harris functional with IExCor= 1009 and IRadAn=       5 diagonalized for initial guess.
 HarFok:  IExCor= 1009 AccDes= 0.00D+00 IRadAn=         5 IDoV= 1 UseB2=F ITyADJ=14
 ICtDFT=  3500011 ScaDFX=  1.000000  1.000000  1.000000  1.000000
 FoFCou: FMM=F IPFlag=           0 FMFlag=      100000 FMFlg1=           0
         NFxFlg=           0 DoJE=T BraDBF=F KetDBF=T FulRan=T
         wScrn=  0.000000 ICntrl=       500 IOpCl=  0 I1Cent=   200000004 NGrid=           0
         NMat0=    1 NMatS0=      1 NMatT0=    0 NMatD0=    1 NMtDS0=    0 NMtDT0=    0
 Petite list used in FoFCou.
 Keep R1 ints in memory in canonical form, NReq=4530250.
 Requested convergence on RMS density matrix=1.00D-08 within 128 cycles.
 Requested convergence on MAX density matrix=1.00D-06.
 Requested convergence on             energy=1.00D-06.
 No special actions if energy rises.
 Integral accuracy reduced to 1.0D-05 until final iterations.
 Initial convergence to 1.0D-05 achieved.  Increase integral accuracy.
 SCF Done:  E(RM062X) =  -153.737531455     A.U. after   14 cycles
            NFock= 14  Conv=0.95D-08     -V/T= 2.0069

 **********************************************************************

            Population analysis using the SCF density.

 **********************************************************************

 Orbital symmetries:
       Occupied  (A) (A) (A) (A) (A) (A) (A) (A) (A) (A) (A) (A)
       Virtual   (A) (A) (A) (A) (A) (A) (A) (A) (A) (A) (A) (A)
                 (A) (A) (A) (A) (A) (A) (A) (A) (A) (A) (A) (A)
                 (A) (A) (A) (A) (A) (A) (A) (A) (A) (A) (A) (A)
                 (A) (A) (A) (A) (A)
 The electronic state is 1-A.
 Alpha  occ. eigenvalues --  -19.63623 -10.63348 -10.54238  -1.18515  -0.83372
 Alpha  occ. eigenvalues --   -0.67485  -0.56128  -0.51452  -0.50028  -0.46201
 Alpha  occ. eigenvalues --   -0.42742  -0.31784
 Alpha virt. eigenvalues --    0.03728   0.16654   0.17968   0.20655   0.21039
 Alpha virt. eigenvalues --    0.27473   0.34703   0.58104   0.59017   0.64092
 Alpha virt. eigenvalues --    0.65344   0.73290   0.78437   0.82058   0.91494
 Alpha virt. eigenvalues --    0.92636   0.96023   0.99218   1.00118   1.06989
 Alpha virt. eigenvalues --    1.15904   1.25458   1.46357   1.48812   1.59903
 Alpha virt. eigenvalues --    1.70732   1.86980   1.89127   2.05215   2.12207
 Alpha virt. eigenvalues --    2.15063   2.24658   2.35276   2.37935   2.63475
 Alpha virt. eigenvalues --    2.64793   2.87573   3.02157   3.83701   4.11369
 Alpha virt. eigenvalues --    4.35361
          Condensed to atoms (all electrons):
               1          2          3          4          5          6
     1  C    4.567376   0.344170  -0.026250   0.580841   0.342772  -0.039190
     2  C    0.344170   5.395823   0.346408  -0.143281  -0.096899   0.371768
     3  H   -0.026250   0.346408   0.537669   0.003077   0.004989  -0.015289
     4  O    0.580841  -0.143281   0.003077   7.978899  -0.047110   0.009623
     5  H    0.342772  -0.096899   0.004989  -0.047110   0.642921   0.004952
     6  H   -0.039190   0.371768  -0.015289   0.009623   0.004952   0.477664
     7  H   -0.022255   0.348304  -0.022938   0.003262   0.004447  -0.017453
               7
     1  C   -0.022255
     2  C    0.348304
     3  H   -0.022938
     4  O    0.003262
     5  H    0.004447
     6  H   -0.017453
     7  H    0.531752
 Mulliken charges:
               1
     1  C    0.252536
     2  C   -0.566293
     3  H    0.172334
     4  O   -0.385311
     5  H    0.143928
     6  H    0.207924
     7  H    0.174883
 Sum of Mulliken charges =  -0.00000
 Mulliken charges with hydrogens summed into heavy atoms:
               1
     1  C    0.396464
     2  C   -0.011152
     4  O   -0.385311
 Electronic spatial extent (au):  <R**2>=            154.7130
 Charge=              0.0000 electrons
 Dipole moment (field-independent basis, Debye):
    X=              1.8314    Y=              1.4940    Z=             -0.0141  Tot=              2.3635
 Quadrupole moment (field-independent basis, Debye-Ang):
   XX=            -20.7267   YY=            -17.2242   ZZ=            -17.6473
   XY=             -1.0300   XZ=             -0.0374   YZ=              0.0471
 Traceless Quadrupole moment (field-independent basis, Debye-Ang):
   XX=             -2.1940   YY=              1.3086   ZZ=              0.8854
   XY=             -1.0300   XZ=             -0.0374   YZ=              0.0471
 Octapole moment (field-independent basis, Debye-Ang**2):
  XXX=             -1.1128  YYY=             -0.2146  ZZZ=             -0.0003  XYY=             -1.6763
  XXY=              1.0922  XXZ=             -0.1846  XZZ=             -0.8668  YZZ=              0.0606
  YYZ=             -0.0076  XYZ=              0.0846
 Hexadecapole moment (field-independent basis, Debye-Ang**3):
 XXXX=           -130.4803 YYYY=            -42.3701 ZZZZ=            -22.3359 XXXY=              1.8385
 XXXZ=             -0.4422 YYYX=             -0.2806 YYYZ=             -0.0110 ZZZX=             -0.0573
 ZZZY=              0.0860 XXYY=            -28.9318 XXZZ=            -22.6536 YYZZ=            -11.7244
 XXYZ=              0.1223 YYXZ=              0.0252 ZZXY=              1.1337
 N-N= 7.159703181711D+01 E-N=-5.024842888493D+02  KE= 1.526828693811D+02
 1\1\GINC-NODE62\SP\RM062X\6-31G(d)\C2H4O1\YANZ\22-Sep-2023\0\\#m062x/6
 -31g(d) scf=tight\\tmpdir/M2_conf_0_59.gjf\\0,1\C,0,0.,0.,0.\C,0,1.502
 7,0.,0.\H,0,1.84097,0.,1.04543\O,0,-0.38984,-0.96461,-0.56684\H,0,-0.6
 0409,0.77507,0.45546\H,0,1.75036,-0.91323,-0.53664\H,0,1.91236,0.89062
 ,-0.49632\\Version=ES64L-G16RevA.03\State=1-A\HF=-153.7375315\RMSD=9.5
 31e-09\Dipole=0.3929949,0.7271478,0.4260178\Quadrupole=-0.5386114,0.06
 20734,0.476538,-1.2661329,-0.7974171,-0.3305937\PG=C01 [X(C2H4O1)]\\@


 SCIENCE AND PEACE WILL TRIUMPH OVER IGNORANCE AND WAR

                          -- PASTEUR
 Job cpu time:       0 days  0 hours  0 minutes 18.7 seconds.
 Elapsed time:       0 days  0 hours  0 minutes  4.9 seconds.
 File lengths (MBytes):  RWF=      6 Int=      0 D2E=      0 Chk=      1 Scr=      1
 Normal termination of Gaussian 16 at Fri Sep 22 17:02:47 2023.
