 Entering Gaussian System, Link 0=g16
 Initial command:
 /share/apps/gaussian/g16/l1.exe "/tmp/55613.mgr/Gau-180719.inp" -scrdir="/tmp/55613.mgr/"
 Entering Link 1 = /share/apps/gaussian/g16/l1.exe PID=    180720.
  
 Copyright (c) 1988,1990,1992,1993,1995,1998,2003,2009,2016,
            Gaussian, Inc.  All Rights Reserved.
  
 This is part of the Gaussian(R) 16 program.  It is based on
 the Gaussian(R) 09 system (copyright 2009, Gaussian, Inc.),
 the Gaussian(R) 03 system (copyright 2003, Gaussian, Inc.),
 the Gaussian(R) 98 system (copyright 1998, Gaussian, Inc.),
 the Gaussian(R) 94 system (copyright 1995, Gaussian, Inc.),
 the Gaussian 92(TM) system (copyright 1992, Gaussian, Inc.),
 the Gaussian 90(TM) system (copyright 1990, Gaussian, Inc.),
 the Gaussian 88(TM) system (copyright 1988, Gaussian, Inc.),
 the Gaussian 86(TM) system (copyright 1986, Carnegie Mellon
 University), and the Gaussian 82(TM) system (copyright 1983,
 Carnegie Mellon University). Gaussian is a federally registered
 trademark of Gaussian, Inc.
  
 This software contains proprietary and confidential information,
 including trade secrets, belonging to Gaussian, Inc.
  
 This software is provided under written license and may be
 used, copied, transmitted, or stored only in accord with that
 written license.
  
 The following legend is applicable only to US Government
 contracts under FAR:
  
                    RESTRICTED RIGHTS LEGEND
  
 Use, reproduction and disclosure by the US Government is
 subject to restrictions as set forth in subparagraphs (a)
 and (c) of the Commercial Computer Software - Restricted
 Rights clause in FAR 52.227-19.
  
 Gaussian, Inc.
 340 Quinnipiac St., Bldg. 40, Wallingford CT 06492
  
  
 ---------------------------------------------------------------
 Warning -- This program may not be used in any manner that
 competes with the business of Gaussian, Inc. or will provide
 assistance to any competitor of Gaussian, Inc.  The licensee
 of this program is prohibited from giving any competitor of
 Gaussian, Inc. access to this program.  By using this program,
 the user acknowledges that Gaussian, Inc. is engaged in the
 business of creating and licensing software in the field of
 computational chemistry and represents and warrants to the
 licensee that it is not a competitor of Gaussian, Inc. and that
 it will not use this program in any manner prohibited above.
 ---------------------------------------------------------------
  

 Cite this work as:
 Gaussian 16, Revision A.03,
 M. J. Frisch, G. W. Trucks, H. B. Schlegel, G. E. Scuseria, 
 M. A. Robb, J. R. Cheeseman, G. Scalmani, V. Barone, 
 G. A. Petersson, H. Nakatsuji, X. Li, M. Caricato, A. V. Marenich, 
 J. Bloino, B. G. Janesko, R. Gomperts, B. Mennucci, H. P. Hratchian, 
 J. V. Ortiz, A. F. Izmaylov, J. L. Sonnenberg, D. Williams-Young, 
 F. Ding, F. Lipparini, F. Egidi, J. Goings, B. Peng, A. Petrone, 
 T. Henderson, D. Ranasinghe, V. G. Zakrzewski, J. Gao, N. Rega, 
 G. Zheng, W. Liang, M. Hada, M. Ehara, K. Toyota, R. Fukuda, 
 J. Hasegawa, M. Ishida, T. Nakajima, Y. Honda, O. Kitao, H. Nakai, 
 T. Vreven, K. Throssell, J. A. Montgomery, Jr., J. E. Peralta, 
 F. Ogliaro, M. J. Bearpark, J. J. Heyd, E. N. Brothers, K. N. Kudin, 
 V. N. Staroverov, T. A. Keith, R. Kobayashi, J. Normand, 
 K. Raghavachari, A. P. Rendell, J. C. Burant, S. S. Iyengar, 
 J. Tomasi, M. Cossi, J. M. Millam, M. Klene, C. Adamo, R. Cammi, 
 J. W. Ochterski, R. L. Martin, K. Morokuma, O. Farkas, 
 J. B. Foresman, and D. J. Fox, Gaussian, Inc., Wallingford CT, 2016.
 
 ******************************************
 Gaussian 16:  ES64L-G16RevA.03 25-Dec-2016
                22-Sep-2023 
 ******************************************
 %nprocshared=4
 Will use up to    4 processors via shared memory.
 %mem=4GB
 -------------------------
 #m062x/6-31g(d) scf=tight
 -------------------------
 1/38=1,172=1/1;
 2/12=2,17=6,18=5,40=1/2;
 3/5=1,6=6,7=1,11=2,25=1,30=1,74=-55/1,2,3;
 4//1;
 5/5=2,32=2,38=5/2;
 6/7=2,8=2,9=2,10=2,28=1/1;
 99/5=1,9=1/99;
 -----------------------
 tmpdir/M2_conf_0_20.gjf
 -----------------------
 Symbolic Z-matrix:
 Charge =  0 Multiplicity = 1
 H                     0.        0.        0. 
 C                     1.0933    0.        0. 
 C                     1.56572   0.        1.45829 
 H                     1.53073   0.91225  -0.46201 
 H                     1.41605  -0.92486  -0.48556 
 H                     2.17704   0.87372   1.5944 
 O                     1.29294  -0.83424   2.28873 
 
                          Input orientation:                          
 ---------------------------------------------------------------------
 Center     Atomic      Atomic             Coordinates (Angstroms)
 Number     Number       Type             X           Y           Z
 ---------------------------------------------------------------------
      1          1           0        0.000000    0.000000    0.000000
      2          6           0        1.093300    0.000000    0.000000
      3          6           0        1.565720    0.000000    1.458290
      4          1           0        1.530730    0.912250   -0.462010
      5          1           0        1.416050   -0.924860   -0.485560
      6          1           0        2.177040    0.873720    1.594400
      7          8           0        1.292940   -0.834240    2.288730
 ---------------------------------------------------------------------
                    Distance matrix (angstroms):
                    1          2          3          4          5
     1  H    0.000000
     2  C    1.093300   0.000000
     3  C    2.139647   1.532903   0.000000
     4  H    1.840866   1.112204   2.126259   0.000000
     5  H    1.759640   1.093299   2.157851   1.840837   0.000000
     6  H    2.836371   2.116599   1.075000   2.155927   2.853109
     7  O    2.757886   2.444197   1.208303   3.267008   2.778498
                    6          7
     6  H    0.000000
     7  O    2.044714   0.000000
 Stoichiometry    C2H4O
 Framework group  C1[X(C2H4O)]
 Deg. of freedom    15
 Full point group                 C1      NOp   1
 Largest Abelian subgroup         C1      NOp   1
 Largest concise Abelian subgroup C1      NOp   1
                         Standard orientation:                         
 ---------------------------------------------------------------------
 Center     Atomic      Atomic             Coordinates (Angstroms)
 Number     Number       Type             X           Y           Z
 ---------------------------------------------------------------------
      1          1           0       -1.307061   -0.783614    0.884870
      2          6           0       -1.189356   -0.153088   -0.000504
      3          6           0        0.240895    0.398430   -0.000958
      4          1           0       -1.858505    0.735295    0.003048
      5          1           0       -1.330807   -0.794408   -0.874576
      6          1           0        0.168020    1.470957   -0.001723
      7          8           0        1.252389   -0.262535   -0.000356
 ---------------------------------------------------------------------
 Rotational constants (GHZ):          57.4204583           9.9217802           8.9261716
 Standard basis: 6-31G(d) (6D, 7F)
 There are    53 symmetry adapted cartesian basis functions of A   symmetry.
 There are    53 symmetry adapted basis functions of A   symmetry.
    53 basis functions,   100 primitive gaussians,    53 cartesian basis functions
    12 alpha electrons       12 beta electrons
       nuclear repulsion energy        69.3246777827 Hartrees.
 NAtoms=    7 NActive=    7 NUniq=    7 SFac= 1.00D+00 NAtFMM=   60 NAOKFM=F Big=F
 Integral buffers will be    131072 words long.
 Raffenetti 2 integral format.
 Two-electron integral symmetry is turned on.
 One-electron integrals computed using PRISM.
 NBasis=    53 RedAO= T EigKep=  6.16D-03  NBF=    53
 NBsUse=    53 1.00D-06 EigRej= -1.00D+00 NBFU=    53
 ExpMin= 1.61D-01 ExpMax= 5.48D+03 ExpMxC= 8.25D+02 IAcc=3 IRadAn=         5 AccDes= 0.00D+00
 Harris functional with IExCor= 1009 and IRadAn=       5 diagonalized for initial guess.
 HarFok:  IExCor= 1009 AccDes= 0.00D+00 IRadAn=         5 IDoV= 1 UseB2=F ITyADJ=14
 ICtDFT=  3500011 ScaDFX=  1.000000  1.000000  1.000000  1.000000
 FoFCou: FMM=F IPFlag=           0 FMFlag=      100000 FMFlg1=           0
         NFxFlg=           0 DoJE=T BraDBF=F KetDBF=T FulRan=T
         wScrn=  0.000000 ICntrl=       500 IOpCl=  0 I1Cent=   200000004 NGrid=           0
         NMat0=    1 NMatS0=      1 NMatT0=    0 NMatD0=    1 NMtDS0=    0 NMtDT0=    0
 Petite list used in FoFCou.
 Keep R1 ints in memory in canonical form, NReq=4530250.
 Requested convergence on RMS density matrix=1.00D-08 within 128 cycles.
 Requested convergence on MAX density matrix=1.00D-06.
 Requested convergence on             energy=1.00D-06.
 No special actions if energy rises.
 Integral accuracy reduced to 1.0D-05 until final iterations.
 Initial convergence to 1.0D-05 achieved.  Increase integral accuracy.
 SCF Done:  E(RM062X) =  -153.745503561     A.U. after   14 cycles
            NFock= 14  Conv=0.46D-08     -V/T= 2.0084

 **********************************************************************

            Population analysis using the SCF density.

 **********************************************************************

 Orbital symmetries:
       Occupied  (A) (A) (A) (A) (A) (A) (A) (A) (A) (A) (A) (A)
       Virtual   (A) (A) (A) (A) (A) (A) (A) (A) (A) (A) (A) (A)
                 (A) (A) (A) (A) (A) (A) (A) (A) (A) (A) (A) (A)
                 (A) (A) (A) (A) (A) (A) (A) (A) (A) (A) (A) (A)
                 (A) (A) (A) (A) (A)
 The electronic state is 1-A.
 Alpha  occ. eigenvalues --  -19.64709 -10.64121 -10.55448  -1.16991  -0.84575
 Alpha  occ. eigenvalues --   -0.67145  -0.55262  -0.51101  -0.50699  -0.46782
 Alpha  occ. eigenvalues --   -0.42904  -0.32424
 Alpha virt. eigenvalues --    0.02287   0.14449   0.17360   0.21836   0.23049
 Alpha virt. eigenvalues --    0.29350   0.30867   0.57248   0.59753   0.61842
 Alpha virt. eigenvalues --    0.65319   0.72824   0.76752   0.84578   0.90712
 Alpha virt. eigenvalues --    0.92280   0.93172   0.99623   1.00272   1.07316
 Alpha virt. eigenvalues --    1.14980   1.26321   1.45315   1.49953   1.57405
 Alpha virt. eigenvalues --    1.77557   1.84807   1.85315   1.89761   2.09328
 Alpha virt. eigenvalues --    2.18470   2.24114   2.27358   2.41244   2.52338
 Alpha virt. eigenvalues --    2.64135   2.91025   2.99181   3.81995   4.10894
 Alpha virt. eigenvalues --    4.37701
          Condensed to atoms (all electrons):
               1          2          3          4          5          6
     1  H    0.485219   0.364201  -0.022704  -0.018954  -0.017353   0.005063
     2  C    0.364201   5.379179   0.309798   0.349739   0.364986  -0.133194
     3  C   -0.022704   0.309798   4.591060  -0.024461  -0.021631   0.367014
     4  H   -0.018954   0.349739  -0.024461   0.540089  -0.019077   0.006153
     5  H   -0.017353   0.364986  -0.021631  -0.019077   0.483107   0.004863
     6  H    0.005063  -0.133194   0.367014   0.006153   0.004863   0.663578
     7  O   -0.000198  -0.074809   0.558584   0.003234  -0.000137  -0.047207
               7
     1  H   -0.000198
     2  C   -0.074809
     3  C    0.558584
     4  H    0.003234
     5  H   -0.000137
     6  H   -0.047207
     7  O    7.949949
 Mulliken charges:
               1
     1  H    0.204726
     2  C   -0.559898
     3  C    0.242340
     4  H    0.163277
     5  H    0.205241
     6  H    0.133730
     7  O   -0.389416
 Sum of Mulliken charges =  -0.00000
 Mulliken charges with hydrogens summed into heavy atoms:
               1
     2  C    0.013347
     3  C    0.376070
     7  O   -0.389416
 Electronic spatial extent (au):  <R**2>=            168.6155
 Charge=              0.0000 electrons
 Dipole moment (field-independent basis, Debye):
    X=             -2.3427    Y=              0.9738    Z=              0.0024  Tot=              2.5370
 Quadrupole moment (field-independent basis, Debye-Ang):
   XX=            -21.1971   YY=            -17.5219   ZZ=            -17.6231
   XY=              0.8259   XZ=              0.0159   YZ=              0.0036
 Traceless Quadrupole moment (field-independent basis, Debye-Ang):
   XX=             -2.4164   YY=              1.2588   ZZ=              1.1576
   XY=              0.8259   XZ=              0.0159   YZ=              0.0036
 Octapole moment (field-independent basis, Debye-Ang**2):
  XXX=              0.9218  YYY=              0.0152  ZZZ=              0.0126  XYY=              0.3126
  XXY=              0.5805  XXZ=             -0.0543  XZZ=              1.3123  YZZ=             -1.2369
  YYZ=             -0.0155  XYZ=             -0.0285
 Hexadecapole moment (field-independent basis, Debye-Ang**3):
 XXXX=           -153.1363 YYYY=            -41.0686 ZZZZ=            -21.8541 XXXY=             -2.2937
 XXXZ=              0.1095 YYYX=             -1.0105 YYYZ=              0.0192 ZZZX=              0.0091
 ZZZY=             -0.0071 XXYY=            -29.9791 XXZZ=            -27.3166 YYZZ=            -10.0435
 XXYZ=              0.0633 YYXZ=              0.0347 ZZXY=              0.8204
 N-N= 6.932467778272D+01 E-N=-4.976902618271D+02  KE= 1.524645808659D+02
 1\1\GINC-NODE62\SP\RM062X\6-31G(d)\C2H4O1\YANZ\22-Sep-2023\0\\#m062x/6
 -31g(d) scf=tight\\tmpdir/M2_conf_0_20.gjf\\0,1\H,0,0.,0.,0.\C,0,1.093
 3,0.,0.\C,0,1.56572,0.,1.45829\H,0,1.53073,0.91225,-0.46201\H,0,1.4160
 5,-0.92486,-0.48556\H,0,2.17704,0.87372,1.5944\O,0,1.29294,-0.83424,2.
 28873\\Version=ES64L-G16RevA.03\State=1-A\HF=-153.7455036\RMSD=4.634e-
 09\Dipole=0.1209747,0.5868894,-0.7982608\Quadrupole=0.9265418,0.359053
 3,-1.285595,0.0688213,0.076609,1.2118807\PG=C01 [X(C2H4O1)]\\@



 WE LOSE BECAUSE WE WIN

 GAMBLERS,

 RECOLLECTING WHICH,

 TOSS THEIR DICE AGAIN....


                          EMILY DICKINSON  BOLTS OF MELODY NO. 533
 Job cpu time:       0 days  0 hours  0 minutes 22.0 seconds.
 Elapsed time:       0 days  0 hours  0 minutes  5.7 seconds.
 File lengths (MBytes):  RWF=      6 Int=      0 D2E=      0 Chk=      1 Scr=      1
 Normal termination of Gaussian 16 at Fri Sep 22 17:02:17 2023.
