 Entering Gaussian System, Link 0=g16
 Initial command:
 /share/apps/gaussian/g16/l1.exe "/tmp/55613.mgr/Gau-180302.inp" -scrdir="/tmp/55613.mgr/"
 Entering Link 1 = /share/apps/gaussian/g16/l1.exe PID=    180303.
  
 Copyright (c) 1988,1990,1992,1993,1995,1998,2003,2009,2016,
            Gaussian, Inc.  All Rights Reserved.
  
 This is part of the Gaussian(R) 16 program.  It is based on
 the Gaussian(R) 09 system (copyright 2009, Gaussian, Inc.),
 the Gaussian(R) 03 system (copyright 2003, Gaussian, Inc.),
 the Gaussian(R) 98 system (copyright 1998, Gaussian, Inc.),
 the Gaussian(R) 94 system (copyright 1995, Gaussian, Inc.),
 the Gaussian 92(TM) system (copyright 1992, Gaussian, Inc.),
 the Gaussian 90(TM) system (copyright 1990, Gaussian, Inc.),
 the Gaussian 88(TM) system (copyright 1988, Gaussian, Inc.),
 the Gaussian 86(TM) system (copyright 1986, Carnegie Mellon
 University), and the Gaussian 82(TM) system (copyright 1983,
 Carnegie Mellon University). Gaussian is a federally registered
 trademark of Gaussian, Inc.
  
 This software contains proprietary and confidential information,
 including trade secrets, belonging to Gaussian, Inc.
  
 This software is provided under written license and may be
 used, copied, transmitted, or stored only in accord with that
 written license.
  
 The following legend is applicable only to US Government
 contracts under FAR:
  
                    RESTRICTED RIGHTS LEGEND
  
 Use, reproduction and disclosure by the US Government is
 subject to restrictions as set forth in subparagraphs (a)
 and (c) of the Commercial Computer Software - Restricted
 Rights clause in FAR 52.227-19.
  
 Gaussian, Inc.
 340 Quinnipiac St., Bldg. 40, Wallingford CT 06492
  
  
 ---------------------------------------------------------------
 Warning -- This program may not be used in any manner that
 competes with the business of Gaussian, Inc. or will provide
 assistance to any competitor of Gaussian, Inc.  The licensee
 of this program is prohibited from giving any competitor of
 Gaussian, Inc. access to this program.  By using this program,
 the user acknowledges that Gaussian, Inc. is engaged in the
 business of creating and licensing software in the field of
 computational chemistry and represents and warrants to the
 licensee that it is not a competitor of Gaussian, Inc. and that
 it will not use this program in any manner prohibited above.
 ---------------------------------------------------------------
  

 Cite this work as:
 Gaussian 16, Revision A.03,
 M. J. Frisch, G. W. Trucks, H. B. Schlegel, G. E. Scuseria, 
 M. A. Robb, J. R. Cheeseman, G. Scalmani, V. Barone, 
 G. A. Petersson, H. Nakatsuji, X. Li, M. Caricato, A. V. Marenich, 
 J. Bloino, B. G. Janesko, R. Gomperts, B. Mennucci, H. P. Hratchian, 
 J. V. Ortiz, A. F. Izmaylov, J. L. Sonnenberg, D. Williams-Young, 
 F. Ding, F. Lipparini, F. Egidi, J. Goings, B. Peng, A. Petrone, 
 T. Henderson, D. Ranasinghe, V. G. Zakrzewski, J. Gao, N. Rega, 
 G. Zheng, W. Liang, M. Hada, M. Ehara, K. Toyota, R. Fukuda, 
 J. Hasegawa, M. Ishida, T. Nakajima, Y. Honda, O. Kitao, H. Nakai, 
 T. Vreven, K. Throssell, J. A. Montgomery, Jr., J. E. Peralta, 
 F. Ogliaro, M. J. Bearpark, J. J. Heyd, E. N. Brothers, K. N. Kudin, 
 V. N. Staroverov, T. A. Keith, R. Kobayashi, J. Normand, 
 K. Raghavachari, A. P. Rendell, J. C. Burant, S. S. Iyengar, 
 J. Tomasi, M. Cossi, J. M. Millam, M. Klene, C. Adamo, R. Cammi, 
 J. W. Ochterski, R. L. Martin, K. Morokuma, O. Farkas, 
 J. B. Foresman, and D. J. Fox, Gaussian, Inc., Wallingford CT, 2016.
 
 ******************************************
 Gaussian 16:  ES64L-G16RevA.03 25-Dec-2016
                22-Sep-2023 
 ******************************************
 %nprocshared=4
 Will use up to    4 processors via shared memory.
 %mem=4GB
 -------------------------
 #m062x/6-31g(d) scf=tight
 -------------------------
 1/38=1,172=1/1;
 2/12=2,17=6,18=5,40=1/2;
 3/5=1,6=6,7=1,11=2,25=1,30=1,74=-55/1,2,3;
 4//1;
 5/5=2,32=2,38=5/2;
 6/7=2,8=2,9=2,10=2,28=1/1;
 99/5=1,9=1/99;
 -----------------------
 tmpdir/M2_conf_0_10.gjf
 -----------------------
 Symbolic Z-matrix:
 Charge =  0 Multiplicity = 1
 H                     0.        0.        0. 
 C                     1.0841    0.        0. 
 C                     1.85986   0.        1.09727 
 H                     1.68668   0.       -0.87741 
 H                     1.52768   0.        2.12817 
 H                     2.90526   0.        0.79652 
 
                          Input orientation:                          
 ---------------------------------------------------------------------
 Center     Atomic      Atomic             Coordinates (Angstroms)
 Number     Number       Type             X           Y           Z
 ---------------------------------------------------------------------
      1          1           0        0.000000    0.000000    0.000000
      2          6           0        1.084100    0.000000    0.000000
      3          6           0        1.859860    0.000000    1.097270
      4          1           0        1.686680    0.000000   -0.877410
      5          1           0        1.527680    0.000000    2.128170
      6          1           0        2.905260    0.000000    0.796520
 ---------------------------------------------------------------------
                    Distance matrix (angstroms):
                    1          2          3          4          5
     1  H    0.000000
     2  C    1.084100   0.000000
     3  C    2.159417   1.343802   0.000000
     4  H    1.901246   1.064402   1.982259   0.000000
     5  H    2.619716   2.173907   1.083097   3.009783   0.000000
     6  H    3.012471   1.987729   1.087801   2.070502   1.915990
                    6
     6  H    0.000000
 Stoichiometry    C2H4
 Framework group  CS[SG(C2H4)]
 Deg. of freedom     9
 Full point group                 CS      NOp   2
 Largest Abelian subgroup         CS      NOp   2
 Largest concise Abelian subgroup C1      NOp   1
                         Standard orientation:                         
 ---------------------------------------------------------------------
 Center     Atomic      Atomic             Coordinates (Angstroms)
 Number     Number       Type             X           Y           Z
 ---------------------------------------------------------------------
      1          1           0        0.902350   -1.298583    0.000000
      2          6           0        0.017138   -0.672746    0.000000
      3          6           0        0.017138    0.671057    0.000000
      4          1           0       -0.981411   -1.041325    0.000000
      5          1           0        0.883502    1.321066    0.000000
      6          1           0       -1.010094    1.028978    0.000000
 ---------------------------------------------------------------------
 Rotational constants (GHZ):         139.9247182          30.7161691          25.1871130
 Standard basis: 6-31G(d) (6D, 7F)
 There are    30 symmetry adapted cartesian basis functions of A'  symmetry.
 There are     8 symmetry adapted cartesian basis functions of A"  symmetry.
 There are    30 symmetry adapted basis functions of A'  symmetry.
 There are     8 symmetry adapted basis functions of A"  symmetry.
    38 basis functions,    72 primitive gaussians,    38 cartesian basis functions
     8 alpha electrons        8 beta electrons
       nuclear repulsion energy        33.4319602571 Hartrees.
 NAtoms=    6 NActive=    6 NUniq=    6 SFac= 1.00D+00 NAtFMM=   60 NAOKFM=F Big=F
 Integral buffers will be    131072 words long.
 Raffenetti 2 integral format.
 Two-electron integral symmetry is turned on.
 One-electron integrals computed using PRISM.
 NBasis=    38 RedAO= T EigKep=  6.44D-03  NBF=    30     8
 NBsUse=    38 1.00D-06 EigRej= -1.00D+00 NBFU=    30     8
 ExpMin= 1.61D-01 ExpMax= 3.05D+03 ExpMxC= 4.57D+02 IAcc=3 IRadAn=         5 AccDes= 0.00D+00
 Harris functional with IExCor= 1009 and IRadAn=       5 diagonalized for initial guess.
 HarFok:  IExCor= 1009 AccDes= 0.00D+00 IRadAn=         5 IDoV= 1 UseB2=F ITyADJ=14
 ICtDFT=  3500011 ScaDFX=  1.000000  1.000000  1.000000  1.000000
 FoFCou: FMM=F IPFlag=           0 FMFlag=      100000 FMFlg1=           0
         NFxFlg=           0 DoJE=T BraDBF=F KetDBF=T FulRan=T
         wScrn=  0.000000 ICntrl=       500 IOpCl=  0 I1Cent=   200000004 NGrid=           0
         NMat0=    1 NMatS0=      1 NMatT0=    0 NMatD0=    1 NMtDS0=    0 NMtDT0=    0
 Petite list used in FoFCou.
 Initial guess orbital symmetries:
       Occupied  (A') (A') (A') (A') (A') (A') (A') (A")
       Virtual   (A") (A') (A') (A') (A') (A') (A') (A") (A') (A")
                 (A') (A') (A') (A') (A') (A') (A') (A') (A") (A")
                 (A") (A') (A') (A') (A') (A") (A') (A') (A') (A')
 The electronic state of the initial guess is 1-A'.
 Keep R1 ints in memory in symmetry-blocked form, NReq=3732011.
 Requested convergence on RMS density matrix=1.00D-08 within 128 cycles.
 Requested convergence on MAX density matrix=1.00D-06.
 Requested convergence on             energy=1.00D-06.
 No special actions if energy rises.
 Integral accuracy reduced to 1.0D-05 until final iterations.
 Initial convergence to 1.0D-05 achieved.  Increase integral accuracy.
 SCF Done:  E(RM062X) =  -78.5284843795     A.U. after   12 cycles
            NFock= 12  Conv=0.28D-08     -V/T= 2.0090

 **********************************************************************

            Population analysis using the SCF density.

 **********************************************************************

 Orbital symmetries:
       Occupied  (A') (A') (A') (A') (A') (A') (A') (A")
       Virtual   (A") (A') (A') (A') (A') (A') (A') (A") (A') (A")
                 (A') (A') (A') (A') (A') (A') (A') (A') (A") (A")
                 (A") (A') (A') (A') (A') (A") (A') (A') (A') (A')
 The electronic state is 1-A'.
 Alpha  occ. eigenvalues --  -10.54220 -10.53991  -0.85372  -0.65077  -0.54934
 Alpha  occ. eigenvalues --   -0.46018  -0.41883  -0.32230
 Alpha virt. eigenvalues --    0.06120   0.15677   0.19683   0.21496   0.29969
 Alpha virt. eigenvalues --    0.35884   0.52560   0.60707   0.63386   0.69919
 Alpha virt. eigenvalues --    0.71672   0.75339   0.91856   0.95582   0.98822
 Alpha virt. eigenvalues --    1.00234   1.14649   1.33563   1.51587   1.59734
 Alpha virt. eigenvalues --    1.87780   1.97183   2.00684   2.17510   2.39602
 Alpha virt. eigenvalues --    2.40730   2.63334   2.74356   4.12712   4.29304
          Condensed to atoms (all electrons):
               1          2          3          4          5          6
     1  H    0.513798   0.384428  -0.036746  -0.030495  -0.004534   0.005153
     2  C    0.384428   4.973927   0.660155   0.390989  -0.035650  -0.047787
     3  C   -0.036746   0.660155   4.977281  -0.046020   0.384201   0.388362
     4  H   -0.030495   0.390989  -0.046020   0.535902   0.005004  -0.015174
     5  H   -0.004534  -0.035650   0.384201   0.005004   0.511230  -0.030272
     6  H    0.005153  -0.047787   0.388362  -0.015174  -0.030272   0.544632
 Mulliken charges:
               1
     1  H    0.168396
     2  C   -0.326061
     3  C   -0.327234
     4  H    0.159794
     5  H    0.170020
     6  H    0.155085
 Sum of Mulliken charges =  -0.00000
 Mulliken charges with hydrogens summed into heavy atoms:
               1
     2  C    0.002128
     3  C   -0.002128
 Electronic spatial extent (au):  <R**2>=             81.3303
 Charge=             -0.0000 electrons
 Dipole moment (field-independent basis, Debye):
    X=             -0.0222    Y=             -0.0006    Z=              0.0000  Tot=              0.0222
 Quadrupole moment (field-independent basis, Debye-Ang):
   XX=            -11.7953   YY=            -12.3998   ZZ=            -15.1955
   XY=              0.0549   XZ=              0.0000   YZ=             -0.0000
 Traceless Quadrupole moment (field-independent basis, Debye-Ang):
   XX=              1.3349   YY=              0.7304   ZZ=             -2.0653
   XY=              0.0549   XZ=              0.0000   YZ=             -0.0000
 Octapole moment (field-independent basis, Debye-Ang**2):
  XXX=             -0.4553  YYY=              0.0106  ZZZ=              0.0000  XYY=              1.1486
  XXY=             -0.0347  XXZ=              0.0000  XZZ=             -0.0349  YZZ=             -0.0237
  YYZ=              0.0000  XYZ=             -0.0000
 Hexadecapole moment (field-independent basis, Debye-Ang**3):
 XXXX=            -25.6834 YYYY=            -65.9451 ZZZZ=            -15.9225 XXXY=              0.1007
 XXXZ=              0.0000 YYYX=              0.3336 YYYZ=             -0.0000 ZZZX=              0.0000
 ZZZY=             -0.0000 XXYY=            -13.0526 XXZZ=             -7.6345 YYZZ=            -14.3880
 XXYZ=             -0.0000 YYXZ=              0.0000 ZZXY=              0.0589
 N-N= 3.343196025713D+01 E-N=-2.482272804917D+02  KE= 7.783154769203D+01
 Symmetry A'   KE= 7.578394790371D+01
 Symmetry A"   KE= 2.047599788321D+00
 1\1\GINC-NODE62\SP\RM062X\6-31G(d)\C2H4\YANZ\22-Sep-2023\0\\#m062x/6-3
 1g(d) scf=tight\\tmpdir/M2_conf_0_10.gjf\\0,1\H,0,0.,0.,0.\C,0,1.0841,
 0.,0.\C,0,1.85986,0.,1.09727\H,0,1.68668,0.,-0.87741\H,0,1.52768,0.,2.
 12817\H,0,2.90526,0.,0.79652\\Version=ES64L-G16RevA.03\State=1-A'\HF=-
 78.5284844\RMSD=2.793e-09\Dipole=0.0070075,0.,-0.0052437\Quadrupole=0.
 8041614,-1.5354759,0.7313145,0.,-0.2254724,0.\PG=CS [SG(C2H4)]\\@


 COLLEGE PROFESSOR: SOMEONE WHO TALKS IN OTHER PEOPLE'S SLEEP.
 Job cpu time:       0 days  0 hours  0 minutes  8.4 seconds.
 Elapsed time:       0 days  0 hours  0 minutes  2.3 seconds.
 File lengths (MBytes):  RWF=      6 Int=      0 D2E=      0 Chk=      1 Scr=      1
 Normal termination of Gaussian 16 at Fri Sep 22 17:02:05 2023.
