 Entering Gaussian System, Link 0=g16
 Initial command:
 /share/apps/gaussian/g16/l1.exe "/tmp/55613.mgr/Gau-179182.inp" -scrdir="/tmp/55613.mgr/"
 Entering Link 1 = /share/apps/gaussian/g16/l1.exe PID=    179183.
  
 Copyright (c) 1988,1990,1992,1993,1995,1998,2003,2009,2016,
            Gaussian, Inc.  All Rights Reserved.
  
 This is part of the Gaussian(R) 16 program.  It is based on
 the Gaussian(R) 09 system (copyright 2009, Gaussian, Inc.),
 the Gaussian(R) 03 system (copyright 2003, Gaussian, Inc.),
 the Gaussian(R) 98 system (copyright 1998, Gaussian, Inc.),
 the Gaussian(R) 94 system (copyright 1995, Gaussian, Inc.),
 the Gaussian 92(TM) system (copyright 1992, Gaussian, Inc.),
 the Gaussian 90(TM) system (copyright 1990, Gaussian, Inc.),
 the Gaussian 88(TM) system (copyright 1988, Gaussian, Inc.),
 the Gaussian 86(TM) system (copyright 1986, Carnegie Mellon
 University), and the Gaussian 82(TM) system (copyright 1983,
 Carnegie Mellon University). Gaussian is a federally registered
 trademark of Gaussian, Inc.
  
 This software contains proprietary and confidential information,
 including trade secrets, belonging to Gaussian, Inc.
  
 This software is provided under written license and may be
 used, copied, transmitted, or stored only in accord with that
 written license.
  
 The following legend is applicable only to US Government
 contracts under FAR:
  
                    RESTRICTED RIGHTS LEGEND
  
 Use, reproduction and disclosure by the US Government is
 subject to restrictions as set forth in subparagraphs (a)
 and (c) of the Commercial Computer Software - Restricted
 Rights clause in FAR 52.227-19.
  
 Gaussian, Inc.
 340 Quinnipiac St., Bldg. 40, Wallingford CT 06492
  
  
 ---------------------------------------------------------------
 Warning -- This program may not be used in any manner that
 competes with the business of Gaussian, Inc. or will provide
 assistance to any competitor of Gaussian, Inc.  The licensee
 of this program is prohibited from giving any competitor of
 Gaussian, Inc. access to this program.  By using this program,
 the user acknowledges that Gaussian, Inc. is engaged in the
 business of creating and licensing software in the field of
 computational chemistry and represents and warrants to the
 licensee that it is not a competitor of Gaussian, Inc. and that
 it will not use this program in any manner prohibited above.
 ---------------------------------------------------------------
  

 Cite this work as:
 Gaussian 16, Revision A.03,
 M. J. Frisch, G. W. Trucks, H. B. Schlegel, G. E. Scuseria, 
 M. A. Robb, J. R. Cheeseman, G. Scalmani, V. Barone, 
 G. A. Petersson, H. Nakatsuji, X. Li, M. Caricato, A. V. Marenich, 
 J. Bloino, B. G. Janesko, R. Gomperts, B. Mennucci, H. P. Hratchian, 
 J. V. Ortiz, A. F. Izmaylov, J. L. Sonnenberg, D. Williams-Young, 
 F. Ding, F. Lipparini, F. Egidi, J. Goings, B. Peng, A. Petrone, 
 T. Henderson, D. Ranasinghe, V. G. Zakrzewski, J. Gao, N. Rega, 
 G. Zheng, W. Liang, M. Hada, M. Ehara, K. Toyota, R. Fukuda, 
 J. Hasegawa, M. Ishida, T. Nakajima, Y. Honda, O. Kitao, H. Nakai, 
 T. Vreven, K. Throssell, J. A. Montgomery, Jr., J. E. Peralta, 
 F. Ogliaro, M. J. Bearpark, J. J. Heyd, E. N. Brothers, K. N. Kudin, 
 V. N. Staroverov, T. A. Keith, R. Kobayashi, J. Normand, 
 K. Raghavachari, A. P. Rendell, J. C. Burant, S. S. Iyengar, 
 J. Tomasi, M. Cossi, J. M. Millam, M. Klene, C. Adamo, R. Cammi, 
 J. W. Ochterski, R. L. Martin, K. Morokuma, O. Farkas, 
 J. B. Foresman, and D. J. Fox, Gaussian, Inc., Wallingford CT, 2016.
 
 ******************************************
 Gaussian 16:  ES64L-G16RevA.03 25-Dec-2016
                22-Sep-2023 
 ******************************************
 %nprocshared=4
 Will use up to    4 processors via shared memory.
 %mem=4GB
 -------------------------
 #m062x/6-31g(d) scf=tight
 -------------------------
 1/38=1,172=1/1;
 2/12=2,17=6,18=5,40=1/2;
 3/5=1,6=6,7=1,11=2,25=1,30=1,74=-55/1,2,3;
 4//1;
 5/5=2,32=2,38=5/2;
 6/7=2,8=2,9=2,10=2,28=1/1;
 99/5=1,9=1/99;
 --------------------
 tmpdir/M2_ref_51.gjf
 --------------------
 Symbolic Z-matrix:
 Charge =  0 Multiplicity = 1
 C                     4.26485   5.9883    4.99985 
 C                     3.82268   4.71929   5. 
 H                     2.79069   4.39047   5.00001 
 H                     5.3292    5.98828   4.99991 
 H                     3.65116   6.88196   4.99973 
 H                     4.67491   4.04326   5.00009 
 
                          Input orientation:                          
 ---------------------------------------------------------------------
 Center     Atomic      Atomic             Coordinates (Angstroms)
 Number     Number       Type             X           Y           Z
 ---------------------------------------------------------------------
      1          6           0        4.264851    5.988299    4.999850
      2          6           0        3.822684    4.719285    5.000001
      3          1           0        2.790691    4.390466    5.000011
      4          1           0        5.329203    5.988281    4.999912
      5          1           0        3.651162    6.881961    4.999730
      6          1           0        4.674911    4.043261    5.000093
 ---------------------------------------------------------------------
                    Distance matrix (angstroms):
                    1          2          3          4          5
     1  C    0.000000
     2  C    1.343841   0.000000
     3  H    2.173987   1.083112   0.000000
     4  H    1.064352   1.969759   2.999509   0.000000
     5  H    1.084088   2.169467   2.635898   1.901180   0.000000
     6  H    1.987793   1.087796   1.915943   2.052121   3.017662
                    6
     6  H    0.000000
 Stoichiometry    C2H4
 Framework group  C1[X(C2H4)]
 Deg. of freedom    12
 Full point group                 C1      NOp   1
 Largest Abelian subgroup         C1      NOp   1
 Largest concise Abelian subgroup C1      NOp   1
                         Standard orientation:                         
 ---------------------------------------------------------------------
 Center     Atomic      Atomic             Coordinates (Angstroms)
 Number     Number       Type             X           Y           Z
 ---------------------------------------------------------------------
      1          6           0       -0.672987   -0.015303   -0.000078
      2          6           0        0.670841   -0.021238    0.000073
      3          1           0        1.317077   -0.890439    0.000083
      4          1           0       -1.018733    0.991328   -0.000017
      5          1           0       -1.318817   -0.886020   -0.000198
      6          1           0        1.033347    1.004378    0.000165
 ---------------------------------------------------------------------
 Rotational constants (GHZ):         140.2333504          30.7061572          25.1903575
 Standard basis: 6-31G(d) (6D, 7F)
 There are    38 symmetry adapted cartesian basis functions of A   symmetry.
 There are    38 symmetry adapted basis functions of A   symmetry.
    38 basis functions,    72 primitive gaussians,    38 cartesian basis functions
     8 alpha electrons        8 beta electrons
       nuclear repulsion energy        33.4363148429 Hartrees.
 NAtoms=    6 NActive=    6 NUniq=    6 SFac= 1.00D+00 NAtFMM=   60 NAOKFM=F Big=F
 Integral buffers will be    131072 words long.
 Raffenetti 2 integral format.
 Two-electron integral symmetry is turned on.
 One-electron integrals computed using PRISM.
 NBasis=    38 RedAO= T EigKep=  6.33D-03  NBF=    38
 NBsUse=    38 1.00D-06 EigRej= -1.00D+00 NBFU=    38
 ExpMin= 1.61D-01 ExpMax= 3.05D+03 ExpMxC= 4.57D+02 IAcc=3 IRadAn=         5 AccDes= 0.00D+00
 Harris functional with IExCor= 1009 and IRadAn=       5 diagonalized for initial guess.
 HarFok:  IExCor= 1009 AccDes= 0.00D+00 IRadAn=         5 IDoV= 1 UseB2=F ITyADJ=14
 ICtDFT=  3500011 ScaDFX=  1.000000  1.000000  1.000000  1.000000
 FoFCou: FMM=F IPFlag=           0 FMFlag=      100000 FMFlg1=           0
         NFxFlg=           0 DoJE=T BraDBF=F KetDBF=T FulRan=T
         wScrn=  0.000000 ICntrl=       500 IOpCl=  0 I1Cent=   200000004 NGrid=           0
         NMat0=    1 NMatS0=      1 NMatT0=    0 NMatD0=    1 NMtDS0=    0 NMtDT0=    0
 Petite list used in FoFCou.
 Keep R1 ints in memory in canonical form, NReq=3729943.
 Requested convergence on RMS density matrix=1.00D-08 within 128 cycles.
 Requested convergence on MAX density matrix=1.00D-06.
 Requested convergence on             energy=1.00D-06.
 No special actions if energy rises.
 Integral accuracy reduced to 1.0D-05 until final iterations.
 Initial convergence to 1.0D-05 achieved.  Increase integral accuracy.
 SCF Done:  E(RM062X) =  -78.5278381954     A.U. after   12 cycles
            NFock= 12  Conv=0.25D-08     -V/T= 2.0089

 **********************************************************************

            Population analysis using the SCF density.

 **********************************************************************

 Orbital symmetries:
       Occupied  (A) (A) (A) (A) (A) (A) (A) (A)
       Virtual   (A) (A) (A) (A) (A) (A) (A) (A) (A) (A) (A) (A)
                 (A) (A) (A) (A) (A) (A) (A) (A) (A) (A) (A) (A)
                 (A) (A) (A) (A) (A) (A)
 The electronic state is 1-A.
 Alpha  occ. eigenvalues --  -10.54234 -10.53995  -0.85404  -0.65071  -0.54962
 Alpha  occ. eigenvalues --   -0.45997  -0.41856  -0.32238
 Alpha virt. eigenvalues --    0.06117   0.15634   0.19689   0.21492   0.30017
 Alpha virt. eigenvalues --    0.35880   0.52561   0.60701   0.63323   0.69915
 Alpha virt. eigenvalues --    0.71966   0.75189   0.91804   0.95582   0.98775
 Alpha virt. eigenvalues --    1.00254   1.14642   1.33468   1.51569   1.59736
 Alpha virt. eigenvalues --    1.87780   1.97308   2.00377   2.17706   2.39540
 Alpha virt. eigenvalues --    2.40711   2.63289   2.74542   4.12689   4.29352
          Condensed to atoms (all electrons):
               1          2          3          4          5          6
     1  C    4.972662   0.660221  -0.035860   0.391078   0.384136  -0.047578
     2  C    0.660221   4.978700   0.384060  -0.047143  -0.036008   0.388568
     3  H   -0.035860   0.384060   0.511811   0.005163  -0.004397  -0.030377
     4  H    0.391078  -0.047143   0.005163   0.538639  -0.030606  -0.015855
     5  H    0.384136  -0.036008  -0.004397  -0.030606   0.512386   0.005091
     6  H   -0.047578   0.388568  -0.030377  -0.015855   0.005091   0.544816
 Mulliken charges:
               1
     1  C   -0.324659
     2  C   -0.328398
     3  H    0.169601
     4  H    0.158723
     5  H    0.169397
     6  H    0.155335
 Sum of Mulliken charges =  -0.00000
 Mulliken charges with hydrogens summed into heavy atoms:
               1
     1  C    0.003462
     2  C   -0.003462
 Electronic spatial extent (au):  <R**2>=             81.3214
 Charge=             -0.0000 electrons
 Dipole moment (field-independent basis, Debye):
    X=             -0.0034    Y=              0.0239    Z=              0.0000  Tot=              0.0241
 Quadrupole moment (field-independent basis, Debye-Ang):
   XX=            -12.3924   YY=            -11.8062   ZZ=            -15.1951
   XY=             -0.0107   XZ=              0.0003   YZ=              0.0002
 Traceless Quadrupole moment (field-independent basis, Debye-Ang):
   XX=              0.7388   YY=              1.3250   ZZ=             -2.0638
   XY=             -0.0107   XZ=              0.0003   YZ=              0.0002
 Octapole moment (field-independent basis, Debye-Ang**2):
  XXX=             -0.0522  YYY=              0.4835  ZZZ=              0.0000  XYY=             -0.0031
  XXY=             -1.2179  XXZ=             -0.0001  XZZ=             -0.0241  YZZ=              0.0367
  YYZ=              0.0001  XYZ=             -0.0002
 Hexadecapole moment (field-independent basis, Debye-Ang**3):
 XXXX=            -65.8795 YYYY=            -25.6729 ZZZZ=            -15.9217 XXXY=             -0.0631
 XXXZ=             -0.0025 YYYX=             -0.0318 YYYZ=             -0.0002 ZZZX=             -0.0029
 ZZZY=             -0.0005 XXYY=            -13.0769 XXZZ=            -14.3913 YYZZ=             -7.6292
 XXYZ=              0.0001 YYXZ=             -0.0006 ZZXY=             -0.0272
 N-N= 3.343631484288D+01 E-N=-2.482348172259D+02  KE= 7.783240253100D+01
 1\1\GINC-NODE62\SP\RM062X\6-31G(d)\C2H4\YANZ\22-Sep-2023\0\\#m062x/6-3
 1g(d) scf=tight\\tmpdir/M2_ref_51.gjf\\0,1\C,0,4.264851,5.988299,4.999
 85\C,0,3.822684,4.719285,5.000001\H,0,2.790691,4.390466,5.000011\H,0,5
 .32920303,5.9882809,4.99991153\H,0,3.651162,6.881961,4.99973\H,0,4.674
 91137,4.04326089,5.00009293\\Version=ES64L-G16RevA.03\State=1-A\HF=-78
 .5278382\RMSD=2.459e-09\Dipole=0.0093093,-0.0017938,0.0000067\Quadrupo
 le=0.9439927,0.5904282,-1.5344208,-0.1276379,0.0001026,-0.0002407\PG=C
 01 [X(C2H4)]\\@


 MOST BUREAUCRACIES FUNCTION LIKE A SEPTIC TANK.
 THE LARGE CHUNKS RISE TO THE TOP.
 Job cpu time:       0 days  0 hours  0 minutes 13.5 seconds.
 Elapsed time:       0 days  0 hours  0 minutes  3.6 seconds.
 File lengths (MBytes):  RWF=      6 Int=      0 D2E=      0 Chk=      1 Scr=      1
 Normal termination of Gaussian 16 at Fri Sep 22 17:01:33 2023.
