 Entering Gaussian System, Link 0=g16
 Initial command:
 /share/apps/gaussian/g16/l1.exe "/tmp/55613.mgr/Gau-178852.inp" -scrdir="/tmp/55613.mgr/"
 Entering Link 1 = /share/apps/gaussian/g16/l1.exe PID=    178853.
  
 Copyright (c) 1988,1990,1992,1993,1995,1998,2003,2009,2016,
            Gaussian, Inc.  All Rights Reserved.
  
 This is part of the Gaussian(R) 16 program.  It is based on
 the Gaussian(R) 09 system (copyright 2009, Gaussian, Inc.),
 the Gaussian(R) 03 system (copyright 2003, Gaussian, Inc.),
 the Gaussian(R) 98 system (copyright 1998, Gaussian, Inc.),
 the Gaussian(R) 94 system (copyright 1995, Gaussian, Inc.),
 the Gaussian 92(TM) system (copyright 1992, Gaussian, Inc.),
 the Gaussian 90(TM) system (copyright 1990, Gaussian, Inc.),
 the Gaussian 88(TM) system (copyright 1988, Gaussian, Inc.),
 the Gaussian 86(TM) system (copyright 1986, Carnegie Mellon
 University), and the Gaussian 82(TM) system (copyright 1983,
 Carnegie Mellon University). Gaussian is a federally registered
 trademark of Gaussian, Inc.
  
 This software contains proprietary and confidential information,
 including trade secrets, belonging to Gaussian, Inc.
  
 This software is provided under written license and may be
 used, copied, transmitted, or stored only in accord with that
 written license.
  
 The following legend is applicable only to US Government
 contracts under FAR:
  
                    RESTRICTED RIGHTS LEGEND
  
 Use, reproduction and disclosure by the US Government is
 subject to restrictions as set forth in subparagraphs (a)
 and (c) of the Commercial Computer Software - Restricted
 Rights clause in FAR 52.227-19.
  
 Gaussian, Inc.
 340 Quinnipiac St., Bldg. 40, Wallingford CT 06492
  
  
 ---------------------------------------------------------------
 Warning -- This program may not be used in any manner that
 competes with the business of Gaussian, Inc. or will provide
 assistance to any competitor of Gaussian, Inc.  The licensee
 of this program is prohibited from giving any competitor of
 Gaussian, Inc. access to this program.  By using this program,
 the user acknowledges that Gaussian, Inc. is engaged in the
 business of creating and licensing software in the field of
 computational chemistry and represents and warrants to the
 licensee that it is not a competitor of Gaussian, Inc. and that
 it will not use this program in any manner prohibited above.
 ---------------------------------------------------------------
  

 Cite this work as:
 Gaussian 16, Revision A.03,
 M. J. Frisch, G. W. Trucks, H. B. Schlegel, G. E. Scuseria, 
 M. A. Robb, J. R. Cheeseman, G. Scalmani, V. Barone, 
 G. A. Petersson, H. Nakatsuji, X. Li, M. Caricato, A. V. Marenich, 
 J. Bloino, B. G. Janesko, R. Gomperts, B. Mennucci, H. P. Hratchian, 
 J. V. Ortiz, A. F. Izmaylov, J. L. Sonnenberg, D. Williams-Young, 
 F. Ding, F. Lipparini, F. Egidi, J. Goings, B. Peng, A. Petrone, 
 T. Henderson, D. Ranasinghe, V. G. Zakrzewski, J. Gao, N. Rega, 
 G. Zheng, W. Liang, M. Hada, M. Ehara, K. Toyota, R. Fukuda, 
 J. Hasegawa, M. Ishida, T. Nakajima, Y. Honda, O. Kitao, H. Nakai, 
 T. Vreven, K. Throssell, J. A. Montgomery, Jr., J. E. Peralta, 
 F. Ogliaro, M. J. Bearpark, J. J. Heyd, E. N. Brothers, K. N. Kudin, 
 V. N. Staroverov, T. A. Keith, R. Kobayashi, J. Normand, 
 K. Raghavachari, A. P. Rendell, J. C. Burant, S. S. Iyengar, 
 J. Tomasi, M. Cossi, J. M. Millam, M. Klene, C. Adamo, R. Cammi, 
 J. W. Ochterski, R. L. Martin, K. Morokuma, O. Farkas, 
 J. B. Foresman, and D. J. Fox, Gaussian, Inc., Wallingford CT, 2016.
 
 ******************************************
 Gaussian 16:  ES64L-G16RevA.03 25-Dec-2016
                22-Sep-2023 
 ******************************************
 %nprocshared=4
 Will use up to    4 processors via shared memory.
 %mem=4GB
 -------------------------
 #m062x/6-31g(d) scf=tight
 -------------------------
 1/38=1,172=1/1;
 2/12=2,17=6,18=5,40=1/2;
 3/5=1,6=6,7=1,11=2,25=1,30=1,74=-55/1,2,3;
 4//1;
 5/5=2,32=2,38=5/2;
 6/7=2,8=2,9=2,10=2,28=1/1;
 99/5=1,9=1/99;
 --------------------
 tmpdir/M2_ref_39.gjf
 --------------------
 Symbolic Z-matrix:
 Charge =  0 Multiplicity = 1
 H                     0.43427   2.23297  -0.00001 
 C                     0.02627   1.22963  -0.00003 
 C                     0.88287   0.01662  -0.00005 
 O                    -1.10959   0.91898  -0.00006 
 H                     0.20622  -0.86282   0.00005 
 O                     2.09056  -0.02192   0.00005 
 
                          Input orientation:                          
 ---------------------------------------------------------------------
 Center     Atomic      Atomic             Coordinates (Angstroms)
 Number     Number       Type             X           Y           Z
 ---------------------------------------------------------------------
      1          1           0        0.434268    2.232970   -0.000010
      2          6           0        0.026273    1.229634   -0.000030
      3          6           0        0.882872    0.016622   -0.000045
      4          8           0       -1.109585    0.918982   -0.000064
      5          1           0        0.206224   -0.862823    0.000048
      6          8           0        2.090555   -0.021921    0.000053
 ---------------------------------------------------------------------
                    Distance matrix (angstroms):
                    1          2          3          4          5
     1  H    0.000000
     2  C    1.083117   0.000000
     3  C    2.261293   1.484978   0.000000
     4  O    2.027325   1.177573   2.187267   0.000000
     5  H    3.104181   2.100181   1.109629   2.214991   0.000000
     6  O    2.797824   2.414053   1.208298   3.335595   2.063449
                    6
     6  O    0.000000
 Stoichiometry    C2H2O2
 Framework group  C1[X(C2H2O2)]
 Deg. of freedom    12
 Full point group                 C1      NOp   1
 Largest Abelian subgroup         C1      NOp   1
 Largest concise Abelian subgroup C1      NOp   1
                         Standard orientation:                         
 ---------------------------------------------------------------------
 Center     Atomic      Atomic             Coordinates (Angstroms)
 Number     Number       Type             X           Y           Z
 ---------------------------------------------------------------------
      1          1           0       -0.672540    1.560336    0.000007
      2          6           0       -0.669516    0.477222   -0.000013
      3          6           0        0.583142   -0.320278   -0.000028
      4          8           0       -1.602689   -0.241017   -0.000047
      5          1           0        0.290597   -1.390649    0.000065
      6          8           0        1.715212    0.102098    0.000070
 ---------------------------------------------------------------------
 Rotational constants (GHZ):          53.5441180           5.1483882           4.6967820
 Standard basis: 6-31G(d) (6D, 7F)
 There are    64 symmetry adapted cartesian basis functions of A   symmetry.
 There are    64 symmetry adapted basis functions of A   symmetry.
    64 basis functions,   120 primitive gaussians,    64 cartesian basis functions
    15 alpha electrons       15 beta electrons
       nuclear repulsion energy       104.1521336523 Hartrees.
 NAtoms=    6 NActive=    6 NUniq=    6 SFac= 1.00D+00 NAtFMM=   60 NAOKFM=F Big=F
 Integral buffers will be    131072 words long.
 Raffenetti 2 integral format.
 Two-electron integral symmetry is turned on.
 One-electron integrals computed using PRISM.
 NBasis=    64 RedAO= T EigKep=  4.06D-03  NBF=    64
 NBsUse=    64 1.00D-06 EigRej= -1.00D+00 NBFU=    64
 ExpMin= 1.61D-01 ExpMax= 5.48D+03 ExpMxC= 8.25D+02 IAcc=3 IRadAn=         5 AccDes= 0.00D+00
 Harris functional with IExCor= 1009 and IRadAn=       5 diagonalized for initial guess.
 HarFok:  IExCor= 1009 AccDes= 0.00D+00 IRadAn=         5 IDoV= 1 UseB2=F ITyADJ=14
 ICtDFT=  3500011 ScaDFX=  1.000000  1.000000  1.000000  1.000000
 FoFCou: FMM=F IPFlag=           0 FMFlag=      100000 FMFlg1=           0
         NFxFlg=           0 DoJE=T BraDBF=F KetDBF=T FulRan=T
         wScrn=  0.000000 ICntrl=       500 IOpCl=  0 I1Cent=   200000004 NGrid=           0
         NMat0=    1 NMatS0=      1 NMatT0=    0 NMatD0=    1 NMtDS0=    0 NMtDT0=    0
 Petite list used in FoFCou.
 Keep R1 ints in memory in canonical form, NReq=5719186.
 Requested convergence on RMS density matrix=1.00D-08 within 128 cycles.
 Requested convergence on MAX density matrix=1.00D-06.
 Requested convergence on             energy=1.00D-06.
 No special actions if energy rises.
 Integral accuracy reduced to 1.0D-05 until final iterations.
 Initial convergence to 1.0D-05 achieved.  Increase integral accuracy.
 SCF Done:  E(RM062X) =  -227.713374959     A.U. after   14 cycles
            NFock= 14  Conv=0.38D-08     -V/T= 2.0069

 **********************************************************************

            Population analysis using the SCF density.

 **********************************************************************

 Orbital symmetries:
       Occupied  (A) (A) (A) (A) (A) (A) (A) (A) (A) (A) (A) (A)
                 (A) (A) (A)
       Virtual   (A) (A) (A) (A) (A) (A) (A) (A) (A) (A) (A) (A)
                 (A) (A) (A) (A) (A) (A) (A) (A) (A) (A) (A) (A)
                 (A) (A) (A) (A) (A) (A) (A) (A) (A) (A) (A) (A)
                 (A) (A) (A) (A) (A) (A) (A) (A) (A) (A) (A) (A)
                 (A)
 The electronic state is 1-A.
 Alpha  occ. eigenvalues --  -19.68484 -19.67742 -10.66021 -10.65581  -1.23411
 Alpha  occ. eigenvalues --   -1.19497  -0.80560  -0.69685  -0.58438  -0.57363
 Alpha  occ. eigenvalues --   -0.53696  -0.53109  -0.46088  -0.40365  -0.33663
 Alpha virt. eigenvalues --   -0.05644   0.08402   0.15744   0.20082   0.24171
 Alpha virt. eigenvalues --    0.31979   0.38410   0.54237   0.59283   0.61417
 Alpha virt. eigenvalues --    0.67144   0.73392   0.78140   0.83580   0.86963
 Alpha virt. eigenvalues --    0.87590   0.90271   1.00035   1.00567   1.05634
 Alpha virt. eigenvalues --    1.10910   1.13545   1.17539   1.36385   1.40540
 Alpha virt. eigenvalues --    1.51627   1.60624   1.63500   1.73623   1.75870
 Alpha virt. eigenvalues --    1.79114   1.85886   1.92533   1.99111   2.11251
 Alpha virt. eigenvalues --    2.22046   2.30101   2.36430   2.43113   2.59451
 Alpha virt. eigenvalues --    2.62959   2.87303   2.91163   3.00132   3.07300
 Alpha virt. eigenvalues --    3.74420   3.99340   4.05871   4.35394
          Condensed to atoms (all electrons):
               1          2          3          4          5          6
     1  H    0.563282   0.344807  -0.066632  -0.036576   0.005558   0.008296
     2  C    0.344807   4.860547   0.285220   0.486488  -0.117360  -0.058079
     3  C   -0.066632   0.285220   4.836706  -0.075102   0.362460   0.484676
     4  O   -0.036576   0.486488  -0.075102   7.947165   0.022142   0.004186
     5  H    0.005558  -0.117360   0.362460   0.022142   0.602112  -0.040465
     6  O    0.008296  -0.058079   0.484676   0.004186  -0.040465   7.970948
 Mulliken charges:
               1
     1  H    0.181264
     2  C    0.198377
     3  C    0.172672
     4  O   -0.348304
     5  H    0.165553
     6  O   -0.369562
 Sum of Mulliken charges =  -0.00000
 Mulliken charges with hydrogens summed into heavy atoms:
               1
     2  C    0.379641
     3  C    0.338225
     4  O   -0.348304
     6  O   -0.369562
 Electronic spatial extent (au):  <R**2>=            253.6338
 Charge=             -0.0000 electrons
 Dipole moment (field-independent basis, Debye):
    X=             -0.5838    Y=              0.6617    Z=             -0.0001  Tot=              0.8824
 Quadrupole moment (field-independent basis, Debye-Ang):
   XX=            -30.0514   YY=            -20.0424   ZZ=            -20.8737
   XY=             -2.0906   XZ=             -0.0003   YZ=             -0.0001
 Traceless Quadrupole moment (field-independent basis, Debye-Ang):
   XX=             -6.3956   YY=              3.6135   ZZ=              2.7821
   XY=             -2.0906   XZ=             -0.0003   YZ=             -0.0001
 Octapole moment (field-independent basis, Debye-Ang**2):
  XXX=             -1.5532  YYY=              0.9070  ZZZ=              0.0001  XYY=             -0.8091
  XXY=              0.9313  XXZ=             -0.0002  XZZ=             -0.0774  YZZ=             -0.0233
  YYZ=              0.0001  XYZ=              0.0001
 Hexadecapole moment (field-independent basis, Debye-Ang**3):
 XXXX=           -248.2121 YYYY=            -44.6339 ZZZZ=            -16.5932 XXXY=              0.1034
 XXXZ=             -0.0041 YYYX=             -0.5530 YYYZ=             -0.0004 ZZZX=             -0.0029
 ZZZY=             -0.0001 XXYY=            -45.1190 XXZZ=            -37.9101 YYZZ=            -11.1633
 XXYZ=             -0.0001 YYXZ=             -0.0010 ZZXY=              0.7202
 N-N= 1.041521336523D+02 E-N=-7.423948498558D+02  KE= 2.261442941765D+02
 1\1\GINC-NODE62\SP\RM062X\6-31G(d)\C2H2O2\YANZ\22-Sep-2023\0\\#m062x/6
 -31g(d) scf=tight\\tmpdir/M2_ref_39.gjf\\0,1\H,0,0.434268,2.23297,-0.0
 0001\C,0,0.026273,1.229634,-0.00003\C,0,0.882872,0.016622,-0.000045\O,
 0,-1.10958519,0.91898161,-0.0000635\H,0,0.2062239,-0.86282348,0.000048
 38\O,0,2.090555,-0.021921,0.000053\\Version=ES64L-G16RevA.03\State=1-A
 \HF=-227.713375\RMSD=3.832e-09\Dipole=-0.1137947,0.3279837,-0.0000247\
 Quadrupole=-4.775434,2.7069995,2.0684345,1.5043191,-0.0002663,0.000033
 8\PG=C01 [X(C2H2O2)]\\@


 WHEN IT COMES TO CASH FLOW, IT SEEMS LIKE THE TIDE IS ALWAYS GOING OUT.
 Job cpu time:       0 days  0 hours  0 minutes 22.8 seconds.
 Elapsed time:       0 days  0 hours  0 minutes  5.9 seconds.
 File lengths (MBytes):  RWF=      6 Int=      0 D2E=      0 Chk=      1 Scr=      1
 Normal termination of Gaussian 16 at Fri Sep 22 17:01:27 2023.
