 Entering Gaussian System, Link 0=g16
 Initial command:
 /share/apps/gaussian/g16/l1.exe "/tmp/55613.mgr/Gau-179392.inp" -scrdir="/tmp/55613.mgr/"
 Entering Link 1 = /share/apps/gaussian/g16/l1.exe PID=    179393.
  
 Copyright (c) 1988,1990,1992,1993,1995,1998,2003,2009,2016,
            Gaussian, Inc.  All Rights Reserved.
  
 This is part of the Gaussian(R) 16 program.  It is based on
 the Gaussian(R) 09 system (copyright 2009, Gaussian, Inc.),
 the Gaussian(R) 03 system (copyright 2003, Gaussian, Inc.),
 the Gaussian(R) 98 system (copyright 1998, Gaussian, Inc.),
 the Gaussian(R) 94 system (copyright 1995, Gaussian, Inc.),
 the Gaussian 92(TM) system (copyright 1992, Gaussian, Inc.),
 the Gaussian 90(TM) system (copyright 1990, Gaussian, Inc.),
 the Gaussian 88(TM) system (copyright 1988, Gaussian, Inc.),
 the Gaussian 86(TM) system (copyright 1986, Carnegie Mellon
 University), and the Gaussian 82(TM) system (copyright 1983,
 Carnegie Mellon University). Gaussian is a federally registered
 trademark of Gaussian, Inc.
  
 This software contains proprietary and confidential information,
 including trade secrets, belonging to Gaussian, Inc.
  
 This software is provided under written license and may be
 used, copied, transmitted, or stored only in accord with that
 written license.
  
 The following legend is applicable only to US Government
 contracts under FAR:
  
                    RESTRICTED RIGHTS LEGEND
  
 Use, reproduction and disclosure by the US Government is
 subject to restrictions as set forth in subparagraphs (a)
 and (c) of the Commercial Computer Software - Restricted
 Rights clause in FAR 52.227-19.
  
 Gaussian, Inc.
 340 Quinnipiac St., Bldg. 40, Wallingford CT 06492
  
  
 ---------------------------------------------------------------
 Warning -- This program may not be used in any manner that
 competes with the business of Gaussian, Inc. or will provide
 assistance to any competitor of Gaussian, Inc.  The licensee
 of this program is prohibited from giving any competitor of
 Gaussian, Inc. access to this program.  By using this program,
 the user acknowledges that Gaussian, Inc. is engaged in the
 business of creating and licensing software in the field of
 computational chemistry and represents and warrants to the
 licensee that it is not a competitor of Gaussian, Inc. and that
 it will not use this program in any manner prohibited above.
 ---------------------------------------------------------------
  

 Cite this work as:
 Gaussian 16, Revision A.03,
 M. J. Frisch, G. W. Trucks, H. B. Schlegel, G. E. Scuseria, 
 M. A. Robb, J. R. Cheeseman, G. Scalmani, V. Barone, 
 G. A. Petersson, H. Nakatsuji, X. Li, M. Caricato, A. V. Marenich, 
 J. Bloino, B. G. Janesko, R. Gomperts, B. Mennucci, H. P. Hratchian, 
 J. V. Ortiz, A. F. Izmaylov, J. L. Sonnenberg, D. Williams-Young, 
 F. Ding, F. Lipparini, F. Egidi, J. Goings, B. Peng, A. Petrone, 
 T. Henderson, D. Ranasinghe, V. G. Zakrzewski, J. Gao, N. Rega, 
 G. Zheng, W. Liang, M. Hada, M. Ehara, K. Toyota, R. Fukuda, 
 J. Hasegawa, M. Ishida, T. Nakajima, Y. Honda, O. Kitao, H. Nakai, 
 T. Vreven, K. Throssell, J. A. Montgomery, Jr., J. E. Peralta, 
 F. Ogliaro, M. J. Bearpark, J. J. Heyd, E. N. Brothers, K. N. Kudin, 
 V. N. Staroverov, T. A. Keith, R. Kobayashi, J. Normand, 
 K. Raghavachari, A. P. Rendell, J. C. Burant, S. S. Iyengar, 
 J. Tomasi, M. Cossi, J. M. Millam, M. Klene, C. Adamo, R. Cammi, 
 J. W. Ochterski, R. L. Martin, K. Morokuma, O. Farkas, 
 J. B. Foresman, and D. J. Fox, Gaussian, Inc., Wallingford CT, 2016.
 
 ******************************************
 Gaussian 16:  ES64L-G16RevA.03 25-Dec-2016
                22-Sep-2023 
 ******************************************
 %nprocshared=4
 Will use up to    4 processors via shared memory.
 %mem=4GB
 -------------------------
 #m062x/6-31g(d) scf=tight
 -------------------------
 1/38=1,172=1/1;
 2/12=2,17=6,18=5,40=1/2;
 3/5=1,6=6,7=1,11=2,25=1,30=1,74=-55/1,2,3;
 4//1;
 5/5=2,32=2,38=5/2;
 6/7=2,8=2,9=2,10=2,28=1/1;
 99/5=1,9=1/99;
 --------------------
 tmpdir/M2_ref_49.gjf
 --------------------
 Symbolic Z-matrix:
 Charge =  0 Multiplicity = 1
 C                     3.82268   4.71929   5. 
 H                     2.79069   4.39047   5.00001 
 O                     4.21251   5.83807   4.99987 
 H                     4.67491   4.04326   5.00009 
 
                          Input orientation:                          
 ---------------------------------------------------------------------
 Center     Atomic      Atomic             Coordinates (Angstroms)
 Number     Number       Type             X           Y           Z
 ---------------------------------------------------------------------
      1          6           0        3.822684    4.719285    5.000001
      2          1           0        2.790691    4.390466    5.000011
      3          8           0        4.212506    5.838068    4.999868
      4          1           0        4.674911    4.043261    5.000093
 ---------------------------------------------------------------------
                    Distance matrix (angstroms):
                    1          2          3          4
     1  C    0.000000
     2  H    1.083112   0.000000
     3  O    1.184752   2.029066   0.000000
     4  H    1.087796   1.915943   1.853416   0.000000
 Stoichiometry    CH2O
 Framework group  C1[X(CH2O)]
 Deg. of freedom     6
 Full point group                 C1      NOp   1
 Largest Abelian subgroup         C1      NOp   1
 Largest concise Abelian subgroup C1      NOp   1
                         Standard orientation:                         
 ---------------------------------------------------------------------
 Center     Atomic      Atomic             Coordinates (Angstroms)
 Number     Number       Type             X           Y           Z
 ---------------------------------------------------------------------
      1          6           0        0.529468    0.000574    0.000060
      2          1           0        1.196796   -0.852541    0.000070
      3          8           0       -0.655044   -0.023208   -0.000073
      4          1           0        0.866749    1.034760    0.000152
 ---------------------------------------------------------------------
 Rotational constants (GHZ):         277.9870598          41.1218703          35.8227136
 Standard basis: 6-31G(d) (6D, 7F)
 There are    34 symmetry adapted cartesian basis functions of A   symmetry.
 There are    34 symmetry adapted basis functions of A   symmetry.
    34 basis functions,    64 primitive gaussians,    34 cartesian basis functions
     8 alpha electrons        8 beta electrons
       nuclear repulsion energy        31.9364514757 Hartrees.
 NAtoms=    4 NActive=    4 NUniq=    4 SFac= 1.00D+00 NAtFMM=   60 NAOKFM=F Big=F
 Integral buffers will be    131072 words long.
 Raffenetti 2 integral format.
 Two-electron integral symmetry is turned on.
 One-electron integrals computed using PRISM.
 NBasis=    34 RedAO= T EigKep=  7.89D-03  NBF=    34
 NBsUse=    34 1.00D-06 EigRej= -1.00D+00 NBFU=    34
 ExpMin= 1.61D-01 ExpMax= 5.48D+03 ExpMxC= 8.25D+02 IAcc=3 IRadAn=         5 AccDes= 0.00D+00
 Harris functional with IExCor= 1009 and IRadAn=       5 diagonalized for initial guess.
 HarFok:  IExCor= 1009 AccDes= 0.00D+00 IRadAn=         5 IDoV= 1 UseB2=F ITyADJ=14
 ICtDFT=  3500011 ScaDFX=  1.000000  1.000000  1.000000  1.000000
 FoFCou: FMM=F IPFlag=           0 FMFlag=      100000 FMFlg1=           0
         NFxFlg=           0 DoJE=T BraDBF=F KetDBF=T FulRan=T
         wScrn=  0.000000 ICntrl=       500 IOpCl=  0 I1Cent=   200000004 NGrid=           0
         NMat0=    1 NMatS0=      1 NMatT0=    0 NMatD0=    1 NMtDS0=    0 NMtDT0=    0
 Petite list used in FoFCou.
 Keep R1 ints in memory in canonical form, NReq=3631052.
 Requested convergence on RMS density matrix=1.00D-08 within 128 cycles.
 Requested convergence on MAX density matrix=1.00D-06.
 Requested convergence on             energy=1.00D-06.
 No special actions if energy rises.
 Integral accuracy reduced to 1.0D-05 until final iterations.
 Initial convergence to 1.0D-05 achieved.  Increase integral accuracy.
 SCF Done:  E(RM062X) =  -114.437644916     A.U. after   13 cycles
            NFock= 13  Conv=0.91D-08     -V/T= 2.0066

 **********************************************************************

            Population analysis using the SCF density.

 **********************************************************************

 Orbital symmetries:
       Occupied  (A) (A) (A) (A) (A) (A) (A) (A)
       Virtual   (A) (A) (A) (A) (A) (A) (A) (A) (A) (A) (A) (A)
                 (A) (A) (A) (A) (A) (A) (A) (A) (A) (A) (A) (A)
                 (A) (A)
 The electronic state is 1-A.
 Alpha  occ. eigenvalues --  -19.65276 -10.63726  -1.19132  -0.71955  -0.59005
 Alpha  occ. eigenvalues --   -0.52483  -0.47161  -0.33235
 Alpha virt. eigenvalues --    0.02173   0.15620   0.22943   0.28039   0.56752
 Alpha virt. eigenvalues --    0.65008   0.70917   0.78134   0.90123   0.95966
 Alpha virt. eigenvalues --    0.96354   1.04877   1.13686   1.44393   1.55176
 Alpha virt. eigenvalues --    1.59185   1.75595   1.93047   2.00177   2.20864
 Alpha virt. eigenvalues --    2.44819   2.61621   2.70845   2.99774   3.74746
 Alpha virt. eigenvalues --    4.11716
          Condensed to atoms (all electrons):
               1          2          3          4
     1  C    4.671902   0.335060   0.550124   0.374498
     2  H    0.335060   0.648001  -0.051380  -0.076184
     3  O    0.550124  -0.051380   7.925160  -0.081122
     4  H    0.374498  -0.076184  -0.081122   0.652946
 Mulliken charges:
               1
     1  C    0.068416
     2  H    0.144503
     3  O   -0.342780
     4  H    0.129862
 Sum of Mulliken charges =   0.00000
 Mulliken charges with hydrogens summed into heavy atoms:
               1
     1  C    0.342780
     3  O   -0.342780
 Electronic spatial extent (au):  <R**2>=             58.2658
 Charge=              0.0000 electrons
 Dipole moment (field-independent basis, Debye):
    X=              2.2233    Y=              0.0001    Z=              0.0002  Tot=              2.2233
 Quadrupole moment (field-independent basis, Debye-Ang):
   XX=            -11.9702   YY=            -11.2965   ZZ=            -11.3929
   XY=             -0.3425   XZ=             -0.0001   YZ=             -0.0000
 Traceless Quadrupole moment (field-independent basis, Debye-Ang):
   XX=             -0.4170   YY=              0.2567   ZZ=              0.1603
   XY=             -0.3425   XZ=             -0.0001   YZ=             -0.0000
 Octapole moment (field-independent basis, Debye-Ang**2):
  XXX=             -1.0147  YYY=              0.1096  ZZZ=             -0.0003  XYY=              0.0703
  XXY=             -0.4947  XXZ=              0.0000  XZZ=             -0.8235  YZZ=             -0.0707
  YYZ=              0.0000  XYZ=              0.0000
 Hexadecapole moment (field-independent basis, Debye-Ang**3):
 XXXX=            -41.7120 YYYY=            -17.3995 ZZZZ=             -9.1624 XXXY=             -0.8896
 XXXZ=             -0.0018 YYYX=             -0.1958 YYYZ=             -0.0002 ZZZX=             -0.0017
 ZZZY=             -0.0003 XXYY=             -9.7290 XXZZ=             -8.4214 YYZZ=             -4.6836
 XXYZ=             -0.0002 YYXZ=             -0.0006 ZZXY=             -0.0498
 N-N= 3.193645147574D+01 E-N=-3.323534085370D+02  KE= 1.136828397837D+02
 1\1\GINC-NODE62\SP\RM062X\6-31G(d)\C1H2O1\YANZ\22-Sep-2023\0\\#m062x/6
 -31g(d) scf=tight\\tmpdir/M2_ref_49.gjf\\0,1\C,0,3.822684,4.719285,5.0
 00001\H,0,2.790691,4.390466,5.000011\O,0,4.2125055,5.83806805,4.999867
 88\H,0,4.67491137,4.04326089,5.00009293\\Version=ES64L-G16RevA.03\Stat
 e=1-A\HF=-114.4376449\RMSD=9.078e-09\Dipole=-0.3043096,-0.8200892,0.00
 00942\Quadrupole=0.2963186,-0.4155154,0.1191968,0.0296049,0.,0.0000703
 \PG=C01 [X(C1H2O1)]\\@


 I LOVE THOSE WHO LONG FOR THE IMPOSSIBLE.

                                 -- GOETHE
 Job cpu time:       0 days  0 hours  0 minutes  8.7 seconds.
 Elapsed time:       0 days  0 hours  0 minutes  2.3 seconds.
 File lengths (MBytes):  RWF=      6 Int=      0 D2E=      0 Chk=      1 Scr=      1
 Normal termination of Gaussian 16 at Fri Sep 22 17:01:37 2023.
