 Entering Gaussian System, Link 0=g16
 Initial command:
 /share/apps/gaussian/g16/l1.exe "/tmp/55613.mgr/Gau-178051.inp" -scrdir="/tmp/55613.mgr/"
 Entering Link 1 = /share/apps/gaussian/g16/l1.exe PID=    178052.
  
 Copyright (c) 1988,1990,1992,1993,1995,1998,2003,2009,2016,
            Gaussian, Inc.  All Rights Reserved.
  
 This is part of the Gaussian(R) 16 program.  It is based on
 the Gaussian(R) 09 system (copyright 2009, Gaussian, Inc.),
 the Gaussian(R) 03 system (copyright 2003, Gaussian, Inc.),
 the Gaussian(R) 98 system (copyright 1998, Gaussian, Inc.),
 the Gaussian(R) 94 system (copyright 1995, Gaussian, Inc.),
 the Gaussian 92(TM) system (copyright 1992, Gaussian, Inc.),
 the Gaussian 90(TM) system (copyright 1990, Gaussian, Inc.),
 the Gaussian 88(TM) system (copyright 1988, Gaussian, Inc.),
 the Gaussian 86(TM) system (copyright 1986, Carnegie Mellon
 University), and the Gaussian 82(TM) system (copyright 1983,
 Carnegie Mellon University). Gaussian is a federally registered
 trademark of Gaussian, Inc.
  
 This software contains proprietary and confidential information,
 including trade secrets, belonging to Gaussian, Inc.
  
 This software is provided under written license and may be
 used, copied, transmitted, or stored only in accord with that
 written license.
  
 The following legend is applicable only to US Government
 contracts under FAR:
  
                    RESTRICTED RIGHTS LEGEND
  
 Use, reproduction and disclosure by the US Government is
 subject to restrictions as set forth in subparagraphs (a)
 and (c) of the Commercial Computer Software - Restricted
 Rights clause in FAR 52.227-19.
  
 Gaussian, Inc.
 340 Quinnipiac St., Bldg. 40, Wallingford CT 06492
  
  
 ---------------------------------------------------------------
 Warning -- This program may not be used in any manner that
 competes with the business of Gaussian, Inc. or will provide
 assistance to any competitor of Gaussian, Inc.  The licensee
 of this program is prohibited from giving any competitor of
 Gaussian, Inc. access to this program.  By using this program,
 the user acknowledges that Gaussian, Inc. is engaged in the
 business of creating and licensing software in the field of
 computational chemistry and represents and warrants to the
 licensee that it is not a competitor of Gaussian, Inc. and that
 it will not use this program in any manner prohibited above.
 ---------------------------------------------------------------
  

 Cite this work as:
 Gaussian 16, Revision A.03,
 M. J. Frisch, G. W. Trucks, H. B. Schlegel, G. E. Scuseria, 
 M. A. Robb, J. R. Cheeseman, G. Scalmani, V. Barone, 
 G. A. Petersson, H. Nakatsuji, X. Li, M. Caricato, A. V. Marenich, 
 J. Bloino, B. G. Janesko, R. Gomperts, B. Mennucci, H. P. Hratchian, 
 J. V. Ortiz, A. F. Izmaylov, J. L. Sonnenberg, D. Williams-Young, 
 F. Ding, F. Lipparini, F. Egidi, J. Goings, B. Peng, A. Petrone, 
 T. Henderson, D. Ranasinghe, V. G. Zakrzewski, J. Gao, N. Rega, 
 G. Zheng, W. Liang, M. Hada, M. Ehara, K. Toyota, R. Fukuda, 
 J. Hasegawa, M. Ishida, T. Nakajima, Y. Honda, O. Kitao, H. Nakai, 
 T. Vreven, K. Throssell, J. A. Montgomery, Jr., J. E. Peralta, 
 F. Ogliaro, M. J. Bearpark, J. J. Heyd, E. N. Brothers, K. N. Kudin, 
 V. N. Staroverov, T. A. Keith, R. Kobayashi, J. Normand, 
 K. Raghavachari, A. P. Rendell, J. C. Burant, S. S. Iyengar, 
 J. Tomasi, M. Cossi, J. M. Millam, M. Klene, C. Adamo, R. Cammi, 
 J. W. Ochterski, R. L. Martin, K. Morokuma, O. Farkas, 
 J. B. Foresman, and D. J. Fox, Gaussian, Inc., Wallingford CT, 2016.
 
 ******************************************
 Gaussian 16:  ES64L-G16RevA.03 25-Dec-2016
                22-Sep-2023 
 ******************************************
 %nprocshared=4
 Will use up to    4 processors via shared memory.
 %mem=4GB
 -------------------------
 #m062x/6-31g(d) scf=tight
 -------------------------
 1/38=1,172=1/1;
 2/12=2,17=6,18=5,40=1/2;
 3/5=1,6=6,7=1,11=2,25=1,30=1,74=-55/1,2,3;
 4//1;
 5/5=2,32=2,38=5/2;
 6/7=2,8=2,9=2,10=2,28=1/1;
 99/5=1,9=1/99;
 --------------------
 tmpdir/M2_ref_14.gjf
 --------------------
 Symbolic Z-matrix:
 Charge =  0 Multiplicity = 1
 C                    -0.05187  -1.19827   0.00008 
 C                     0.88287   0.01662  -0.00005 
 H                    -1.08178  -0.77839  0. 
 H                     0.16276  -1.81089  -0.87961 
 H                     0.16268  -1.8106    0.88 
 H                     0.26279   0.8947   -0.00003 
 O                     2.09056  -0.02192   0.00005 
 
                          Input orientation:                          
 ---------------------------------------------------------------------
 Center     Atomic      Atomic             Coordinates (Angstroms)
 Number     Number       Type             X           Y           Z
 ---------------------------------------------------------------------
      1          6           0       -0.051872   -1.198273    0.000084
      2          6           0        0.882872    0.016622   -0.000045
      3          1           0       -1.081779   -0.778387   -0.000003
      4          1           0        0.162755   -1.810889   -0.879613
      5          1           0        0.162681   -1.810604    0.880002
      6          1           0        0.262792    0.894704   -0.000034
      7          8           0        2.090555   -0.021921    0.000053
 ---------------------------------------------------------------------
                    Distance matrix (angstroms):
                    1          2          3          4          5
     1  C    0.000000
     2  C    1.532878   0.000000
     3  H    1.112211   2.119408   0.000000
     4  H    1.093266   2.152209   1.840826   0.000000
     5  H    1.093269   2.152188   1.840804   1.759615   0.000000
     6  H    2.116499   1.074955   2.146416   2.846735   2.846608
     7  O    2.444135   1.208298   3.261279   2.773199   2.773156
                    6          7
     6  H    0.000000
     7  O    2.044730   0.000000
 Stoichiometry    C2H4O
 Framework group  C1[X(C2H4O)]
 Deg. of freedom    15
 Full point group                 C1      NOp   1
 Largest Abelian subgroup         C1      NOp   1
 Largest concise Abelian subgroup C1      NOp   1
                         Standard orientation:                         
 ---------------------------------------------------------------------
 Center     Atomic      Atomic             Coordinates (Angstroms)
 Number     Number       Type             X           Y           Z
 ---------------------------------------------------------------------
      1          6           0       -1.189179   -0.153415    0.000042
      2          6           0        0.241046    0.398104   -0.000087
      3          1           0       -1.850464    0.740852   -0.000045
      4          1           0       -1.324472   -0.788284   -0.879655
      5          1           0       -1.324387   -0.788002    0.879960
      6          1           0        0.168100    1.470581   -0.000076
      7          8           0        1.252503   -0.262910    0.000011
 ---------------------------------------------------------------------
 Rotational constants (GHZ):          57.3843398           9.9219652           8.9255175
 Standard basis: 6-31G(d) (6D, 7F)
 There are    53 symmetry adapted cartesian basis functions of A   symmetry.
 There are    53 symmetry adapted basis functions of A   symmetry.
    53 basis functions,   100 primitive gaussians,    53 cartesian basis functions
    12 alpha electrons       12 beta electrons
       nuclear repulsion energy        69.3231727704 Hartrees.
 NAtoms=    7 NActive=    7 NUniq=    7 SFac= 1.00D+00 NAtFMM=   60 NAOKFM=F Big=F
 Integral buffers will be    131072 words long.
 Raffenetti 2 integral format.
 Two-electron integral symmetry is turned on.
 One-electron integrals computed using PRISM.
 NBasis=    53 RedAO= T EigKep=  6.16D-03  NBF=    53
 NBsUse=    53 1.00D-06 EigRej= -1.00D+00 NBFU=    53
 ExpMin= 1.61D-01 ExpMax= 5.48D+03 ExpMxC= 8.25D+02 IAcc=3 IRadAn=         5 AccDes= 0.00D+00
 Harris functional with IExCor= 1009 and IRadAn=       5 diagonalized for initial guess.
 HarFok:  IExCor= 1009 AccDes= 0.00D+00 IRadAn=         5 IDoV= 1 UseB2=F ITyADJ=14
 ICtDFT=  3500011 ScaDFX=  1.000000  1.000000  1.000000  1.000000
 FoFCou: FMM=F IPFlag=           0 FMFlag=      100000 FMFlg1=           0
         NFxFlg=           0 DoJE=T BraDBF=F KetDBF=T FulRan=T
         wScrn=  0.000000 ICntrl=       500 IOpCl=  0 I1Cent=   200000004 NGrid=           0
         NMat0=    1 NMatS0=      1 NMatT0=    0 NMatD0=    1 NMtDS0=    0 NMtDT0=    0
 Petite list used in FoFCou.
 Keep R1 ints in memory in canonical form, NReq=4530250.
 Requested convergence on RMS density matrix=1.00D-08 within 128 cycles.
 Requested convergence on MAX density matrix=1.00D-06.
 Requested convergence on             energy=1.00D-06.
 No special actions if energy rises.
 Integral accuracy reduced to 1.0D-05 until final iterations.
 Initial convergence to 1.0D-05 achieved.  Increase integral accuracy.
 SCF Done:  E(RM062X) =  -153.745419925     A.U. after   14 cycles
            NFock= 14  Conv=0.46D-08     -V/T= 2.0084

 **********************************************************************

            Population analysis using the SCF density.

 **********************************************************************

 Orbital symmetries:
       Occupied  (A) (A) (A) (A) (A) (A) (A) (A) (A) (A) (A) (A)
       Virtual   (A) (A) (A) (A) (A) (A) (A) (A) (A) (A) (A) (A)
                 (A) (A) (A) (A) (A) (A) (A) (A) (A) (A) (A) (A)
                 (A) (A) (A) (A) (A) (A) (A) (A) (A) (A) (A) (A)
                 (A) (A) (A) (A) (A)
 The electronic state is 1-A.
 Alpha  occ. eigenvalues --  -19.64708 -10.64119 -10.55447  -1.16989  -0.84582
 Alpha  occ. eigenvalues --   -0.67151  -0.55251  -0.51081  -0.50730  -0.46761
 Alpha  occ. eigenvalues --   -0.42914  -0.32429
 Alpha virt. eigenvalues --    0.02274   0.14413   0.17345   0.21865   0.23140
 Alpha virt. eigenvalues --    0.29338   0.30855   0.57234   0.59770   0.61821
 Alpha virt. eigenvalues --    0.65407   0.72785   0.76708   0.84570   0.90677
 Alpha virt. eigenvalues --    0.92279   0.93134   0.99597   1.00266   1.07311
 Alpha virt. eigenvalues --    1.14972   1.26364   1.45401   1.49950   1.57396
 Alpha virt. eigenvalues --    1.77679   1.84805   1.85266   1.89711   2.09321
 Alpha virt. eigenvalues --    2.18264   2.24198   2.27423   2.41293   2.52321
 Alpha virt. eigenvalues --    2.64183   2.90995   2.99180   3.81997   4.10877
 Alpha virt. eigenvalues --    4.37665
          Condensed to atoms (all electrons):
               1          2          3          4          5          6
     1  C    5.379125   0.309613   0.349433   0.364758   0.364763  -0.133301
     2  C    0.309613   4.591266  -0.024978  -0.021902  -0.021903   0.367162
     3  H    0.349433  -0.024978   0.541424  -0.019018  -0.019022   0.006240
     4  H    0.364758  -0.021902  -0.019018   0.483844  -0.017458   0.004920
     5  H    0.364763  -0.021903  -0.019022  -0.017458   0.483843   0.004920
     6  H   -0.133301   0.367162   0.006240   0.004920   0.004920   0.663390
     7  O   -0.074864   0.558604   0.003281  -0.000189  -0.000191  -0.047171
               7
     1  C   -0.074864
     2  C    0.558604
     3  H    0.003281
     4  H   -0.000189
     5  H   -0.000191
     6  H   -0.047171
     7  O    7.949711
 Mulliken charges:
               1
     1  C   -0.559529
     2  C    0.242139
     3  H    0.162639
     4  H    0.205044
     5  H    0.205048
     6  H    0.133840
     7  O   -0.389180
 Sum of Mulliken charges =  -0.00000
 Mulliken charges with hydrogens summed into heavy atoms:
               1
     1  C    0.013202
     2  C    0.375978
     7  O   -0.389180
 Electronic spatial extent (au):  <R**2>=            168.6305
 Charge=             -0.0000 electrons
 Dipole moment (field-independent basis, Debye):
    X=             -2.3414    Y=              0.9735    Z=             -0.0000  Tot=              2.5357
 Quadrupole moment (field-independent basis, Debye-Ang):
   XX=            -21.2049   YY=            -17.5146   ZZ=            -17.6221
   XY=              0.8422   XZ=             -0.0001   YZ=             -0.0000
 Traceless Quadrupole moment (field-independent basis, Debye-Ang):
   XX=             -2.4243   YY=              1.2659   ZZ=              1.1584
   XY=              0.8422   XZ=             -0.0001   YZ=             -0.0000
 Octapole moment (field-independent basis, Debye-Ang**2):
  XXX=              0.9636  YYY=              0.0183  ZZZ=              0.0005  XYY=              0.3018
  XXY=              0.5367  XXZ=              0.0000  XZZ=              1.3023  YZZ=             -1.2390
  YYZ=             -0.0002  XYZ=              0.0000
 Hexadecapole moment (field-independent basis, Debye-Ang**3):
 XXXX=           -153.2771 YYYY=            -41.0718 ZZZZ=            -21.8515 XXXY=             -2.1797
 XXXZ=              0.0017 YYYX=             -0.9997 YYYZ=              0.0014 ZZZX=              0.0009
 ZZZY=              0.0006 XXYY=            -29.9626 XXZZ=            -27.2883 YYZZ=            -10.0468
 XXYZ=              0.0004 YYXZ=              0.0009 ZZXY=              0.8333
 N-N= 6.932317277038D+01 E-N=-4.976876960106D+02  KE= 1.524651692446D+02
 1\1\GINC-NODE62\SP\RM062X\6-31G(d)\C2H4O1\YANZ\22-Sep-2023\0\\#m062x/6
 -31g(d) scf=tight\\tmpdir/M2_ref_14.gjf\\0,1\C,0,-0.051872,-1.198273,0
 .000084\C,0,0.882872,0.016622,-0.000045\H,0,-1.08177863,-0.77838655,-0
 .00000287\H,0,0.162755,-1.810889,-0.879613\H,0,0.162681,-1.810604,0.88
 0002\H,0,0.26279198,0.8947044,-0.00003414\O,0,2.090555,-0.021921,0.000
 053\\Version=ES64L-G16RevA.03\State=1-A\HF=-153.7454199\RMSD=4.571e-09
 \Dipole=-0.9859895,-0.1519398,-0.0000188\Quadrupole=-1.6166096,0.75535
 04,0.8612592,-0.931319,-0.0000636,-0.000055\PG=C01 [X(C2H4O1)]\\@


 There are more things in heaven and earth, Horatio,
 than are dreamt of in your philosophy.
                   -- Hamlet, Act I, Scene 5
 Job cpu time:       0 days  0 hours  0 minutes 21.9 seconds.
 Elapsed time:       0 days  0 hours  0 minutes  5.7 seconds.
 File lengths (MBytes):  RWF=      6 Int=      0 D2E=      0 Chk=      1 Scr=      1
 Normal termination of Gaussian 16 at Fri Sep 22 17:01:08 2023.
