 Entering Gaussian System, Link 0=g16
 Initial command:
 /share/apps/gaussian/g16/l1.exe "/tmp/55613.mgr/Gau-179266.inp" -scrdir="/tmp/55613.mgr/"
 Entering Link 1 = /share/apps/gaussian/g16/l1.exe PID=    179267.
  
 Copyright (c) 1988,1990,1992,1993,1995,1998,2003,2009,2016,
            Gaussian, Inc.  All Rights Reserved.
  
 This is part of the Gaussian(R) 16 program.  It is based on
 the Gaussian(R) 09 system (copyright 2009, Gaussian, Inc.),
 the Gaussian(R) 03 system (copyright 2003, Gaussian, Inc.),
 the Gaussian(R) 98 system (copyright 1998, Gaussian, Inc.),
 the Gaussian(R) 94 system (copyright 1995, Gaussian, Inc.),
 the Gaussian 92(TM) system (copyright 1992, Gaussian, Inc.),
 the Gaussian 90(TM) system (copyright 1990, Gaussian, Inc.),
 the Gaussian 88(TM) system (copyright 1988, Gaussian, Inc.),
 the Gaussian 86(TM) system (copyright 1986, Carnegie Mellon
 University), and the Gaussian 82(TM) system (copyright 1983,
 Carnegie Mellon University). Gaussian is a federally registered
 trademark of Gaussian, Inc.
  
 This software contains proprietary and confidential information,
 including trade secrets, belonging to Gaussian, Inc.
  
 This software is provided under written license and may be
 used, copied, transmitted, or stored only in accord with that
 written license.
  
 The following legend is applicable only to US Government
 contracts under FAR:
  
                    RESTRICTED RIGHTS LEGEND
  
 Use, reproduction and disclosure by the US Government is
 subject to restrictions as set forth in subparagraphs (a)
 and (c) of the Commercial Computer Software - Restricted
 Rights clause in FAR 52.227-19.
  
 Gaussian, Inc.
 340 Quinnipiac St., Bldg. 40, Wallingford CT 06492
  
  
 ---------------------------------------------------------------
 Warning -- This program may not be used in any manner that
 competes with the business of Gaussian, Inc. or will provide
 assistance to any competitor of Gaussian, Inc.  The licensee
 of this program is prohibited from giving any competitor of
 Gaussian, Inc. access to this program.  By using this program,
 the user acknowledges that Gaussian, Inc. is engaged in the
 business of creating and licensing software in the field of
 computational chemistry and represents and warrants to the
 licensee that it is not a competitor of Gaussian, Inc. and that
 it will not use this program in any manner prohibited above.
 ---------------------------------------------------------------
  

 Cite this work as:
 Gaussian 16, Revision A.03,
 M. J. Frisch, G. W. Trucks, H. B. Schlegel, G. E. Scuseria, 
 M. A. Robb, J. R. Cheeseman, G. Scalmani, V. Barone, 
 G. A. Petersson, H. Nakatsuji, X. Li, M. Caricato, A. V. Marenich, 
 J. Bloino, B. G. Janesko, R. Gomperts, B. Mennucci, H. P. Hratchian, 
 J. V. Ortiz, A. F. Izmaylov, J. L. Sonnenberg, D. Williams-Young, 
 F. Ding, F. Lipparini, F. Egidi, J. Goings, B. Peng, A. Petrone, 
 T. Henderson, D. Ranasinghe, V. G. Zakrzewski, J. Gao, N. Rega, 
 G. Zheng, W. Liang, M. Hada, M. Ehara, K. Toyota, R. Fukuda, 
 J. Hasegawa, M. Ishida, T. Nakajima, Y. Honda, O. Kitao, H. Nakai, 
 T. Vreven, K. Throssell, J. A. Montgomery, Jr., J. E. Peralta, 
 F. Ogliaro, M. J. Bearpark, J. J. Heyd, E. N. Brothers, K. N. Kudin, 
 V. N. Staroverov, T. A. Keith, R. Kobayashi, J. Normand, 
 K. Raghavachari, A. P. Rendell, J. C. Burant, S. S. Iyengar, 
 J. Tomasi, M. Cossi, J. M. Millam, M. Klene, C. Adamo, R. Cammi, 
 J. W. Ochterski, R. L. Martin, K. Morokuma, O. Farkas, 
 J. B. Foresman, and D. J. Fox, Gaussian, Inc., Wallingford CT, 2016.
 
 ******************************************
 Gaussian 16:  ES64L-G16RevA.03 25-Dec-2016
                22-Sep-2023 
 ******************************************
 %nprocshared=4
 Will use up to    4 processors via shared memory.
 %mem=4GB
 -------------------------
 #m062x/6-31g(d) scf=tight
 -------------------------
 1/38=1,172=1/1;
 2/12=2,17=6,18=5,40=1/2;
 3/5=1,6=6,7=1,11=2,25=1,30=1,74=-55/1,2,3;
 4//1;
 5/5=2,32=2,38=5/2;
 6/7=2,8=2,9=2,10=2,28=1/1;
 99/5=1,9=1/99;
 --------------------
 tmpdir/M2_ref_41.gjf
 --------------------
 Symbolic Z-matrix:
 Charge =  0 Multiplicity = 1
 C                    -0.05187  -1.19827   0.00008 
 C                     0.88287   0.01662  -0.00005 
 C                     0.02627   1.22963  -0.00003 
 H                    -1.08178  -0.77839  0. 
 H                     0.16276  -1.81089  -0.87961 
 H                     0.16268  -1.8106    0.88 
 O                     2.09056  -0.02192   0.00005 
 O                    -1.10959   0.91898  -0.00006 
 H                     0.43427   2.23297  -0.00001 
 
                          Input orientation:                          
 ---------------------------------------------------------------------
 Center     Atomic      Atomic             Coordinates (Angstroms)
 Number     Number       Type             X           Y           Z
 ---------------------------------------------------------------------
      1          6           0       -0.051872   -1.198273    0.000084
      2          6           0        0.882872    0.016622   -0.000045
      3          6           0        0.026273    1.229634   -0.000030
      4          1           0       -1.081779   -0.778387   -0.000003
      5          1           0        0.162755   -1.810889   -0.879613
      6          1           0        0.162681   -1.810604    0.880002
      7          8           0        2.090555   -0.021921    0.000053
      8          8           0       -1.109585    0.918982   -0.000064
      9          1           0        0.434268    2.232970   -0.000010
 ---------------------------------------------------------------------
                    Distance matrix (angstroms):
                    1          2          3          4          5
     1  C    0.000000
     2  C    1.532878   0.000000
     3  C    2.429164   1.484978   0.000000
     4  H    1.112211   2.119408   2.293453   0.000000
     5  H    1.093266   2.152209   3.168134   1.840826   0.000000
     6  H    1.093269   2.152188   3.167982   1.840804   1.759615
     7  O    2.444135   1.208298   2.414053   3.261279   2.773199
     8  O    2.366754   2.187267   1.177573   1.697596   3.137619
     9  H    3.465510   2.261293   1.083117   3.371449   4.147314
                    6          7          8          9
     6  H    0.000000
     7  O    2.773156   0.000000
     8  O    3.137485   3.335595   0.000000
     9  H    4.147128   2.797824   2.027325   0.000000
 Stoichiometry    C3H4O2
 Framework group  C1[X(C3H4O2)]
 Deg. of freedom    21
 Full point group                 C1      NOp   1
 Largest Abelian subgroup         C1      NOp   1
 Largest concise Abelian subgroup C1      NOp   1
                         Standard orientation:                         
 ---------------------------------------------------------------------
 Center     Atomic      Atomic             Coordinates (Angstroms)
 Number     Number       Type             X           Y           Z
 ---------------------------------------------------------------------
      1          6           0       -0.302243    1.358850    0.000075
      2          6           0       -0.541181   -0.155291   -0.000054
      3          6           0        0.791640   -0.810080   -0.000039
      4          1           0        0.802978    1.483344   -0.000012
      5          1           0       -0.783991    1.793916   -0.879622
      6          1           0       -0.783789    1.793701    0.879993
      7          8           0       -1.619888   -0.699695    0.000044
      8          8           0        1.640094    0.006500   -0.000073
      9          1           0        0.913852   -1.886281   -0.000019
 ---------------------------------------------------------------------
 Rotational constants (GHZ):           9.7856837           4.9724010           3.3655793
 Standard basis: 6-31G(d) (6D, 7F)
 There are    83 symmetry adapted cartesian basis functions of A   symmetry.
 There are    83 symmetry adapted basis functions of A   symmetry.
    83 basis functions,   156 primitive gaussians,    83 cartesian basis functions
    19 alpha electrons       19 beta electrons
       nuclear repulsion energy       165.2885620421 Hartrees.
 NAtoms=    9 NActive=    9 NUniq=    9 SFac= 1.00D+00 NAtFMM=   60 NAOKFM=F Big=F
 Integral buffers will be    131072 words long.
 Raffenetti 2 integral format.
 Two-electron integral symmetry is turned on.
 One-electron integrals computed using PRISM.
 NBasis=    83 RedAO= T EigKep=  2.71D-03  NBF=    83
 NBsUse=    83 1.00D-06 EigRej= -1.00D+00 NBFU=    83
 ExpMin= 1.61D-01 ExpMax= 5.48D+03 ExpMxC= 8.25D+02 IAcc=3 IRadAn=         5 AccDes= 0.00D+00
 Harris functional with IExCor= 1009 and IRadAn=       5 diagonalized for initial guess.
 HarFok:  IExCor= 1009 AccDes= 0.00D+00 IRadAn=         5 IDoV= 1 UseB2=F ITyADJ=14
 ICtDFT=  3500011 ScaDFX=  1.000000  1.000000  1.000000  1.000000
 FoFCou: FMM=F IPFlag=           0 FMFlag=      100000 FMFlg1=           0
         NFxFlg=           0 DoJE=T BraDBF=F KetDBF=T FulRan=T
         wScrn=  0.000000 ICntrl=       500 IOpCl=  0 I1Cent=   200000004 NGrid=           0
         NMat0=    1 NMatS0=      1 NMatT0=    0 NMatD0=    1 NMtDS0=    0 NMtDT0=    0
 Petite list used in FoFCou.
 Keep R1 ints in memory in canonical form, NReq=9700327.
 Requested convergence on RMS density matrix=1.00D-08 within 128 cycles.
 Requested convergence on MAX density matrix=1.00D-06.
 Requested convergence on             energy=1.00D-06.
 No special actions if energy rises.
 Integral accuracy reduced to 1.0D-05 until final iterations.
 Initial convergence to 1.0D-05 achieved.  Increase integral accuracy.
 SCF Done:  E(RM062X) =  -266.995550950     A.U. after   15 cycles
            NFock= 15  Conv=0.35D-08     -V/T= 2.0067

 **********************************************************************

            Population analysis using the SCF density.

 **********************************************************************

 Orbital symmetries:
       Occupied  (A) (A) (A) (A) (A) (A) (A) (A) (A) (A) (A) (A)
                 (A) (A) (A) (A) (A) (A) (A)
       Virtual   (A) (A) (A) (A) (A) (A) (A) (A) (A) (A) (A) (A)
                 (A) (A) (A) (A) (A) (A) (A) (A) (A) (A) (A) (A)
                 (A) (A) (A) (A) (A) (A) (A) (A) (A) (A) (A) (A)
                 (A) (A) (A) (A) (A) (A) (A) (A) (A) (A) (A) (A)
                 (A) (A) (A) (A) (A) (A) (A) (A) (A) (A) (A) (A)
                 (A) (A) (A) (A)
 The electronic state is 1-A.
 Alpha  occ. eigenvalues --  -19.68215 -19.66049 -10.66041 -10.64952 -10.53493
 Alpha  occ. eigenvalues --   -1.23965  -1.18403  -0.84931  -0.77334  -0.65426
 Alpha  occ. eigenvalues --   -0.58080  -0.57654  -0.54466  -0.50279  -0.48008
 Alpha  occ. eigenvalues --   -0.45565  -0.43176  -0.39428  -0.31338
 Alpha virt. eigenvalues --   -0.05197   0.08814   0.16447   0.17451   0.22987
 Alpha virt. eigenvalues --    0.23630   0.24728   0.29879   0.34895   0.39808
 Alpha virt. eigenvalues --    0.53368   0.60113   0.62649   0.64392   0.67404
 Alpha virt. eigenvalues --    0.68311   0.71774   0.75582   0.78688   0.86592
 Alpha virt. eigenvalues --    0.87553   0.90165   0.93503   0.98388   1.01138
 Alpha virt. eigenvalues --    1.03136   1.05519   1.08427   1.13959   1.18886
 Alpha virt. eigenvalues --    1.22725   1.28477   1.35555   1.47449   1.53430
 Alpha virt. eigenvalues --    1.57378   1.68355   1.74086   1.76062   1.80320
 Alpha virt. eigenvalues --    1.84966   1.86071   1.93676   1.95646   2.05795
 Alpha virt. eigenvalues --    2.11084   2.25282   2.27211   2.31275   2.32227
 Alpha virt. eigenvalues --    2.38763   2.47706   2.56436   2.60358   2.67609
 Alpha virt. eigenvalues --    2.93258   3.01153   3.03024   3.10164   3.85697
 Alpha virt. eigenvalues --    4.05485   4.19371   4.27440   4.57401
          Condensed to atoms (all electrons):
               1          2          3          4          5          6
     1  C    5.414240   0.346568  -0.135412   0.365520   0.363761   0.363767
     2  C    0.346568   4.713252   0.293771  -0.023409  -0.026150  -0.026153
     3  C   -0.135412   0.293771   4.855516  -0.005735   0.004488   0.004487
     4  H    0.365520  -0.023409  -0.005735   0.452300  -0.016298  -0.016301
     5  H    0.363761  -0.026150   0.004488  -0.016298   0.496726  -0.017569
     6  H    0.363767  -0.026153   0.004487  -0.016301  -0.017569   0.496722
     7  O   -0.073779   0.536893  -0.058298   0.002766  -0.000138  -0.000140
     8  O   -0.051627  -0.089657   0.481623  -0.007455   0.001194   0.001194
     9  H    0.005801  -0.069031   0.345391  -0.000026  -0.000063  -0.000063
               7          8          9
     1  C   -0.073779  -0.051627   0.005801
     2  C    0.536893  -0.089657  -0.069031
     3  C   -0.058298   0.481623   0.345391
     4  H    0.002766  -0.007455  -0.000026
     5  H   -0.000138   0.001194  -0.000063
     6  H   -0.000140   0.001194  -0.000063
     7  O    7.999959   0.003556   0.007162
     8  O    0.003556   8.057754  -0.034110
     9  H    0.007162  -0.034110   0.560472
 Mulliken charges:
               1
     1  C   -0.598840
     2  C    0.343916
     3  C    0.214169
     4  H    0.248636
     5  H    0.194049
     6  H    0.194055
     7  O   -0.417980
     8  O   -0.362471
     9  H    0.184465
 Sum of Mulliken charges =  -0.00000
 Mulliken charges with hydrogens summed into heavy atoms:
               1
     1  C    0.037901
     2  C    0.343916
     3  C    0.398634
     7  O   -0.417980
     8  O   -0.362471
 Electronic spatial extent (au):  <R**2>=            366.9270
 Charge=             -0.0000 electrons
 Dipole moment (field-independent basis, Debye):
    X=              0.9810    Y=             -0.2392    Z=             -0.0000  Tot=              1.0097
 Quadrupole moment (field-independent basis, Debye-Ang):
   XX=            -35.8075   YY=            -26.6344   ZZ=            -27.1103
   XY=             -3.5699   XZ=              0.0003   YZ=              0.0002
 Traceless Quadrupole moment (field-independent basis, Debye-Ang):
   XX=             -5.9568   YY=              3.2163   ZZ=              2.7404
   XY=             -3.5699   XZ=              0.0003   YZ=              0.0002
 Octapole moment (field-independent basis, Debye-Ang**2):
  XXX=              1.6824  YYY=             -6.1512  ZZZ=              0.0002  XYY=              3.5388
  XXY=              2.1989  XXZ=             -0.0002  XZZ=             -0.3094  YZZ=             -0.6108
  YYZ=             -0.0002  XYZ=              0.0000
 Hexadecapole moment (field-independent basis, Debye-Ang**3):
 XXXX=           -265.0876 YYYY=           -168.7407 ZZZZ=            -29.4397 XXXY=             -0.6573
 XXXZ=              0.0049 YYYX=             -3.7344 YYYZ=             -0.0031 ZZZX=              0.0031
 ZZZY=             -0.0019 XXYY=            -66.7500 XXZZ=            -42.4895 YYZZ=            -31.8367
 XXYZ=             -0.0011 YYXZ=              0.0015 ZZXY=             -0.1569
 N-N= 1.652885620421D+02 E-N=-9.555747212962D+02  KE= 2.652109975445D+02
 1\1\GINC-NODE62\SP\RM062X\6-31G(d)\C3H4O2\YANZ\22-Sep-2023\0\\#m062x/6
 -31g(d) scf=tight\\tmpdir/M2_ref_41.gjf\\0,1\C,0,-0.051872,-1.198273,0
 .000084\C,0,0.882872,0.016622,-0.000045\C,0,0.026273,1.229634,-0.00003
 \H,0,-1.08177863,-0.77838655,-0.00000287\H,0,0.162755,-1.810889,-0.879
 613\H,0,0.162681,-1.810604,0.880002\O,0,2.090555,-0.021921,0.000053\O,
 0,-1.10958519,0.91898161,-0.0000635\H,0,0.434268,2.23297,-0.00001\\Ver
 sion=ES64L-G16RevA.03\State=1-A\HF=-266.995551\RMSD=3.479e-09\Dipole=-
 0.2937784,0.2673972,-0.0000104\Quadrupole=-5.0965726,3.0591306,2.03744
 2,1.429561,-0.0002535,-0.0000287\PG=C01 [X(C3H4O2)]\\@


 CHEMISTRY BEGAN BY SAYING IT WOULD CHANGE THE BASER
 METALS INTO GOLD.  BY NOT DOING THAT IT HAS DONE MUCH
 GREATER THINGS.  --  RALPH WALDO EMERSON
 Job cpu time:       0 days  0 hours  0 minutes 42.3 seconds.
 Elapsed time:       0 days  0 hours  0 minutes 10.9 seconds.
 File lengths (MBytes):  RWF=      6 Int=      0 D2E=      0 Chk=      2 Scr=      1
 Normal termination of Gaussian 16 at Fri Sep 22 17:01:41 2023.
