 Entering Gaussian System, Link 0=g16
 Initial command:
 /share/apps/gaussian/g16/l1.exe "/tmp/55613.mgr/Gau-177788.inp" -scrdir="/tmp/55613.mgr/"
 Entering Link 1 = /share/apps/gaussian/g16/l1.exe PID=    177795.
  
 Copyright (c) 1988,1990,1992,1993,1995,1998,2003,2009,2016,
            Gaussian, Inc.  All Rights Reserved.
  
 This is part of the Gaussian(R) 16 program.  It is based on
 the Gaussian(R) 09 system (copyright 2009, Gaussian, Inc.),
 the Gaussian(R) 03 system (copyright 2003, Gaussian, Inc.),
 the Gaussian(R) 98 system (copyright 1998, Gaussian, Inc.),
 the Gaussian(R) 94 system (copyright 1995, Gaussian, Inc.),
 the Gaussian 92(TM) system (copyright 1992, Gaussian, Inc.),
 the Gaussian 90(TM) system (copyright 1990, Gaussian, Inc.),
 the Gaussian 88(TM) system (copyright 1988, Gaussian, Inc.),
 the Gaussian 86(TM) system (copyright 1986, Carnegie Mellon
 University), and the Gaussian 82(TM) system (copyright 1983,
 Carnegie Mellon University). Gaussian is a federally registered
 trademark of Gaussian, Inc.
  
 This software contains proprietary and confidential information,
 including trade secrets, belonging to Gaussian, Inc.
  
 This software is provided under written license and may be
 used, copied, transmitted, or stored only in accord with that
 written license.
  
 The following legend is applicable only to US Government
 contracts under FAR:
  
                    RESTRICTED RIGHTS LEGEND
  
 Use, reproduction and disclosure by the US Government is
 subject to restrictions as set forth in subparagraphs (a)
 and (c) of the Commercial Computer Software - Restricted
 Rights clause in FAR 52.227-19.
  
 Gaussian, Inc.
 340 Quinnipiac St., Bldg. 40, Wallingford CT 06492
  
  
 ---------------------------------------------------------------
 Warning -- This program may not be used in any manner that
 competes with the business of Gaussian, Inc. or will provide
 assistance to any competitor of Gaussian, Inc.  The licensee
 of this program is prohibited from giving any competitor of
 Gaussian, Inc. access to this program.  By using this program,
 the user acknowledges that Gaussian, Inc. is engaged in the
 business of creating and licensing software in the field of
 computational chemistry and represents and warrants to the
 licensee that it is not a competitor of Gaussian, Inc. and that
 it will not use this program in any manner prohibited above.
 ---------------------------------------------------------------
  

 Cite this work as:
 Gaussian 16, Revision A.03,
 M. J. Frisch, G. W. Trucks, H. B. Schlegel, G. E. Scuseria, 
 M. A. Robb, J. R. Cheeseman, G. Scalmani, V. Barone, 
 G. A. Petersson, H. Nakatsuji, X. Li, M. Caricato, A. V. Marenich, 
 J. Bloino, B. G. Janesko, R. Gomperts, B. Mennucci, H. P. Hratchian, 
 J. V. Ortiz, A. F. Izmaylov, J. L. Sonnenberg, D. Williams-Young, 
 F. Ding, F. Lipparini, F. Egidi, J. Goings, B. Peng, A. Petrone, 
 T. Henderson, D. Ranasinghe, V. G. Zakrzewski, J. Gao, N. Rega, 
 G. Zheng, W. Liang, M. Hada, M. Ehara, K. Toyota, R. Fukuda, 
 J. Hasegawa, M. Ishida, T. Nakajima, Y. Honda, O. Kitao, H. Nakai, 
 T. Vreven, K. Throssell, J. A. Montgomery, Jr., J. E. Peralta, 
 F. Ogliaro, M. J. Bearpark, J. J. Heyd, E. N. Brothers, K. N. Kudin, 
 V. N. Staroverov, T. A. Keith, R. Kobayashi, J. Normand, 
 K. Raghavachari, A. P. Rendell, J. C. Burant, S. S. Iyengar, 
 J. Tomasi, M. Cossi, J. M. Millam, M. Klene, C. Adamo, R. Cammi, 
 J. W. Ochterski, R. L. Martin, K. Morokuma, O. Farkas, 
 J. B. Foresman, and D. J. Fox, Gaussian, Inc., Wallingford CT, 2016.
 
 ******************************************
 Gaussian 16:  ES64L-G16RevA.03 25-Dec-2016
                22-Sep-2023 
 ******************************************
 %nprocshared=4
 Will use up to    4 processors via shared memory.
 %mem=4GB
 -------------------------
 #m062x/6-31g(d) scf=tight
 -------------------------
 1/38=1,172=1/1;
 2/12=2,17=6,18=5,40=1/2;
 3/5=1,6=6,7=1,11=2,25=1,30=1,74=-55/1,2,3;
 4//1;
 5/5=2,32=2,38=5/2;
 6/7=2,8=2,9=2,10=2,28=1/1;
 99/5=1,9=1/99;
 -------------------
 tmpdir/M2_ref_0.gjf
 -------------------
 Symbolic Z-matrix:
 Charge =  0 Multiplicity = 1
 C                     5.73518   5.98827   4.99994 
 C                     4.26485   5.9883    4.99985 
 H                     6.34891   6.88191   4.99987 
 C                     6.17731   4.71924   5.00006 
 H                     3.65116   6.88196   4.99973 
 C                     3.82268   4.71929   5. 
 
                          Input orientation:                          
 ---------------------------------------------------------------------
 Center     Atomic      Atomic             Coordinates (Angstroms)
 Number     Number       Type             X           Y           Z
 ---------------------------------------------------------------------
      1          6           0        5.735182    5.988274    4.999935
      2          6           0        4.264851    5.988299    4.999850
      3          1           0        6.348911    6.881909    4.999874
      4          6           0        6.177307    4.719241    5.000060
      5          1           0        3.651162    6.881961    4.999730
      6          6           0        3.822684    4.719285    5.000001
 ---------------------------------------------------------------------
                    Distance matrix (angstroms):
                    1          2          3          4          5
     1  C    0.000000
     2  C    1.470331   0.000000
     3  H    1.084088   2.267564   0.000000
     4  C    1.343845   2.295212   2.169466   0.000000
     5  H    2.267557   1.084088   2.697749   3.325472   0.000000
     6  C    2.295208   1.343841   3.325472   2.354623   2.169467
                    6
     6  C    0.000000
 Stoichiometry    C4H2
 Framework group  C1[X(C4H2)]
 Deg. of freedom    12
 Full point group                 C1      NOp   1
 Largest Abelian subgroup         C1      NOp   1
 Largest concise Abelian subgroup C1      NOp   1
                         Standard orientation:                         
 ---------------------------------------------------------------------
 Center     Atomic      Atomic             Coordinates (Angstroms)
 Number     Number       Type             X           Y           Z
 ---------------------------------------------------------------------
      1          6           0       -0.735164    0.516963    0.000014
      2          6           0        0.735167    0.516959    0.000099
      3          1           0       -1.348876    1.410609    0.000075
      4          6           0       -1.177313   -0.752062   -0.000111
      5          1           0        1.348873    1.410610    0.000219
      6          6           0        1.177310   -0.752063   -0.000052
 ---------------------------------------------------------------------
 Rotational constants (GHZ):          21.1966101          10.1269965           6.8529144
 Standard basis: 6-31G(d) (6D, 7F)
 There are    64 symmetry adapted cartesian basis functions of A   symmetry.
 There are    64 symmetry adapted basis functions of A   symmetry.
    64 basis functions,   120 primitive gaussians,    64 cartesian basis functions
    13 alpha electrons       13 beta electrons
       nuclear repulsion energy        79.6901047428 Hartrees.
 NAtoms=    6 NActive=    6 NUniq=    6 SFac= 1.00D+00 NAtFMM=   60 NAOKFM=F Big=F
 Integral buffers will be    131072 words long.
 Raffenetti 2 integral format.
 Two-electron integral symmetry is turned on.
 One-electron integrals computed using PRISM.
 NBasis=    64 RedAO= T EigKep=  2.20D-03  NBF=    64
 NBsUse=    64 1.00D-06 EigRej= -1.00D+00 NBFU=    64
 ExpMin= 1.61D-01 ExpMax= 3.05D+03 ExpMxC= 4.57D+02 IAcc=3 IRadAn=         5 AccDes= 0.00D+00
 Harris functional with IExCor= 1009 and IRadAn=       5 diagonalized for initial guess.
 HarFok:  IExCor= 1009 AccDes= 0.00D+00 IRadAn=         5 IDoV= 1 UseB2=F ITyADJ=14
 ICtDFT=  3500011 ScaDFX=  1.000000  1.000000  1.000000  1.000000
 FoFCou: FMM=F IPFlag=           0 FMFlag=      100000 FMFlg1=           0
         NFxFlg=           0 DoJE=T BraDBF=F KetDBF=T FulRan=T
         wScrn=  0.000000 ICntrl=       500 IOpCl=  0 I1Cent=   200000004 NGrid=           0
         NMat0=    1 NMatS0=      1 NMatT0=    0 NMatD0=    1 NMtDS0=    0 NMtDT0=    0
 Petite list used in FoFCou.
 Keep R1 ints in memory in canonical form, NReq=5719186.
 Requested convergence on RMS density matrix=1.00D-08 within 128 cycles.
 Requested convergence on MAX density matrix=1.00D-06.
 Requested convergence on             energy=1.00D-06.
 No special actions if energy rises.
 Integral accuracy reduced to 1.0D-05 until final iterations.
 Initial convergence to 1.0D-05 achieved.  Increase integral accuracy.
 SCF Done:  E(RM062X) =  -153.231728786     A.U. after   14 cycles
            NFock= 14  Conv=0.76D-08     -V/T= 2.0083

 **********************************************************************

            Population analysis using the SCF density.

 **********************************************************************

 Orbital symmetries:
       Occupied  (A) (A) (A) (A) (A) (A) (A) (A) (A) (A) (A) (A)
                 (A)
       Virtual   (A) (A) (A) (A) (A) (A) (A) (A) (A) (A) (A) (A)
                 (A) (A) (A) (A) (A) (A) (A) (A) (A) (A) (A) (A)
                 (A) (A) (A) (A) (A) (A) (A) (A) (A) (A) (A) (A)
                 (A) (A) (A) (A) (A) (A) (A) (A) (A) (A) (A) (A)
                 (A) (A) (A)
 The electronic state is 1-A.
 Alpha  occ. eigenvalues --  -10.62571 -10.62569 -10.58577 -10.58534  -0.95791
 Alpha  occ. eigenvalues --   -0.80908  -0.67556  -0.56398  -0.54609  -0.42494
 Alpha  occ. eigenvalues --   -0.38834  -0.34701  -0.29233
 Alpha virt. eigenvalues --   -0.09017  -0.01100  -0.00417   0.12064   0.16878
 Alpha virt. eigenvalues --    0.18771   0.30580   0.36032   0.44653   0.51243
 Alpha virt. eigenvalues --    0.55942   0.58003   0.59758   0.63023   0.65660
 Alpha virt. eigenvalues --    0.66355   0.66466   0.68278   0.72659   0.78552
 Alpha virt. eigenvalues --    0.84061   0.86858   0.91112   0.93831   1.01875
 Alpha virt. eigenvalues --    1.15442   1.31903   1.37229   1.43841   1.54205
 Alpha virt. eigenvalues --    1.62257   1.71892   1.76407   1.76964   1.87178
 Alpha virt. eigenvalues --    1.94543   2.00316   2.01162   2.23679   2.25577
 Alpha virt. eigenvalues --    2.31042   2.31242   2.45958   2.54507   2.68079
 Alpha virt. eigenvalues --    2.80822   2.89706   3.99546   4.04766   4.12398
 Alpha virt. eigenvalues --    4.41812
          Condensed to atoms (all electrons):
               1          2          3          4          5          6
     1  C    5.083834   0.367613   0.342678   0.546042  -0.017268  -0.064662
     2  C    0.367613   5.083827  -0.017267  -0.064662   0.342678   0.546045
     3  H    0.342678  -0.017267   0.448096  -0.017343  -0.005833   0.004161
     4  C    0.546042  -0.064662  -0.017343   5.485807   0.004161   0.033268
     5  H   -0.017268   0.342678  -0.005833   0.004161   0.448097  -0.017343
     6  C   -0.064662   0.546045   0.004161   0.033268  -0.017343   5.485805
 Mulliken charges:
               1
     1  C   -0.258237
     2  C   -0.258235
     3  H    0.245509
     4  C    0.012727
     5  H    0.245509
     6  C    0.012726
 Sum of Mulliken charges =  -0.00000
 Mulliken charges with hydrogens summed into heavy atoms:
               1
     1  C   -0.012728
     2  C   -0.012726
     4  C    0.012727
     6  C    0.012726
 Electronic spatial extent (au):  <R**2>=            198.2063
 Charge=             -0.0000 electrons
 Dipole moment (field-independent basis, Debye):
    X=              0.0000    Y=              3.7064    Z=              0.0004  Tot=              3.7064
 Quadrupole moment (field-independent basis, Debye-Ang):
   XX=            -21.6049   YY=            -24.0321   ZZ=            -25.3174
   XY=             -0.0000   XZ=              0.0004   YZ=              0.0001
 Traceless Quadrupole moment (field-independent basis, Debye-Ang):
   XX=              2.0466   YY=             -0.3806   ZZ=             -1.6659
   XY=             -0.0000   XZ=              0.0004   YZ=              0.0001
 Octapole moment (field-independent basis, Debye-Ang**2):
  XXX=              0.0000  YYY=             16.3244  ZZZ=              0.0005  XYY=              0.0000
  XXY=             10.2249  XXZ=              0.0011  XZZ=              0.0000  YZZ=              1.5346
  YYZ=              0.0014  XYZ=              0.0002
 Hexadecapole moment (field-independent basis, Debye-Ang**3):
 XXXX=           -151.8605 YYYY=           -100.7669 ZZZZ=            -26.9919 XXXY=             -0.0001
 XXXZ=             -0.0009 YYYX=              0.0000 YYYZ=             -0.0039 ZZZX=             -0.0026
 ZZZY=             -0.0041 XXYY=            -45.9812 XXZZ=            -34.6307 YYZZ=            -21.8122
 XXYZ=             -0.0013 YYXZ=             -0.0005 ZZXY=             -0.0000
 N-N= 7.969010474281D+01 E-N=-5.141692593292D+02  KE= 1.519700582586D+02
 1\1\GINC-NODE62\SP\RM062X\6-31G(d)\C4H2\YANZ\22-Sep-2023\0\\#m062x/6-3
 1g(d) scf=tight\\tmpdir/M2_ref_0.gjf\\0,1\C,0,5.735182,5.988274,4.9999
 35\C,0,4.264851,5.988299,4.99985\H,0,6.348911,6.881909,4.999874\C,0,6.
 177307,4.719241,5.00006\H,0,3.651162,6.881961,4.99973\C,0,3.822684,4.7
 19285,5.000001\\Version=ES64L-G16RevA.03\State=1-A\HF=-153.2317288\RMS
 D=7.613e-09\Dipole=0.0000253,1.4582,-0.0001523\Quadrupole=1.5215615,-0
 .2829811,-1.2385804,-0.0000277,0.000268,-0.0000881\PG=C01 [X(C4H2)]\\@


 OLD AGE AND TREACHERY WILL ALWAYS PREVAIL OVER YOUTH AND SKILL.
 Job cpu time:       0 days  0 hours  0 minutes 23.2 seconds.
 Elapsed time:       0 days  0 hours  0 minutes  6.1 seconds.
 File lengths (MBytes):  RWF=      6 Int=      0 D2E=      0 Chk=      1 Scr=      1
 Normal termination of Gaussian 16 at Fri Sep 22 17:01:04 2023.
