 Entering Gaussian System, Link 0=g16
 Initial command:
 /share/apps/gaussian/g16/l1.exe "/tmp/55613.mgr/Gau-178798.inp" -scrdir="/tmp/55613.mgr/"
 Entering Link 1 = /share/apps/gaussian/g16/l1.exe PID=    178799.
  
 Copyright (c) 1988,1990,1992,1993,1995,1998,2003,2009,2016,
            Gaussian, Inc.  All Rights Reserved.
  
 This is part of the Gaussian(R) 16 program.  It is based on
 the Gaussian(R) 09 system (copyright 2009, Gaussian, Inc.),
 the Gaussian(R) 03 system (copyright 2003, Gaussian, Inc.),
 the Gaussian(R) 98 system (copyright 1998, Gaussian, Inc.),
 the Gaussian(R) 94 system (copyright 1995, Gaussian, Inc.),
 the Gaussian 92(TM) system (copyright 1992, Gaussian, Inc.),
 the Gaussian 90(TM) system (copyright 1990, Gaussian, Inc.),
 the Gaussian 88(TM) system (copyright 1988, Gaussian, Inc.),
 the Gaussian 86(TM) system (copyright 1986, Carnegie Mellon
 University), and the Gaussian 82(TM) system (copyright 1983,
 Carnegie Mellon University). Gaussian is a federally registered
 trademark of Gaussian, Inc.
  
 This software contains proprietary and confidential information,
 including trade secrets, belonging to Gaussian, Inc.
  
 This software is provided under written license and may be
 used, copied, transmitted, or stored only in accord with that
 written license.
  
 The following legend is applicable only to US Government
 contracts under FAR:
  
                    RESTRICTED RIGHTS LEGEND
  
 Use, reproduction and disclosure by the US Government is
 subject to restrictions as set forth in subparagraphs (a)
 and (c) of the Commercial Computer Software - Restricted
 Rights clause in FAR 52.227-19.
  
 Gaussian, Inc.
 340 Quinnipiac St., Bldg. 40, Wallingford CT 06492
  
  
 ---------------------------------------------------------------
 Warning -- This program may not be used in any manner that
 competes with the business of Gaussian, Inc. or will provide
 assistance to any competitor of Gaussian, Inc.  The licensee
 of this program is prohibited from giving any competitor of
 Gaussian, Inc. access to this program.  By using this program,
 the user acknowledges that Gaussian, Inc. is engaged in the
 business of creating and licensing software in the field of
 computational chemistry and represents and warrants to the
 licensee that it is not a competitor of Gaussian, Inc. and that
 it will not use this program in any manner prohibited above.
 ---------------------------------------------------------------
  

 Cite this work as:
 Gaussian 16, Revision A.03,
 M. J. Frisch, G. W. Trucks, H. B. Schlegel, G. E. Scuseria, 
 M. A. Robb, J. R. Cheeseman, G. Scalmani, V. Barone, 
 G. A. Petersson, H. Nakatsuji, X. Li, M. Caricato, A. V. Marenich, 
 J. Bloino, B. G. Janesko, R. Gomperts, B. Mennucci, H. P. Hratchian, 
 J. V. Ortiz, A. F. Izmaylov, J. L. Sonnenberg, D. Williams-Young, 
 F. Ding, F. Lipparini, F. Egidi, J. Goings, B. Peng, A. Petrone, 
 T. Henderson, D. Ranasinghe, V. G. Zakrzewski, J. Gao, N. Rega, 
 G. Zheng, W. Liang, M. Hada, M. Ehara, K. Toyota, R. Fukuda, 
 J. Hasegawa, M. Ishida, T. Nakajima, Y. Honda, O. Kitao, H. Nakai, 
 T. Vreven, K. Throssell, J. A. Montgomery, Jr., J. E. Peralta, 
 F. Ogliaro, M. J. Bearpark, J. J. Heyd, E. N. Brothers, K. N. Kudin, 
 V. N. Staroverov, T. A. Keith, R. Kobayashi, J. Normand, 
 K. Raghavachari, A. P. Rendell, J. C. Burant, S. S. Iyengar, 
 J. Tomasi, M. Cossi, J. M. Millam, M. Klene, C. Adamo, R. Cammi, 
 J. W. Ochterski, R. L. Martin, K. Morokuma, O. Farkas, 
 J. B. Foresman, and D. J. Fox, Gaussian, Inc., Wallingford CT, 2016.
 
 ******************************************
 Gaussian 16:  ES64L-G16RevA.03 25-Dec-2016
                22-Sep-2023 
 ******************************************
 %nprocshared=4
 Will use up to    4 processors via shared memory.
 %mem=4GB
 -------------------------
 #m062x/6-31g(d) scf=tight
 -------------------------
 1/38=1,172=1/1;
 2/12=2,17=6,18=5,40=1/2;
 3/5=1,6=6,7=1,11=2,25=1,30=1,74=-55/1,2,3;
 4//1;
 5/5=2,32=2,38=5/2;
 6/7=2,8=2,9=2,10=2,28=1/1;
 99/5=1,9=1/99;
 --------------------
 tmpdir/M2_ref_28.gjf
 --------------------
 Symbolic Z-matrix:
 Charge =  0 Multiplicity = 1
 C                    -1.26211   0.87727  -0.00007 
 C                    -1.47462  -0.61823  -0.00004 
 H                    -2.05484  -0.9247   -0.87742 
 O                    -0.12625   1.18792  -0.00003 
 H                    -2.0976    1.5711   -0.0001 
 H                    -0.44471  -1.03811   0.00005 
 H                    -2.05497  -0.92464   0.87728 
 
                          Input orientation:                          
 ---------------------------------------------------------------------
 Center     Atomic      Atomic             Coordinates (Angstroms)
 Number     Number       Type             X           Y           Z
 ---------------------------------------------------------------------
      1          6           0       -1.262109    0.877267   -0.000068
      2          6           0       -1.474619   -0.618228   -0.000036
      3          1           0       -2.054841   -0.924698   -0.877419
      4          8           0       -0.126251    1.187919   -0.000035
      5          1           0       -2.097601    1.571098   -0.000099
      6          1           0       -0.444712   -1.038114    0.000051
      7          1           0       -2.054966   -0.924644    0.877284
 ---------------------------------------------------------------------
                    Distance matrix (angstroms):
                    1          2          3          4          5
     1  C    0.000000
     2  C    1.510518   0.000000
     3  H    2.155283   1.095620   0.000000
     4  O    1.177573   2.253944   2.992059   0.000000
     5  H    1.086024   2.276237   2.645849   2.008245   0.000000
     6  H    2.082504   1.112211   1.837207   2.248698   3.088694
     7  H    2.155285   1.095620   1.754703   2.992082   2.645817
                    6          7
     6  H    0.000000
     7  H    1.837207   0.000000
 Stoichiometry    C2H4O
 Framework group  C1[X(C2H4O)]
 Deg. of freedom    15
 Full point group                 C1      NOp   1
 Largest Abelian subgroup         C1      NOp   1
 Largest concise Abelian subgroup C1      NOp   1
                         Standard orientation:                         
 ---------------------------------------------------------------------
 Center     Atomic      Atomic             Coordinates (Angstroms)
 Number     Number       Type             X           Y           Z
 ---------------------------------------------------------------------
      1          6           0       -0.259597    0.470873    0.000023
      2          6           0        1.117222   -0.150443   -0.000009
      3          1           0        1.686744    0.175480    0.877374
      4          8           0       -1.130178   -0.322075   -0.000011
      5          1           0       -0.398194    1.548017    0.000054
      6          1           0        0.920355   -1.245092   -0.000096
      7          1           0        1.686766    0.175615   -0.877329
 ---------------------------------------------------------------------
 Rotational constants (GHZ):          49.8529941          11.4301765           9.8612918
 Standard basis: 6-31G(d) (6D, 7F)
 There are    53 symmetry adapted cartesian basis functions of A   symmetry.
 There are    53 symmetry adapted basis functions of A   symmetry.
    53 basis functions,   100 primitive gaussians,    53 cartesian basis functions
    12 alpha electrons       12 beta electrons
       nuclear repulsion energy        71.1607871053 Hartrees.
 NAtoms=    7 NActive=    7 NUniq=    7 SFac= 1.00D+00 NAtFMM=   60 NAOKFM=F Big=F
 Integral buffers will be    131072 words long.
 Raffenetti 2 integral format.
 Two-electron integral symmetry is turned on.
 One-electron integrals computed using PRISM.
 NBasis=    53 RedAO= T EigKep=  4.97D-03  NBF=    53
 NBsUse=    53 1.00D-06 EigRej= -1.00D+00 NBFU=    53
 ExpMin= 1.61D-01 ExpMax= 5.48D+03 ExpMxC= 8.25D+02 IAcc=3 IRadAn=         5 AccDes= 0.00D+00
 Harris functional with IExCor= 1009 and IRadAn=       5 diagonalized for initial guess.
 HarFok:  IExCor= 1009 AccDes= 0.00D+00 IRadAn=         5 IDoV= 1 UseB2=F ITyADJ=14
 ICtDFT=  3500011 ScaDFX=  1.000000  1.000000  1.000000  1.000000
 FoFCou: FMM=F IPFlag=           0 FMFlag=      100000 FMFlg1=           0
         NFxFlg=           0 DoJE=T BraDBF=F KetDBF=T FulRan=T
         wScrn=  0.000000 ICntrl=       500 IOpCl=  0 I1Cent=   200000004 NGrid=           0
         NMat0=    1 NMatS0=      1 NMatT0=    0 NMatD0=    1 NMtDS0=    0 NMtDT0=    0
 Petite list used in FoFCou.
 Keep R1 ints in memory in canonical form, NReq=4530250.
 Requested convergence on RMS density matrix=1.00D-08 within 128 cycles.
 Requested convergence on MAX density matrix=1.00D-06.
 Requested convergence on             energy=1.00D-06.
 No special actions if energy rises.
 Integral accuracy reduced to 1.0D-05 until final iterations.
 Initial convergence to 1.0D-05 achieved.  Increase integral accuracy.
 SCF Done:  E(RM062X) =  -153.743701260     A.U. after   14 cycles
            NFock= 14  Conv=0.27D-08     -V/T= 2.0072

 **********************************************************************

            Population analysis using the SCF density.

 **********************************************************************

 Orbital symmetries:
       Occupied  (A) (A) (A) (A) (A) (A) (A) (A) (A) (A) (A) (A)
       Virtual   (A) (A) (A) (A) (A) (A) (A) (A) (A) (A) (A) (A)
                 (A) (A) (A) (A) (A) (A) (A) (A) (A) (A) (A) (A)
                 (A) (A) (A) (A) (A) (A) (A) (A) (A) (A) (A) (A)
                 (A) (A) (A) (A) (A)
 The electronic state is 1-A.
 Alpha  occ. eigenvalues --  -19.63833 -10.63404 -10.54657  -1.18854  -0.83446
 Alpha  occ. eigenvalues --   -0.67095  -0.56291  -0.51318  -0.50464  -0.45990
 Alpha  occ. eigenvalues --   -0.43100  -0.32094
 Alpha virt. eigenvalues --    0.03911   0.16414   0.18068   0.20324   0.20709
 Alpha virt. eigenvalues --    0.28264   0.34398   0.57744   0.59318   0.64225
 Alpha virt. eigenvalues --    0.65800   0.73669   0.78271   0.82224   0.91463
 Alpha virt. eigenvalues --    0.92308   0.94734   0.98070   1.00360   1.06967
 Alpha virt. eigenvalues --    1.15804   1.25453   1.46478   1.50653   1.60151
 Alpha virt. eigenvalues --    1.72382   1.86556   1.87906   2.00198   2.12832
 Alpha virt. eigenvalues --    2.14040   2.22729   2.36117   2.38689   2.63839
 Alpha virt. eigenvalues --    2.64367   2.89573   3.02738   3.84458   4.10997
 Alpha virt. eigenvalues --    4.35390
          Condensed to atoms (all electrons):
               1          2          3          4          5          6
     1  C    4.551358   0.332093  -0.022358   0.593483   0.348132  -0.034920
     2  C    0.332093   5.398984   0.350253  -0.123222  -0.101948   0.364409
     3  H   -0.022358   0.350253   0.528603   0.002465   0.004467  -0.015952
     4  O    0.593483  -0.123222   0.002465   7.944703  -0.052105   0.009073
     5  H    0.348132  -0.101948   0.004467  -0.052105   0.655884   0.005005
     6  H   -0.034920   0.364409  -0.015952   0.009073   0.005005   0.488244
     7  H   -0.022358   0.350251  -0.025939   0.002465   0.004468  -0.015953
               7
     1  C   -0.022358
     2  C    0.350251
     3  H   -0.025939
     4  O    0.002465
     5  H    0.004468
     6  H   -0.015953
     7  H    0.528607
 Mulliken charges:
               1
     1  C    0.254570
     2  C   -0.570820
     3  H    0.178462
     4  O   -0.376863
     5  H    0.136097
     6  H    0.200094
     7  H    0.178459
 Sum of Mulliken charges =  -0.00000
 Mulliken charges with hydrogens summed into heavy atoms:
               1
     1  C    0.390667
     2  C   -0.013804
     4  O   -0.376863
 Electronic spatial extent (au):  <R**2>=            158.0035
 Charge=             -0.0000 electrons
 Dipole moment (field-independent basis, Debye):
    X=              1.9430    Y=              1.3923    Z=              0.0001  Tot=              2.3904
 Quadrupole moment (field-independent basis, Debye-Ang):
   XX=            -20.6045   YY=            -17.3857   ZZ=            -17.6980
   XY=             -0.9258   XZ=             -0.0000   YZ=              0.0000
 Traceless Quadrupole moment (field-independent basis, Debye-Ang):
   XX=             -2.0418   YY=              1.1771   ZZ=              0.8647
   XY=             -0.9258   XZ=             -0.0000   YZ=              0.0000
 Octapole moment (field-independent basis, Debye-Ang**2):
  XXX=             -0.7382  YYY=             -0.4961  ZZZ=              0.0001  XYY=             -1.5610
  XXY=              1.1778  XXZ=              0.0001  XZZ=             -0.9557  YZZ=              0.1073
  YYZ=             -0.0001  XYZ=             -0.0000
 Hexadecapole moment (field-independent basis, Debye-Ang**3):
 XXXX=           -134.7953 YYYY=            -42.0206 ZZZZ=            -22.2023 XXXY=              2.2504
 XXXZ=              0.0003 YYYX=             -0.2350 YYYZ=             -0.0002 ZZZX=              0.0004
 ZZZY=             -0.0005 XXYY=            -29.6075 XXZZ=            -23.4062 YYZZ=            -11.5910
 XXYZ=             -0.0003 YYXZ=             -0.0001 ZZXY=              1.2252
 N-N= 7.116078710528D+01 E-N=-5.015574802081D+02  KE= 1.526451668926D+02
 1\1\GINC-NODE62\SP\RM062X\6-31G(d)\C2H4O1\YANZ\22-Sep-2023\0\\#m062x/6
 -31g(d) scf=tight\\tmpdir/M2_ref_28.gjf\\0,1\C,0,-1.262109,0.877267,-0
 .000068\C,0,-1.474619,-0.618228,-0.000036\H,0,-2.054841,-0.924698,-0.8
 77419\O,0,-0.12625081,1.18791939,-0.0000345\H,0,-2.097601,1.571098,-0.
 000099\H,0,-0.44471237,-1.03811445,0.00005087\H,0,-2.054966,-0.924644,
 0.877284\\Version=ES64L-G16RevA.03\State=1-A\HF=-153.7437013\RMSD=2.65
 3e-09\Dipole=-0.8719789,-0.3522972,-0.0000235\Quadrupole=-0.4336011,-0
 .209297,0.6428981,-1.375838,0.0000103,-0.0000166\PG=C01 [X(C2H4O1)]\\@


 "TIGER, TIGER BURNING BRIGHT
 IN THE FOREST OF THE NIGHT.
 WHAT IMMORTAL HAND OR EYE
 CAN FRAME THY FEARFUL SYMMETRYE?"
                     - WILLIAM BLAKE
 Job cpu time:       0 days  0 hours  0 minutes 21.9 seconds.
 Elapsed time:       0 days  0 hours  0 minutes  5.7 seconds.
 File lengths (MBytes):  RWF=      6 Int=      0 D2E=      0 Chk=      1 Scr=      1
 Normal termination of Gaussian 16 at Fri Sep 22 17:01:26 2023.
