 Entering Gaussian System, Link 0=g16
 Initial command:
 /share/apps/gaussian/g16/l1.exe "/tmp/55613.mgr/Gau-177787.inp" -scrdir="/tmp/55613.mgr/"
 Entering Link 1 = /share/apps/gaussian/g16/l1.exe PID=    177794.
  
 Copyright (c) 1988,1990,1992,1993,1995,1998,2003,2009,2016,
            Gaussian, Inc.  All Rights Reserved.
  
 This is part of the Gaussian(R) 16 program.  It is based on
 the Gaussian(R) 09 system (copyright 2009, Gaussian, Inc.),
 the Gaussian(R) 03 system (copyright 2003, Gaussian, Inc.),
 the Gaussian(R) 98 system (copyright 1998, Gaussian, Inc.),
 the Gaussian(R) 94 system (copyright 1995, Gaussian, Inc.),
 the Gaussian 92(TM) system (copyright 1992, Gaussian, Inc.),
 the Gaussian 90(TM) system (copyright 1990, Gaussian, Inc.),
 the Gaussian 88(TM) system (copyright 1988, Gaussian, Inc.),
 the Gaussian 86(TM) system (copyright 1986, Carnegie Mellon
 University), and the Gaussian 82(TM) system (copyright 1983,
 Carnegie Mellon University). Gaussian is a federally registered
 trademark of Gaussian, Inc.
  
 This software contains proprietary and confidential information,
 including trade secrets, belonging to Gaussian, Inc.
  
 This software is provided under written license and may be
 used, copied, transmitted, or stored only in accord with that
 written license.
  
 The following legend is applicable only to US Government
 contracts under FAR:
  
                    RESTRICTED RIGHTS LEGEND
  
 Use, reproduction and disclosure by the US Government is
 subject to restrictions as set forth in subparagraphs (a)
 and (c) of the Commercial Computer Software - Restricted
 Rights clause in FAR 52.227-19.
  
 Gaussian, Inc.
 340 Quinnipiac St., Bldg. 40, Wallingford CT 06492
  
  
 ---------------------------------------------------------------
 Warning -- This program may not be used in any manner that
 competes with the business of Gaussian, Inc. or will provide
 assistance to any competitor of Gaussian, Inc.  The licensee
 of this program is prohibited from giving any competitor of
 Gaussian, Inc. access to this program.  By using this program,
 the user acknowledges that Gaussian, Inc. is engaged in the
 business of creating and licensing software in the field of
 computational chemistry and represents and warrants to the
 licensee that it is not a competitor of Gaussian, Inc. and that
 it will not use this program in any manner prohibited above.
 ---------------------------------------------------------------
  

 Cite this work as:
 Gaussian 16, Revision A.03,
 M. J. Frisch, G. W. Trucks, H. B. Schlegel, G. E. Scuseria, 
 M. A. Robb, J. R. Cheeseman, G. Scalmani, V. Barone, 
 G. A. Petersson, H. Nakatsuji, X. Li, M. Caricato, A. V. Marenich, 
 J. Bloino, B. G. Janesko, R. Gomperts, B. Mennucci, H. P. Hratchian, 
 J. V. Ortiz, A. F. Izmaylov, J. L. Sonnenberg, D. Williams-Young, 
 F. Ding, F. Lipparini, F. Egidi, J. Goings, B. Peng, A. Petrone, 
 T. Henderson, D. Ranasinghe, V. G. Zakrzewski, J. Gao, N. Rega, 
 G. Zheng, W. Liang, M. Hada, M. Ehara, K. Toyota, R. Fukuda, 
 J. Hasegawa, M. Ishida, T. Nakajima, Y. Honda, O. Kitao, H. Nakai, 
 T. Vreven, K. Throssell, J. A. Montgomery, Jr., J. E. Peralta, 
 F. Ogliaro, M. J. Bearpark, J. J. Heyd, E. N. Brothers, K. N. Kudin, 
 V. N. Staroverov, T. A. Keith, R. Kobayashi, J. Normand, 
 K. Raghavachari, A. P. Rendell, J. C. Burant, S. S. Iyengar, 
 J. Tomasi, M. Cossi, J. M. Millam, M. Klene, C. Adamo, R. Cammi, 
 J. W. Ochterski, R. L. Martin, K. Morokuma, O. Farkas, 
 J. B. Foresman, and D. J. Fox, Gaussian, Inc., Wallingford CT, 2016.
 
 ******************************************
 Gaussian 16:  ES64L-G16RevA.03 25-Dec-2016
                22-Sep-2023 
 ******************************************
 %nprocshared=4
 Will use up to    4 processors via shared memory.
 %mem=4GB
 -------------------------
 #m062x/6-31g(d) scf=tight
 -------------------------
 1/38=1,172=1/1;
 2/12=2,17=6,18=5,40=1/2;
 3/5=1,6=6,7=1,11=2,25=1,30=1,74=-55/1,2,3;
 4//1;
 5/5=2,32=2,38=5/2;
 6/7=2,8=2,9=2,10=2,28=1/1;
 99/5=1,9=1/99;
 -------------------
 tmpdir/M2_ref_3.gjf
 -------------------
 Symbolic Z-matrix:
 Charge =  0 Multiplicity = 1
 C                     4.26485   5.9883    4.99985 
 C                     5.73518   5.98827   4.99994 
 H                     6.34891   6.88191   4.99987 
 H                     3.65116   6.88196   4.99973 
 O                     3.87503   4.86952   4.99998 
 O                     6.12497   4.86947   5.00005 
 
                          Input orientation:                          
 ---------------------------------------------------------------------
 Center     Atomic      Atomic             Coordinates (Angstroms)
 Number     Number       Type             X           Y           Z
 ---------------------------------------------------------------------
      1          6           0        4.264851    5.988299    4.999850
      2          6           0        5.735182    5.988274    4.999935
      3          1           0        6.348911    6.881909    4.999874
      4          1           0        3.651162    6.881961    4.999730
      5          8           0        3.875030    4.869516    4.999983
      6          8           0        6.124966    4.869474    5.000045
 ---------------------------------------------------------------------
                    Distance matrix (angstroms):
                    1          2          3          4          5
     1  C    0.000000
     2  C    1.470331   0.000000
     3  H    2.267564   1.084088   0.000000
     4  H    1.084088   2.267557   2.697749   0.000000
     5  O    1.184752   2.170665   3.189015   2.024858   0.000000
     6  O    2.170668   1.184755   2.024857   3.189014   2.249937
                    6
     6  O    0.000000
 Stoichiometry    C2H2O2
 Framework group  C1[X(C2H2O2)]
 Deg. of freedom    12
 Full point group                 C1      NOp   1
 Largest Abelian subgroup         C1      NOp   1
 Largest concise Abelian subgroup C1      NOp   1
                         Standard orientation:                         
 ---------------------------------------------------------------------
 Center     Atomic      Atomic             Coordinates (Angstroms)
 Number     Number       Type             X           Y           Z
 ---------------------------------------------------------------------
      1          6           0        0.735167    0.537111    0.000101
      2          6           0       -0.735164    0.537113    0.000016
      3          1           0       -1.348876    1.430760    0.000077
      4          1           0        1.348873    1.430761    0.000221
      5          8           0        1.124968   -0.581679   -0.000032
      6          8           0       -1.124969   -0.581679   -0.000094
 ---------------------------------------------------------------------
 Rotational constants (GHZ):          23.2514944           8.8471299           6.4086544
 Standard basis: 6-31G(d) (6D, 7F)
 There are    64 symmetry adapted cartesian basis functions of A   symmetry.
 There are    64 symmetry adapted basis functions of A   symmetry.
    64 basis functions,   120 primitive gaussians,    64 cartesian basis functions
    15 alpha electrons       15 beta electrons
       nuclear repulsion energy       109.9820915936 Hartrees.
 NAtoms=    6 NActive=    6 NUniq=    6 SFac= 1.00D+00 NAtFMM=   60 NAOKFM=F Big=F
 Integral buffers will be    131072 words long.
 Raffenetti 2 integral format.
 Two-electron integral symmetry is turned on.
 One-electron integrals computed using PRISM.
 NBasis=    64 RedAO= T EigKep=  2.30D-03  NBF=    64
 NBsUse=    64 1.00D-06 EigRej= -1.00D+00 NBFU=    64
 ExpMin= 1.61D-01 ExpMax= 5.48D+03 ExpMxC= 8.25D+02 IAcc=3 IRadAn=         5 AccDes= 0.00D+00
 Harris functional with IExCor= 1009 and IRadAn=       5 diagonalized for initial guess.
 HarFok:  IExCor= 1009 AccDes= 0.00D+00 IRadAn=         5 IDoV= 1 UseB2=F ITyADJ=14
 ICtDFT=  3500011 ScaDFX=  1.000000  1.000000  1.000000  1.000000
 FoFCou: FMM=F IPFlag=           0 FMFlag=      100000 FMFlg1=           0
         NFxFlg=           0 DoJE=T BraDBF=F KetDBF=T FulRan=T
         wScrn=  0.000000 ICntrl=       500 IOpCl=  0 I1Cent=   200000004 NGrid=           0
         NMat0=    1 NMatS0=      1 NMatT0=    0 NMatD0=    1 NMtDS0=    0 NMtDT0=    0
 Petite list used in FoFCou.
 Keep R1 ints in memory in canonical form, NReq=5719186.
 Requested convergence on RMS density matrix=1.00D-08 within 128 cycles.
 Requested convergence on MAX density matrix=1.00D-06.
 Requested convergence on             energy=1.00D-06.
 No special actions if energy rises.
 Integral accuracy reduced to 1.0D-05 until final iterations.
 Initial convergence to 1.0D-05 achieved.  Increase integral accuracy.
 SCF Done:  E(RM062X) =  -227.690873762     A.U. after   14 cycles
            NFock= 14  Conv=0.28D-08     -V/T= 2.0060

 **********************************************************************

            Population analysis using the SCF density.

 **********************************************************************

 Orbital symmetries:
       Occupied  (A) (A) (A) (A) (A) (A) (A) (A) (A) (A) (A) (A)
                 (A) (A) (A)
       Virtual   (A) (A) (A) (A) (A) (A) (A) (A) (A) (A) (A) (A)
                 (A) (A) (A) (A) (A) (A) (A) (A) (A) (A) (A) (A)
                 (A) (A) (A) (A) (A) (A) (A) (A) (A) (A) (A) (A)
                 (A) (A) (A) (A) (A) (A) (A) (A) (A) (A) (A) (A)
                 (A)
 The electronic state is 1-A.
 Alpha  occ. eigenvalues --  -19.66294 -19.66293 -10.64626 -10.64580  -1.23680
 Alpha  occ. eigenvalues --   -1.17562  -0.80319  -0.65941  -0.63681  -0.54950
 Alpha  occ. eigenvalues --   -0.52811  -0.52461  -0.44361  -0.36539  -0.34001
 Alpha virt. eigenvalues --   -0.05062   0.09692   0.17248   0.17619   0.23775
 Alpha virt. eigenvalues --    0.33410   0.42646   0.54644   0.55202   0.61330
 Alpha virt. eigenvalues --    0.72208   0.73251   0.78293   0.85831   0.88062
 Alpha virt. eigenvalues --    0.90081   0.90184   0.98873   0.99679   1.03047
 Alpha virt. eigenvalues --    1.10424   1.15106   1.25902   1.26154   1.35141
 Alpha virt. eigenvalues --    1.51431   1.63542   1.71844   1.74547   1.77128
 Alpha virt. eigenvalues --    1.79888   1.91430   2.05382   2.08595   2.14554
 Alpha virt. eigenvalues --    2.25236   2.31219   2.38221   2.53663   2.55602
 Alpha virt. eigenvalues --    2.68612   2.74676   2.97690   3.05041   3.14573
 Alpha virt. eigenvalues --    3.73154   4.04141   4.15881   4.34280
          Condensed to atoms (all electrons):
               1          2          3          4          5          6
     1  C    4.829845   0.274880  -0.082383   0.341172   0.562418  -0.095098
     2  C    0.274880   4.829854   0.341172  -0.082384  -0.095099   0.562415
     3  H   -0.082383   0.341172   0.614050   0.009186   0.004224  -0.042772
     4  H    0.341172  -0.082384   0.009186   0.614052  -0.042772   0.004224
     5  O    0.562418  -0.095099   0.004224  -0.042772   7.934247  -0.037332
     6  O   -0.095098   0.562415  -0.042772   0.004224  -0.037332   7.934252
 Mulliken charges:
               1
     1  C    0.169166
     2  C    0.169163
     3  H    0.156523
     4  H    0.156523
     5  O   -0.325686
     6  O   -0.325688
 Sum of Mulliken charges =  -0.00000
 Mulliken charges with hydrogens summed into heavy atoms:
               1
     1  C    0.325688
     2  C    0.325686
     5  O   -0.325686
     6  O   -0.325688
 Electronic spatial extent (au):  <R**2>=            203.7413
 Charge=             -0.0000 electrons
 Dipole moment (field-independent basis, Debye):
    X=              0.0000    Y=              3.7626    Z=              0.0004  Tot=              3.7626
 Quadrupole moment (field-independent basis, Debye-Ang):
   XX=            -23.9856   YY=            -21.0738   ZZ=            -20.7942
   XY=             -0.0000   XZ=             -0.0001   YZ=             -0.0000
 Traceless Quadrupole moment (field-independent basis, Debye-Ang):
   XX=             -2.0344   YY=              0.8774   ZZ=              1.1570
   XY=             -0.0000   XZ=             -0.0001   YZ=             -0.0000
 Octapole moment (field-independent basis, Debye-Ang**2):
  XXX=              0.0000  YYY=             -0.8907  ZZZ=             -0.0005  XYY=             -0.0000
  XXY=              4.1268  XXZ=              0.0004  XZZ=              0.0000  YZZ=             -1.4373
  YYZ=              0.0002  XYZ=              0.0002
 Hexadecapole moment (field-independent basis, Debye-Ang**3):
 XXXX=           -153.6236 YYYY=            -71.8224 ZZZZ=            -16.5029 XXXY=             -0.0001
 XXXZ=             -0.0027 YYYX=             -0.0000 YYYZ=             -0.0029 ZZZX=             -0.0025
 ZZZY=             -0.0031 XXYY=            -35.0039 XXZZ=            -26.7378 YYZZ=            -15.0109
 XXYZ=             -0.0009 YYXZ=             -0.0007 ZZXY=              0.0000
 N-N= 1.099820915936D+02 E-N=-7.545029125818D+02  KE= 2.263434590275D+02
 1\1\GINC-NODE62\SP\RM062X\6-31G(d)\C2H2O2\YANZ\22-Sep-2023\0\\#m062x/6
 -31g(d) scf=tight\\tmpdir/M2_ref_3.gjf\\0,1\C,0,4.264851,5.988299,4.99
 985\C,0,5.735182,5.988274,4.999935\H,0,6.348911,6.881909,4.999874\H,0,
 3.651162,6.881961,4.99973\O,0,3.8750295,4.86951595,4.99998312\O,0,6.12
 496647,4.8694742,5.0000452\\Version=ES64L-G16RevA.03\State=1-A\HF=-227
 .6908738\RMSD=2.786e-09\Dipole=0.0000223,1.4803179,-0.0001592\Quadrupo
 le=-1.5125484,0.6523459,0.8602025,0.0000473,-0.0000374,0.0000255\PG=C0
 1 [X(C2H2O2)]\\@


 OLD AGE AND TREACHERY WILL ALWAYS PREVAIL OVER YOUTH AND SKILL.
 Job cpu time:       0 days  0 hours  0 minutes 23.2 seconds.
 Elapsed time:       0 days  0 hours  0 minutes  6.1 seconds.
 File lengths (MBytes):  RWF=      6 Int=      0 D2E=      0 Chk=      1 Scr=      1
 Normal termination of Gaussian 16 at Fri Sep 22 17:01:04 2023.
