 Entering Gaussian System, Link 0=g16
 Initial command:
 /share/apps/gaussian/g16/l1.exe "/tmp/55613.mgr/Gau-178368.inp" -scrdir="/tmp/55613.mgr/"
 Entering Link 1 = /share/apps/gaussian/g16/l1.exe PID=    178369.
  
 Copyright (c) 1988,1990,1992,1993,1995,1998,2003,2009,2016,
            Gaussian, Inc.  All Rights Reserved.
  
 This is part of the Gaussian(R) 16 program.  It is based on
 the Gaussian(R) 09 system (copyright 2009, Gaussian, Inc.),
 the Gaussian(R) 03 system (copyright 2003, Gaussian, Inc.),
 the Gaussian(R) 98 system (copyright 1998, Gaussian, Inc.),
 the Gaussian(R) 94 system (copyright 1995, Gaussian, Inc.),
 the Gaussian 92(TM) system (copyright 1992, Gaussian, Inc.),
 the Gaussian 90(TM) system (copyright 1990, Gaussian, Inc.),
 the Gaussian 88(TM) system (copyright 1988, Gaussian, Inc.),
 the Gaussian 86(TM) system (copyright 1986, Carnegie Mellon
 University), and the Gaussian 82(TM) system (copyright 1983,
 Carnegie Mellon University). Gaussian is a federally registered
 trademark of Gaussian, Inc.
  
 This software contains proprietary and confidential information,
 including trade secrets, belonging to Gaussian, Inc.
  
 This software is provided under written license and may be
 used, copied, transmitted, or stored only in accord with that
 written license.
  
 The following legend is applicable only to US Government
 contracts under FAR:
  
                    RESTRICTED RIGHTS LEGEND
  
 Use, reproduction and disclosure by the US Government is
 subject to restrictions as set forth in subparagraphs (a)
 and (c) of the Commercial Computer Software - Restricted
 Rights clause in FAR 52.227-19.
  
 Gaussian, Inc.
 340 Quinnipiac St., Bldg. 40, Wallingford CT 06492
  
  
 ---------------------------------------------------------------
 Warning -- This program may not be used in any manner that
 competes with the business of Gaussian, Inc. or will provide
 assistance to any competitor of Gaussian, Inc.  The licensee
 of this program is prohibited from giving any competitor of
 Gaussian, Inc. access to this program.  By using this program,
 the user acknowledges that Gaussian, Inc. is engaged in the
 business of creating and licensing software in the field of
 computational chemistry and represents and warrants to the
 licensee that it is not a competitor of Gaussian, Inc. and that
 it will not use this program in any manner prohibited above.
 ---------------------------------------------------------------
  

 Cite this work as:
 Gaussian 16, Revision A.03,
 M. J. Frisch, G. W. Trucks, H. B. Schlegel, G. E. Scuseria, 
 M. A. Robb, J. R. Cheeseman, G. Scalmani, V. Barone, 
 G. A. Petersson, H. Nakatsuji, X. Li, M. Caricato, A. V. Marenich, 
 J. Bloino, B. G. Janesko, R. Gomperts, B. Mennucci, H. P. Hratchian, 
 J. V. Ortiz, A. F. Izmaylov, J. L. Sonnenberg, D. Williams-Young, 
 F. Ding, F. Lipparini, F. Egidi, J. Goings, B. Peng, A. Petrone, 
 T. Henderson, D. Ranasinghe, V. G. Zakrzewski, J. Gao, N. Rega, 
 G. Zheng, W. Liang, M. Hada, M. Ehara, K. Toyota, R. Fukuda, 
 J. Hasegawa, M. Ishida, T. Nakajima, Y. Honda, O. Kitao, H. Nakai, 
 T. Vreven, K. Throssell, J. A. Montgomery, Jr., J. E. Peralta, 
 F. Ogliaro, M. J. Bearpark, J. J. Heyd, E. N. Brothers, K. N. Kudin, 
 V. N. Staroverov, T. A. Keith, R. Kobayashi, J. Normand, 
 K. Raghavachari, A. P. Rendell, J. C. Burant, S. S. Iyengar, 
 J. Tomasi, M. Cossi, J. M. Millam, M. Klene, C. Adamo, R. Cammi, 
 J. W. Ochterski, R. L. Martin, K. Morokuma, O. Farkas, 
 J. B. Foresman, and D. J. Fox, Gaussian, Inc., Wallingford CT, 2016.
 
 ******************************************
 Gaussian 16:  ES64L-G16RevA.03 25-Dec-2016
                22-Sep-2023 
 ******************************************
 %nprocshared=4
 Will use up to    4 processors via shared memory.
 %mem=4GB
 -------------------------
 #m062x/6-31g(d) scf=tight
 -------------------------
 1/38=1,172=1/1;
 2/12=2,17=6,18=5,40=1/2;
 3/5=1,6=6,7=1,11=2,25=1,30=1,74=-55/1,2,3;
 4//1;
 5/5=2,32=2,38=5/2;
 6/7=2,8=2,9=2,10=2,28=1/1;
 99/5=1,9=1/99;
 --------------------
 tmpdir/M2_ref_11.gjf
 --------------------
 Symbolic Z-matrix:
 Charge =  0 Multiplicity = 1
 C                    -0.05187  -1.19827   0.00008 
 C                    -1.47462  -0.61823  -0.00004 
 H                     0.16276  -1.81089  -0.87961 
 H                     0.16268  -1.8106    0.88 
 H                     0.62478  -0.31883  -0.00001 
 H                    -1.32079   0.46434  -0.00006 
 H                    -2.05497  -0.92464   0.87728 
 H                    -2.05484  -0.9247   -0.87742 
 
                          Input orientation:                          
 ---------------------------------------------------------------------
 Center     Atomic      Atomic             Coordinates (Angstroms)
 Number     Number       Type             X           Y           Z
 ---------------------------------------------------------------------
      1          6           0       -0.051872   -1.198273    0.000084
      2          6           0       -1.474619   -0.618228   -0.000036
      3          1           0        0.162755   -1.810889   -0.879613
      4          1           0        0.162681   -1.810604    0.880002
      5          1           0        0.624776   -0.318828   -0.000009
      6          1           0       -1.320786    0.464340   -0.000059
      7          1           0       -2.054966   -0.924644    0.877284
      8          1           0       -2.054841   -0.924698   -0.877419
 ---------------------------------------------------------------------
                    Distance matrix (angstroms):
                    1          2          3          4          5
     1  C    0.000000
     2  C    1.536444   0.000000
     3  H    1.093266   2.208413   0.000000
     4  H    1.093269   2.208388   1.759615   0.000000
     5  H    1.109629   2.120637   1.792600   1.792582   0.000000
     6  H    2.091512   1.093443   2.855026   2.854917   2.097275
     7  H    2.203801   1.095620   2.964861   2.388073   2.884038
     8  H    2.203801   1.095620   2.388110   2.964922   2.883969
                    6          7          8
     6  H    0.000000
     7  H    1.799452   0.000000
     8  H    1.799451   1.754703   0.000000
 Stoichiometry    C2H6
 Framework group  C1[X(C2H6)]
 Deg. of freedom    18
 Full point group                 C1      NOp   1
 Largest Abelian subgroup         C1      NOp   1
 Largest concise Abelian subgroup C1      NOp   1
                         Standard orientation:                         
 ---------------------------------------------------------------------
 Center     Atomic      Atomic             Coordinates (Angstroms)
 Number     Number       Type             X           Y           Z
 ---------------------------------------------------------------------
      1          6           0        0.765663   -0.013112    0.000058
      2          6           0       -0.770753   -0.003791   -0.000062
      3          1           0        1.192728   -0.501967   -0.879639
      4          1           0        1.192553   -0.501730    0.879976
      5          1           0        1.066712    1.054899   -0.000036
      6          1           0       -1.030560    1.058338   -0.000085
      7          1           0       -1.195517   -0.504060    0.877258
      8          1           0       -1.195381   -0.504063   -0.877445
 ---------------------------------------------------------------------
 Rotational constants (GHZ):          79.1668784          20.0227904          19.8965313
 Standard basis: 6-31G(d) (6D, 7F)
 There are    42 symmetry adapted cartesian basis functions of A   symmetry.
 There are    42 symmetry adapted basis functions of A   symmetry.
    42 basis functions,    80 primitive gaussians,    42 cartesian basis functions
     9 alpha electrons        9 beta electrons
       nuclear repulsion energy        42.1116044507 Hartrees.
 NAtoms=    8 NActive=    8 NUniq=    8 SFac= 1.00D+00 NAtFMM=   60 NAOKFM=F Big=F
 Integral buffers will be    131072 words long.
 Raffenetti 2 integral format.
 Two-electron integral symmetry is turned on.
 One-electron integrals computed using PRISM.
 NBasis=    42 RedAO= T EigKep=  8.02D-03  NBF=    42
 NBsUse=    42 1.00D-06 EigRej= -1.00D+00 NBFU=    42
 ExpMin= 1.61D-01 ExpMax= 3.05D+03 ExpMxC= 4.57D+02 IAcc=3 IRadAn=         5 AccDes= 0.00D+00
 Harris functional with IExCor= 1009 and IRadAn=       5 diagonalized for initial guess.
 HarFok:  IExCor= 1009 AccDes= 0.00D+00 IRadAn=         5 IDoV= 1 UseB2=F ITyADJ=14
 ICtDFT=  3500011 ScaDFX=  1.000000  1.000000  1.000000  1.000000
 FoFCou: FMM=F IPFlag=           0 FMFlag=      100000 FMFlg1=           0
         NFxFlg=           0 DoJE=T BraDBF=F KetDBF=T FulRan=T
         wScrn=  0.000000 ICntrl=       500 IOpCl=  0 I1Cent=   200000004 NGrid=           0
         NMat0=    1 NMatS0=      1 NMatT0=    0 NMatD0=    1 NMtDS0=    0 NMtDT0=    0
 Petite list used in FoFCou.
 Keep R1 ints in memory in canonical form, NReq=3864510.
 Requested convergence on RMS density matrix=1.00D-08 within 128 cycles.
 Requested convergence on MAX density matrix=1.00D-06.
 Requested convergence on             energy=1.00D-06.
 No special actions if energy rises.
 Integral accuracy reduced to 1.0D-05 until final iterations.
 Initial convergence to 1.0D-05 achieved.  Increase integral accuracy.
 SCF Done:  E(RM062X) =  -79.7639201413     A.U. after   11 cycles
            NFock= 11  Conv=0.29D-08     -V/T= 2.0095

 **********************************************************************

            Population analysis using the SCF density.

 **********************************************************************

 Orbital symmetries:
       Occupied  (A) (A) (A) (A) (A) (A) (A) (A) (A)
       Virtual   (A) (A) (A) (A) (A) (A) (A) (A) (A) (A) (A) (A)
                 (A) (A) (A) (A) (A) (A) (A) (A) (A) (A) (A) (A)
                 (A) (A) (A) (A) (A) (A) (A) (A) (A)
 The electronic state is 1-A.
 Alpha  occ. eigenvalues --  -10.52952 -10.52881  -0.84339  -0.69279  -0.50730
 Alpha  occ. eigenvalues --   -0.49581  -0.41538  -0.39785  -0.39698
 Alpha virt. eigenvalues --    0.14562   0.17906   0.17985   0.20785   0.28164
 Alpha virt. eigenvalues --    0.28752   0.29538   0.56232   0.57751   0.59714
 Alpha virt. eigenvalues --    0.71319   0.73289   0.74715   0.92155   0.92397
 Alpha virt. eigenvalues --    0.97865   0.98464   0.99526   1.04955   1.07631
 Alpha virt. eigenvalues --    1.49172   1.53452   1.55428   1.97640   2.10273
 Alpha virt. eigenvalues --    2.17052   2.17549   2.20727   2.41670   2.48295
 Alpha virt. eigenvalues --    2.61844   4.16877   4.42055
          Condensed to atoms (all electrons):
               1          2          3          4          5          6
     1  C    5.098826   0.328403   0.388756   0.388756   0.394213  -0.046289
     2  C    0.328403   5.091502  -0.032710  -0.032713  -0.044722   0.396061
     3  H    0.388756  -0.032710   0.539604  -0.029609  -0.027170   0.003270
     4  H    0.388756  -0.032713  -0.029609   0.539611  -0.027172   0.003269
     5  H    0.394213  -0.044722  -0.027170  -0.027172   0.557124  -0.014211
     6  H   -0.046289   0.396061   0.003270   0.003269  -0.014211   0.547775
     7  H   -0.032960   0.389028   0.002801  -0.008611   0.003147  -0.025616
     8  H   -0.032960   0.389027  -0.008610   0.002802   0.003146  -0.025615
               7          8
     1  C   -0.032960  -0.032960
     2  C    0.389028   0.389027
     3  H    0.002801  -0.008610
     4  H   -0.008611   0.002802
     5  H    0.003147   0.003146
     6  H   -0.025616  -0.025615
     7  H    0.539783  -0.030715
     8  H   -0.030715   0.539781
 Mulliken charges:
               1
     1  C   -0.486746
     2  C   -0.483875
     3  H    0.163669
     4  H    0.163667
     5  H    0.155643
     6  H    0.161354
     7  H    0.163143
     8  H    0.163144
 Sum of Mulliken charges =   0.00000
 Mulliken charges with hydrogens summed into heavy atoms:
               1
     1  C   -0.003767
     2  C    0.003767
 Electronic spatial extent (au):  <R**2>=            109.4865
 Charge=              0.0000 electrons
 Dipole moment (field-independent basis, Debye):
    X=             -0.0004    Y=              0.0027    Z=              0.0000  Tot=              0.0027
 Quadrupole moment (field-independent basis, Debye-Ang):
   XX=            -15.5520   YY=            -14.5656   ZZ=            -14.7499
   XY=              0.0335   XZ=             -0.0001   YZ=              0.0000
 Traceless Quadrupole moment (field-independent basis, Debye-Ang):
   XX=             -0.5961   YY=              0.3902   ZZ=              0.2059
   XY=              0.0335   XZ=             -0.0001   YZ=              0.0000
 Octapole moment (field-independent basis, Debye-Ang**2):
  XXX=              0.0384  YYY=              1.2319  ZZZ=              0.0002  XYY=             -0.0467
  XXY=             -0.6499  XXZ=             -0.0000  XZZ=              0.0078  YZZ=             -1.0814
  YYZ=             -0.0002  XYZ=              0.0001
 Hexadecapole moment (field-independent basis, Debye-Ang**3):
 XXXX=            -93.1832 YYYY=            -28.4863 ZZZZ=            -28.2981 XXXY=              0.0899
 XXXZ=             -0.0030 YYYX=              0.0068 YYYZ=              0.0000 ZZZX=             -0.0020
 ZZZY=              0.0000 XXYY=            -19.4393 XXZZ=            -18.8031 YYZZ=             -9.5476
 XXYZ=              0.0001 YYXZ=             -0.0010 ZZXY=              0.0035
 N-N= 4.211160445071D+01 E-N=-2.679978680247D+02  KE= 7.901113593970D+01
 1\1\GINC-NODE62\SP\RM062X\6-31G(d)\C2H6\YANZ\22-Sep-2023\0\\#m062x/6-3
 1g(d) scf=tight\\tmpdir/M2_ref_11.gjf\\0,1\C,0,-0.051872,-1.198273,0.0
 00084\C,0,-1.474619,-0.618228,-0.000036\H,0,0.162755,-1.810889,-0.8796
 13\H,0,0.162681,-1.810604,0.880002\H,0,0.6247761,-0.31882752,-0.000009
 38\H,0,-1.32078599,0.46433989,-0.00005916\H,0,-2.054966,-0.924644,0.87
 7284\H,0,-2.054841,-0.924698,-0.877419\\Version=ES64L-G16RevA.03\State
 =1-A\HF=-79.7639201\RMSD=2.893e-09\Dipole=0.0002649,0.0010483,0.000003
 5\Quadrupole=-0.3245686,0.1714612,0.1531073,0.2711953,-0.000032,0.0000
 334\PG=C01 [X(C2H6)]\\@


 SCIENCE AT ITS BEST PROVIDES US WITH BETTER QUESTIONS, 
 NOT ABSOLUTE ANSWERS

                                    -- NORMAN COUSINS, 1976
 Job cpu time:       0 days  0 hours  0 minutes 17.4 seconds.
 Elapsed time:       0 days  0 hours  0 minutes  4.5 seconds.
 File lengths (MBytes):  RWF=      6 Int=      0 D2E=      0 Chk=      1 Scr=      1
 Normal termination of Gaussian 16 at Fri Sep 22 17:01:14 2023.
