 Entering Gaussian System, Link 0=g16
 Initial command:
 /share/apps/gaussian/g16/l1.exe "/tmp/55613.mgr/Gau-179833.inp" -scrdir="/tmp/55613.mgr/"
 Entering Link 1 = /share/apps/gaussian/g16/l1.exe PID=    179834.
  
 Copyright (c) 1988,1990,1992,1993,1995,1998,2003,2009,2016,
            Gaussian, Inc.  All Rights Reserved.
  
 This is part of the Gaussian(R) 16 program.  It is based on
 the Gaussian(R) 09 system (copyright 2009, Gaussian, Inc.),
 the Gaussian(R) 03 system (copyright 2003, Gaussian, Inc.),
 the Gaussian(R) 98 system (copyright 1998, Gaussian, Inc.),
 the Gaussian(R) 94 system (copyright 1995, Gaussian, Inc.),
 the Gaussian 92(TM) system (copyright 1992, Gaussian, Inc.),
 the Gaussian 90(TM) system (copyright 1990, Gaussian, Inc.),
 the Gaussian 88(TM) system (copyright 1988, Gaussian, Inc.),
 the Gaussian 86(TM) system (copyright 1986, Carnegie Mellon
 University), and the Gaussian 82(TM) system (copyright 1983,
 Carnegie Mellon University). Gaussian is a federally registered
 trademark of Gaussian, Inc.
  
 This software contains proprietary and confidential information,
 including trade secrets, belonging to Gaussian, Inc.
  
 This software is provided under written license and may be
 used, copied, transmitted, or stored only in accord with that
 written license.
  
 The following legend is applicable only to US Government
 contracts under FAR:
  
                    RESTRICTED RIGHTS LEGEND
  
 Use, reproduction and disclosure by the US Government is
 subject to restrictions as set forth in subparagraphs (a)
 and (c) of the Commercial Computer Software - Restricted
 Rights clause in FAR 52.227-19.
  
 Gaussian, Inc.
 340 Quinnipiac St., Bldg. 40, Wallingford CT 06492
  
  
 ---------------------------------------------------------------
 Warning -- This program may not be used in any manner that
 competes with the business of Gaussian, Inc. or will provide
 assistance to any competitor of Gaussian, Inc.  The licensee
 of this program is prohibited from giving any competitor of
 Gaussian, Inc. access to this program.  By using this program,
 the user acknowledges that Gaussian, Inc. is engaged in the
 business of creating and licensing software in the field of
 computational chemistry and represents and warrants to the
 licensee that it is not a competitor of Gaussian, Inc. and that
 it will not use this program in any manner prohibited above.
 ---------------------------------------------------------------
  

 Cite this work as:
 Gaussian 16, Revision A.03,
 M. J. Frisch, G. W. Trucks, H. B. Schlegel, G. E. Scuseria, 
 M. A. Robb, J. R. Cheeseman, G. Scalmani, V. Barone, 
 G. A. Petersson, H. Nakatsuji, X. Li, M. Caricato, A. V. Marenich, 
 J. Bloino, B. G. Janesko, R. Gomperts, B. Mennucci, H. P. Hratchian, 
 J. V. Ortiz, A. F. Izmaylov, J. L. Sonnenberg, D. Williams-Young, 
 F. Ding, F. Lipparini, F. Egidi, J. Goings, B. Peng, A. Petrone, 
 T. Henderson, D. Ranasinghe, V. G. Zakrzewski, J. Gao, N. Rega, 
 G. Zheng, W. Liang, M. Hada, M. Ehara, K. Toyota, R. Fukuda, 
 J. Hasegawa, M. Ishida, T. Nakajima, Y. Honda, O. Kitao, H. Nakai, 
 T. Vreven, K. Throssell, J. A. Montgomery, Jr., J. E. Peralta, 
 F. Ogliaro, M. J. Bearpark, J. J. Heyd, E. N. Brothers, K. N. Kudin, 
 V. N. Staroverov, T. A. Keith, R. Kobayashi, J. Normand, 
 K. Raghavachari, A. P. Rendell, J. C. Burant, S. S. Iyengar, 
 J. Tomasi, M. Cossi, J. M. Millam, M. Klene, C. Adamo, R. Cammi, 
 J. W. Ochterski, R. L. Martin, K. Morokuma, O. Farkas, 
 J. B. Foresman, and D. J. Fox, Gaussian, Inc., Wallingford CT, 2016.
 
 ******************************************
 Gaussian 16:  ES64L-G16RevA.03 25-Dec-2016
                22-Sep-2023 
 ******************************************
 %nprocshared=4
 Will use up to    4 processors via shared memory.
 %mem=4GB
 -------------------------
 #m062x/6-31g(d) scf=tight
 -------------------------
 1/38=1,172=1/1;
 2/12=2,17=6,18=5,40=1/2;
 3/5=1,6=6,7=1,11=2,25=1,30=1,74=-55/1,2,3;
 4//1;
 5/5=2,32=2,38=5/2;
 6/7=2,8=2,9=2,10=2,28=1/1;
 99/5=1,9=1/99;
 --------------------
 tmpdir/M2_ref_59.gjf
 --------------------
 Symbolic Z-matrix:
 Charge =  0 Multiplicity = 1
 C                     3.82268   4.71929   5. 
 C                     4.99998   3.7854    5.00013 
 H                     4.99999   3.12603   4.12113 
 O                     4.21251   5.83807   4.99987 
 H                     2.79069   4.39047   5.00001 
 H                     5.85223   4.4614    5.00008 
 H                     4.99994   3.12624   5.87928 
 
                          Input orientation:                          
 ---------------------------------------------------------------------
 Center     Atomic      Atomic             Coordinates (Angstroms)
 Number     Number       Type             X           Y           Z
 ---------------------------------------------------------------------
      1          6           0        3.822684    4.719285    5.000001
      2          6           0        4.999979    3.785403    5.000128
      3          1           0        4.999986    3.126026    4.121133
      4          8           0        4.212506    5.838068    4.999868
      5          1           0        2.790691    4.390466    5.000011
      6          1           0        5.852230    4.461395    5.000079
      7          1           0        4.999938    3.126236    5.879282
 ---------------------------------------------------------------------
                    Distance matrix (angstroms):
                    1          2          3          4          5
     1  C    0.000000
     2  C    1.502717   0.000000
     3  H    2.167239   1.098822   0.000000
     4  O    1.184752   2.198533   2.957613   0.000000
     5  H    1.083112   2.290645   2.692995   2.029066   0.000000
     6  H    2.045865   1.087795   1.811650   2.141010   3.062361
     7  H    2.167226   1.098823   1.758149   2.957609   2.692985
                    6          7
     6  H    0.000000
     7  H    1.811643   0.000000
 Stoichiometry    C2H4O
 Framework group  C1[X(C2H4O)]
 Deg. of freedom    15
 Full point group                 C1      NOp   1
 Largest Abelian subgroup         C1      NOp   1
 Largest concise Abelian subgroup C1      NOp   1
                         Standard orientation:                         
 ---------------------------------------------------------------------
 Center     Atomic      Atomic             Coordinates (Angstroms)
 Number     Number       Type             X           Y           Z
 ---------------------------------------------------------------------
      1          6           0        0.263116    0.499107   -0.000008
      2          6           0       -1.092276   -0.149793    0.000119
      3          1           0       -1.684953    0.139191   -0.878876
      4          8           0        1.097873   -0.341617   -0.000141
      5          1           0        0.419860    1.570818    0.000002
      6          1           0       -0.858190   -1.212102    0.000070
      7          1           0       -1.684743    0.139142    0.879273
 ---------------------------------------------------------------------
 Rotational constants (GHZ):          47.5094977          11.9346188          10.1343775
 Standard basis: 6-31G(d) (6D, 7F)
 There are    53 symmetry adapted cartesian basis functions of A   symmetry.
 There are    53 symmetry adapted basis functions of A   symmetry.
    53 basis functions,   100 primitive gaussians,    53 cartesian basis functions
    12 alpha electrons       12 beta electrons
       nuclear repulsion energy        71.5449595772 Hartrees.
 NAtoms=    7 NActive=    7 NUniq=    7 SFac= 1.00D+00 NAtFMM=   60 NAOKFM=F Big=F
 Integral buffers will be    131072 words long.
 Raffenetti 2 integral format.
 Two-electron integral symmetry is turned on.
 One-electron integrals computed using PRISM.
 NBasis=    53 RedAO= T EigKep=  4.83D-03  NBF=    53
 NBsUse=    53 1.00D-06 EigRej= -1.00D+00 NBFU=    53
 ExpMin= 1.61D-01 ExpMax= 5.48D+03 ExpMxC= 8.25D+02 IAcc=3 IRadAn=         5 AccDes= 0.00D+00
 Harris functional with IExCor= 1009 and IRadAn=       5 diagonalized for initial guess.
 HarFok:  IExCor= 1009 AccDes= 0.00D+00 IRadAn=         5 IDoV= 1 UseB2=F ITyADJ=14
 ICtDFT=  3500011 ScaDFX=  1.000000  1.000000  1.000000  1.000000
 FoFCou: FMM=F IPFlag=           0 FMFlag=      100000 FMFlg1=           0
         NFxFlg=           0 DoJE=T BraDBF=F KetDBF=T FulRan=T
         wScrn=  0.000000 ICntrl=       500 IOpCl=  0 I1Cent=   200000004 NGrid=           0
         NMat0=    1 NMatS0=      1 NMatT0=    0 NMatD0=    1 NMtDS0=    0 NMtDT0=    0
 Petite list used in FoFCou.
 Keep R1 ints in memory in canonical form, NReq=4530250.
 Requested convergence on RMS density matrix=1.00D-08 within 128 cycles.
 Requested convergence on MAX density matrix=1.00D-06.
 Requested convergence on             energy=1.00D-06.
 No special actions if energy rises.
 Integral accuracy reduced to 1.0D-05 until final iterations.
 Initial convergence to 1.0D-05 achieved.  Increase integral accuracy.
 SCF Done:  E(RM062X) =  -153.738215952     A.U. after   13 cycles
            NFock= 13  Conv=0.77D-08     -V/T= 2.0069

 **********************************************************************

            Population analysis using the SCF density.

 **********************************************************************

 Orbital symmetries:
       Occupied  (A) (A) (A) (A) (A) (A) (A) (A) (A) (A) (A) (A)
       Virtual   (A) (A) (A) (A) (A) (A) (A) (A) (A) (A) (A) (A)
                 (A) (A) (A) (A) (A) (A) (A) (A) (A) (A) (A) (A)
                 (A) (A) (A) (A) (A) (A) (A) (A) (A) (A) (A) (A)
                 (A) (A) (A) (A) (A)
 The electronic state is 1-A.
 Alpha  occ. eigenvalues --  -19.63709 -10.63441 -10.54206  -1.18580  -0.83276
 Alpha  occ. eigenvalues --   -0.67571  -0.56340  -0.51161  -0.50256  -0.46023
 Alpha  occ. eigenvalues --   -0.42668  -0.31952
 Alpha virt. eigenvalues --    0.03594   0.16859   0.17987   0.20836   0.20958
 Alpha virt. eigenvalues --    0.27556   0.34891   0.57844   0.58859   0.64489
 Alpha virt. eigenvalues --    0.65617   0.73228   0.78230   0.82080   0.91454
 Alpha virt. eigenvalues --    0.92267   0.95955   0.99243   1.00611   1.06849
 Alpha virt. eigenvalues --    1.15786   1.25618   1.46951   1.48413   1.59893
 Alpha virt. eigenvalues --    1.70643   1.86828   1.88686   2.05308   2.12250
 Alpha virt. eigenvalues --    2.13106   2.24538   2.36939   2.37860   2.63322
 Alpha virt. eigenvalues --    2.64827   2.87703   3.02126   3.83634   4.11114
 Alpha virt. eigenvalues --    4.35480
          Condensed to atoms (all electrons):
               1          2          3          4          5          6
     1  C    4.558970   0.342529  -0.021876   0.581514   0.344356  -0.039588
     2  C    0.342529   5.400777   0.347200  -0.141472  -0.096382   0.372522
     3  H   -0.021876   0.347200   0.534820   0.003071   0.004424  -0.016961
     4  O    0.581514  -0.141472   0.003071   7.976349  -0.047226   0.009270
     5  H    0.344356  -0.096382   0.004424  -0.047226   0.640931   0.004882
     6  H   -0.039588   0.372522  -0.016961   0.009270   0.004882   0.479256
     7  H   -0.021877   0.347197  -0.025080   0.003071   0.004424  -0.016962
               7
     1  C   -0.021877
     2  C    0.347197
     3  H   -0.025080
     4  O    0.003071
     5  H    0.004424
     6  H   -0.016962
     7  H    0.534827
 Mulliken charges:
               1
     1  C    0.255973
     2  C   -0.572370
     3  H    0.174403
     4  O   -0.384577
     5  H    0.144590
     6  H    0.207582
     7  H    0.174400
 Sum of Mulliken charges =  -0.00000
 Mulliken charges with hydrogens summed into heavy atoms:
               1
     1  C    0.400562
     2  C   -0.015986
     4  O   -0.384577
 Electronic spatial extent (au):  <R**2>=            155.1581
 Charge=             -0.0000 electrons
 Dipole moment (field-independent basis, Debye):
    X=             -1.8419    Y=              1.4917    Z=              0.0003  Tot=              2.3702
 Quadrupole moment (field-independent basis, Debye-Ang):
   XX=            -20.5608   YY=            -17.2492   ZZ=            -17.7067
   XY=              1.0678   XZ=              0.0004   YZ=             -0.0001
 Traceless Quadrupole moment (field-independent basis, Debye-Ang):
   XX=             -2.0552   YY=              1.2564   ZZ=              0.7988
   XY=              1.0678   XZ=              0.0004   YZ=             -0.0001
 Octapole moment (field-independent basis, Debye-Ang**2):
  XXX=              0.6883  YYY=             -0.1761  ZZZ=             -0.0003  XYY=              1.7185
  XXY=              1.0593  XXZ=              0.0001  XZZ=              0.9208  YZZ=              0.0244
  YYZ=             -0.0002  XYZ=             -0.0001
 Hexadecapole moment (field-independent basis, Debye-Ang**3):
 XXXX=           -130.1862 YYYY=            -42.3046 ZZZZ=            -22.3072 XXXY=             -1.7691
 XXXZ=              0.0073 YYYX=              0.3028 YYYZ=             -0.0004 ZZZX=              0.0052
 ZZZY=             -0.0001 XXYY=            -29.0655 XXZZ=            -22.7446 YYZZ=            -11.7062
 XXYZ=             -0.0003 YYXZ=              0.0021 ZZXY=             -1.0815
 N-N= 7.154495957717D+01 E-N=-5.023716505849D+02  KE= 1.526779841934D+02
 1\1\GINC-NODE62\SP\RM062X\6-31G(d)\C2H4O1\YANZ\22-Sep-2023\0\\#m062x/6
 -31g(d) scf=tight\\tmpdir/M2_ref_59.gjf\\0,1\C,0,3.822684,4.719285,5.0
 00001\C,0,4.999979,3.785403,5.000128\H,0,4.999986,3.126026,4.121133\O,
 0,4.2125055,5.83806805,4.99986788\H,0,2.790691,4.390466,5.000011\H,0,5
 .85223026,4.46139525,5.00007878\H,0,4.999938,3.126236,5.879282\\Versio
 n=ES64L-G16RevA.03\State=1-A\HF=-153.738216\RMSD=7.655e-09\Dipole=-0.2
 0989,-0.9085696,0.0001068\Quadrupole=1.0866152,-1.6805256,0.5939104,0.
 4810195,-0.0000495,0.000304\PG=C01 [X(C2H4O1)]\\@


 WHERE THERE IS MUCH DESIRE TO LEARN, THERE OF NECESSITY WILL BE
 MUCH ARGUING, MUCH WRITING, MANY OPINIONS; FOR OPINION IN GOOD MEN
 IS BUT KNOWLEDGE IN THE MAKING. -- JOHN MILTON.
 Job cpu time:       0 days  0 hours  0 minutes 18.6 seconds.
 Elapsed time:       0 days  0 hours  0 minutes  4.8 seconds.
 File lengths (MBytes):  RWF=      6 Int=      0 D2E=      0 Chk=      1 Scr=      1
 Normal termination of Gaussian 16 at Fri Sep 22 17:01:56 2023.
