 Entering Gaussian System, Link 0=g16
 Initial command:
 /share/apps/gaussian/g16/l1.exe "/tmp/55613.mgr/Gau-178114.inp" -scrdir="/tmp/55613.mgr/"
 Entering Link 1 = /share/apps/gaussian/g16/l1.exe PID=    178115.
  
 Copyright (c) 1988,1990,1992,1993,1995,1998,2003,2009,2016,
            Gaussian, Inc.  All Rights Reserved.
  
 This is part of the Gaussian(R) 16 program.  It is based on
 the Gaussian(R) 09 system (copyright 2009, Gaussian, Inc.),
 the Gaussian(R) 03 system (copyright 2003, Gaussian, Inc.),
 the Gaussian(R) 98 system (copyright 1998, Gaussian, Inc.),
 the Gaussian(R) 94 system (copyright 1995, Gaussian, Inc.),
 the Gaussian 92(TM) system (copyright 1992, Gaussian, Inc.),
 the Gaussian 90(TM) system (copyright 1990, Gaussian, Inc.),
 the Gaussian 88(TM) system (copyright 1988, Gaussian, Inc.),
 the Gaussian 86(TM) system (copyright 1986, Carnegie Mellon
 University), and the Gaussian 82(TM) system (copyright 1983,
 Carnegie Mellon University). Gaussian is a federally registered
 trademark of Gaussian, Inc.
  
 This software contains proprietary and confidential information,
 including trade secrets, belonging to Gaussian, Inc.
  
 This software is provided under written license and may be
 used, copied, transmitted, or stored only in accord with that
 written license.
  
 The following legend is applicable only to US Government
 contracts under FAR:
  
                    RESTRICTED RIGHTS LEGEND
  
 Use, reproduction and disclosure by the US Government is
 subject to restrictions as set forth in subparagraphs (a)
 and (c) of the Commercial Computer Software - Restricted
 Rights clause in FAR 52.227-19.
  
 Gaussian, Inc.
 340 Quinnipiac St., Bldg. 40, Wallingford CT 06492
  
  
 ---------------------------------------------------------------
 Warning -- This program may not be used in any manner that
 competes with the business of Gaussian, Inc. or will provide
 assistance to any competitor of Gaussian, Inc.  The licensee
 of this program is prohibited from giving any competitor of
 Gaussian, Inc. access to this program.  By using this program,
 the user acknowledges that Gaussian, Inc. is engaged in the
 business of creating and licensing software in the field of
 computational chemistry and represents and warrants to the
 licensee that it is not a competitor of Gaussian, Inc. and that
 it will not use this program in any manner prohibited above.
 ---------------------------------------------------------------
  

 Cite this work as:
 Gaussian 16, Revision A.03,
 M. J. Frisch, G. W. Trucks, H. B. Schlegel, G. E. Scuseria, 
 M. A. Robb, J. R. Cheeseman, G. Scalmani, V. Barone, 
 G. A. Petersson, H. Nakatsuji, X. Li, M. Caricato, A. V. Marenich, 
 J. Bloino, B. G. Janesko, R. Gomperts, B. Mennucci, H. P. Hratchian, 
 J. V. Ortiz, A. F. Izmaylov, J. L. Sonnenberg, D. Williams-Young, 
 F. Ding, F. Lipparini, F. Egidi, J. Goings, B. Peng, A. Petrone, 
 T. Henderson, D. Ranasinghe, V. G. Zakrzewski, J. Gao, N. Rega, 
 G. Zheng, W. Liang, M. Hada, M. Ehara, K. Toyota, R. Fukuda, 
 J. Hasegawa, M. Ishida, T. Nakajima, Y. Honda, O. Kitao, H. Nakai, 
 T. Vreven, K. Throssell, J. A. Montgomery, Jr., J. E. Peralta, 
 F. Ogliaro, M. J. Bearpark, J. J. Heyd, E. N. Brothers, K. N. Kudin, 
 V. N. Staroverov, T. A. Keith, R. Kobayashi, J. Normand, 
 K. Raghavachari, A. P. Rendell, J. C. Burant, S. S. Iyengar, 
 J. Tomasi, M. Cossi, J. M. Millam, M. Klene, C. Adamo, R. Cammi, 
 J. W. Ochterski, R. L. Martin, K. Morokuma, O. Farkas, 
 J. B. Foresman, and D. J. Fox, Gaussian, Inc., Wallingford CT, 2016.
 
 ******************************************
 Gaussian 16:  ES64L-G16RevA.03 25-Dec-2016
                22-Sep-2023 
 ******************************************
 %nprocshared=4
 Will use up to    4 processors via shared memory.
 %mem=4GB
 -------------------------
 #m062x/6-31g(d) scf=tight
 -------------------------
 1/38=1,172=1/1;
 2/12=2,17=6,18=5,40=1/2;
 3/5=1,6=6,7=1,11=2,25=1,30=1,74=-55/1,2,3;
 4//1;
 5/5=2,32=2,38=5/2;
 6/7=2,8=2,9=2,10=2,28=1/1;
 99/5=1,9=1/99;
 -------------------
 tmpdir/M2_ref_4.gjf
 -------------------
 Symbolic Z-matrix:
 Charge =  0 Multiplicity = 1
 C                     4.26485   5.9883    4.99985 
 C                     5.73518   5.98827   4.99994 
 C                     6.17731   4.71924   5.00006 
 H                     3.65116   6.88196   4.99973 
 O                     3.87503   4.86952   4.99998 
 H                     6.34891   6.88191   4.99987 
 H                     7.20929   4.39039   5.00012 
 H                     5.32506   4.04325   5.00011 
 
                          Input orientation:                          
 ---------------------------------------------------------------------
 Center     Atomic      Atomic             Coordinates (Angstroms)
 Number     Number       Type             X           Y           Z
 ---------------------------------------------------------------------
      1          6           0        4.264851    5.988299    4.999850
      2          6           0        5.735182    5.988274    4.999935
      3          6           0        6.177307    4.719241    5.000060
      4          1           0        3.651162    6.881961    4.999730
      5          8           0        3.875030    4.869516    4.999983
      6          1           0        6.348911    6.881909    4.999874
      7          1           0        7.209291    4.390390    5.000123
      8          1           0        5.325056    4.043249    5.000109
 ---------------------------------------------------------------------
                    Distance matrix (angstroms):
                    1          2          3          4          5
     1  C    0.000000
     2  C    1.470331   0.000000
     3  C    2.295212   1.343845   0.000000
     4  H    1.084088   2.267557   3.325472   0.000000
     5  O    1.184752   2.170665   2.307177   2.024858   0.000000
     6  H    2.267564   1.084088   2.169466   2.697749   3.189015
     7  H    3.350081   2.173990   1.083113   4.343755   3.368510
     8  H    2.215232   1.987794   1.087795   3.295483   1.668920
                    6          7          8
     6  H    0.000000
     7  H    2.635891   0.000000
     8  H    3.017660   1.915946   0.000000
 Stoichiometry    C3H4O
 Framework group  C1[X(C3H4O)]
 Deg. of freedom    18
 Full point group                 C1      NOp   1
 Largest Abelian subgroup         C1      NOp   1
 Largest concise Abelian subgroup C1      NOp   1
                         Standard orientation:                         
 ---------------------------------------------------------------------
 Center     Atomic      Atomic             Coordinates (Angstroms)
 Number     Number       Type             X           Y           Z
 ---------------------------------------------------------------------
      1          6           0        0.839061    0.488971    0.000109
      2          6           0       -0.614232    0.712157    0.000024
      3          6           0       -1.243884   -0.475049   -0.000101
      4          1           0        1.581304    1.279112    0.000229
      5          8           0        1.054522   -0.676023   -0.000024
      6          1           0       -1.085186    1.688605    0.000085
      7          1           0       -2.313830   -0.643423   -0.000164
      8          1           0       -0.504133   -1.272586   -0.000150
 ---------------------------------------------------------------------
 Rotational constants (GHZ):          19.9184013           8.6026404           6.0078747
 Standard basis: 6-31G(d) (6D, 7F)
 There are    68 symmetry adapted cartesian basis functions of A   symmetry.
 There are    68 symmetry adapted basis functions of A   symmetry.
    68 basis functions,   128 primitive gaussians,    68 cartesian basis functions
    15 alpha electrons       15 beta electrons
       nuclear repulsion energy       110.2909869847 Hartrees.
 NAtoms=    8 NActive=    8 NUniq=    8 SFac= 1.00D+00 NAtFMM=   60 NAOKFM=F Big=F
 Integral buffers will be    131072 words long.
 Raffenetti 2 integral format.
 Two-electron integral symmetry is turned on.
 One-electron integrals computed using PRISM.
 NBasis=    68 RedAO= T EigKep=  2.32D-03  NBF=    68
 NBsUse=    68 1.00D-06 EigRej= -1.00D+00 NBFU=    68
 ExpMin= 1.61D-01 ExpMax= 5.48D+03 ExpMxC= 8.25D+02 IAcc=3 IRadAn=         5 AccDes= 0.00D+00
 Harris functional with IExCor= 1009 and IRadAn=       5 diagonalized for initial guess.
 HarFok:  IExCor= 1009 AccDes= 0.00D+00 IRadAn=         5 IDoV= 1 UseB2=F ITyADJ=14
 ICtDFT=  3500011 ScaDFX=  1.000000  1.000000  1.000000  1.000000
 FoFCou: FMM=F IPFlag=           0 FMFlag=      100000 FMFlg1=           0
         NFxFlg=           0 DoJE=T BraDBF=F KetDBF=T FulRan=T
         wScrn=  0.000000 ICntrl=       500 IOpCl=  0 I1Cent=   200000004 NGrid=           0
         NMat0=    1 NMatS0=      1 NMatT0=    0 NMatD0=    1 NMtDS0=    0 NMtDT0=    0
 Petite list used in FoFCou.
 Keep R1 ints in memory in canonical form, NReq=6324883.
 Requested convergence on RMS density matrix=1.00D-08 within 128 cycles.
 Requested convergence on MAX density matrix=1.00D-06.
 Requested convergence on             energy=1.00D-06.
 No special actions if energy rises.
 Integral accuracy reduced to 1.0D-05 until final iterations.
 Initial convergence to 1.0D-05 achieved.  Increase integral accuracy.
 SCF Done:  E(RM062X) =  -191.778048602     A.U. after   16 cycles
            NFock= 16  Conv=0.32D-08     -V/T= 2.0064

 **********************************************************************

            Population analysis using the SCF density.

 **********************************************************************

 Orbital symmetries:
       Occupied  (A) (A) (A) (A) (A) (A) (A) (A) (A) (A) (A) (A)
                 (A) (A) (A)
       Virtual   (A) (A) (A) (A) (A) (A) (A) (A) (A) (A) (A) (A)
                 (A) (A) (A) (A) (A) (A) (A) (A) (A) (A) (A) (A)
                 (A) (A) (A) (A) (A) (A) (A) (A) (A) (A) (A) (A)
                 (A) (A) (A) (A) (A) (A) (A) (A) (A) (A) (A) (A)
                 (A) (A) (A) (A) (A)
 The electronic state is 1-A.
 Alpha  occ. eigenvalues --  -19.63394 -10.63690 -10.54853 -10.54566  -1.19603
 Alpha  occ. eigenvalues --   -0.87568  -0.73939  -0.62277  -0.59507  -0.54191
 Alpha  occ. eigenvalues --   -0.48741  -0.47769  -0.41926  -0.32646  -0.32348
 Alpha virt. eigenvalues --   -0.01675   0.12132   0.16671   0.19583   0.21280
 Alpha virt. eigenvalues --    0.26777   0.30105   0.35921   0.39679   0.56362
 Alpha virt. eigenvalues --    0.57017   0.61879   0.63645   0.69648   0.70149
 Alpha virt. eigenvalues --    0.74061   0.78630   0.86403   0.90282   0.92909
 Alpha virt. eigenvalues --    0.95457   0.97155   1.03928   1.06259   1.14226
 Alpha virt. eigenvalues --    1.16860   1.26832   1.31501   1.39016   1.47956
 Alpha virt. eigenvalues --    1.57502   1.61767   1.73613   1.79998   1.83252
 Alpha virt. eigenvalues --    1.88090   2.05485   2.09947   2.14841   2.29870
 Alpha virt. eigenvalues --    2.30389   2.38542   2.39920   2.49895   2.63608
 Alpha virt. eigenvalues --    2.64697   2.82611   3.02448   3.08805   3.91886
 Alpha virt. eigenvalues --    4.16500   4.19031   4.39813
          Condensed to atoms (all electrons):
               1          2          3          4          5          6
     1  C    4.565714   0.366428  -0.044003   0.367463   0.554468  -0.031040
     2  C    0.366428   5.170619   0.643018  -0.092400  -0.133459   0.358976
     3  C   -0.044003   0.643018   5.104738   0.005481  -0.076850  -0.036905
     4  H    0.367463  -0.092400   0.005481   0.599359  -0.042739   0.002060
     5  O    0.554468  -0.133459  -0.076850  -0.042739   8.099116   0.004014
     6  H   -0.031040   0.358976  -0.036905   0.002060   0.004014   0.535289
     7  H    0.004892  -0.034327   0.360719  -0.000015   0.002918  -0.002167
     8  H   -0.033323  -0.039150   0.376164   0.001006   0.017840   0.004482
               7          8
     1  C    0.004892  -0.033323
     2  C   -0.034327  -0.039150
     3  C    0.360719   0.376164
     4  H   -0.000015   0.001006
     5  O    0.002918   0.017840
     6  H   -0.002167   0.004482
     7  H    0.522230  -0.022857
     8  H   -0.022857   0.441540
 Mulliken charges:
               1
     1  C    0.249402
     2  C   -0.239706
     3  C   -0.332364
     4  H    0.159783
     5  O   -0.425308
     6  H    0.165290
     7  H    0.168606
     8  H    0.254297
 Sum of Mulliken charges =   0.00000
 Mulliken charges with hydrogens summed into heavy atoms:
               1
     1  C    0.409185
     2  C   -0.074416
     3  C    0.090539
     5  O   -0.425308
 Electronic spatial extent (au):  <R**2>=            229.9697
 Charge=             -0.0000 electrons
 Dipole moment (field-independent basis, Debye):
    X=             -0.7068    Y=              1.7605    Z=              0.0002  Tot=              1.8971
 Quadrupole moment (field-independent basis, Debye-Ang):
   XX=            -22.8681   YY=            -22.0912   ZZ=            -24.3793
   XY=              3.0050   XZ=              0.0004   YZ=              0.0004
 Traceless Quadrupole moment (field-independent basis, Debye-Ang):
   XX=              0.2448   YY=              1.0217   ZZ=             -1.2664
   XY=              3.0050   XZ=              0.0004   YZ=              0.0004
 Octapole moment (field-independent basis, Debye-Ang**2):
  XXX=             -0.2125  YYY=             -0.0183  ZZZ=              0.0001  XYY=              0.5742
  XXY=              2.1955  XXZ=             -0.0001  XZZ=              3.3383  YZZ=             -1.2107
  YYZ=              0.0002  XYZ=             -0.0001
 Hexadecapole moment (field-independent basis, Debye-Ang**3):
 XXXX=           -167.7733 YYYY=            -88.8787 ZZZZ=            -22.7462 XXXY=              6.7517
 XXXZ=             -0.0027 YYYX=             -2.6125 YYYZ=             -0.0030 ZZZX=             -0.0044
 ZZZY=             -0.0036 XXYY=            -43.3884 XXZZ=            -34.9594 YYZZ=            -19.9645
 XXYZ=             -0.0005 YYXZ=             -0.0013 ZZXY=             -0.4309
 N-N= 1.102909869847D+02 E-N=-6.683113210664D+02  KE= 1.905649685512D+02
 1\1\GINC-NODE62\SP\RM062X\6-31G(d)\C3H4O1\YANZ\22-Sep-2023\0\\#m062x/6
 -31g(d) scf=tight\\tmpdir/M2_ref_4.gjf\\0,1\C,0,4.264851,5.988299,4.99
 985\C,0,5.735182,5.988274,4.999935\C,0,6.177307,4.719241,5.00006\H,0,3
 .651162,6.881961,4.99973\O,0,3.8750295,4.86951595,4.99998312\H,0,6.348
 911,6.881909,4.999874\H,0,7.209291,4.39039,5.000123\H,0,5.32505574,4.0
 4324875,5.00010922\\Version=ES64L-G16RevA.03\State=1-A\HF=-191.7780486
 \RMSD=3.183e-09\Dipole=0.3800071,0.6423909,-0.0000729\Quadrupole=-0.47
 51896,1.416742,-0.9415524,-2.0445189,0.0002633,-0.0003113\PG=C01 [X(C3
 H4O1)]\\@


 "A LITTLE BIT GOES A LONG WAY"
 R.S. MULLIKEN AS QUOTED BY K. RUEDENBERG
 Job cpu time:       0 days  0 hours  0 minutes 33.5 seconds.
 Elapsed time:       0 days  0 hours  0 minutes  8.6 seconds.
 File lengths (MBytes):  RWF=      6 Int=      0 D2E=      0 Chk=      1 Scr=      1
 Normal termination of Gaussian 16 at Fri Sep 22 17:01:12 2023.
