 Entering Gaussian System, Link 0=g16
 Initial command:
 /share/apps/gaussian/g16/l1.exe "/tmp/55613.mgr/Gau-179500.inp" -scrdir="/tmp/55613.mgr/"
 Entering Link 1 = /share/apps/gaussian/g16/l1.exe PID=    179501.
  
 Copyright (c) 1988,1990,1992,1993,1995,1998,2003,2009,2016,
            Gaussian, Inc.  All Rights Reserved.
  
 This is part of the Gaussian(R) 16 program.  It is based on
 the Gaussian(R) 09 system (copyright 2009, Gaussian, Inc.),
 the Gaussian(R) 03 system (copyright 2003, Gaussian, Inc.),
 the Gaussian(R) 98 system (copyright 1998, Gaussian, Inc.),
 the Gaussian(R) 94 system (copyright 1995, Gaussian, Inc.),
 the Gaussian 92(TM) system (copyright 1992, Gaussian, Inc.),
 the Gaussian 90(TM) system (copyright 1990, Gaussian, Inc.),
 the Gaussian 88(TM) system (copyright 1988, Gaussian, Inc.),
 the Gaussian 86(TM) system (copyright 1986, Carnegie Mellon
 University), and the Gaussian 82(TM) system (copyright 1983,
 Carnegie Mellon University). Gaussian is a federally registered
 trademark of Gaussian, Inc.
  
 This software contains proprietary and confidential information,
 including trade secrets, belonging to Gaussian, Inc.
  
 This software is provided under written license and may be
 used, copied, transmitted, or stored only in accord with that
 written license.
  
 The following legend is applicable only to US Government
 contracts under FAR:
  
                    RESTRICTED RIGHTS LEGEND
  
 Use, reproduction and disclosure by the US Government is
 subject to restrictions as set forth in subparagraphs (a)
 and (c) of the Commercial Computer Software - Restricted
 Rights clause in FAR 52.227-19.
  
 Gaussian, Inc.
 340 Quinnipiac St., Bldg. 40, Wallingford CT 06492
  
  
 ---------------------------------------------------------------
 Warning -- This program may not be used in any manner that
 competes with the business of Gaussian, Inc. or will provide
 assistance to any competitor of Gaussian, Inc.  The licensee
 of this program is prohibited from giving any competitor of
 Gaussian, Inc. access to this program.  By using this program,
 the user acknowledges that Gaussian, Inc. is engaged in the
 business of creating and licensing software in the field of
 computational chemistry and represents and warrants to the
 licensee that it is not a competitor of Gaussian, Inc. and that
 it will not use this program in any manner prohibited above.
 ---------------------------------------------------------------
  

 Cite this work as:
 Gaussian 16, Revision A.03,
 M. J. Frisch, G. W. Trucks, H. B. Schlegel, G. E. Scuseria, 
 M. A. Robb, J. R. Cheeseman, G. Scalmani, V. Barone, 
 G. A. Petersson, H. Nakatsuji, X. Li, M. Caricato, A. V. Marenich, 
 J. Bloino, B. G. Janesko, R. Gomperts, B. Mennucci, H. P. Hratchian, 
 J. V. Ortiz, A. F. Izmaylov, J. L. Sonnenberg, D. Williams-Young, 
 F. Ding, F. Lipparini, F. Egidi, J. Goings, B. Peng, A. Petrone, 
 T. Henderson, D. Ranasinghe, V. G. Zakrzewski, J. Gao, N. Rega, 
 G. Zheng, W. Liang, M. Hada, M. Ehara, K. Toyota, R. Fukuda, 
 J. Hasegawa, M. Ishida, T. Nakajima, Y. Honda, O. Kitao, H. Nakai, 
 T. Vreven, K. Throssell, J. A. Montgomery, Jr., J. E. Peralta, 
 F. Ogliaro, M. J. Bearpark, J. J. Heyd, E. N. Brothers, K. N. Kudin, 
 V. N. Staroverov, T. A. Keith, R. Kobayashi, J. Normand, 
 K. Raghavachari, A. P. Rendell, J. C. Burant, S. S. Iyengar, 
 J. Tomasi, M. Cossi, J. M. Millam, M. Klene, C. Adamo, R. Cammi, 
 J. W. Ochterski, R. L. Martin, K. Morokuma, O. Farkas, 
 J. B. Foresman, and D. J. Fox, Gaussian, Inc., Wallingford CT, 2016.
 
 ******************************************
 Gaussian 16:  ES64L-G16RevA.03 25-Dec-2016
                22-Sep-2023 
 ******************************************
 %nprocshared=4
 Will use up to    4 processors via shared memory.
 %mem=4GB
 -------------------------
 #m062x/6-31g(d) scf=tight
 -------------------------
 1/38=1,172=1/1;
 2/12=2,17=6,18=5,40=1/2;
 3/5=1,6=6,7=1,11=2,25=1,30=1,74=-55/1,2,3;
 4//1;
 5/5=2,32=2,38=5/2;
 6/7=2,8=2,9=2,10=2,28=1/1;
 99/5=1,9=1/99;
 --------------------
 tmpdir/M2_ref_47.gjf
 --------------------
 Symbolic Z-matrix:
 Charge =  0 Multiplicity = 1
 C                     5.73518   5.98827   4.99994 
 C                     6.17731   4.71924   5.00006 
 C                     4.99998   3.7854    5.00013 
 H                     4.67083   5.98829   4.99987 
 H                     6.34891   6.88191   4.99987 
 H                     7.20929   4.39039   5.00012 
 H                     4.14775   4.46143   5.00004 
 H                     4.99999   3.12603   4.12113 
 H                     4.99994   3.12624   5.87928 
 
                          Input orientation:                          
 ---------------------------------------------------------------------
 Center     Atomic      Atomic             Coordinates (Angstroms)
 Number     Number       Type             X           Y           Z
 ---------------------------------------------------------------------
      1          6           0        5.735182    5.988274    4.999935
      2          6           0        6.177307    4.719241    5.000060
      3          6           0        4.999979    3.785403    5.000128
      4          1           0        4.670830    5.988292    4.999873
      5          1           0        6.348911    6.881909    4.999874
      6          1           0        7.209291    4.390390    5.000123
      7          1           0        4.147752    4.461427    5.000036
      8          1           0        4.999986    3.126026    4.121133
      9          1           0        4.999938    3.126236    5.879282
 ---------------------------------------------------------------------
                    Distance matrix (angstroms):
                    1          2          3          4          5
     1  C    0.000000
     2  C    1.343845   0.000000
     3  C    2.322319   1.502716   0.000000
     4  H    1.064352   1.969762   2.227344   0.000000
     5  H    1.084088   2.169466   3.377568   1.901186   0.000000
     6  H    2.173990   1.083113   2.290648   2.999513   2.635891
     7  H    2.202543   2.045865   1.087796   1.613979   3.271672
     8  H    3.083062   2.167241   1.098822   3.012158   4.086373
     9  H    3.083034   2.167232   1.098823   3.012148   4.086339
                    6          7          8          9
     6  H    0.000000
     7  H    3.062363   0.000000
     8  H    2.693004   1.811648   0.000000
     9  H    2.693000   1.811637   1.758149   0.000000
 Stoichiometry    C3H6
 Framework group  C1[X(C3H6)]
 Deg. of freedom    21
 Full point group                 C1      NOp   1
 Largest Abelian subgroup         C1      NOp   1
 Largest concise Abelian subgroup C1      NOp   1
                         Standard orientation:                         
 ---------------------------------------------------------------------
 Center     Atomic      Atomic             Coordinates (Angstroms)
 Number     Number       Type             X           Y           Z
 ---------------------------------------------------------------------
      1          6           0       -1.178704   -0.272602   -0.000109
      2          6           0       -0.145289    0.586452    0.000016
      3          6           0        1.142097   -0.188656    0.000084
      4          1           0       -0.805492   -1.269376   -0.000171
      5          1           0       -2.230806   -0.011208   -0.000170
      6          1           0       -0.199198    1.668222    0.000079
      7          1           0        0.807844   -1.223825   -0.000008
      8          1           0        1.759602    0.042570   -0.878911
      9          1           0        1.759423    0.042451    0.879238
 ---------------------------------------------------------------------
 Rotational constants (GHZ):          39.0807147          10.8181924           8.9396889
 Standard basis: 6-31G(d) (6D, 7F)
 There are    57 symmetry adapted cartesian basis functions of A   symmetry.
 There are    57 symmetry adapted basis functions of A   symmetry.
    57 basis functions,   108 primitive gaussians,    57 cartesian basis functions
    12 alpha electrons       12 beta electrons
       nuclear repulsion energy        72.0748858667 Hartrees.
 NAtoms=    9 NActive=    9 NUniq=    9 SFac= 1.00D+00 NAtFMM=   60 NAOKFM=F Big=F
 Integral buffers will be    131072 words long.
 Raffenetti 2 integral format.
 Two-electron integral symmetry is turned on.
 One-electron integrals computed using PRISM.
 NBasis=    57 RedAO= T EigKep=  4.11D-03  NBF=    57
 NBsUse=    57 1.00D-06 EigRej= -1.00D+00 NBFU=    57
 ExpMin= 1.61D-01 ExpMax= 3.05D+03 ExpMxC= 4.57D+02 IAcc=3 IRadAn=         5 AccDes= 0.00D+00
 Harris functional with IExCor= 1009 and IRadAn=       5 diagonalized for initial guess.
 HarFok:  IExCor= 1009 AccDes= 0.00D+00 IRadAn=         5 IDoV= 1 UseB2=F ITyADJ=14
 ICtDFT=  3500011 ScaDFX=  1.000000  1.000000  1.000000  1.000000
 FoFCou: FMM=F IPFlag=           0 FMFlag=      100000 FMFlg1=           0
         NFxFlg=           0 DoJE=T BraDBF=F KetDBF=T FulRan=T
         wScrn=  0.000000 ICntrl=       500 IOpCl=  0 I1Cent=   200000004 NGrid=           0
         NMat0=    1 NMatS0=      1 NMatT0=    0 NMatD0=    1 NMtDS0=    0 NMtDT0=    0
 Petite list used in FoFCou.
 Keep R1 ints in memory in canonical form, NReq=4889603.
 Requested convergence on RMS density matrix=1.00D-08 within 128 cycles.
 Requested convergence on MAX density matrix=1.00D-06.
 Requested convergence on             energy=1.00D-06.
 No special actions if energy rises.
 Integral accuracy reduced to 1.0D-05 until final iterations.
 Initial convergence to 1.0D-05 achieved.  Increase integral accuracy.
 SCF Done:  E(RM062X) =  -117.814510678     A.U. after   12 cycles
            NFock= 12  Conv=0.94D-08     -V/T= 2.0083

 **********************************************************************

            Population analysis using the SCF density.

 **********************************************************************

 Orbital symmetries:
       Occupied  (A) (A) (A) (A) (A) (A) (A) (A) (A) (A) (A) (A)
       Virtual   (A) (A) (A) (A) (A) (A) (A) (A) (A) (A) (A) (A)
                 (A) (A) (A) (A) (A) (A) (A) (A) (A) (A) (A) (A)
                 (A) (A) (A) (A) (A) (A) (A) (A) (A) (A) (A) (A)
                 (A) (A) (A) (A) (A) (A) (A) (A) (A)
 The electronic state is 1-A.
 Alpha  occ. eigenvalues --  -10.54626 -10.53398 -10.53006  -0.89262  -0.75448
 Alpha  occ. eigenvalues --   -0.63868  -0.54779  -0.47174  -0.45528  -0.43629
 Alpha  occ. eigenvalues --   -0.40422  -0.30395
 Alpha virt. eigenvalues --    0.06676   0.15833   0.17971   0.20318   0.22122
 Alpha virt. eigenvalues --    0.23058   0.26587   0.33955   0.41522   0.53693
 Alpha virt. eigenvalues --    0.58371   0.62887   0.65857   0.68015   0.71604
 Alpha virt. eigenvalues --    0.71983   0.78284   0.82729   0.93878   0.94368
 Alpha virt. eigenvalues --    0.94453   0.99502   1.02683   1.03650   1.14407
 Alpha virt. eigenvalues --    1.30071   1.34702   1.46884   1.56191   1.76784
 Alpha virt. eigenvalues --    1.79164   1.95389   2.10362   2.11064   2.12758
 Alpha virt. eigenvalues --    2.31472   2.33336   2.37586   2.42759   2.56984
 Alpha virt. eigenvalues --    2.77071   2.83590   4.14477   4.24819   4.41665
          Condensed to atoms (all electrons):
               1          2          3          4          5          6
     1  C    5.041837   0.681620  -0.064905   0.394305   0.375900  -0.037358
     2  C    0.681620   4.855543   0.378786  -0.053649  -0.034233   0.376715
     3  C   -0.064905   0.378786   5.134152  -0.035273   0.006705  -0.041965
     4  H    0.394305  -0.053649  -0.035273   0.558437  -0.030399   0.005514
     5  H    0.375900  -0.034233   0.006705  -0.030399   0.524166  -0.003191
     6  H   -0.037358   0.376715  -0.041965   0.005514  -0.003191   0.530329
     7  H   -0.018155  -0.054539   0.396446   0.008584   0.000905   0.003898
     8  H   -0.000839  -0.034350   0.371003   0.001185  -0.000231   0.000237
     9  H   -0.000840  -0.034350   0.371004   0.001185  -0.000231   0.000237
               7          8          9
     1  C   -0.018155  -0.000839  -0.000840
     2  C   -0.054539  -0.034350  -0.034350
     3  C    0.396446   0.371003   0.371004
     4  H    0.008584   0.001185   0.001185
     5  H    0.000905  -0.000231  -0.000231
     6  H    0.003898   0.000237   0.000237
     7  H    0.547545  -0.022981  -0.022983
     8  H   -0.022981   0.555496  -0.035257
     9  H   -0.022983  -0.035257   0.555497
 Mulliken charges:
               1
     1  C   -0.371566
     2  C   -0.081543
     3  C   -0.515954
     4  H    0.150112
     5  H    0.160609
     6  H    0.165584
     7  H    0.161280
     8  H    0.165738
     9  H    0.165739
 Sum of Mulliken charges =  -0.00000
 Mulliken charges with hydrogens summed into heavy atoms:
               1
     1  C   -0.060844
     2  C    0.084041
     3  C   -0.023197
 Electronic spatial extent (au):  <R**2>=            183.3564
 Charge=             -0.0000 electrons
 Dipole moment (field-independent basis, Debye):
    X=              0.2229    Y=              0.1789    Z=              0.0000  Tot=              0.2858
 Quadrupole moment (field-independent basis, Debye-Ang):
   XX=            -19.3540   YY=            -18.6361   ZZ=            -21.4847
   XY=              0.1327   XZ=              0.0002   YZ=              0.0002
 Traceless Quadrupole moment (field-independent basis, Debye-Ang):
   XX=              0.4709   YY=              1.1888   ZZ=             -1.6598
   XY=              0.1327   XZ=              0.0002   YZ=              0.0002
 Octapole moment (field-independent basis, Debye-Ang**2):
  XXX=             -2.8431  YYY=              1.2640  ZZZ=              0.0006  XYY=             -0.3131
  XXY=              1.1269  XXZ=             -0.0005  XZZ=              2.1069  YZZ=              0.1713
  YYZ=             -0.0000  XYZ=             -0.0001
 Hexadecapole moment (field-independent basis, Debye-Ang**3):
 XXXX=           -153.6836 YYYY=            -54.0890 ZZZZ=            -29.0291 XXXY=              0.0560
 XXXZ=             -0.0050 YYYX=             -0.5262 YYYZ=             -0.0004 ZZZX=             -0.0053
 ZZZY=             -0.0009 XXYY=            -38.9139 XXZZ=            -31.8578 YYZZ=            -15.6024
 XXYZ=             -0.0005 YYXZ=             -0.0020 ZZXY=              0.4284
 N-N= 7.207488586674D+01 E-N=-4.162921300620D+02  KE= 1.168484333440D+02
 1\1\GINC-NODE62\SP\RM062X\6-31G(d)\C3H6\YANZ\22-Sep-2023\0\\#m062x/6-3
 1g(d) scf=tight\\tmpdir/M2_ref_47.gjf\\0,1\C,0,5.735182,5.988274,4.999
 935\C,0,6.177307,4.719241,5.00006\C,0,4.999979,3.785403,5.000128\H,0,4
 .67082997,5.9882921,4.99987347\H,0,6.348911,6.881909,4.999874\H,0,7.20
 9291,4.39039,5.000123\H,0,4.14775163,4.46142711,5.00003607\H,0,4.99998
 6,3.126026,4.121133\H,0,4.999938,3.126236,5.879282\\Version=ES64L-G16R
 evA.03\State=1-A\HF=-117.8145107\RMSD=9.367e-09\Dipole=0.035147,-0.106
 82,0.0000116\Quadrupole=0.7534351,0.4805498,-1.2339849,-0.249665,0.000
 0959,-0.0001765\PG=C01 [X(C3H6)]\\@


 WE ARE REACHING THE STAGE WHERE THE PROBLEMS WE MUST SOLVE ARE 
 GOING TO BECOME INSOLUBLE WITHOUT COMPUTERS.
 I DO NOT FEAR COMPUTERS.  I FEAR THE LACK OF THEM.

                                   -- ISSAC ASIMOV
 Job cpu time:       0 days  0 hours  0 minutes 24.5 seconds.
 Elapsed time:       0 days  0 hours  0 minutes  6.4 seconds.
 File lengths (MBytes):  RWF=      6 Int=      0 D2E=      0 Chk=      1 Scr=      1
 Normal termination of Gaussian 16 at Fri Sep 22 17:01:44 2023.
