 Entering Gaussian System, Link 0=g16
 Initial command:
 /share/apps/gaussian/g16/l1.exe "/tmp/55613.mgr/Gau-179713.inp" -scrdir="/tmp/55613.mgr/"
 Entering Link 1 = /share/apps/gaussian/g16/l1.exe PID=    179714.
  
 Copyright (c) 1988,1990,1992,1993,1995,1998,2003,2009,2016,
            Gaussian, Inc.  All Rights Reserved.
  
 This is part of the Gaussian(R) 16 program.  It is based on
 the Gaussian(R) 09 system (copyright 2009, Gaussian, Inc.),
 the Gaussian(R) 03 system (copyright 2003, Gaussian, Inc.),
 the Gaussian(R) 98 system (copyright 1998, Gaussian, Inc.),
 the Gaussian(R) 94 system (copyright 1995, Gaussian, Inc.),
 the Gaussian 92(TM) system (copyright 1992, Gaussian, Inc.),
 the Gaussian 90(TM) system (copyright 1990, Gaussian, Inc.),
 the Gaussian 88(TM) system (copyright 1988, Gaussian, Inc.),
 the Gaussian 86(TM) system (copyright 1986, Carnegie Mellon
 University), and the Gaussian 82(TM) system (copyright 1983,
 Carnegie Mellon University). Gaussian is a federally registered
 trademark of Gaussian, Inc.
  
 This software contains proprietary and confidential information,
 including trade secrets, belonging to Gaussian, Inc.
  
 This software is provided under written license and may be
 used, copied, transmitted, or stored only in accord with that
 written license.
  
 The following legend is applicable only to US Government
 contracts under FAR:
  
                    RESTRICTED RIGHTS LEGEND
  
 Use, reproduction and disclosure by the US Government is
 subject to restrictions as set forth in subparagraphs (a)
 and (c) of the Commercial Computer Software - Restricted
 Rights clause in FAR 52.227-19.
  
 Gaussian, Inc.
 340 Quinnipiac St., Bldg. 40, Wallingford CT 06492
  
  
 ---------------------------------------------------------------
 Warning -- This program may not be used in any manner that
 competes with the business of Gaussian, Inc. or will provide
 assistance to any competitor of Gaussian, Inc.  The licensee
 of this program is prohibited from giving any competitor of
 Gaussian, Inc. access to this program.  By using this program,
 the user acknowledges that Gaussian, Inc. is engaged in the
 business of creating and licensing software in the field of
 computational chemistry and represents and warrants to the
 licensee that it is not a competitor of Gaussian, Inc. and that
 it will not use this program in any manner prohibited above.
 ---------------------------------------------------------------
  

 Cite this work as:
 Gaussian 16, Revision A.03,
 M. J. Frisch, G. W. Trucks, H. B. Schlegel, G. E. Scuseria, 
 M. A. Robb, J. R. Cheeseman, G. Scalmani, V. Barone, 
 G. A. Petersson, H. Nakatsuji, X. Li, M. Caricato, A. V. Marenich, 
 J. Bloino, B. G. Janesko, R. Gomperts, B. Mennucci, H. P. Hratchian, 
 J. V. Ortiz, A. F. Izmaylov, J. L. Sonnenberg, D. Williams-Young, 
 F. Ding, F. Lipparini, F. Egidi, J. Goings, B. Peng, A. Petrone, 
 T. Henderson, D. Ranasinghe, V. G. Zakrzewski, J. Gao, N. Rega, 
 G. Zheng, W. Liang, M. Hada, M. Ehara, K. Toyota, R. Fukuda, 
 J. Hasegawa, M. Ishida, T. Nakajima, Y. Honda, O. Kitao, H. Nakai, 
 T. Vreven, K. Throssell, J. A. Montgomery, Jr., J. E. Peralta, 
 F. Ogliaro, M. J. Bearpark, J. J. Heyd, E. N. Brothers, K. N. Kudin, 
 V. N. Staroverov, T. A. Keith, R. Kobayashi, J. Normand, 
 K. Raghavachari, A. P. Rendell, J. C. Burant, S. S. Iyengar, 
 J. Tomasi, M. Cossi, J. M. Millam, M. Klene, C. Adamo, R. Cammi, 
 J. W. Ochterski, R. L. Martin, K. Morokuma, O. Farkas, 
 J. B. Foresman, and D. J. Fox, Gaussian, Inc., Wallingford CT, 2016.
 
 ******************************************
 Gaussian 16:  ES64L-G16RevA.03 25-Dec-2016
                22-Sep-2023 
 ******************************************
 %nprocshared=4
 Will use up to    4 processors via shared memory.
 %mem=4GB
 -------------------------
 #m062x/6-31g(d) scf=tight
 -------------------------
 1/38=1,172=1/1;
 2/12=2,17=6,18=5,40=1/2;
 3/5=1,6=6,7=1,11=2,25=1,30=1,74=-55/1,2,3;
 4//1;
 5/5=2,32=2,38=5/2;
 6/7=2,8=2,9=2,10=2,28=1/1;
 99/5=1,9=1/99;
 --------------------
 tmpdir/M2_ref_56.gjf
 --------------------
 Symbolic Z-matrix:
 Charge =  0 Multiplicity = 1
 C                     6.17731   4.71924   5.00006 
 C                     4.99998   3.7854    5.00013 
 C                     3.82268   4.71929   5. 
 O                     5.78752   5.83804   4.99995 
 H                     7.20929   4.39039   5.00012 
 H                     4.99999   3.12603   4.12113 
 H                     4.99994   3.12624   5.87928 
 O                     4.21251   5.83807   4.99987 
 H                     2.79069   4.39047   5.00001 
 
                          Input orientation:                          
 ---------------------------------------------------------------------
 Center     Atomic      Atomic             Coordinates (Angstroms)
 Number     Number       Type             X           Y           Z
 ---------------------------------------------------------------------
      1          6           0        6.177307    4.719241    5.000060
      2          6           0        4.999979    3.785403    5.000128
      3          6           0        3.822684    4.719285    5.000001
      4          8           0        5.787523    5.838041    4.999950
      5          1           0        7.209291    4.390390    5.000123
      6          1           0        4.999986    3.126026    4.121133
      7          1           0        4.999938    3.126236    5.879282
      8          8           0        4.212506    5.838068    4.999868
      9          1           0        2.790691    4.390466    5.000011
 ---------------------------------------------------------------------
                    Distance matrix (angstroms):
                    1          2          3          4          5
     1  C    0.000000
     2  C    1.502716   0.000000
     3  C    2.354623   1.502717   0.000000
     4  O    1.184755   2.198533   2.261019   0.000000
     5  H    1.083113   2.290648   3.402540   2.029068   0.000000
     6  H    2.167241   1.098822   2.167239   2.957627   2.693004
     7  H    2.167232   1.098823   2.167226   2.957600   2.693000
     8  O    2.261022   2.198533   1.184752   1.575017   3.328137
     9  H    3.402537   2.290645   1.083112   3.328133   4.418600
                    6          7          8          9
     6  H    0.000000
     7  H    1.758149   0.000000
     8  O    2.957613   2.957609   0.000000
     9  H    2.692995   2.692985   2.029066   0.000000
 Stoichiometry    C3H4O2
 Framework group  C1[X(C3H4O2)]
 Deg. of freedom    21
 Full point group                 C1      NOp   1
 Largest Abelian subgroup         C1      NOp   1
 Largest concise Abelian subgroup C1      NOp   1
                         Standard orientation:                         
 ---------------------------------------------------------------------
 Center     Atomic      Atomic             Coordinates (Angstroms)
 Number     Number       Type             X           Y           Z
 ---------------------------------------------------------------------
      1          6           0       -1.177312    0.222462    0.000054
      2          6           0       -0.000002    1.156322    0.000122
      3          6           0        1.177311    0.222462   -0.000005
      4          8           0       -0.787507   -0.896330   -0.000056
      5          1           0       -2.209303    0.551294    0.000117
      6          1           0       -0.000021    1.815699   -0.878873
      7          1           0        0.000027    1.815489    0.879276
      8          8           0        0.787510   -0.896328   -0.000138
      9          1           0        2.209297    0.551301    0.000005
 ---------------------------------------------------------------------
 Rotational constants (GHZ):           9.8240495           7.8352536           4.4791816
 Standard basis: 6-31G(d) (6D, 7F)
 There are    83 symmetry adapted cartesian basis functions of A   symmetry.
 There are    83 symmetry adapted basis functions of A   symmetry.
    83 basis functions,   156 primitive gaussians,    83 cartesian basis functions
    19 alpha electrons       19 beta electrons
       nuclear repulsion energy       179.1914753155 Hartrees.
 NAtoms=    9 NActive=    9 NUniq=    9 SFac= 1.00D+00 NAtFMM=   60 NAOKFM=F Big=F
 Integral buffers will be    131072 words long.
 Raffenetti 2 integral format.
 Two-electron integral symmetry is turned on.
 One-electron integrals computed using PRISM.
 NBasis=    83 RedAO= T EigKep=  3.33D-03  NBF=    83
 NBsUse=    83 1.00D-06 EigRej= -1.00D+00 NBFU=    83
 ExpMin= 1.61D-01 ExpMax= 5.48D+03 ExpMxC= 8.25D+02 IAcc=3 IRadAn=         5 AccDes= 0.00D+00
 Harris functional with IExCor= 1009 and IRadAn=       5 diagonalized for initial guess.
 HarFok:  IExCor= 1009 AccDes= 0.00D+00 IRadAn=         5 IDoV= 1 UseB2=F ITyADJ=14
 ICtDFT=  3500011 ScaDFX=  1.000000  1.000000  1.000000  1.000000
 FoFCou: FMM=F IPFlag=           0 FMFlag=      100000 FMFlg1=           0
         NFxFlg=           0 DoJE=T BraDBF=F KetDBF=T FulRan=T
         wScrn=  0.000000 ICntrl=       500 IOpCl=  0 I1Cent=   200000004 NGrid=           0
         NMat0=    1 NMatS0=      1 NMatT0=    0 NMatD0=    1 NMtDS0=    0 NMtDT0=    0
 Petite list used in FoFCou.
 Keep R1 ints in memory in canonical form, NReq=9700327.
 Requested convergence on RMS density matrix=1.00D-08 within 128 cycles.
 Requested convergence on MAX density matrix=1.00D-06.
 Requested convergence on             energy=1.00D-06.
 No special actions if energy rises.
 Integral accuracy reduced to 1.0D-05 until final iterations.
 Initial convergence to 1.0D-05 achieved.  Increase integral accuracy.
 SCF Done:  E(RM062X) =  -266.783425360     A.U. after   20 cycles
            NFock= 20  Conv=0.10D-08     -V/T= 2.0023

 **********************************************************************

            Population analysis using the SCF density.

 **********************************************************************

 Orbital symmetries:
       Occupied  (A) (A) (A) (A) (A) (A) (A) (A) (A) (A) (A) (A)
                 (A) (A) (A) (A) (A) (A) (A)
       Virtual   (A) (A) (A) (A) (A) (A) (A) (A) (A) (A) (A) (A)
                 (A) (A) (A) (A) (A) (A) (A) (A) (A) (A) (A) (A)
                 (A) (A) (A) (A) (A) (A) (A) (A) (A) (A) (A) (A)
                 (A) (A) (A) (A) (A) (A) (A) (A) (A) (A) (A) (A)
                 (A) (A) (A) (A) (A) (A) (A) (A) (A) (A) (A) (A)
                 (A) (A) (A) (A)
 The electronic state is 1-A.
 Alpha  occ. eigenvalues --  -19.61087 -19.61087 -10.62785 -10.62784 -10.55516
 Alpha  occ. eigenvalues --   -1.25203  -1.13494  -0.87119  -0.70022  -0.69326
 Alpha  occ. eigenvalues --   -0.60537  -0.55682  -0.54218  -0.50887  -0.44751
 Alpha  occ. eigenvalues --   -0.44058  -0.42247  -0.37779  -0.16043
 Alpha virt. eigenvalues --    0.01966   0.05450   0.15392   0.18008   0.19169
 Alpha virt. eigenvalues --    0.20271   0.24629   0.30100   0.38122   0.39233
 Alpha virt. eigenvalues --    0.57118   0.59645   0.60540   0.62086   0.68666
 Alpha virt. eigenvalues --    0.73544   0.74638   0.76927   0.78476   0.86898
 Alpha virt. eigenvalues --    0.89846   0.90567   0.93642   0.95166   0.98268
 Alpha virt. eigenvalues --    1.01656   1.02784   1.12858   1.14627   1.27140
 Alpha virt. eigenvalues --    1.39061   1.41987   1.42248   1.55246   1.57840
 Alpha virt. eigenvalues --    1.63148   1.63595   1.66083   1.75152   1.86649
 Alpha virt. eigenvalues --    1.89218   1.98255   2.01249   2.07226   2.08320
 Alpha virt. eigenvalues --    2.11959   2.35133   2.37749   2.37904   2.44026
 Alpha virt. eigenvalues --    2.54582   2.57968   2.70103   2.71574   2.92167
 Alpha virt. eigenvalues --    2.96372   2.98957   3.07335   3.29849   3.83825
 Alpha virt. eigenvalues --    4.12941   4.19919   4.26895   4.45200
          Condensed to atoms (all electrons):
               1          2          3          4          5          6
     1  C    4.681750   0.306013  -0.074506   0.534742   0.332115  -0.019881
     2  C    0.306013   5.782664   0.306013  -0.118306  -0.137050   0.345378
     3  C   -0.074506   0.306013   4.681749   0.014090  -0.000062  -0.019870
     4  O    0.534742  -0.118306   0.014090   8.612853  -0.025989   0.001570
     5  H    0.332115  -0.137050  -0.000062  -0.025989   0.709897   0.002059
     6  H   -0.019881   0.345378  -0.019870   0.001570   0.002059   0.502629
     7  H   -0.019871   0.345377  -0.019883   0.001575   0.002065  -0.019350
     8  O    0.014091  -0.118309   0.534745  -0.722269  -0.009401   0.001575
     9  H   -0.000061  -0.137052   0.332115  -0.009401  -0.000426   0.002065
               7          8          9
     1  C   -0.019871   0.014091  -0.000061
     2  C    0.345377  -0.118309  -0.137052
     3  C   -0.019883   0.534745   0.332115
     4  O    0.001575  -0.722269  -0.009401
     5  H    0.002065  -0.009401  -0.000426
     6  H   -0.019350   0.001575   0.002065
     7  H    0.502632   0.001570   0.002059
     8  O    0.001570   8.612848  -0.025988
     9  H    0.002059  -0.025988   0.709898
 Mulliken charges:
               1
     1  C    0.245608
     2  C   -0.574726
     3  C    0.245607
     4  O   -0.288864
     5  H    0.126793
     6  H    0.203826
     7  H    0.203825
     8  O   -0.288861
     9  H    0.126792
 Sum of Mulliken charges =  -0.00000
 Mulliken charges with hydrogens summed into heavy atoms:
               1
     1  C    0.372401
     2  C   -0.167075
     3  C    0.372399
     4  O   -0.288864
     8  O   -0.288861
 Electronic spatial extent (au):  <R**2>=            300.6199
 Charge=             -0.0000 electrons
 Dipole moment (field-independent basis, Debye):
    X=             -0.0000    Y=              3.5680    Z=              0.0004  Tot=              3.5680
 Quadrupole moment (field-independent basis, Debye-Ang):
   XX=            -27.3109   YY=            -30.4370   ZZ=            -27.0174
   XY=              0.0000   XZ=             -0.0001   YZ=             -0.0004
 Traceless Quadrupole moment (field-independent basis, Debye-Ang):
   XX=              0.9442   YY=             -2.1819   ZZ=              1.2377
   XY=              0.0000   XZ=             -0.0001   YZ=             -0.0004
 Octapole moment (field-independent basis, Debye-Ang**2):
  XXX=             -0.0000  YYY=             -2.9620  ZZZ=             -0.0004  XYY=              0.0001
  XXY=              1.6054  XXZ=              0.0002  XZZ=              0.0000  YZZ=             -1.3533
  YYZ=             -0.0001  XYZ=             -0.0004
 Hexadecapole moment (field-independent basis, Debye-Ang**3):
 XXXX=           -185.3650 YYYY=           -152.9927 ZZZZ=            -29.3843 XXXY=             -0.0000
 XXXZ=              0.0012 YYYX=              0.0000 YYYZ=             -0.0078 ZZZX=              0.0025
 ZZZY=             -0.0056 XXYY=            -63.2244 XXZZ=            -37.4503 YYZZ=            -27.2624
 XXYZ=             -0.0028 YYXZ=              0.0009 ZZXY=              0.0000
 N-N= 1.791914753155D+02 E-N=-9.846913877759D+02  KE= 2.661583996021D+02
 1\1\GINC-NODE62\SP\RM062X\6-31G(d)\C3H4O2\YANZ\22-Sep-2023\0\\#m062x/6
 -31g(d) scf=tight\\tmpdir/M2_ref_56.gjf\\0,1\C,0,6.177307,4.719241,5.0
 0006\C,0,4.999979,3.785403,5.000128\C,0,3.822684,4.719285,5.000001\O,0
 ,5.78752253,5.8380408,4.9999498\H,0,7.209291,4.39039,5.000123\H,0,4.99
 9986,3.126026,4.121133\H,0,4.999938,3.126236,5.879282\O,0,4.2125055,5.
 83806805,4.99986788\H,0,2.790691,4.390466,5.000011\\Version=ES64L-G16R
 evA.03\State=1-A\HF=-266.7834254\RMSD=1.014e-09\Dipole=-0.0000263,-1.4
 037578,0.0001544\Quadrupole=0.7019873,-1.622176,0.9201888,-0.000037,0.
 0000488,0.0002784\PG=C01 [X(C3H4O2)]\\@


 THE WISE MAN HAS THE POWER TO REASON AWAY
 WHAT A FOOL BELIEVES.
                     - DOOBIE BROTHERS
 Job cpu time:       0 days  0 hours  0 minutes 57.7 seconds.
 Elapsed time:       0 days  0 hours  0 minutes 14.7 seconds.
 File lengths (MBytes):  RWF=      6 Int=      0 D2E=      0 Chk=      2 Scr=      1
 Normal termination of Gaussian 16 at Fri Sep 22 17:01:57 2023.
