 Entering Gaussian System, Link 0=g16
 Initial command:
 /share/apps/gaussian/g16/l1.exe "/tmp/55613.mgr/Gau-178374.inp" -scrdir="/tmp/55613.mgr/"
 Entering Link 1 = /share/apps/gaussian/g16/l1.exe PID=    178375.
  
 Copyright (c) 1988,1990,1992,1993,1995,1998,2003,2009,2016,
            Gaussian, Inc.  All Rights Reserved.
  
 This is part of the Gaussian(R) 16 program.  It is based on
 the Gaussian(R) 09 system (copyright 2009, Gaussian, Inc.),
 the Gaussian(R) 03 system (copyright 2003, Gaussian, Inc.),
 the Gaussian(R) 98 system (copyright 1998, Gaussian, Inc.),
 the Gaussian(R) 94 system (copyright 1995, Gaussian, Inc.),
 the Gaussian 92(TM) system (copyright 1992, Gaussian, Inc.),
 the Gaussian 90(TM) system (copyright 1990, Gaussian, Inc.),
 the Gaussian 88(TM) system (copyright 1988, Gaussian, Inc.),
 the Gaussian 86(TM) system (copyright 1986, Carnegie Mellon
 University), and the Gaussian 82(TM) system (copyright 1983,
 Carnegie Mellon University). Gaussian is a federally registered
 trademark of Gaussian, Inc.
  
 This software contains proprietary and confidential information,
 including trade secrets, belonging to Gaussian, Inc.
  
 This software is provided under written license and may be
 used, copied, transmitted, or stored only in accord with that
 written license.
  
 The following legend is applicable only to US Government
 contracts under FAR:
  
                    RESTRICTED RIGHTS LEGEND
  
 Use, reproduction and disclosure by the US Government is
 subject to restrictions as set forth in subparagraphs (a)
 and (c) of the Commercial Computer Software - Restricted
 Rights clause in FAR 52.227-19.
  
 Gaussian, Inc.
 340 Quinnipiac St., Bldg. 40, Wallingford CT 06492
  
  
 ---------------------------------------------------------------
 Warning -- This program may not be used in any manner that
 competes with the business of Gaussian, Inc. or will provide
 assistance to any competitor of Gaussian, Inc.  The licensee
 of this program is prohibited from giving any competitor of
 Gaussian, Inc. access to this program.  By using this program,
 the user acknowledges that Gaussian, Inc. is engaged in the
 business of creating and licensing software in the field of
 computational chemistry and represents and warrants to the
 licensee that it is not a competitor of Gaussian, Inc. and that
 it will not use this program in any manner prohibited above.
 ---------------------------------------------------------------
  

 Cite this work as:
 Gaussian 16, Revision A.03,
 M. J. Frisch, G. W. Trucks, H. B. Schlegel, G. E. Scuseria, 
 M. A. Robb, J. R. Cheeseman, G. Scalmani, V. Barone, 
 G. A. Petersson, H. Nakatsuji, X. Li, M. Caricato, A. V. Marenich, 
 J. Bloino, B. G. Janesko, R. Gomperts, B. Mennucci, H. P. Hratchian, 
 J. V. Ortiz, A. F. Izmaylov, J. L. Sonnenberg, D. Williams-Young, 
 F. Ding, F. Lipparini, F. Egidi, J. Goings, B. Peng, A. Petrone, 
 T. Henderson, D. Ranasinghe, V. G. Zakrzewski, J. Gao, N. Rega, 
 G. Zheng, W. Liang, M. Hada, M. Ehara, K. Toyota, R. Fukuda, 
 J. Hasegawa, M. Ishida, T. Nakajima, Y. Honda, O. Kitao, H. Nakai, 
 T. Vreven, K. Throssell, J. A. Montgomery, Jr., J. E. Peralta, 
 F. Ogliaro, M. J. Bearpark, J. J. Heyd, E. N. Brothers, K. N. Kudin, 
 V. N. Staroverov, T. A. Keith, R. Kobayashi, J. Normand, 
 K. Raghavachari, A. P. Rendell, J. C. Burant, S. S. Iyengar, 
 J. Tomasi, M. Cossi, J. M. Millam, M. Klene, C. Adamo, R. Cammi, 
 J. W. Ochterski, R. L. Martin, K. Morokuma, O. Farkas, 
 J. B. Foresman, and D. J. Fox, Gaussian, Inc., Wallingford CT, 2016.
 
 ******************************************
 Gaussian 16:  ES64L-G16RevA.03 25-Dec-2016
                22-Sep-2023 
 ******************************************
 %nprocshared=4
 Will use up to    4 processors via shared memory.
 %mem=4GB
 -------------------------
 #m062x/6-31g(d) scf=tight
 -------------------------
 1/38=1,172=1/1;
 2/12=2,17=6,18=5,40=1/2;
 3/5=1,6=6,7=1,11=2,25=1,30=1,74=-55/1,2,3;
 4//1;
 5/5=2,32=2,38=5/2;
 6/7=2,8=2,9=2,10=2,28=1/1;
 99/5=1,9=1/99;
 --------------------
 tmpdir/M2_ref_24.gjf
 --------------------
 Symbolic Z-matrix:
 Charge =  0 Multiplicity = 1
 C                    -0.05187  -1.19827   0.00008 
 C                    -1.47462  -0.61823  -0.00004 
 C                    -1.26211   0.87727  -0.00007 
 H                     0.16276  -1.81089  -0.87961 
 H                     0.16268  -1.8106    0.88 
 H                     0.62478  -0.31883  -0.00001 
 H                    -2.05497  -0.92464   0.87728 
 H                    -2.05484  -0.9247   -0.87742 
 O                    -0.12625   1.18792  -0.00003 
 H                    -2.0976    1.5711   -0.0001 
 
                          Input orientation:                          
 ---------------------------------------------------------------------
 Center     Atomic      Atomic             Coordinates (Angstroms)
 Number     Number       Type             X           Y           Z
 ---------------------------------------------------------------------
      1          6           0       -0.051872   -1.198273    0.000084
      2          6           0       -1.474619   -0.618228   -0.000036
      3          6           0       -1.262109    0.877267   -0.000068
      4          1           0        0.162755   -1.810889   -0.879613
      5          1           0        0.162681   -1.810604    0.880002
      6          1           0        0.624776   -0.318828   -0.000009
      7          1           0       -2.054966   -0.924644    0.877284
      8          1           0       -2.054841   -0.924698   -0.877419
      9          8           0       -0.126251    1.187919   -0.000035
     10          1           0       -2.097601    1.571098   -0.000099
 ---------------------------------------------------------------------
                    Distance matrix (angstroms):
                    1          2          3          4          5
     1  C    0.000000
     2  C    1.536444   0.000000
     3  C    2.402611   1.510518   0.000000
     4  H    1.093266   2.208413   3.167021   0.000000
     5  H    1.093269   2.208388   3.166891   1.759615   0.000000
     6  H    1.109629   2.120637   2.234050   1.792600   1.792582
     7  H    2.203801   1.095620   2.155285   2.964861   2.388073
     8  H    2.203801   1.095620   2.155283   2.388110   2.964922
     9  O    2.387351   2.253944   1.177573   3.138476   3.138326
    10  H    3.443025   2.276237   1.086024   4.161801   4.161654
                    6          7          8          9         10
     6  H    0.000000
     7  H    2.884038   0.000000
     8  H    2.883969   1.754703   0.000000
     9  O    1.683546   2.992082   2.992059   0.000000
    10  H    3.314084   2.645817   2.645849   2.008245   0.000000
 Stoichiometry    C3H6O
 Framework group  C1[X(C3H6O)]
 Deg. of freedom    24
 Full point group                 C1      NOp   1
 Largest Abelian subgroup         C1      NOp   1
 Largest concise Abelian subgroup C1      NOp   1
                         Standard orientation:                         
 ---------------------------------------------------------------------
 Center     Atomic      Atomic             Coordinates (Angstroms)
 Number     Number       Type             X           Y           Z
 ---------------------------------------------------------------------
      1          6           0       -1.266917   -0.499317    0.000092
      2          6           0       -0.498923    0.831414   -0.000028
      3          6           0        0.953824    0.417660   -0.000060
      4          1           0       -1.903015   -0.628708   -0.879605
      5          1           0       -1.902723   -0.628674    0.880010
      6          1           0       -0.487575   -1.289192   -0.000002
      7          1           0       -0.723636    1.448015    0.877292
      8          1           0       -0.723707    1.447899   -0.877411
      9          8           0        1.107250   -0.749875   -0.000027
     10          1           0        1.754750    1.151122   -0.000091
 ---------------------------------------------------------------------
 Rotational constants (GHZ):          15.2001950           7.4817587           5.3438093
 Standard basis: 6-31G(d) (6D, 7F)
 There are    72 symmetry adapted cartesian basis functions of A   symmetry.
 There are    72 symmetry adapted basis functions of A   symmetry.
    72 basis functions,   136 primitive gaussians,    72 cartesian basis functions
    16 alpha electrons       16 beta electrons
       nuclear repulsion energy       123.0760863688 Hartrees.
 NAtoms=   10 NActive=   10 NUniq=   10 SFac= 1.00D+00 NAtFMM=   60 NAOKFM=F Big=F
 Integral buffers will be    131072 words long.
 Raffenetti 2 integral format.
 Two-electron integral symmetry is turned on.
 One-electron integrals computed using PRISM.
 NBasis=    72 RedAO= T EigKep=  3.85D-03  NBF=    72
 NBsUse=    72 1.00D-06 EigRej= -1.00D+00 NBFU=    72
 ExpMin= 1.61D-01 ExpMax= 5.48D+03 ExpMxC= 8.25D+02 IAcc=3 IRadAn=         5 AccDes= 0.00D+00
 Harris functional with IExCor= 1009 and IRadAn=       5 diagonalized for initial guess.
 HarFok:  IExCor= 1009 AccDes= 0.00D+00 IRadAn=         5 IDoV= 1 UseB2=F ITyADJ=14
 ICtDFT=  3500011 ScaDFX=  1.000000  1.000000  1.000000  1.000000
 FoFCou: FMM=F IPFlag=           0 FMFlag=      100000 FMFlg1=           0
         NFxFlg=           0 DoJE=T BraDBF=F KetDBF=T FulRan=T
         wScrn=  0.000000 ICntrl=       500 IOpCl=  0 I1Cent=   200000004 NGrid=           0
         NMat0=    1 NMatS0=      1 NMatT0=    0 NMatD0=    1 NMtDS0=    0 NMtDT0=    0
 Petite list used in FoFCou.
 Keep R1 ints in memory in canonical form, NReq=7043300.
 Requested convergence on RMS density matrix=1.00D-08 within 128 cycles.
 Requested convergence on MAX density matrix=1.00D-06.
 Requested convergence on             energy=1.00D-06.
 No special actions if energy rises.
 Integral accuracy reduced to 1.0D-05 until final iterations.
 Initial convergence to 1.0D-05 achieved.  Increase integral accuracy.
 SCF Done:  E(RM062X) =  -193.016571800     A.U. after   14 cycles
            NFock= 14  Conv=0.46D-08     -V/T= 2.0069

 **********************************************************************

            Population analysis using the SCF density.

 **********************************************************************

 Orbital symmetries:
       Occupied  (A) (A) (A) (A) (A) (A) (A) (A) (A) (A) (A) (A)
                 (A) (A) (A) (A)
       Virtual   (A) (A) (A) (A) (A) (A) (A) (A) (A) (A) (A) (A)
                 (A) (A) (A) (A) (A) (A) (A) (A) (A) (A) (A) (A)
                 (A) (A) (A) (A) (A) (A) (A) (A) (A) (A) (A) (A)
                 (A) (A) (A) (A) (A) (A) (A) (A) (A) (A) (A) (A)
                 (A) (A) (A) (A) (A) (A) (A) (A)
 The electronic state is 1-A.
 Alpha  occ. eigenvalues --  -19.64395 -10.63699 -10.54823 -10.51307  -1.20074
 Alpha  occ. eigenvalues --   -0.86583  -0.74645  -0.64343  -0.58016  -0.53763
 Alpha  occ. eigenvalues --   -0.53425  -0.45464  -0.42378  -0.40305  -0.39562
 Alpha  occ. eigenvalues --   -0.32162
 Alpha virt. eigenvalues --    0.03304   0.15173   0.17541   0.17647   0.20679
 Alpha virt. eigenvalues --    0.26038   0.27531   0.27948   0.31814   0.37324
 Alpha virt. eigenvalues --    0.55480   0.58293   0.63828   0.64224   0.68206
 Alpha virt. eigenvalues --    0.70937   0.75698   0.81537   0.81815   0.83756
 Alpha virt. eigenvalues --    0.90252   0.91366   0.94457   0.97666   0.99329
 Alpha virt. eigenvalues --    1.02092   1.05079   1.09606   1.14464   1.30215
 Alpha virt. eigenvalues --    1.42978   1.48697   1.57252   1.59650   1.64332
 Alpha virt. eigenvalues --    1.80116   1.85865   1.93614   2.00074   2.03202
 Alpha virt. eigenvalues --    2.10146   2.13519   2.14741   2.26838   2.36431
 Alpha virt. eigenvalues --    2.40746   2.49902   2.52547   2.64184   2.74558
 Alpha virt. eigenvalues --    2.93836   3.04641   3.93514   4.12755   4.27351
 Alpha virt. eigenvalues --    4.49357
          Condensed to atoms (all electrons):
               1          2          3          4          5          6
     1  C    5.210542   0.345454  -0.051606   0.378277   0.378281   0.393456
     2  C    0.345454   5.363585   0.313272  -0.033152  -0.033155  -0.045209
     3  C   -0.051606   0.313272   4.597427   0.002768   0.002767  -0.022852
     4  H    0.378277  -0.033152   0.002768   0.545843  -0.026656  -0.021285
     5  H    0.378281  -0.033155   0.002767  -0.026656   0.545844  -0.021286
     6  H    0.393456  -0.045209  -0.022852  -0.021285  -0.021286   0.452338
     7  H   -0.029576   0.366713  -0.023663   0.002606  -0.006441   0.002776
     8  H   -0.029575   0.366712  -0.023662  -0.006440   0.002607   0.002775
     9  O   -0.069074  -0.124843   0.580426   0.002146   0.002146   0.008848
    10  H    0.003736  -0.098501   0.366578  -0.000045  -0.000045   0.001274
               7          8          9         10
     1  C   -0.029576  -0.029575  -0.069074   0.003736
     2  C    0.366713   0.366712  -0.124843  -0.098501
     3  C   -0.023663  -0.023662   0.580426   0.366578
     4  H    0.002606  -0.006440   0.002146  -0.000045
     5  H   -0.006441   0.002607   0.002146  -0.000045
     6  H    0.002776   0.002775   0.008848   0.001274
     7  H    0.527127  -0.026217   0.001549   0.002577
     8  H   -0.026217   0.527124   0.001549   0.002577
     9  O    0.001549   0.001549   8.026562  -0.045662
    10  H    0.002577   0.002577  -0.045662   0.617759
 Mulliken charges:
               1
     1  C   -0.529915
     2  C   -0.420876
     3  C    0.258545
     4  H    0.155937
     5  H    0.155939
     6  H    0.249164
     7  H    0.182549
     8  H    0.182551
     9  O   -0.383648
    10  H    0.149753
 Sum of Mulliken charges =  -0.00000
 Mulliken charges with hydrogens summed into heavy atoms:
               1
     1  C    0.031125
     2  C   -0.055776
     3  C    0.408298
     9  O   -0.383648
 Electronic spatial extent (au):  <R**2>=            271.0303
 Charge=             -0.0000 electrons
 Dipole moment (field-independent basis, Debye):
    X=             -0.1582    Y=              2.1566    Z=             -0.0001  Tot=              2.1624
 Quadrupole moment (field-independent basis, Debye-Ang):
   XX=            -25.9927   YY=            -25.0918   ZZ=            -24.0975
   XY=              2.3929   XZ=              0.0000   YZ=             -0.0001
 Traceless Quadrupole moment (field-independent basis, Debye-Ang):
   XX=             -0.9320   YY=             -0.0311   ZZ=              0.9631
   XY=              2.3929   XZ=              0.0000   YZ=             -0.0001
 Octapole moment (field-independent basis, Debye-Ang**2):
  XXX=              5.8981  YYY=             -0.9965  ZZZ=             -0.0001  XYY=              1.4481
  XXY=              3.0494  XXZ=             -0.0005  XZZ=              1.1205  YZZ=             -0.0572
  YYZ=             -0.0000  XYZ=             -0.0001
 Hexadecapole moment (field-independent basis, Debye-Ang**3):
 XXXX=           -203.9591 YYYY=           -111.2723 ZZZZ=            -35.5078 XXXY=              3.9924
 XXXZ=              0.0052 YYYX=             -2.7128 YYYZ=              0.0024 ZZZX=              0.0037
 ZZZY=              0.0017 XXYY=            -53.0580 XXZZ=            -37.3459 YYZZ=            -23.3118
 XXYZ=              0.0006 YYXZ=              0.0014 ZZXY=             -1.4924
 N-N= 1.230760863688D+02 E-N=-6.962353898044D+02  KE= 1.916946785759D+02
 1\1\GINC-NODE62\SP\RM062X\6-31G(d)\C3H6O1\YANZ\22-Sep-2023\0\\#m062x/6
 -31g(d) scf=tight\\tmpdir/M2_ref_24.gjf\\0,1\C,0,-0.051872,-1.198273,0
 .000084\C,0,-1.474619,-0.618228,-0.000036\C,0,-1.262109,0.877267,-0.00
 0068\H,0,0.162755,-1.810889,-0.879613\H,0,0.162681,-1.810604,0.880002\
 H,0,0.6247761,-0.31882752,-0.00000938\H,0,-2.054966,-0.924644,0.877284
 \H,0,-2.054841,-0.924698,-0.877419\O,0,-0.12625081,1.18791939,-0.00003
 45\H,0,-2.097601,1.571098,-0.000099\\Version=ES64L-G16RevA.03\State=1-
 A\HF=-193.0165718\RMSD=4.574e-09\Dipole=-0.8321583,-0.1769547,-0.00002
 77\Quadrupole=0.4434993,-1.1595638,0.7160645,-1.6232291,0.000046,0.000
 0297\PG=C01 [X(C3H6O1)]\\@


 THE ONLY TROUBLE WITH A SURE THING IS THE UNCERTAINTY.
     -- FROM A TEABAG (BELONGING TO W.H.?)
 Job cpu time:       0 days  0 hours  0 minutes 39.0 seconds.
 Elapsed time:       0 days  0 hours  0 minutes 10.0 seconds.
 File lengths (MBytes):  RWF=      6 Int=      0 D2E=      0 Chk=      1 Scr=      1
 Normal termination of Gaussian 16 at Fri Sep 22 17:01:20 2023.
