 Entering Gaussian System, Link 0=g16
 Initial command:
 /share/apps/gaussian/g16/l1.exe "/tmp/55613.mgr/Gau-179224.inp" -scrdir="/tmp/55613.mgr/"
 Entering Link 1 = /share/apps/gaussian/g16/l1.exe PID=    179225.
  
 Copyright (c) 1988,1990,1992,1993,1995,1998,2003,2009,2016,
            Gaussian, Inc.  All Rights Reserved.
  
 This is part of the Gaussian(R) 16 program.  It is based on
 the Gaussian(R) 09 system (copyright 2009, Gaussian, Inc.),
 the Gaussian(R) 03 system (copyright 2003, Gaussian, Inc.),
 the Gaussian(R) 98 system (copyright 1998, Gaussian, Inc.),
 the Gaussian(R) 94 system (copyright 1995, Gaussian, Inc.),
 the Gaussian 92(TM) system (copyright 1992, Gaussian, Inc.),
 the Gaussian 90(TM) system (copyright 1990, Gaussian, Inc.),
 the Gaussian 88(TM) system (copyright 1988, Gaussian, Inc.),
 the Gaussian 86(TM) system (copyright 1986, Carnegie Mellon
 University), and the Gaussian 82(TM) system (copyright 1983,
 Carnegie Mellon University). Gaussian is a federally registered
 trademark of Gaussian, Inc.
  
 This software contains proprietary and confidential information,
 including trade secrets, belonging to Gaussian, Inc.
  
 This software is provided under written license and may be
 used, copied, transmitted, or stored only in accord with that
 written license.
  
 The following legend is applicable only to US Government
 contracts under FAR:
  
                    RESTRICTED RIGHTS LEGEND
  
 Use, reproduction and disclosure by the US Government is
 subject to restrictions as set forth in subparagraphs (a)
 and (c) of the Commercial Computer Software - Restricted
 Rights clause in FAR 52.227-19.
  
 Gaussian, Inc.
 340 Quinnipiac St., Bldg. 40, Wallingford CT 06492
  
  
 ---------------------------------------------------------------
 Warning -- This program may not be used in any manner that
 competes with the business of Gaussian, Inc. or will provide
 assistance to any competitor of Gaussian, Inc.  The licensee
 of this program is prohibited from giving any competitor of
 Gaussian, Inc. access to this program.  By using this program,
 the user acknowledges that Gaussian, Inc. is engaged in the
 business of creating and licensing software in the field of
 computational chemistry and represents and warrants to the
 licensee that it is not a competitor of Gaussian, Inc. and that
 it will not use this program in any manner prohibited above.
 ---------------------------------------------------------------
  

 Cite this work as:
 Gaussian 16, Revision A.03,
 M. J. Frisch, G. W. Trucks, H. B. Schlegel, G. E. Scuseria, 
 M. A. Robb, J. R. Cheeseman, G. Scalmani, V. Barone, 
 G. A. Petersson, H. Nakatsuji, X. Li, M. Caricato, A. V. Marenich, 
 J. Bloino, B. G. Janesko, R. Gomperts, B. Mennucci, H. P. Hratchian, 
 J. V. Ortiz, A. F. Izmaylov, J. L. Sonnenberg, D. Williams-Young, 
 F. Ding, F. Lipparini, F. Egidi, J. Goings, B. Peng, A. Petrone, 
 T. Henderson, D. Ranasinghe, V. G. Zakrzewski, J. Gao, N. Rega, 
 G. Zheng, W. Liang, M. Hada, M. Ehara, K. Toyota, R. Fukuda, 
 J. Hasegawa, M. Ishida, T. Nakajima, Y. Honda, O. Kitao, H. Nakai, 
 T. Vreven, K. Throssell, J. A. Montgomery, Jr., J. E. Peralta, 
 F. Ogliaro, M. J. Bearpark, J. J. Heyd, E. N. Brothers, K. N. Kudin, 
 V. N. Staroverov, T. A. Keith, R. Kobayashi, J. Normand, 
 K. Raghavachari, A. P. Rendell, J. C. Burant, S. S. Iyengar, 
 J. Tomasi, M. Cossi, J. M. Millam, M. Klene, C. Adamo, R. Cammi, 
 J. W. Ochterski, R. L. Martin, K. Morokuma, O. Farkas, 
 J. B. Foresman, and D. J. Fox, Gaussian, Inc., Wallingford CT, 2016.
 
 ******************************************
 Gaussian 16:  ES64L-G16RevA.03 25-Dec-2016
                22-Sep-2023 
 ******************************************
 %nprocshared=4
 Will use up to    4 processors via shared memory.
 %mem=4GB
 -------------------------
 #m062x/6-31g(d) scf=tight
 -------------------------
 1/38=1,172=1/1;
 2/12=2,17=6,18=5,40=1/2;
 3/5=1,6=6,7=1,11=2,25=1,30=1,74=-55/1,2,3;
 4//1;
 5/5=2,32=2,38=5/2;
 6/7=2,8=2,9=2,10=2,28=1/1;
 99/5=1,9=1/99;
 --------------------
 tmpdir/M2_ref_38.gjf
 --------------------
 Symbolic Z-matrix:
 Charge =  0 Multiplicity = 1
 C                    -1.26211   0.87727  -0.00007 
 C                     0.02627   1.22963  -0.00003 
 C                     0.88287   0.01662  -0.00005 
 H                    -1.41594  -0.2053   -0.00004 
 H                    -2.0976    1.5711   -0.0001 
 H                     0.43427   2.23297  -0.00001 
 H                     0.20622  -0.86282   0.00005 
 O                     2.09056  -0.02192   0.00005 
 
                          Input orientation:                          
 ---------------------------------------------------------------------
 Center     Atomic      Atomic             Coordinates (Angstroms)
 Number     Number       Type             X           Y           Z
 ---------------------------------------------------------------------
      1          6           0       -1.262109    0.877267   -0.000068
      2          6           0        0.026273    1.229634   -0.000030
      3          6           0        0.882872    0.016622   -0.000045
      4          1           0       -1.415942   -0.205301   -0.000045
      5          1           0       -2.097601    1.571098   -0.000099
      6          1           0        0.434268    2.232970   -0.000010
      7          1           0        0.206224   -0.862823    0.000048
      8          8           0        2.090555   -0.021921    0.000053
 ---------------------------------------------------------------------
                    Distance matrix (angstroms):
                    1          2          3          4          5
     1  C    0.000000
     2  C    1.335699   0.000000
     3  C    2.311202   1.484978   0.000000
     4  H    1.093443   2.034459   2.309501   0.000000
     5  H    1.086024   2.151148   3.361490   1.902696   0.000000
     6  H    2.171549   1.083117   2.261293   3.060791   2.616952
     7  H    2.276822   2.100181   1.109629   1.750359   3.351355
     8  O    3.471152   2.414053   1.208298   3.511289   4.480888
                    6          7          8
     6  H    0.000000
     7  H    3.104181   0.000000
     8  O    2.797824   2.063449   0.000000
 Stoichiometry    C3H4O
 Framework group  C1[X(C3H4O)]
 Deg. of freedom    18
 Full point group                 C1      NOp   1
 Largest Abelian subgroup         C1      NOp   1
 Largest concise Abelian subgroup C1      NOp   1
                         Standard orientation:                         
 ---------------------------------------------------------------------
 Center     Atomic      Atomic             Coordinates (Angstroms)
 Number     Number       Type             X           Y           Z
 ---------------------------------------------------------------------
      1          6           0        1.681321   -0.202899    0.000050
      2          6           0        0.583188    0.557491    0.000012
      3          6           0       -0.627753   -0.302033    0.000027
      4          1           0        1.466756   -1.275084    0.000027
      5          1           0        2.699867    0.173946    0.000081
      6          1           0        0.531705    1.639384   -0.000008
      7          1           0       -0.281717   -1.356327   -0.000066
      8          8           0       -1.779643    0.062841   -0.000071
 ---------------------------------------------------------------------
 Rotational constants (GHZ):          43.5638663           4.9099834           4.4126444
 Standard basis: 6-31G(d) (6D, 7F)
 There are    68 symmetry adapted cartesian basis functions of A   symmetry.
 There are    68 symmetry adapted basis functions of A   symmetry.
    68 basis functions,   128 primitive gaussians,    68 cartesian basis functions
    15 alpha electrons       15 beta electrons
       nuclear repulsion energy       103.9427489078 Hartrees.
 NAtoms=    8 NActive=    8 NUniq=    8 SFac= 1.00D+00 NAtFMM=   60 NAOKFM=F Big=F
 Integral buffers will be    131072 words long.
 Raffenetti 2 integral format.
 Two-electron integral symmetry is turned on.
 One-electron integrals computed using PRISM.
 NBasis=    68 RedAO= T EigKep=  3.58D-03  NBF=    68
 NBsUse=    68 1.00D-06 EigRej= -1.00D+00 NBFU=    68
 ExpMin= 1.61D-01 ExpMax= 5.48D+03 ExpMxC= 8.25D+02 IAcc=3 IRadAn=         5 AccDes= 0.00D+00
 Harris functional with IExCor= 1009 and IRadAn=       5 diagonalized for initial guess.
 HarFok:  IExCor= 1009 AccDes= 0.00D+00 IRadAn=         5 IDoV= 1 UseB2=F ITyADJ=14
 ICtDFT=  3500011 ScaDFX=  1.000000  1.000000  1.000000  1.000000
 FoFCou: FMM=F IPFlag=           0 FMFlag=      100000 FMFlg1=           0
         NFxFlg=           0 DoJE=T BraDBF=F KetDBF=T FulRan=T
         wScrn=  0.000000 ICntrl=       500 IOpCl=  0 I1Cent=   200000004 NGrid=           0
         NMat0=    1 NMatS0=      1 NMatT0=    0 NMatD0=    1 NMtDS0=    0 NMtDT0=    0
 Petite list used in FoFCou.
 Keep R1 ints in memory in canonical form, NReq=6324883.
 Requested convergence on RMS density matrix=1.00D-08 within 128 cycles.
 Requested convergence on MAX density matrix=1.00D-06.
 Requested convergence on             energy=1.00D-06.
 No special actions if energy rises.
 Integral accuracy reduced to 1.0D-05 until final iterations.
 Initial convergence to 1.0D-05 achieved.  Increase integral accuracy.
 SCF Done:  E(RM062X) =  -191.810410778     A.U. after   14 cycles
            NFock= 14  Conv=0.80D-08     -V/T= 2.0083

 **********************************************************************

            Population analysis using the SCF density.

 **********************************************************************

 Orbital symmetries:
       Occupied  (A) (A) (A) (A) (A) (A) (A) (A) (A) (A) (A) (A)
                 (A) (A) (A)
       Virtual   (A) (A) (A) (A) (A) (A) (A) (A) (A) (A) (A) (A)
                 (A) (A) (A) (A) (A) (A) (A) (A) (A) (A) (A) (A)
                 (A) (A) (A) (A) (A) (A) (A) (A) (A) (A) (A) (A)
                 (A) (A) (A) (A) (A) (A) (A) (A) (A) (A) (A) (A)
                 (A) (A) (A) (A) (A)
 The electronic state is 1-A.
 Alpha  occ. eigenvalues --  -19.64245 -10.63969 -10.58015 -10.56971  -1.16734
 Alpha  occ. eigenvalues --   -0.91323  -0.72377  -0.66591  -0.55512  -0.53809
 Alpha  occ. eigenvalues --   -0.49053  -0.47145  -0.46563  -0.35121  -0.32892
 Alpha virt. eigenvalues --   -0.01528   0.10066   0.13998   0.16476   0.22299
 Alpha virt. eigenvalues --    0.22944   0.31658   0.35553   0.39947   0.55763
 Alpha virt. eigenvalues --    0.55993   0.63502   0.64071   0.67103   0.68035
 Alpha virt. eigenvalues --    0.71705   0.75609   0.86383   0.88786   0.91408
 Alpha virt. eigenvalues --    0.93071   0.95612   1.01103   1.06944   1.11017
 Alpha virt. eigenvalues --    1.17525   1.20030   1.30783   1.39342   1.47661
 Alpha virt. eigenvalues --    1.60272   1.67836   1.70287   1.77284   1.84506
 Alpha virt. eigenvalues --    1.89758   1.93520   2.03788   2.14711   2.20616
 Alpha virt. eigenvalues --    2.25030   2.32074   2.40679   2.48637   2.64332
 Alpha virt. eigenvalues --    2.66316   2.85174   2.97833   3.05739   3.93999
 Alpha virt. eigenvalues --    4.10380   4.21798   4.42623
          Condensed to atoms (all electrons):
               1          2          3          4          5          6
     1  C    5.117744   0.533596  -0.018113   0.387587   0.369953  -0.035571
     2  C    0.533596   5.198801   0.331857  -0.061229  -0.024053   0.369792
     3  C   -0.018113   0.331857   4.564486  -0.015140   0.002871  -0.024752
     4  H    0.387587  -0.061229  -0.015140   0.516456  -0.026566   0.004007
     5  H    0.369953  -0.024053   0.002871  -0.026566   0.487337  -0.001911
     6  H   -0.035571   0.369792  -0.024752   0.004007  -0.001911   0.487604
     7  H    0.011323  -0.154570   0.376607   0.014820   0.000197   0.003895
     8  O    0.003616  -0.068643   0.550489   0.000482  -0.000082  -0.000139
               7          8
     1  C    0.011323   0.003616
     2  C   -0.154570  -0.068643
     3  C    0.376607   0.550489
     4  H    0.014820   0.000482
     5  H    0.000197  -0.000082
     6  H    0.003895  -0.000139
     7  H    0.677616  -0.046959
     8  O   -0.046959   7.983228
 Mulliken charges:
               1
     1  C   -0.370134
     2  C   -0.125551
     3  C    0.231695
     4  H    0.179584
     5  H    0.192254
     6  H    0.197074
     7  H    0.117071
     8  O   -0.421993
 Sum of Mulliken charges =  -0.00000
 Mulliken charges with hydrogens summed into heavy atoms:
               1
     1  C    0.001705
     2  C    0.071523
     3  C    0.348766
     8  O   -0.421993
 Electronic spatial extent (au):  <R**2>=            287.4530
 Charge=             -0.0000 electrons
 Dipole moment (field-independent basis, Debye):
    X=              3.1278    Y=             -0.3459    Z=              0.0001  Tot=              3.1469
 Quadrupole moment (field-independent basis, Debye-Ang):
   XX=            -26.6877   YY=            -21.3774   ZZ=            -24.5358
   XY=              0.4702   XZ=             -0.0002   YZ=              0.0000
 Traceless Quadrupole moment (field-independent basis, Debye-Ang):
   XX=             -2.4874   YY=              2.8229   ZZ=             -0.3355
   XY=              0.4702   XZ=             -0.0002   YZ=              0.0000
 Octapole moment (field-independent basis, Debye-Ang**2):
  XXX=             11.6918  YYY=              1.6868  ZZZ=             -0.0004  XYY=             -0.7592
  XXY=              0.2910  XXZ=              0.0007  XZZ=             -4.3495  YZZ=             -0.0591
  YYZ=             -0.0002  XYZ=              0.0000
 Hexadecapole moment (field-independent basis, Debye-Ang**3):
 XXXX=           -272.1999 YYYY=            -55.4385 ZZZZ=            -22.9980 XXXY=              2.6520
 XXXZ=             -0.0036 YYYX=              0.0597 YYYZ=              0.0002 ZZZX=             -0.0039
 ZZZY=              0.0001 XXYY=            -56.5328 XXZZ=            -51.5646 YYZZ=            -14.8031
 XXYZ=              0.0001 YYXZ=             -0.0013 ZZXY=             -0.2482
 N-N= 1.039427489078D+02 E-N=-6.551206393548D+02  KE= 1.902407818936D+02
 1\1\GINC-NODE62\SP\RM062X\6-31G(d)\C3H4O1\YANZ\22-Sep-2023\0\\#m062x/6
 -31g(d) scf=tight\\tmpdir/M2_ref_38.gjf\\0,1\C,0,-1.262109,0.877267,-0
 .000068\C,0,0.026273,1.229634,-0.00003\C,0,0.882872,0.016622,-0.000045
 \H,0,-1.41594201,-0.20530089,-0.00004484\H,0,-2.097601,1.571098,-0.000
 099\H,0,0.434268,2.23297,-0.00001\H,0,0.2062239,-0.86282348,0.00004838
 \O,0,2.090555,-0.021921,0.000053\\Version=ES64L-G16RevA.03\State=1-A\H
 F=-191.8104108\RMSD=7.976e-09\Dipole=-1.2059053,0.2804707,-0.0000562\Q
 uadrupole=-1.6326089,1.8820535,-0.2494446,0.9647455,-0.0001312,0.00003
 41\PG=C01 [X(C3H4O1)]\\@


 ...THOSE SCIENCES ARE VAIN AND FULL OF ERRORS WHICH 
 ARE NOT BORN FROM EXPERIMENT, THE MOTHER OF CERTAINTY...

                          -- LEONARDO DA VINCI, 1452-1519
 Job cpu time:       0 days  0 hours  0 minutes 31.2 seconds.
 Elapsed time:       0 days  0 hours  0 minutes  8.1 seconds.
 File lengths (MBytes):  RWF=      6 Int=      0 D2E=      0 Chk=      1 Scr=      1
 Normal termination of Gaussian 16 at Fri Sep 22 17:01:38 2023.
