 Entering Gaussian System, Link 0=g16
 Initial command:
 /share/apps/gaussian/g16/l1.exe "/tmp/55613.mgr/Gau-178756.inp" -scrdir="/tmp/55613.mgr/"
 Entering Link 1 = /share/apps/gaussian/g16/l1.exe PID=    178757.
  
 Copyright (c) 1988,1990,1992,1993,1995,1998,2003,2009,2016,
            Gaussian, Inc.  All Rights Reserved.
  
 This is part of the Gaussian(R) 16 program.  It is based on
 the Gaussian(R) 09 system (copyright 2009, Gaussian, Inc.),
 the Gaussian(R) 03 system (copyright 2003, Gaussian, Inc.),
 the Gaussian(R) 98 system (copyright 1998, Gaussian, Inc.),
 the Gaussian(R) 94 system (copyright 1995, Gaussian, Inc.),
 the Gaussian 92(TM) system (copyright 1992, Gaussian, Inc.),
 the Gaussian 90(TM) system (copyright 1990, Gaussian, Inc.),
 the Gaussian 88(TM) system (copyright 1988, Gaussian, Inc.),
 the Gaussian 86(TM) system (copyright 1986, Carnegie Mellon
 University), and the Gaussian 82(TM) system (copyright 1983,
 Carnegie Mellon University). Gaussian is a federally registered
 trademark of Gaussian, Inc.
  
 This software contains proprietary and confidential information,
 including trade secrets, belonging to Gaussian, Inc.
  
 This software is provided under written license and may be
 used, copied, transmitted, or stored only in accord with that
 written license.
  
 The following legend is applicable only to US Government
 contracts under FAR:
  
                    RESTRICTED RIGHTS LEGEND
  
 Use, reproduction and disclosure by the US Government is
 subject to restrictions as set forth in subparagraphs (a)
 and (c) of the Commercial Computer Software - Restricted
 Rights clause in FAR 52.227-19.
  
 Gaussian, Inc.
 340 Quinnipiac St., Bldg. 40, Wallingford CT 06492
  
  
 ---------------------------------------------------------------
 Warning -- This program may not be used in any manner that
 competes with the business of Gaussian, Inc. or will provide
 assistance to any competitor of Gaussian, Inc.  The licensee
 of this program is prohibited from giving any competitor of
 Gaussian, Inc. access to this program.  By using this program,
 the user acknowledges that Gaussian, Inc. is engaged in the
 business of creating and licensing software in the field of
 computational chemistry and represents and warrants to the
 licensee that it is not a competitor of Gaussian, Inc. and that
 it will not use this program in any manner prohibited above.
 ---------------------------------------------------------------
  

 Cite this work as:
 Gaussian 16, Revision A.03,
 M. J. Frisch, G. W. Trucks, H. B. Schlegel, G. E. Scuseria, 
 M. A. Robb, J. R. Cheeseman, G. Scalmani, V. Barone, 
 G. A. Petersson, H. Nakatsuji, X. Li, M. Caricato, A. V. Marenich, 
 J. Bloino, B. G. Janesko, R. Gomperts, B. Mennucci, H. P. Hratchian, 
 J. V. Ortiz, A. F. Izmaylov, J. L. Sonnenberg, D. Williams-Young, 
 F. Ding, F. Lipparini, F. Egidi, J. Goings, B. Peng, A. Petrone, 
 T. Henderson, D. Ranasinghe, V. G. Zakrzewski, J. Gao, N. Rega, 
 G. Zheng, W. Liang, M. Hada, M. Ehara, K. Toyota, R. Fukuda, 
 J. Hasegawa, M. Ishida, T. Nakajima, Y. Honda, O. Kitao, H. Nakai, 
 T. Vreven, K. Throssell, J. A. Montgomery, Jr., J. E. Peralta, 
 F. Ogliaro, M. J. Bearpark, J. J. Heyd, E. N. Brothers, K. N. Kudin, 
 V. N. Staroverov, T. A. Keith, R. Kobayashi, J. Normand, 
 K. Raghavachari, A. P. Rendell, J. C. Burant, S. S. Iyengar, 
 J. Tomasi, M. Cossi, J. M. Millam, M. Klene, C. Adamo, R. Cammi, 
 J. W. Ochterski, R. L. Martin, K. Morokuma, O. Farkas, 
 J. B. Foresman, and D. J. Fox, Gaussian, Inc., Wallingford CT, 2016.
 
 ******************************************
 Gaussian 16:  ES64L-G16RevA.03 25-Dec-2016
                22-Sep-2023 
 ******************************************
 %nprocshared=4
 Will use up to    4 processors via shared memory.
 %mem=4GB
 -------------------------
 #m062x/6-31g(d) scf=tight
 -------------------------
 1/38=1,172=1/1;
 2/12=2,17=6,18=5,40=1/2;
 3/5=1,6=6,7=1,11=2,25=1,30=1,74=-55/1,2,3;
 4//1;
 5/5=2,32=2,38=5/2;
 6/7=2,8=2,9=2,10=2,28=1/1;
 99/5=1,9=1/99;
 --------------------
 tmpdir/M2_ref_36.gjf
 --------------------
 Symbolic Z-matrix:
 Charge =  0 Multiplicity = 1
 C                     0.02627   1.22963  -0.00003 
 C                     0.88287   0.01662  -0.00005 
 C                    -1.26211   0.87727  -0.00007 
 H                     0.43427   2.23297  -0.00001 
 H                     0.20622  -0.86282   0.00005 
 C                     2.25272  -0.0271    0.00007 
 
                          Input orientation:                          
 ---------------------------------------------------------------------
 Center     Atomic      Atomic             Coordinates (Angstroms)
 Number     Number       Type             X           Y           Z
 ---------------------------------------------------------------------
      1          6           0        0.026273    1.229634   -0.000030
      2          6           0        0.882872    0.016622   -0.000045
      3          6           0       -1.262109    0.877267   -0.000068
      4          1           0        0.434268    2.232970   -0.000010
      5          1           0        0.206224   -0.862823    0.000048
      6          6           0        2.252724   -0.027097    0.000066
 ---------------------------------------------------------------------
                    Distance matrix (angstroms):
                    1          2          3          4          5
     1  C    0.000000
     2  C    1.484978   0.000000
     3  C    1.335699   2.311202   0.000000
     4  H    1.083117   2.261293   2.171549   0.000000
     5  H    2.100181   1.109629   2.276822   3.104181   0.000000
     6  C    2.556649   1.370549   3.629314   2.900807   2.210566
                    6
     6  C    0.000000
 Stoichiometry    C4H2
 Framework group  C1[X(C4H2)]
 Deg. of freedom    12
 Full point group                 C1      NOp   1
 Largest Abelian subgroup         C1      NOp   1
 Largest concise Abelian subgroup C1      NOp   1
                         Standard orientation:                         
 ---------------------------------------------------------------------
 Center     Atomic      Atomic             Coordinates (Angstroms)
 Number     Number       Type             X           Y           Z
 ---------------------------------------------------------------------
      1          6           0       -0.656739    0.489807   -0.000014
      2          6           0        0.578646   -0.334199   -0.000029
      3          6           0       -1.732334   -0.302144   -0.000052
      4          1           0       -0.636687    1.572739    0.000006
      5          1           0        0.263364   -1.398095    0.000065
      6          6           0        1.872647    0.117429    0.000082
 ---------------------------------------------------------------------
 Rotational constants (GHZ):          50.9525455           5.7569085           5.1724910
 Standard basis: 6-31G(d) (6D, 7F)
 There are    64 symmetry adapted cartesian basis functions of A   symmetry.
 There are    64 symmetry adapted basis functions of A   symmetry.
    64 basis functions,   120 primitive gaussians,    64 cartesian basis functions
    13 alpha electrons       13 beta electrons
       nuclear repulsion energy        76.2006378135 Hartrees.
 NAtoms=    6 NActive=    6 NUniq=    6 SFac= 1.00D+00 NAtFMM=   60 NAOKFM=F Big=F
 Integral buffers will be    131072 words long.
 Raffenetti 2 integral format.
 Two-electron integral symmetry is turned on.
 One-electron integrals computed using PRISM.
 NBasis=    64 RedAO= T EigKep=  4.37D-03  NBF=    64
 NBsUse=    64 1.00D-06 EigRej= -1.00D+00 NBFU=    64
 ExpMin= 1.61D-01 ExpMax= 3.05D+03 ExpMxC= 4.57D+02 IAcc=3 IRadAn=         5 AccDes= 0.00D+00
 Harris functional with IExCor= 1009 and IRadAn=       5 diagonalized for initial guess.
 HarFok:  IExCor= 1009 AccDes= 0.00D+00 IRadAn=         5 IDoV= 1 UseB2=F ITyADJ=14
 ICtDFT=  3500011 ScaDFX=  1.000000  1.000000  1.000000  1.000000
 FoFCou: FMM=F IPFlag=           0 FMFlag=      100000 FMFlg1=           0
         NFxFlg=           0 DoJE=T BraDBF=F KetDBF=T FulRan=T
         wScrn=  0.000000 ICntrl=       500 IOpCl=  0 I1Cent=   200000004 NGrid=           0
         NMat0=    1 NMatS0=      1 NMatT0=    0 NMatD0=    1 NMtDS0=    0 NMtDT0=    0
 Petite list used in FoFCou.
 Keep R1 ints in memory in canonical form, NReq=5719186.
 Requested convergence on RMS density matrix=1.00D-08 within 128 cycles.
 Requested convergence on MAX density matrix=1.00D-06.
 Requested convergence on             energy=1.00D-06.
 No special actions if energy rises.
 Integral accuracy reduced to 1.0D-05 until final iterations.
 Initial convergence to 1.0D-05 achieved.  Increase integral accuracy.
 SCF Done:  E(RM062X) =  -153.241968629     A.U. after   15 cycles
            NFock= 15  Conv=0.76D-08     -V/T= 2.0094

 **********************************************************************

            Population analysis using the SCF density.

 **********************************************************************

 Orbital symmetries:
       Occupied  (A) (A) (A) (A) (A) (A) (A) (A) (A) (A) (A) (A)
                 (A)
       Virtual   (A) (A) (A) (A) (A) (A) (A) (A) (A) (A) (A) (A)
                 (A) (A) (A) (A) (A) (A) (A) (A) (A) (A) (A) (A)
                 (A) (A) (A) (A) (A) (A) (A) (A) (A) (A) (A) (A)
                 (A) (A) (A) (A) (A) (A) (A) (A) (A) (A) (A) (A)
                 (A) (A) (A)
 The electronic state is 1-A.
 Alpha  occ. eigenvalues --  -10.63807 -10.63613 -10.59609 -10.59126  -0.94316
 Alpha  occ. eigenvalues --   -0.82918  -0.64431  -0.62310  -0.50442  -0.42110
 Alpha  occ. eigenvalues --   -0.38426  -0.36670  -0.30617
 Alpha virt. eigenvalues --   -0.07614  -0.05759   0.00620   0.09768   0.15569
 Alpha virt. eigenvalues --    0.20782   0.28516   0.38461   0.38618   0.53170
 Alpha virt. eigenvalues --    0.55393   0.56512   0.58518   0.61278   0.64400
 Alpha virt. eigenvalues --    0.66250   0.67224   0.68046   0.71030   0.73045
 Alpha virt. eigenvalues --    0.76309   0.88094   0.90595   0.95285   1.01896
 Alpha virt. eigenvalues --    1.17087   1.23377   1.36201   1.44494   1.55515
 Alpha virt. eigenvalues --    1.69349   1.70096   1.73307   1.78558   1.78834
 Alpha virt. eigenvalues --    1.87372   1.99716   2.00441   2.12340   2.12510
 Alpha virt. eigenvalues --    2.31387   2.39793   2.41748   2.53052   2.62325
 Alpha virt. eigenvalues --    2.81734   2.89394   3.95557   3.99903   4.12103
 Alpha virt. eigenvalues --    4.40276
          Condensed to atoms (all electrons):
               1          2          3          4          5          6
     1  C    5.094966   0.318197   0.499713   0.349956  -0.045025  -0.012731
     2  C    0.318197   5.199859  -0.013022  -0.024558   0.334005   0.487479
     3  C    0.499713  -0.013022   5.519110  -0.016829   0.007704  -0.000054
     4  H    0.349956  -0.024558  -0.016829   0.451035   0.003952  -0.002804
     5  H   -0.045025   0.334005   0.007704   0.003952   0.468071  -0.007583
     6  C   -0.012731   0.487479  -0.000054  -0.002804  -0.007583   5.510159
 Mulliken charges:
               1
     1  C   -0.205076
     2  C   -0.301959
     3  C    0.003377
     4  H    0.239248
     5  H    0.238876
     6  C    0.025534
 Sum of Mulliken charges =  -0.00000
 Mulliken charges with hydrogens summed into heavy atoms:
               1
     1  C    0.034172
     2  C   -0.063084
     3  C    0.003377
     6  C    0.025534
 Electronic spatial extent (au):  <R**2>=            239.7739
 Charge=             -0.0000 electrons
 Dipole moment (field-independent basis, Debye):
    X=             -0.5067    Y=              0.5609    Z=              0.0001  Tot=              0.7559
 Quadrupole moment (field-independent basis, Debye-Ang):
   XX=            -31.1087   YY=            -19.5096   ZZ=            -25.5461
   XY=             -3.8937   XZ=             -0.0002   YZ=             -0.0002
 Traceless Quadrupole moment (field-independent basis, Debye-Ang):
   XX=             -5.7206   YY=              5.8786   ZZ=             -0.1580
   XY=             -3.8937   XZ=             -0.0002   YZ=             -0.0002
 Octapole moment (field-independent basis, Debye-Ang**2):
  XXX=             -6.7294  YYY=              2.4723  ZZZ=              0.0001  XYY=              0.7710
  XXY=              2.8248  XXZ=             -0.0001  XZZ=             -0.4591  YZZ=              0.3162
  YYZ=              0.0003  XYZ=             -0.0002
 Hexadecapole moment (field-independent basis, Debye-Ang**3):
 XXXX=           -335.8504 YYYY=            -45.1816 ZZZZ=            -27.4545 XXXY=            -27.1705
 XXXZ=             -0.0063 YYYX=             -7.0148 YYYZ=             -0.0007 ZZZX=             -0.0045
 ZZZY=             -0.0004 XXYY=            -56.5731 XXZZ=            -55.2928 YYZZ=            -14.1550
 XXYZ=             -0.0009 YYXZ=             -0.0014 ZZXY=             -1.2184
 N-N= 7.620063781345D+01 E-N=-5.069590433588D+02  KE= 1.518113767496D+02
 1\1\GINC-NODE62\SP\RM062X\6-31G(d)\C4H2\YANZ\22-Sep-2023\0\\#m062x/6-3
 1g(d) scf=tight\\tmpdir/M2_ref_36.gjf\\0,1\C,0,0.026273,1.229634,-0.00
 003\C,0,0.882872,0.016622,-0.000045\C,0,-1.262109,0.877267,-0.000068\H
 ,0,0.434268,2.23297,-0.00001\H,0,0.2062239,-0.86282348,0.00004838\C,0,
 2.25272388,-0.02709659,0.00006616\\Version=ES64L-G16RevA.03\State=1-A\
 HF=-153.2419686\RMSD=7.605e-09\Dipole=-0.1067062,0.2775747,0.0000265\Q
 uadrupole=-5.0808741,5.1983375,-0.1174633,0.7460311,-0.0002239,-0.0000
 802\PG=C01 [X(C4H2)]\\@


 "TIGER, TIGER BURNING BRIGHT
 IN THE FOREST OF THE NIGHT.
 WHAT IMMORTAL HAND OR EYE
 CAN FRAME THY FEARFUL SYMMETRYE?"
                     - WILLIAM BLAKE
 Job cpu time:       0 days  0 hours  0 minutes 23.9 seconds.
 Elapsed time:       0 days  0 hours  0 minutes  6.2 seconds.
 File lengths (MBytes):  RWF=      6 Int=      0 D2E=      0 Chk=      1 Scr=      1
 Normal termination of Gaussian 16 at Fri Sep 22 17:01:26 2023.
