 Entering Gaussian System, Link 0=g16
 Initial command:
 /share/apps/gaussian/g16/l1.exe "/tmp/55613.mgr/Gau-178882.inp" -scrdir="/tmp/55613.mgr/"
 Entering Link 1 = /share/apps/gaussian/g16/l1.exe PID=    178883.
  
 Copyright (c) 1988,1990,1992,1993,1995,1998,2003,2009,2016,
            Gaussian, Inc.  All Rights Reserved.
  
 This is part of the Gaussian(R) 16 program.  It is based on
 the Gaussian(R) 09 system (copyright 2009, Gaussian, Inc.),
 the Gaussian(R) 03 system (copyright 2003, Gaussian, Inc.),
 the Gaussian(R) 98 system (copyright 1998, Gaussian, Inc.),
 the Gaussian(R) 94 system (copyright 1995, Gaussian, Inc.),
 the Gaussian 92(TM) system (copyright 1992, Gaussian, Inc.),
 the Gaussian 90(TM) system (copyright 1990, Gaussian, Inc.),
 the Gaussian 88(TM) system (copyright 1988, Gaussian, Inc.),
 the Gaussian 86(TM) system (copyright 1986, Carnegie Mellon
 University), and the Gaussian 82(TM) system (copyright 1983,
 Carnegie Mellon University). Gaussian is a federally registered
 trademark of Gaussian, Inc.
  
 This software contains proprietary and confidential information,
 including trade secrets, belonging to Gaussian, Inc.
  
 This software is provided under written license and may be
 used, copied, transmitted, or stored only in accord with that
 written license.
  
 The following legend is applicable only to US Government
 contracts under FAR:
  
                    RESTRICTED RIGHTS LEGEND
  
 Use, reproduction and disclosure by the US Government is
 subject to restrictions as set forth in subparagraphs (a)
 and (c) of the Commercial Computer Software - Restricted
 Rights clause in FAR 52.227-19.
  
 Gaussian, Inc.
 340 Quinnipiac St., Bldg. 40, Wallingford CT 06492
  
  
 ---------------------------------------------------------------
 Warning -- This program may not be used in any manner that
 competes with the business of Gaussian, Inc. or will provide
 assistance to any competitor of Gaussian, Inc.  The licensee
 of this program is prohibited from giving any competitor of
 Gaussian, Inc. access to this program.  By using this program,
 the user acknowledges that Gaussian, Inc. is engaged in the
 business of creating and licensing software in the field of
 computational chemistry and represents and warrants to the
 licensee that it is not a competitor of Gaussian, Inc. and that
 it will not use this program in any manner prohibited above.
 ---------------------------------------------------------------
  

 Cite this work as:
 Gaussian 16, Revision A.03,
 M. J. Frisch, G. W. Trucks, H. B. Schlegel, G. E. Scuseria, 
 M. A. Robb, J. R. Cheeseman, G. Scalmani, V. Barone, 
 G. A. Petersson, H. Nakatsuji, X. Li, M. Caricato, A. V. Marenich, 
 J. Bloino, B. G. Janesko, R. Gomperts, B. Mennucci, H. P. Hratchian, 
 J. V. Ortiz, A. F. Izmaylov, J. L. Sonnenberg, D. Williams-Young, 
 F. Ding, F. Lipparini, F. Egidi, J. Goings, B. Peng, A. Petrone, 
 T. Henderson, D. Ranasinghe, V. G. Zakrzewski, J. Gao, N. Rega, 
 G. Zheng, W. Liang, M. Hada, M. Ehara, K. Toyota, R. Fukuda, 
 J. Hasegawa, M. Ishida, T. Nakajima, Y. Honda, O. Kitao, H. Nakai, 
 T. Vreven, K. Throssell, J. A. Montgomery, Jr., J. E. Peralta, 
 F. Ogliaro, M. J. Bearpark, J. J. Heyd, E. N. Brothers, K. N. Kudin, 
 V. N. Staroverov, T. A. Keith, R. Kobayashi, J. Normand, 
 K. Raghavachari, A. P. Rendell, J. C. Burant, S. S. Iyengar, 
 J. Tomasi, M. Cossi, J. M. Millam, M. Klene, C. Adamo, R. Cammi, 
 J. W. Ochterski, R. L. Martin, K. Morokuma, O. Farkas, 
 J. B. Foresman, and D. J. Fox, Gaussian, Inc., Wallingford CT, 2016.
 
 ******************************************
 Gaussian 16:  ES64L-G16RevA.03 25-Dec-2016
                22-Sep-2023 
 ******************************************
 %nprocshared=4
 Will use up to    4 processors via shared memory.
 %mem=4GB
 -------------------------
 #m062x/6-31g(d) scf=tight
 -------------------------
 1/38=1,172=1/1;
 2/12=2,17=6,18=5,40=1/2;
 3/5=1,6=6,7=1,11=2,25=1,30=1,74=-55/1,2,3;
 4//1;
 5/5=2,32=2,38=5/2;
 6/7=2,8=2,9=2,10=2,28=1/1;
 99/5=1,9=1/99;
 --------------------
 tmpdir/M2_ref_32.gjf
 --------------------
 Symbolic Z-matrix:
 Charge =  0 Multiplicity = 1
 C                    -1.47462  -0.61823  -0.00004 
 C                    -1.26211   0.87727  -0.00007 
 C                     0.02627   1.22963  -0.00003 
 H                    -0.44471  -1.03811   0.00005 
 H                    -2.05497  -0.92464   0.87728 
 H                    -2.05484  -0.9247   -0.87742 
 H                    -2.0976    1.5711   -0.0001 
 H                     0.43427   2.23297  -0.00001 
 H                     0.64635   0.35155  -0.00004 
 
                          Input orientation:                          
 ---------------------------------------------------------------------
 Center     Atomic      Atomic             Coordinates (Angstroms)
 Number     Number       Type             X           Y           Z
 ---------------------------------------------------------------------
      1          6           0       -1.474619   -0.618228   -0.000036
      2          6           0       -1.262109    0.877267   -0.000068
      3          6           0        0.026273    1.229634   -0.000030
      4          1           0       -0.444712   -1.038114    0.000051
      5          1           0       -2.054966   -0.924644    0.877284
      6          1           0       -2.054841   -0.924698   -0.877419
      7          1           0       -2.097601    1.571098   -0.000099
      8          1           0        0.434268    2.232970   -0.000010
      9          1           0        0.646353    0.351552   -0.000041
 ---------------------------------------------------------------------
                    Distance matrix (angstroms):
                    1          2          3          4          5
     1  C    0.000000
     2  C    1.510518   0.000000
     3  C    2.380603   1.335699   0.000000
     4  H    1.112211   2.082504   2.316141   0.000000
     5  H    1.095620   2.155285   3.121242   1.837207   0.000000
     6  H    1.095620   2.155283   3.121217   1.837207   1.754703
     7  H    2.276237   1.086024   2.151148   3.088694   2.645817
     8  H    3.431207   2.171549   1.083117   3.387123   4.115393
     9  H    2.332165   1.979546   1.074955   1.766804   3.113760
                    6          7          8          9
     6  H    0.000000
     7  H    2.645849   0.000000
     8  H    4.115383   2.616952   0.000000
     9  H    3.113688   3.002762   1.893334   0.000000
 Stoichiometry    C3H6
 Framework group  C1[X(C3H6)]
 Deg. of freedom    21
 Full point group                 C1      NOp   1
 Largest Abelian subgroup         C1      NOp   1
 Largest concise Abelian subgroup C1      NOp   1
                         Standard orientation:                         
 ---------------------------------------------------------------------
 Center     Atomic      Atomic             Coordinates (Angstroms)
 Number     Number       Type             X           Y           Z
 ---------------------------------------------------------------------
      1          6           0        1.171570   -0.186636   -0.000007
      2          6           0       -0.144452    0.554817    0.000025
      3          6           0       -1.208105   -0.253102   -0.000013
      4          1           0        0.878007   -1.259405   -0.000094
      5          1           0        1.767885    0.087410   -0.877327
      6          1           0        1.767852    0.087278    0.877376
      7          1           0       -0.186580    1.640023    0.000056
      8          1           0       -2.252554    0.033726   -0.000033
      9          1           0       -0.888682   -1.279502   -0.000002
 ---------------------------------------------------------------------
 Rotational constants (GHZ):          40.7676853          10.3601961           8.7022807
 Standard basis: 6-31G(d) (6D, 7F)
 There are    57 symmetry adapted cartesian basis functions of A   symmetry.
 There are    57 symmetry adapted basis functions of A   symmetry.
    57 basis functions,   108 primitive gaussians,    57 cartesian basis functions
    12 alpha electrons       12 beta electrons
       nuclear repulsion energy        71.5956294956 Hartrees.
 NAtoms=    9 NActive=    9 NUniq=    9 SFac= 1.00D+00 NAtFMM=   60 NAOKFM=F Big=F
 Integral buffers will be    131072 words long.
 Raffenetti 2 integral format.
 Two-electron integral symmetry is turned on.
 One-electron integrals computed using PRISM.
 NBasis=    57 RedAO= T EigKep=  4.13D-03  NBF=    57
 NBsUse=    57 1.00D-06 EigRej= -1.00D+00 NBFU=    57
 ExpMin= 1.61D-01 ExpMax= 3.05D+03 ExpMxC= 4.57D+02 IAcc=3 IRadAn=         5 AccDes= 0.00D+00
 Harris functional with IExCor= 1009 and IRadAn=       5 diagonalized for initial guess.
 HarFok:  IExCor= 1009 AccDes= 0.00D+00 IRadAn=         5 IDoV= 1 UseB2=F ITyADJ=14
 ICtDFT=  3500011 ScaDFX=  1.000000  1.000000  1.000000  1.000000
 FoFCou: FMM=F IPFlag=           0 FMFlag=      100000 FMFlg1=           0
         NFxFlg=           0 DoJE=T BraDBF=F KetDBF=T FulRan=T
         wScrn=  0.000000 ICntrl=       500 IOpCl=  0 I1Cent=   200000004 NGrid=           0
         NMat0=    1 NMatS0=      1 NMatT0=    0 NMatD0=    1 NMtDS0=    0 NMtDT0=    0
 Petite list used in FoFCou.
 Keep R1 ints in memory in canonical form, NReq=4889603.
 Requested convergence on RMS density matrix=1.00D-08 within 128 cycles.
 Requested convergence on MAX density matrix=1.00D-06.
 Requested convergence on             energy=1.00D-06.
 No special actions if energy rises.
 Integral accuracy reduced to 1.0D-05 until final iterations.
 Initial convergence to 1.0D-05 achieved.  Increase integral accuracy.
 SCF Done:  E(RM062X) =  -117.822309056     A.U. after   13 cycles
            NFock= 13  Conv=0.26D-08     -V/T= 2.0089

 **********************************************************************

            Population analysis using the SCF density.

 **********************************************************************

 Orbital symmetries:
       Occupied  (A) (A) (A) (A) (A) (A) (A) (A) (A) (A) (A) (A)
       Virtual   (A) (A) (A) (A) (A) (A) (A) (A) (A) (A) (A) (A)
                 (A) (A) (A) (A) (A) (A) (A) (A) (A) (A) (A) (A)
                 (A) (A) (A) (A) (A) (A) (A) (A) (A) (A) (A) (A)
                 (A) (A) (A) (A) (A) (A) (A) (A) (A)
 The electronic state is 1-A.
 Alpha  occ. eigenvalues --  -10.54579 -10.53779 -10.53017  -0.88729  -0.75836
 Alpha  occ. eigenvalues --   -0.63275  -0.54540  -0.47320  -0.45751  -0.43287
 Alpha  occ. eigenvalues --   -0.40443  -0.30554
 Alpha virt. eigenvalues --    0.06987   0.15463   0.17833   0.20338   0.22081
 Alpha virt. eigenvalues --    0.22898   0.25762   0.33953   0.41193   0.53967
 Alpha virt. eigenvalues --    0.58231   0.62812   0.64931   0.67922   0.71604
 Alpha virt. eigenvalues --    0.72240   0.78785   0.82618   0.93363   0.94581
 Alpha virt. eigenvalues --    0.94996   0.98889   1.02156   1.03051   1.14713
 Alpha virt. eigenvalues --    1.30205   1.34378   1.46516   1.56406   1.76911
 Alpha virt. eigenvalues --    1.80198   1.94067   2.09677   2.11751   2.11760
 Alpha virt. eigenvalues --    2.30210   2.31722   2.36754   2.43946   2.56602
 Alpha virt. eigenvalues --    2.78021   2.84226   4.14508   4.24323   4.41296
          Condensed to atoms (all electrons):
               1          2          3          4          5          6
     1  C    5.127285   0.376730  -0.055935   0.387284   0.372851   0.372849
     2  C    0.376730   4.847507   0.688356  -0.050057  -0.035006  -0.035007
     3  C   -0.055935   0.688356   5.022273  -0.012198  -0.000803  -0.000804
     4  H    0.387284  -0.050057  -0.012198   0.543437  -0.021346  -0.021346
     5  H    0.372851  -0.035006  -0.000803  -0.021346   0.549753  -0.035478
     6  H    0.372849  -0.035007  -0.000804  -0.021346  -0.035478   0.549755
     7  H   -0.044332   0.376519  -0.039219   0.003906   0.000146   0.000147
     8  H    0.005841  -0.032610   0.377464   0.000495  -0.000199  -0.000199
     9  H   -0.027392  -0.051836   0.387536   0.011115   0.000813   0.000814
               7          8          9
     1  C   -0.044332   0.005841  -0.027392
     2  C    0.376519  -0.032610  -0.051836
     3  C   -0.039219   0.377464   0.387536
     4  H    0.003906   0.000495   0.011115
     5  H    0.000146  -0.000199   0.000813
     6  H    0.000147  -0.000199   0.000814
     7  H    0.539888  -0.003758   0.005769
     8  H   -0.003758   0.521503  -0.031517
     9  H    0.005769  -0.031517   0.559413
 Mulliken charges:
               1
     1  C   -0.515181
     2  C   -0.084596
     3  C   -0.366670
     4  H    0.158710
     5  H    0.169270
     6  H    0.169270
     7  H    0.160933
     8  H    0.162980
     9  H    0.145284
 Sum of Mulliken charges =  -0.00000
 Mulliken charges with hydrogens summed into heavy atoms:
               1
     1  C   -0.017931
     2  C    0.076336
     3  C   -0.058405
 Electronic spatial extent (au):  <R**2>=            186.8297
 Charge=             -0.0000 electrons
 Dipole moment (field-independent basis, Debye):
    X=              0.2492    Y=              0.1797    Z=              0.0000  Tot=              0.3072
 Quadrupole moment (field-independent basis, Debye-Ang):
   XX=            -19.1797   YY=            -18.7464   ZZ=            -21.4925
   XY=              0.2146   XZ=              0.0000   YZ=              0.0000
 Traceless Quadrupole moment (field-independent basis, Debye-Ang):
   XX=              0.6265   YY=              1.0598   ZZ=             -1.6863
   XY=              0.2146   XZ=              0.0000   YZ=              0.0000
 Octapole moment (field-independent basis, Debye-Ang**2):
  XXX=             -3.0870  YYY=              0.9173  ZZZ=              0.0001  XYY=             -0.2522
  XXY=              1.3177  XXZ=             -0.0001  XZZ=              2.1576  YZZ=              0.2662
  YYZ=              0.0000  XYZ=             -0.0001
 Hexadecapole moment (field-independent basis, Debye-Ang**3):
 XXXX=           -159.0706 YYYY=            -53.6310 ZZZZ=            -28.9428 XXXY=              0.3003
 XXXZ=              0.0001 YYYX=             -0.3619 YYYZ=             -0.0002 ZZZX=              0.0000
 ZZZY=             -0.0006 XXYY=            -39.5716 XXZZ=            -32.8457 YYZZ=            -15.4518
 XXYZ=             -0.0004 YYXZ=             -0.0002 ZZXY=              0.5732
 N-N= 7.159562949559D+01 E-N=-4.153027756662D+02  KE= 1.167870860610D+02
 1\1\GINC-NODE62\SP\RM062X\6-31G(d)\C3H6\YANZ\22-Sep-2023\0\\#m062x/6-3
 1g(d) scf=tight\\tmpdir/M2_ref_32.gjf\\0,1\C,0,-1.474619,-0.618228,-0.
 000036\C,0,-1.262109,0.877267,-0.000068\C,0,0.026273,1.229634,-0.00003
 \H,0,-0.44471237,-1.03811445,0.00005087\H,0,-2.054966,-0.924644,0.8772
 84\H,0,-2.054841,-0.924698,-0.877419\H,0,-2.097601,1.571098,-0.000099\
 H,0,0.434268,2.23297,-0.00001\H,0,0.64635302,0.3515516,-0.00004086\\Ve
 rsion=ES64L-G16RevA.03\State=1-A\HF=-117.8223091\RMSD=2.600e-09\Dipole
 =-0.1157614,-0.0347629,-0.0000036\Quadrupole=0.8226949,0.4310221,-1.25
 3717,-0.1141875,0.0000479,0.0000084\PG=C01 [X(C3H6)]\\@


 THE WORLD IS MADE UP OF THE WILLS, THE WON'TS, AND THE CANT'S:
 THE WILLS DO EVERYTHING,
 THE WON'TS DO NOTHING,
 THE CAN'TS CAN'T DO ANYTHING.

                               -- FROM WALT DISNEY'S "BLACK HOLE"
 Job cpu time:       0 days  0 hours  0 minutes 26.6 seconds.
 Elapsed time:       0 days  0 hours  0 minutes  6.8 seconds.
 File lengths (MBytes):  RWF=      6 Int=      0 D2E=      0 Chk=      1 Scr=      1
 Normal termination of Gaussian 16 at Fri Sep 22 17:01:29 2023.
