 Entering Gaussian System, Link 0=g16
 Initial command:
 /share/apps/gaussian/g16/l1.exe "/tmp/55613.mgr/Gau-178262.inp" -scrdir="/tmp/55613.mgr/"
 Entering Link 1 = /share/apps/gaussian/g16/l1.exe PID=    178263.
  
 Copyright (c) 1988,1990,1992,1993,1995,1998,2003,2009,2016,
            Gaussian, Inc.  All Rights Reserved.
  
 This is part of the Gaussian(R) 16 program.  It is based on
 the Gaussian(R) 09 system (copyright 2009, Gaussian, Inc.),
 the Gaussian(R) 03 system (copyright 2003, Gaussian, Inc.),
 the Gaussian(R) 98 system (copyright 1998, Gaussian, Inc.),
 the Gaussian(R) 94 system (copyright 1995, Gaussian, Inc.),
 the Gaussian 92(TM) system (copyright 1992, Gaussian, Inc.),
 the Gaussian 90(TM) system (copyright 1990, Gaussian, Inc.),
 the Gaussian 88(TM) system (copyright 1988, Gaussian, Inc.),
 the Gaussian 86(TM) system (copyright 1986, Carnegie Mellon
 University), and the Gaussian 82(TM) system (copyright 1983,
 Carnegie Mellon University). Gaussian is a federally registered
 trademark of Gaussian, Inc.
  
 This software contains proprietary and confidential information,
 including trade secrets, belonging to Gaussian, Inc.
  
 This software is provided under written license and may be
 used, copied, transmitted, or stored only in accord with that
 written license.
  
 The following legend is applicable only to US Government
 contracts under FAR:
  
                    RESTRICTED RIGHTS LEGEND
  
 Use, reproduction and disclosure by the US Government is
 subject to restrictions as set forth in subparagraphs (a)
 and (c) of the Commercial Computer Software - Restricted
 Rights clause in FAR 52.227-19.
  
 Gaussian, Inc.
 340 Quinnipiac St., Bldg. 40, Wallingford CT 06492
  
  
 ---------------------------------------------------------------
 Warning -- This program may not be used in any manner that
 competes with the business of Gaussian, Inc. or will provide
 assistance to any competitor of Gaussian, Inc.  The licensee
 of this program is prohibited from giving any competitor of
 Gaussian, Inc. access to this program.  By using this program,
 the user acknowledges that Gaussian, Inc. is engaged in the
 business of creating and licensing software in the field of
 computational chemistry and represents and warrants to the
 licensee that it is not a competitor of Gaussian, Inc. and that
 it will not use this program in any manner prohibited above.
 ---------------------------------------------------------------
  

 Cite this work as:
 Gaussian 16, Revision A.03,
 M. J. Frisch, G. W. Trucks, H. B. Schlegel, G. E. Scuseria, 
 M. A. Robb, J. R. Cheeseman, G. Scalmani, V. Barone, 
 G. A. Petersson, H. Nakatsuji, X. Li, M. Caricato, A. V. Marenich, 
 J. Bloino, B. G. Janesko, R. Gomperts, B. Mennucci, H. P. Hratchian, 
 J. V. Ortiz, A. F. Izmaylov, J. L. Sonnenberg, D. Williams-Young, 
 F. Ding, F. Lipparini, F. Egidi, J. Goings, B. Peng, A. Petrone, 
 T. Henderson, D. Ranasinghe, V. G. Zakrzewski, J. Gao, N. Rega, 
 G. Zheng, W. Liang, M. Hada, M. Ehara, K. Toyota, R. Fukuda, 
 J. Hasegawa, M. Ishida, T. Nakajima, Y. Honda, O. Kitao, H. Nakai, 
 T. Vreven, K. Throssell, J. A. Montgomery, Jr., J. E. Peralta, 
 F. Ogliaro, M. J. Bearpark, J. J. Heyd, E. N. Brothers, K. N. Kudin, 
 V. N. Staroverov, T. A. Keith, R. Kobayashi, J. Normand, 
 K. Raghavachari, A. P. Rendell, J. C. Burant, S. S. Iyengar, 
 J. Tomasi, M. Cossi, J. M. Millam, M. Klene, C. Adamo, R. Cammi, 
 J. W. Ochterski, R. L. Martin, K. Morokuma, O. Farkas, 
 J. B. Foresman, and D. J. Fox, Gaussian, Inc., Wallingford CT, 2016.
 
 ******************************************
 Gaussian 16:  ES64L-G16RevA.03 25-Dec-2016
                22-Sep-2023 
 ******************************************
 %nprocshared=4
 Will use up to    4 processors via shared memory.
 %mem=4GB
 -------------------------
 #m062x/6-31g(d) scf=tight
 -------------------------
 1/38=1,172=1/1;
 2/12=2,17=6,18=5,40=1/2;
 3/5=1,6=6,7=1,11=2,25=1,30=1,74=-55/1,2,3;
 4//1;
 5/5=2,32=2,38=5/2;
 6/7=2,8=2,9=2,10=2,28=1/1;
 99/5=1,9=1/99;
 --------------------
 tmpdir/M2_ref_17.gjf
 --------------------
 Symbolic Z-matrix:
 Charge =  0 Multiplicity = 1
 C                    -1.47462  -0.61823  -0.00004 
 C                    -0.05187  -1.19827   0.00008 
 C                     0.88287   0.01662  -0.00005 
 H                    -1.32079   0.46434  -0.00006 
 H                    -2.05497  -0.92464   0.87728 
 H                    -2.05484  -0.9247   -0.87742 
 H                     0.16276  -1.81089  -0.87961 
 H                     0.16268  -1.8106    0.88 
 H                     0.26279   0.8947   -0.00003 
 O                     2.09056  -0.02192   0.00005 
 
                          Input orientation:                          
 ---------------------------------------------------------------------
 Center     Atomic      Atomic             Coordinates (Angstroms)
 Number     Number       Type             X           Y           Z
 ---------------------------------------------------------------------
      1          6           0       -1.474619   -0.618228   -0.000036
      2          6           0       -0.051872   -1.198273    0.000084
      3          6           0        0.882872    0.016622   -0.000045
      4          1           0       -1.320786    0.464340   -0.000059
      5          1           0       -2.054966   -0.924644    0.877284
      6          1           0       -2.054841   -0.924698   -0.877419
      7          1           0        0.162755   -1.810889   -0.879613
      8          1           0        0.162681   -1.810604    0.880002
      9          1           0        0.262792    0.894704   -0.000034
     10          8           0        2.090555   -0.021921    0.000053
 ---------------------------------------------------------------------
                    Distance matrix (angstroms):
                    1          2          3          4          5
     1  C    0.000000
     2  C    1.536444   0.000000
     3  C    2.441475   1.532878   0.000000
     4  H    1.093443   2.091512   2.248680   0.000000
     5  H    1.095620   2.203801   3.207270   1.799452   0.000000
     6  H    1.095620   2.203801   3.207184   1.799451   1.754703
     7  H    2.208413   1.093266   2.152209   2.855026   2.964861
     8  H    2.208388   1.093269   2.152188   2.854917   2.388073
     9  H    2.303815   2.116499   1.074955   1.641016   3.074365
    10  O    3.614699   2.444135   1.208298   3.445823   4.332411
                    6          7          8          9         10
     6  H    0.000000
     7  H    2.388110   0.000000
     8  H    2.964922   1.759615   0.000000
     9  H    3.074321   2.846735   2.846608   0.000000
    10  O    4.332352   2.773199   2.773156   2.044730   0.000000
 Stoichiometry    C3H6O
 Framework group  C1[X(C3H6O)]
 Deg. of freedom    24
 Full point group                 C1      NOp   1
 Largest Abelian subgroup         C1      NOp   1
 Largest concise Abelian subgroup C1      NOp   1
                         Standard orientation:                         
 ---------------------------------------------------------------------
 Center     Atomic      Atomic             Coordinates (Angstroms)
 Number     Number       Type             X           Y           Z
 ---------------------------------------------------------------------
      1          6           0        1.711979   -0.259183   -0.000055
      2          6           0        0.463508    0.636351    0.000065
      3          6           0       -0.728543   -0.327356   -0.000064
      4          1           0        1.310180   -1.276127   -0.000078
      5          1           0        2.347742   -0.096397    0.877265
      6          1           0        2.347633   -0.096315   -0.877438
      7          1           0        0.397503    1.282111   -0.879632
      8          1           0        0.397509    1.281817    0.879983
      9          1           0       -0.330085   -1.325735   -0.000053
     10          8           0       -1.894018   -0.008528    0.000034
 ---------------------------------------------------------------------
 Rotational constants (GHZ):          30.0775253           4.3131058           3.9559421
 Standard basis: 6-31G(d) (6D, 7F)
 There are    72 symmetry adapted cartesian basis functions of A   symmetry.
 There are    72 symmetry adapted basis functions of A   symmetry.
    72 basis functions,   136 primitive gaussians,    72 cartesian basis functions
    16 alpha electrons       16 beta electrons
       nuclear repulsion energy       116.7344873347 Hartrees.
 NAtoms=   10 NActive=   10 NUniq=   10 SFac= 1.00D+00 NAtFMM=   60 NAOKFM=F Big=F
 Integral buffers will be    131072 words long.
 Raffenetti 2 integral format.
 Two-electron integral symmetry is turned on.
 One-electron integrals computed using PRISM.
 NBasis=    72 RedAO= T EigKep=  4.45D-03  NBF=    72
 NBsUse=    72 1.00D-06 EigRej= -1.00D+00 NBFU=    72
 ExpMin= 1.61D-01 ExpMax= 5.48D+03 ExpMxC= 8.25D+02 IAcc=3 IRadAn=         5 AccDes= 0.00D+00
 Harris functional with IExCor= 1009 and IRadAn=       5 diagonalized for initial guess.
 HarFok:  IExCor= 1009 AccDes= 0.00D+00 IRadAn=         5 IDoV= 1 UseB2=F ITyADJ=14
 ICtDFT=  3500011 ScaDFX=  1.000000  1.000000  1.000000  1.000000
 FoFCou: FMM=F IPFlag=           0 FMFlag=      100000 FMFlg1=           0
         NFxFlg=           0 DoJE=T BraDBF=F KetDBF=T FulRan=T
         wScrn=  0.000000 ICntrl=       500 IOpCl=  0 I1Cent=   200000004 NGrid=           0
         NMat0=    1 NMatS0=      1 NMatT0=    0 NMatD0=    1 NMtDS0=    0 NMtDT0=    0
 Petite list used in FoFCou.
 Keep R1 ints in memory in canonical form, NReq=7043300.
 Requested convergence on RMS density matrix=1.00D-08 within 128 cycles.
 Requested convergence on MAX density matrix=1.00D-06.
 Requested convergence on             energy=1.00D-06.
 No special actions if energy rises.
 Integral accuracy reduced to 1.0D-05 until final iterations.
 Initial convergence to 1.0D-05 achieved.  Increase integral accuracy.
 SCF Done:  E(RM062X) =  -193.029613472     A.U. after   14 cycles
            NFock= 14  Conv=0.47D-08     -V/T= 2.0081

 **********************************************************************

            Population analysis using the SCF density.

 **********************************************************************

 Orbital symmetries:
       Occupied  (A) (A) (A) (A) (A) (A) (A) (A) (A) (A) (A) (A)
                 (A) (A) (A) (A)
       Virtual   (A) (A) (A) (A) (A) (A) (A) (A) (A) (A) (A) (A)
                 (A) (A) (A) (A) (A) (A) (A) (A) (A) (A) (A) (A)
                 (A) (A) (A) (A) (A) (A) (A) (A) (A) (A) (A) (A)
                 (A) (A) (A) (A) (A) (A) (A) (A) (A) (A) (A) (A)
                 (A) (A) (A) (A) (A) (A) (A) (A)
 The electronic state is 1-A.
 Alpha  occ. eigenvalues --  -19.64674 -10.63768 -10.55556 -10.54817  -1.16948
 Alpha  occ. eigenvalues --   -0.89210  -0.74027  -0.67997  -0.54150  -0.53624
 Alpha  occ. eigenvalues --   -0.52269  -0.45852  -0.45109  -0.43657  -0.40905
 Alpha  occ. eigenvalues --   -0.32440
 Alpha virt. eigenvalues --    0.02041   0.14552   0.15291   0.17564   0.20018
 Alpha virt. eigenvalues --    0.22731   0.26663   0.28436   0.32266   0.38633
 Alpha virt. eigenvalues --    0.53799   0.57832   0.60478   0.65435   0.68157
 Alpha virt. eigenvalues --    0.70192   0.75762   0.78788   0.79117   0.85315
 Alpha virt. eigenvalues --    0.91104   0.92201   0.93591   0.95936   0.99803
 Alpha virt. eigenvalues --    1.01495   1.02249   1.07995   1.14219   1.16622
 Alpha virt. eigenvalues --    1.41983   1.47755   1.57101   1.57638   1.74558
 Alpha virt. eigenvalues --    1.80721   1.82997   1.86245   1.98132   1.99902
 Alpha virt. eigenvalues --    2.06839   2.13395   2.14631   2.22492   2.30712
 Alpha virt. eigenvalues --    2.42291   2.43704   2.56369   2.60347   2.65799
 Alpha virt. eigenvalues --    2.94818   3.02137   3.90343   4.12490   4.28356
 Alpha virt. eigenvalues --    4.50202
          Condensed to atoms (all electrons):
               1          2          3          4          5          6
     1  C    5.168057   0.289478  -0.038367   0.391784   0.383459   0.383459
     2  C    0.289478   5.378458   0.314935  -0.065372  -0.027107  -0.027108
     3  C   -0.038367   0.314935   4.612514  -0.016529   0.001445   0.001444
     4  H    0.391784  -0.065372  -0.016529   0.549093  -0.023592  -0.023591
     5  H    0.383459  -0.027107   0.001445  -0.023592   0.518044  -0.026676
     6  H    0.383459  -0.027108   0.001444  -0.023591  -0.026676   0.518041
     7  H   -0.030853   0.372348  -0.023396   0.003295   0.002750  -0.006927
     8  H   -0.030859   0.372355  -0.023399   0.003294  -0.006927   0.002751
     9  H   -0.003267  -0.149943   0.367886   0.017178   0.000141   0.000141
    10  O    0.004021  -0.074347   0.555504   0.000663  -0.000072  -0.000072
               7          8          9         10
     1  C   -0.030853  -0.030859  -0.003267   0.004021
     2  C    0.372348   0.372355  -0.149943  -0.074347
     3  C   -0.023396  -0.023399   0.367886   0.555504
     4  H    0.003295   0.003294   0.017178   0.000663
     5  H    0.002750  -0.006927   0.000141  -0.000072
     6  H   -0.006927   0.002751   0.000141  -0.000072
     7  H    0.496497  -0.019526   0.004899  -0.000411
     8  H   -0.019526   0.496498   0.004899  -0.000413
     9  H    0.004899   0.004899   0.676536  -0.045894
    10  O   -0.000411  -0.000413  -0.045894   7.959290
 Mulliken charges:
               1
     1  C   -0.516912
     2  C   -0.383697
     3  C    0.247961
     4  H    0.163775
     5  H    0.178534
     6  H    0.178536
     7  H    0.201324
     8  H    0.201327
     9  H    0.127423
    10  O   -0.398270
 Sum of Mulliken charges =  -0.00000
 Mulliken charges with hydrogens summed into heavy atoms:
               1
     1  C    0.003933
     2  C    0.018953
     3  C    0.375383
    10  O   -0.398270
 Electronic spatial extent (au):  <R**2>=            334.2997
 Charge=             -0.0000 electrons
 Dipole moment (field-independent basis, Debye):
    X=              2.6246    Y=             -0.1339    Z=             -0.0001  Tot=              2.6280
 Quadrupole moment (field-independent basis, Debye-Ang):
   XX=            -30.7395   YY=            -24.2746   ZZ=            -23.9308
   XY=              0.6107   XZ=              0.0002   YZ=             -0.0000
 Traceless Quadrupole moment (field-independent basis, Debye-Ang):
   XX=             -4.4246   YY=              2.0404   ZZ=              2.3842
   XY=              0.6107   XZ=              0.0002   YZ=             -0.0000
 Octapole moment (field-independent basis, Debye-Ang**2):
  XXX=              6.3175  YYY=              0.3276  ZZZ=              0.0005  XYY=             -2.6797
  XXY=              0.7904  XXZ=             -0.0001  XZZ=             -1.8448  YZZ=              1.3351
  YYZ=             -0.0001  XYZ=             -0.0001
 Hexadecapole moment (field-independent basis, Debye-Ang**3):
 XXXX=           -333.8374 YYYY=            -70.2681 ZZZZ=            -34.8272 XXXY=              1.4571
 XXXZ=              0.0028 YYYX=              0.8500 YYYZ=             -0.0026 ZZZX=              0.0018
 ZZZY=             -0.0014 XXYY=            -67.1058 XXZZ=            -54.4920 YYZZ=            -16.8047
 XXYZ=             -0.0009 YYXZ=              0.0006 ZZXY=              0.9919
 N-N= 1.167344873347D+02 E-N=-6.831739488872D+02  KE= 1.914699518061D+02
 1\1\GINC-NODE62\SP\RM062X\6-31G(d)\C3H6O1\YANZ\22-Sep-2023\0\\#m062x/6
 -31g(d) scf=tight\\tmpdir/M2_ref_17.gjf\\0,1\C,0,-1.474619,-0.618228,-
 0.000036\C,0,-0.051872,-1.198273,0.000084\C,0,0.882872,0.016622,-0.000
 045\H,0,-1.32078599,0.46433989,-0.00005916\H,0,-2.054966,-0.924644,0.8
 77284\H,0,-2.054841,-0.924698,-0.877419\H,0,0.162755,-1.810889,-0.8796
 13\H,0,0.162681,-1.810604,0.880002\H,0,0.26279198,0.8947044,-0.0000341
 4\O,0,2.090555,-0.021921,0.000053\\Version=ES64L-G16RevA.03\State=1-A\
 HF=-193.0296135\RMSD=4.667e-09\Dipole=-1.0164714,-0.1893163,-0.0000222
 \Quadrupole=-3.2344365,1.4618592,1.7725773,-0.6841546,-0.0001618,-0.00
 00252\PG=C01 [X(C3H6O1)]\\@


 IT IS BY LOGIC THAT WE PROVE, BUT BY INTUITION THAT WE DISCOVER.
     -- J.H.POINCARE (1854-1912)
 Job cpu time:       0 days  0 hours  0 minutes 39.4 seconds.
 Elapsed time:       0 days  0 hours  0 minutes 10.1 seconds.
 File lengths (MBytes):  RWF=      6 Int=      0 D2E=      0 Chk=      1 Scr=      1
 Normal termination of Gaussian 16 at Fri Sep 22 17:01:17 2023.
