 Entering Gaussian System, Link 0=g16
 Initial command:
 /share/apps/gaussian/g16/l1.exe "/tmp/55434.mgr/Gau-432623.inp" -scrdir="/tmp/55434.mgr/"
 Entering Link 1 = /share/apps/gaussian/g16/l1.exe PID=    432629.
  
 Copyright (c) 1988,1990,1992,1993,1995,1998,2003,2009,2016,
            Gaussian, Inc.  All Rights Reserved.
  
 This is part of the Gaussian(R) 16 program.  It is based on
 the Gaussian(R) 09 system (copyright 2009, Gaussian, Inc.),
 the Gaussian(R) 03 system (copyright 2003, Gaussian, Inc.),
 the Gaussian(R) 98 system (copyright 1998, Gaussian, Inc.),
 the Gaussian(R) 94 system (copyright 1995, Gaussian, Inc.),
 the Gaussian 92(TM) system (copyright 1992, Gaussian, Inc.),
 the Gaussian 90(TM) system (copyright 1990, Gaussian, Inc.),
 the Gaussian 88(TM) system (copyright 1988, Gaussian, Inc.),
 the Gaussian 86(TM) system (copyright 1986, Carnegie Mellon
 University), and the Gaussian 82(TM) system (copyright 1983,
 Carnegie Mellon University). Gaussian is a federally registered
 trademark of Gaussian, Inc.
  
 This software contains proprietary and confidential information,
 including trade secrets, belonging to Gaussian, Inc.
  
 This software is provided under written license and may be
 used, copied, transmitted, or stored only in accord with that
 written license.
  
 The following legend is applicable only to US Government
 contracts under FAR:
  
                    RESTRICTED RIGHTS LEGEND
  
 Use, reproduction and disclosure by the US Government is
 subject to restrictions as set forth in subparagraphs (a)
 and (c) of the Commercial Computer Software - Restricted
 Rights clause in FAR 52.227-19.
  
 Gaussian, Inc.
 340 Quinnipiac St., Bldg. 40, Wallingford CT 06492
  
  
 ---------------------------------------------------------------
 Warning -- This program may not be used in any manner that
 competes with the business of Gaussian, Inc. or will provide
 assistance to any competitor of Gaussian, Inc.  The licensee
 of this program is prohibited from giving any competitor of
 Gaussian, Inc. access to this program.  By using this program,
 the user acknowledges that Gaussian, Inc. is engaged in the
 business of creating and licensing software in the field of
 computational chemistry and represents and warrants to the
 licensee that it is not a competitor of Gaussian, Inc. and that
 it will not use this program in any manner prohibited above.
 ---------------------------------------------------------------
  

 Cite this work as:
 Gaussian 16, Revision A.03,
 M. J. Frisch, G. W. Trucks, H. B. Schlegel, G. E. Scuseria, 
 M. A. Robb, J. R. Cheeseman, G. Scalmani, V. Barone, 
 G. A. Petersson, H. Nakatsuji, X. Li, M. Caricato, A. V. Marenich, 
 J. Bloino, B. G. Janesko, R. Gomperts, B. Mennucci, H. P. Hratchian, 
 J. V. Ortiz, A. F. Izmaylov, J. L. Sonnenberg, D. Williams-Young, 
 F. Ding, F. Lipparini, F. Egidi, J. Goings, B. Peng, A. Petrone, 
 T. Henderson, D. Ranasinghe, V. G. Zakrzewski, J. Gao, N. Rega, 
 G. Zheng, W. Liang, M. Hada, M. Ehara, K. Toyota, R. Fukuda, 
 J. Hasegawa, M. Ishida, T. Nakajima, Y. Honda, O. Kitao, H. Nakai, 
 T. Vreven, K. Throssell, J. A. Montgomery, Jr., J. E. Peralta, 
 F. Ogliaro, M. J. Bearpark, J. J. Heyd, E. N. Brothers, K. N. Kudin, 
 V. N. Staroverov, T. A. Keith, R. Kobayashi, J. Normand, 
 K. Raghavachari, A. P. Rendell, J. C. Burant, S. S. Iyengar, 
 J. Tomasi, M. Cossi, J. M. Millam, M. Klene, C. Adamo, R. Cammi, 
 J. W. Ochterski, R. L. Martin, K. Morokuma, O. Farkas, 
 J. B. Foresman, and D. J. Fox, Gaussian, Inc., Wallingford CT, 2016.
 
 ******************************************
 Gaussian 16:  ES64L-G16RevA.03 25-Dec-2016
                22-Sep-2023 
 ******************************************
 %nprocshared=4
 Will use up to    4 processors via shared memory.
 %mem=4GB
 ----------------
 # b3lyp/6-31g(d)
 ----------------
 1/38=1,172=1/1;
 2/12=2,17=6,18=5,40=1/2;
 3/5=1,6=6,7=1,11=2,25=1,30=1,74=-5/1,2,3;
 4//1;
 5/5=2,38=5/2;
 6/7=2,8=2,9=2,10=2,28=1/1;
 99/5=1,9=1/99;
 ----------------------
 tmpdir/M1_conf_0_3.gjf
 ----------------------
 Symbolic Z-matrix:
 Charge =  0 Multiplicity = 1
 C                     0.68873  -1.22141  -0.41107 
 H                     0.36051  -1.07828  -1.4435 
 H                     0.98006  -2.27076  -0.27629 
 H                    -0.19741  -0.9099    0.24616 
 H                     1.50299  -0.51331  -0.13237 
 
                          Input orientation:                          
 ---------------------------------------------------------------------
 Center     Atomic      Atomic             Coordinates (Angstroms)
 Number     Number       Type             X           Y           Z
 ---------------------------------------------------------------------
      1          6           0        0.688725   -1.221405   -0.411071
      2          1           0        0.360508   -1.078281   -1.443502
      3          1           0        0.980061   -2.270763   -0.276290
      4          1           0       -0.197414   -0.909904    0.246165
      5          1           0        1.502985   -0.513307   -0.132366
 ---------------------------------------------------------------------
                    Distance matrix (angstroms):
                    1          2          3          4          5
     1  C    0.000000
     2  H    1.092760   0.000000
     3  H    1.097358   1.779956   0.000000
     4  H    1.146401   1.787345   1.873858   0.000000
     5  H    1.114495   1.828531   1.839243   1.786598   0.000000
 Stoichiometry    CH4
 Framework group  C1[X(CH4)]
 Deg. of freedom     9
 Full point group                 C1      NOp   1
 Largest Abelian subgroup         C1      NOp   1
 Largest concise Abelian subgroup C1      NOp   1
                         Standard orientation:                         
 ---------------------------------------------------------------------
 Center     Atomic      Atomic             Coordinates (Angstroms)
 Number     Number       Type             X           Y           Z
 ---------------------------------------------------------------------
      1          6           0       -0.013881    0.008238    0.000963
      2          1           0       -0.296311   -0.708702    0.775790
      3          1           0       -0.917300    0.315405   -0.540957
      4          1           0        0.750160   -0.530890   -0.662223
      5          1           0        0.546736    0.874762    0.421610
 ---------------------------------------------------------------------
 Rotational constants (GHZ):         158.6764394         151.7922993         145.6777831
 Standard basis: 6-31G(d) (6D, 7F)
 There are    23 symmetry adapted cartesian basis functions of A   symmetry.
 There are    23 symmetry adapted basis functions of A   symmetry.
    23 basis functions,    44 primitive gaussians,    23 cartesian basis functions
     5 alpha electrons        5 beta electrons
       nuclear repulsion energy        13.1664626753 Hartrees.
 NAtoms=    5 NActive=    5 NUniq=    5 SFac= 1.00D+00 NAtFMM=   60 NAOKFM=F Big=F
 Integral buffers will be    131072 words long.
 Raffenetti 2 integral format.
 Two-electron integral symmetry is turned on.
 One-electron integrals computed using PRISM.
 NBasis=    23 RedAO= T EigKep=  1.91D-02  NBF=    23
 NBsUse=    23 1.00D-06 EigRej= -1.00D+00 NBFU=    23
 ExpMin= 1.61D-01 ExpMax= 3.05D+03 ExpMxC= 4.57D+02 IAcc=3 IRadAn=         5 AccDes= 0.00D+00
 Harris functional with IExCor=  402 and IRadAn=       5 diagonalized for initial guess.
 HarFok:  IExCor=  402 AccDes= 0.00D+00 IRadAn=         5 IDoV= 1 UseB2=F ITyADJ=14
 ICtDFT=  3500011 ScaDFX=  1.000000  1.000000  1.000000  1.000000
 FoFCou: FMM=F IPFlag=           0 FMFlag=      100000 FMFlg1=           0
         NFxFlg=           0 DoJE=T BraDBF=F KetDBF=T FulRan=T
         wScrn=  0.000000 ICntrl=       500 IOpCl=  0 I1Cent=   200000004 NGrid=           0
         NMat0=    1 NMatS0=      1 NMatT0=    0 NMatD0=    1 NMtDS0=    0 NMtDT0=    0
 Petite list used in FoFCou.
 Keep R1 ints in memory in canonical form, NReq=3486400.
 Requested convergence on RMS density matrix=1.00D-08 within 128 cycles.
 Requested convergence on MAX density matrix=1.00D-06.
 Requested convergence on             energy=1.00D-06.
 No special actions if energy rises.
 Integral accuracy reduced to 1.0D-05 until final iterations.
 Initial convergence to 1.0D-05 achieved.  Increase integral accuracy.
 SCF Done:  E(RB3LYP) =  -40.5152586733     A.U. after    9 cycles
            NFock=  9  Conv=0.63D-08     -V/T= 2.0135

 **********************************************************************

            Population analysis using the SCF density.

 **********************************************************************

 Orbital symmetries:
       Occupied  (A) (A) (A) (A) (A)
       Virtual   (A) (A) (A) (A) (A) (A) (A) (A) (A) (A) (A) (A)
                 (A) (A) (A) (A) (A) (A)
 The electronic state is 1-A.
 Alpha  occ. eigenvalues --  -10.17509  -0.68493  -0.39721  -0.38968  -0.37053
 Alpha virt. eigenvalues --    0.11229   0.15908   0.17498   0.17642   0.53032
 Alpha virt. eigenvalues --    0.54040   0.54855   0.85932   0.89098   0.89569
 Alpha virt. eigenvalues --    0.92486   1.09150   1.65817   1.66847   2.19163
 Alpha virt. eigenvalues --    2.21272   2.24394   4.16429
          Condensed to atoms (all electrons):
               1          2          3          4          5
     1  C    5.099830   0.381405   0.383689   0.374777   0.380053
     2  H    0.381405   0.541434  -0.029453  -0.029474  -0.023731
     3  H    0.383689  -0.029453   0.530181  -0.021095  -0.024192
     4  H    0.374777  -0.029474  -0.021095   0.563127  -0.031225
     5  H    0.380053  -0.023731  -0.024192  -0.031225   0.543918
 Mulliken charges:
               1
     1  C   -0.619754
     2  H    0.159818
     3  H    0.160870
     4  H    0.143889
     5  H    0.155177
 Sum of Mulliken charges =  -0.00000
 Mulliken charges with hydrogens summed into heavy atoms:
               1
     1  C   -0.000000
 Electronic spatial extent (au):  <R**2>=             36.2089
 Charge=              0.0000 electrons
 Dipole moment (field-independent basis, Debye):
    X=              0.0020    Y=             -0.0188    Z=              0.0268  Tot=              0.0328
 Quadrupole moment (field-independent basis, Debye-Ang):
   XX=             -8.1032   YY=             -8.3074   ZZ=             -8.5059
   XY=              0.0289   XZ=              0.0621   YZ=             -0.0640
 Traceless Quadrupole moment (field-independent basis, Debye-Ang):
   XX=              0.2023   YY=             -0.0019   ZZ=             -0.2004
   XY=              0.0289   XZ=              0.0621   YZ=             -0.0640
 Octapole moment (field-independent basis, Debye-Ang**2):
  XXX=             -0.2705  YYY=              0.0956  ZZZ=              0.1743  XYY=              0.2344
  XXY=              0.1417  XXZ=             -0.4044  XZZ=             -0.0742  YZZ=             -0.2551
  YYZ=              0.3582  XYZ=              0.5198
 Hexadecapole moment (field-independent basis, Debye-Ang**3):
 XXXX=            -16.1568 YYYY=            -15.9645 ZZZZ=            -15.8413 XXXY=             -0.2627
 XXXZ=              0.3241 YYYX=              0.4085 YYYZ=             -0.0490 ZZZX=             -0.0491
 ZZZY=             -0.3024 XXYY=             -5.1689 XXZZ=             -5.0251 YYZZ=             -4.9650
 XXYZ=              0.0807 YYXZ=              0.0101 ZZXY=             -0.0283
 N-N= 1.316646267532D+01 E-N=-1.193015256327D+02  KE= 3.997728841187D+01
 1\1\GINC-NODE99\SP\RB3LYP\6-31G(d)\C1H4\YANZ\22-Sep-2023\0\\# b3lyp/6-
 31g(d)\\tmpdir/M1_conf_0_3.gjf\\0,1\C,0,0.688725,-1.221405,-0.411071\H
 ,0,0.360508,-1.078281,-1.443502\H,0,0.980061,-2.270763,-0.27629\H,0,-0
 .19741437,-0.90990412,0.24616467\H,0,1.50298527,-0.51330695,-0.1323662
 \\Version=ES64L-G16RevA.03\State=1-A\HF=-40.5152587\RMSD=6.310e-09\Dip
 ole=-0.0033059,0.0059429,-0.0109507\Quadrupole=-0.0568025,0.1127821,-0
 .0559796,-0.0513016,0.0747209,0.0975049\PG=C01 [X(C1H4)]\\@


 CHINESE FORTUNE COOKIE OF JAN 1 1967 SAY....
 ALL THINGS ARE DIFFICULT BEFORE THEY ARE EASY.
 WE LEARN SO LITTLE AND FORGET SO MUCH.
 YOU WILL OVERCOME OBSTACLES TO ACHIEVE SUCCESS.
 AH SO.
 Job cpu time:       0 days  0 hours  0 minutes  5.3 seconds.
 Elapsed time:       0 days  0 hours  0 minutes  1.5 seconds.
 File lengths (MBytes):  RWF=      6 Int=      0 D2E=      0 Chk=      1 Scr=      1
 Normal termination of Gaussian 16 at Fri Sep 22 09:31:49 2023.
