 Entering Gaussian System, Link 0=g16
 Initial command:
 /share/apps/gaussian/g16/l1.exe "/tmp/55434.mgr/Gau-432622.inp" -scrdir="/tmp/55434.mgr/"
 Entering Link 1 = /share/apps/gaussian/g16/l1.exe PID=    432627.
  
 Copyright (c) 1988,1990,1992,1993,1995,1998,2003,2009,2016,
            Gaussian, Inc.  All Rights Reserved.
  
 This is part of the Gaussian(R) 16 program.  It is based on
 the Gaussian(R) 09 system (copyright 2009, Gaussian, Inc.),
 the Gaussian(R) 03 system (copyright 2003, Gaussian, Inc.),
 the Gaussian(R) 98 system (copyright 1998, Gaussian, Inc.),
 the Gaussian(R) 94 system (copyright 1995, Gaussian, Inc.),
 the Gaussian 92(TM) system (copyright 1992, Gaussian, Inc.),
 the Gaussian 90(TM) system (copyright 1990, Gaussian, Inc.),
 the Gaussian 88(TM) system (copyright 1988, Gaussian, Inc.),
 the Gaussian 86(TM) system (copyright 1986, Carnegie Mellon
 University), and the Gaussian 82(TM) system (copyright 1983,
 Carnegie Mellon University). Gaussian is a federally registered
 trademark of Gaussian, Inc.
  
 This software contains proprietary and confidential information,
 including trade secrets, belonging to Gaussian, Inc.
  
 This software is provided under written license and may be
 used, copied, transmitted, or stored only in accord with that
 written license.
  
 The following legend is applicable only to US Government
 contracts under FAR:
  
                    RESTRICTED RIGHTS LEGEND
  
 Use, reproduction and disclosure by the US Government is
 subject to restrictions as set forth in subparagraphs (a)
 and (c) of the Commercial Computer Software - Restricted
 Rights clause in FAR 52.227-19.
  
 Gaussian, Inc.
 340 Quinnipiac St., Bldg. 40, Wallingford CT 06492
  
  
 ---------------------------------------------------------------
 Warning -- This program may not be used in any manner that
 competes with the business of Gaussian, Inc. or will provide
 assistance to any competitor of Gaussian, Inc.  The licensee
 of this program is prohibited from giving any competitor of
 Gaussian, Inc. access to this program.  By using this program,
 the user acknowledges that Gaussian, Inc. is engaged in the
 business of creating and licensing software in the field of
 computational chemistry and represents and warrants to the
 licensee that it is not a competitor of Gaussian, Inc. and that
 it will not use this program in any manner prohibited above.
 ---------------------------------------------------------------
  

 Cite this work as:
 Gaussian 16, Revision A.03,
 M. J. Frisch, G. W. Trucks, H. B. Schlegel, G. E. Scuseria, 
 M. A. Robb, J. R. Cheeseman, G. Scalmani, V. Barone, 
 G. A. Petersson, H. Nakatsuji, X. Li, M. Caricato, A. V. Marenich, 
 J. Bloino, B. G. Janesko, R. Gomperts, B. Mennucci, H. P. Hratchian, 
 J. V. Ortiz, A. F. Izmaylov, J. L. Sonnenberg, D. Williams-Young, 
 F. Ding, F. Lipparini, F. Egidi, J. Goings, B. Peng, A. Petrone, 
 T. Henderson, D. Ranasinghe, V. G. Zakrzewski, J. Gao, N. Rega, 
 G. Zheng, W. Liang, M. Hada, M. Ehara, K. Toyota, R. Fukuda, 
 J. Hasegawa, M. Ishida, T. Nakajima, Y. Honda, O. Kitao, H. Nakai, 
 T. Vreven, K. Throssell, J. A. Montgomery, Jr., J. E. Peralta, 
 F. Ogliaro, M. J. Bearpark, J. J. Heyd, E. N. Brothers, K. N. Kudin, 
 V. N. Staroverov, T. A. Keith, R. Kobayashi, J. Normand, 
 K. Raghavachari, A. P. Rendell, J. C. Burant, S. S. Iyengar, 
 J. Tomasi, M. Cossi, J. M. Millam, M. Klene, C. Adamo, R. Cammi, 
 J. W. Ochterski, R. L. Martin, K. Morokuma, O. Farkas, 
 J. B. Foresman, and D. J. Fox, Gaussian, Inc., Wallingford CT, 2016.
 
 ******************************************
 Gaussian 16:  ES64L-G16RevA.03 25-Dec-2016
                22-Sep-2023 
 ******************************************
 %nprocshared=4
 Will use up to    4 processors via shared memory.
 %mem=4GB
 ----------------
 # b3lyp/6-31g(d)
 ----------------
 1/38=1,172=1/1;
 2/12=2,17=6,18=5,40=1/2;
 3/5=1,6=6,7=1,11=2,25=1,30=1,74=-5/1,2,3;
 4//1;
 5/5=2,38=5/2;
 6/7=2,8=2,9=2,10=2,28=1/1;
 99/5=1,9=1/99;
 ----------------------
 tmpdir/M1_conf_0_4.gjf
 ----------------------
 Symbolic Z-matrix:
 Charge =  0 Multiplicity = 1
 C                     1.81357  -0.24322  -0.02606 
 H                     2.26159  -0.56203   0.92298 
 H                     2.61463  -0.2626   -0.77107 
 H                     1.37193   0.79072   0.08543 
 H                     0.99931  -0.95131  -0.30476 
 
                          Input orientation:                          
 ---------------------------------------------------------------------
 Center     Atomic      Atomic             Coordinates (Angstroms)
 Number     Number       Type             X           Y           Z
 ---------------------------------------------------------------------
      1          6           0        1.813571   -0.243215   -0.026059
      2          1           0        2.261587   -0.562029    0.922976
      3          1           0        2.614626   -0.262604   -0.771066
      4          1           0        1.371927    0.790721    0.085435
      5          1           0        0.999311   -0.951313   -0.304764
 ---------------------------------------------------------------------
                    Distance matrix (angstroms):
                    1          2          3          4          5
     1  C    0.000000
     2  H    1.096826   0.000000
     3  H    1.094121   1.756152   0.000000
     4  H    1.129825   1.822883   1.840486   0.000000
     5  H    1.114495   1.803394   1.816866   1.823672   0.000000
 Stoichiometry    CH4
 Framework group  C1[X(CH4)]
 Deg. of freedom     9
 Full point group                 C1      NOp   1
 Largest Abelian subgroup         C1      NOp   1
 Largest concise Abelian subgroup C1      NOp   1
                         Standard orientation:                         
 ---------------------------------------------------------------------
 Center     Atomic      Atomic             Coordinates (Angstroms)
 Number     Number       Type             X           Y           Z
 ---------------------------------------------------------------------
      1          6           0       -0.000021   -0.000568   -0.003902
      2          1           0       -0.500163   -0.216405    0.948096
      3          1           0       -0.698424   -0.288609   -0.795335
      4          1           0        0.967740   -0.579883   -0.069769
      5          1           0        0.230971    1.088304   -0.059578
 ---------------------------------------------------------------------
 Rotational constants (GHZ):         157.1562183         153.4517954         148.4198419
 Standard basis: 6-31G(d) (6D, 7F)
 There are    23 symmetry adapted cartesian basis functions of A   symmetry.
 There are    23 symmetry adapted basis functions of A   symmetry.
    23 basis functions,    44 primitive gaussians,    23 cartesian basis functions
     5 alpha electrons        5 beta electrons
       nuclear repulsion energy        13.2098198269 Hartrees.
 NAtoms=    5 NActive=    5 NUniq=    5 SFac= 1.00D+00 NAtFMM=   60 NAOKFM=F Big=F
 Integral buffers will be    131072 words long.
 Raffenetti 2 integral format.
 Two-electron integral symmetry is turned on.
 One-electron integrals computed using PRISM.
 NBasis=    23 RedAO= T EigKep=  1.88D-02  NBF=    23
 NBsUse=    23 1.00D-06 EigRej= -1.00D+00 NBFU=    23
 ExpMin= 1.61D-01 ExpMax= 3.05D+03 ExpMxC= 4.57D+02 IAcc=3 IRadAn=         5 AccDes= 0.00D+00
 Harris functional with IExCor=  402 and IRadAn=       5 diagonalized for initial guess.
 HarFok:  IExCor=  402 AccDes= 0.00D+00 IRadAn=         5 IDoV= 1 UseB2=F ITyADJ=14
 ICtDFT=  3500011 ScaDFX=  1.000000  1.000000  1.000000  1.000000
 FoFCou: FMM=F IPFlag=           0 FMFlag=      100000 FMFlg1=           0
         NFxFlg=           0 DoJE=T BraDBF=F KetDBF=T FulRan=T
         wScrn=  0.000000 ICntrl=       500 IOpCl=  0 I1Cent=   200000004 NGrid=           0
         NMat0=    1 NMatS0=      1 NMatT0=    0 NMatD0=    1 NMtDS0=    0 NMtDT0=    0
 Petite list used in FoFCou.
 Keep R1 ints in memory in canonical form, NReq=3486400.
 Requested convergence on RMS density matrix=1.00D-08 within 128 cycles.
 Requested convergence on MAX density matrix=1.00D-06.
 Requested convergence on             energy=1.00D-06.
 No special actions if energy rises.
 Integral accuracy reduced to 1.0D-05 until final iterations.
 Initial convergence to 1.0D-05 achieved.  Increase integral accuracy.
 SCF Done:  E(RB3LYP) =  -40.5169605221     A.U. after    9 cycles
            NFock=  9  Conv=0.52D-08     -V/T= 2.0131

 **********************************************************************

            Population analysis using the SCF density.

 **********************************************************************

 Orbital symmetries:
       Occupied  (A) (A) (A) (A) (A)
       Virtual   (A) (A) (A) (A) (A) (A) (A) (A) (A) (A) (A) (A)
                 (A) (A) (A) (A) (A) (A)
 The electronic state is 1-A.
 Alpha  occ. eigenvalues --  -10.17340  -0.68586  -0.39280  -0.38412  -0.38242
 Alpha virt. eigenvalues --    0.11357   0.16627   0.17325   0.17545   0.53028
 Alpha virt. eigenvalues --    0.53947   0.54477   0.87394   0.88713   0.89234
 Alpha virt. eigenvalues --    0.93126   1.09411   1.65898   1.66152   2.19986
 Alpha virt. eigenvalues --    2.22092   2.24687   4.16769
          Condensed to atoms (all electrons):
               1          2          3          4          5
     1  C    5.097840   0.381047   0.382475   0.379355   0.380459
     2  H    0.381047   0.544449  -0.031129  -0.025371  -0.026483
     3  H    0.382475  -0.031129   0.538480  -0.023772  -0.025314
     4  H    0.379355  -0.025371  -0.023772   0.546123  -0.026844
     5  H    0.380459  -0.026483  -0.025314  -0.026844   0.544262
 Mulliken charges:
               1
     1  C   -0.621175
     2  H    0.157487
     3  H    0.159260
     4  H    0.150509
     5  H    0.153920
 Sum of Mulliken charges =   0.00000
 Mulliken charges with hydrogens summed into heavy atoms:
               1
     1  C    0.000000
 Electronic spatial extent (au):  <R**2>=             36.0609
 Charge=              0.0000 electrons
 Dipole moment (field-independent basis, Debye):
    X=             -0.0354    Y=              0.0008    Z=              0.0152  Tot=              0.0386
 Quadrupole moment (field-independent basis, Debye-Ang):
   XX=             -8.1802   YY=             -8.2987   ZZ=             -8.3994
   XY=              0.0279   XZ=              0.0128   YZ=              0.0034
 Traceless Quadrupole moment (field-independent basis, Debye-Ang):
   XX=              0.1126   YY=             -0.0059   ZZ=             -0.1066
   XY=              0.0279   XZ=              0.0128   YZ=              0.0034
 Octapole moment (field-independent basis, Debye-Ang**2):
  XXX=              0.1717  YYY=              0.7194  ZZZ=              0.2442  XYY=              0.3069
  XXY=             -0.4738  XXZ=             -0.1443  XZZ=             -0.6331  YZZ=             -0.2448
  YYZ=             -0.0639  XYZ=             -0.0268
 Hexadecapole moment (field-independent basis, Debye-Ang**3):
 XXXX=            -15.9001 YYYY=            -15.3591 ZZZZ=            -15.1310 XXXY=             -0.3475
 XXXZ=              0.1219 YYYX=              0.2011 YYYZ=             -0.0486 ZZZX=             -0.0556
 ZZZY=             -0.0359 XXYY=             -5.2325 XXZZ=             -5.0243 YYZZ=             -5.4525
 XXYZ=              0.1016 YYXZ=             -0.0060 ZZXY=              0.2537
 N-N= 1.320981982685D+01 E-N=-1.194036495163D+02  KE= 3.999462520560D+01
 1\1\GINC-NODE99\SP\RB3LYP\6-31G(d)\C1H4\YANZ\22-Sep-2023\0\\# b3lyp/6-
 31g(d)\\tmpdir/M1_conf_0_4.gjf\\0,1\C,0,1.813571,-0.243215,-0.026059\H
 ,0,2.261587,-0.562029,0.922976\H,0,2.614626,-0.262604,-0.771066\H,0,1.
 3719267,0.79072078,0.08543465\H,0,0.99931073,-0.95131305,-0.3047638\\V
 ersion=ES64L-G16RevA.03\State=1-A\HF=-40.5169605\RMSD=5.206e-09\Dipole
 =0.0105796,-0.0096414,0.0050345\Quadrupole=0.0738985,0.0019794,-0.0758
 778,-0.0353033,-0.0032671,0.0177162\PG=C01 [X(C1H4)]\\@


 CHINESE FORTUNE COOKIE OF JAN 1 1967 SAY....
 ALL THINGS ARE DIFFICULT BEFORE THEY ARE EASY.
 WE LEARN SO LITTLE AND FORGET SO MUCH.
 YOU WILL OVERCOME OBSTACLES TO ACHIEVE SUCCESS.
 AH SO.
 Job cpu time:       0 days  0 hours  0 minutes  5.5 seconds.
 Elapsed time:       0 days  0 hours  0 minutes  1.5 seconds.
 File lengths (MBytes):  RWF=      6 Int=      0 D2E=      0 Chk=      1 Scr=      1
 Normal termination of Gaussian 16 at Fri Sep 22 09:31:49 2023.
