 Entering Gaussian System, Link 0=g16
 Initial command:
 /share/apps/gaussian/g16/l1.exe "/tmp/55434.mgr/Gau-432619.inp" -scrdir="/tmp/55434.mgr/"
 Entering Link 1 = /share/apps/gaussian/g16/l1.exe PID=    432628.
  
 Copyright (c) 1988,1990,1992,1993,1995,1998,2003,2009,2016,
            Gaussian, Inc.  All Rights Reserved.
  
 This is part of the Gaussian(R) 16 program.  It is based on
 the Gaussian(R) 09 system (copyright 2009, Gaussian, Inc.),
 the Gaussian(R) 03 system (copyright 2003, Gaussian, Inc.),
 the Gaussian(R) 98 system (copyright 1998, Gaussian, Inc.),
 the Gaussian(R) 94 system (copyright 1995, Gaussian, Inc.),
 the Gaussian 92(TM) system (copyright 1992, Gaussian, Inc.),
 the Gaussian 90(TM) system (copyright 1990, Gaussian, Inc.),
 the Gaussian 88(TM) system (copyright 1988, Gaussian, Inc.),
 the Gaussian 86(TM) system (copyright 1986, Carnegie Mellon
 University), and the Gaussian 82(TM) system (copyright 1983,
 Carnegie Mellon University). Gaussian is a federally registered
 trademark of Gaussian, Inc.
  
 This software contains proprietary and confidential information,
 including trade secrets, belonging to Gaussian, Inc.
  
 This software is provided under written license and may be
 used, copied, transmitted, or stored only in accord with that
 written license.
  
 The following legend is applicable only to US Government
 contracts under FAR:
  
                    RESTRICTED RIGHTS LEGEND
  
 Use, reproduction and disclosure by the US Government is
 subject to restrictions as set forth in subparagraphs (a)
 and (c) of the Commercial Computer Software - Restricted
 Rights clause in FAR 52.227-19.
  
 Gaussian, Inc.
 340 Quinnipiac St., Bldg. 40, Wallingford CT 06492
  
  
 ---------------------------------------------------------------
 Warning -- This program may not be used in any manner that
 competes with the business of Gaussian, Inc. or will provide
 assistance to any competitor of Gaussian, Inc.  The licensee
 of this program is prohibited from giving any competitor of
 Gaussian, Inc. access to this program.  By using this program,
 the user acknowledges that Gaussian, Inc. is engaged in the
 business of creating and licensing software in the field of
 computational chemistry and represents and warrants to the
 licensee that it is not a competitor of Gaussian, Inc. and that
 it will not use this program in any manner prohibited above.
 ---------------------------------------------------------------
  

 Cite this work as:
 Gaussian 16, Revision A.03,
 M. J. Frisch, G. W. Trucks, H. B. Schlegel, G. E. Scuseria, 
 M. A. Robb, J. R. Cheeseman, G. Scalmani, V. Barone, 
 G. A. Petersson, H. Nakatsuji, X. Li, M. Caricato, A. V. Marenich, 
 J. Bloino, B. G. Janesko, R. Gomperts, B. Mennucci, H. P. Hratchian, 
 J. V. Ortiz, A. F. Izmaylov, J. L. Sonnenberg, D. Williams-Young, 
 F. Ding, F. Lipparini, F. Egidi, J. Goings, B. Peng, A. Petrone, 
 T. Henderson, D. Ranasinghe, V. G. Zakrzewski, J. Gao, N. Rega, 
 G. Zheng, W. Liang, M. Hada, M. Ehara, K. Toyota, R. Fukuda, 
 J. Hasegawa, M. Ishida, T. Nakajima, Y. Honda, O. Kitao, H. Nakai, 
 T. Vreven, K. Throssell, J. A. Montgomery, Jr., J. E. Peralta, 
 F. Ogliaro, M. J. Bearpark, J. J. Heyd, E. N. Brothers, K. N. Kudin, 
 V. N. Staroverov, T. A. Keith, R. Kobayashi, J. Normand, 
 K. Raghavachari, A. P. Rendell, J. C. Burant, S. S. Iyengar, 
 J. Tomasi, M. Cossi, J. M. Millam, M. Klene, C. Adamo, R. Cammi, 
 J. W. Ochterski, R. L. Martin, K. Morokuma, O. Farkas, 
 J. B. Foresman, and D. J. Fox, Gaussian, Inc., Wallingford CT, 2016.
 
 ******************************************
 Gaussian 16:  ES64L-G16RevA.03 25-Dec-2016
                22-Sep-2023 
 ******************************************
 %nprocshared=4
 Will use up to    4 processors via shared memory.
 %mem=4GB
 ----------------
 # b3lyp/6-31g(d)
 ----------------
 1/38=1,172=1/1;
 2/12=2,17=6,18=5,40=1/2;
 3/5=1,6=6,7=1,11=2,25=1,30=1,74=-5/1,2,3;
 4//1;
 5/5=2,38=5/2;
 6/7=2,8=2,9=2,10=2,28=1/1;
 99/5=1,9=1/99;
 ----------------------
 tmpdir/M1_conf_0_5.gjf
 ----------------------
 Symbolic Z-matrix:
 Charge =  0 Multiplicity = 1
 C                     1.20347   1.1851    0.12796 
 H                     1.55051   1.84112  -0.67978 
 H                     1.55048   1.64152   1.06362 
 H                     0.12704   1.15364   0.09885 
 H                     1.64511   0.15116   0.01647 
 
                          Input orientation:                          
 ---------------------------------------------------------------------
 Center     Atomic      Atomic             Coordinates (Angstroms)
 Number     Number       Type             X           Y           Z
 ---------------------------------------------------------------------
      1          6           0        1.203469    1.185098    0.127962
      2          1           0        1.550511    1.841116   -0.679778
      3          1           0        1.550479    1.641516    1.063623
      4          1           0        0.127042    1.153636    0.098849
      5          1           0        1.645113    0.151162    0.016468
 ---------------------------------------------------------------------
                    Distance matrix (angstroms):
                    1          2          3          4          5
     1  C    0.000000
     2  H    1.096924   0.000000
     3  H    1.097358   1.754790   0.000000
     4  H    1.077280   1.762145   1.787453   0.000000
     5  H    1.129825   1.830206   1.823909   1.821066   0.000000
 Stoichiometry    CH4
 Framework group  C1[X(CH4)]
 Deg. of freedom     9
 Full point group                 C1      NOp   1
 Largest Abelian subgroup         C1      NOp   1
 Largest concise Abelian subgroup C1      NOp   1
                         Standard orientation:                         
 ---------------------------------------------------------------------
 Center     Atomic      Atomic             Coordinates (Angstroms)
 Number     Number       Type             X           Y           Z
 ---------------------------------------------------------------------
      1          6           0        0.002837    0.005616   -0.004391
      2          1           0       -0.506030   -0.078595    0.963703
      3          1           0       -0.368415   -0.824416   -0.618732
      4          1           0       -0.264158    0.951552   -0.445357
      5          1           0        1.121583   -0.082235    0.126733
 ---------------------------------------------------------------------
 Rotational constants (GHZ):         160.4911861         154.4961505         151.1336202
 Standard basis: 6-31G(d) (6D, 7F)
 There are    23 symmetry adapted cartesian basis functions of A   symmetry.
 There are    23 symmetry adapted basis functions of A   symmetry.
    23 basis functions,    44 primitive gaussians,    23 cartesian basis functions
     5 alpha electrons        5 beta electrons
       nuclear repulsion energy        13.3131791540 Hartrees.
 NAtoms=    5 NActive=    5 NUniq=    5 SFac= 1.00D+00 NAtFMM=   60 NAOKFM=F Big=F
 Integral buffers will be    131072 words long.
 Raffenetti 2 integral format.
 Two-electron integral symmetry is turned on.
 One-electron integrals computed using PRISM.
 NBasis=    23 RedAO= T EigKep=  1.83D-02  NBF=    23
 NBsUse=    23 1.00D-06 EigRej= -1.00D+00 NBFU=    23
 ExpMin= 1.61D-01 ExpMax= 3.05D+03 ExpMxC= 4.57D+02 IAcc=3 IRadAn=         5 AccDes= 0.00D+00
 Harris functional with IExCor=  402 and IRadAn=       5 diagonalized for initial guess.
 HarFok:  IExCor=  402 AccDes= 0.00D+00 IRadAn=         5 IDoV= 1 UseB2=F ITyADJ=14
 ICtDFT=  3500011 ScaDFX=  1.000000  1.000000  1.000000  1.000000
 FoFCou: FMM=F IPFlag=           0 FMFlag=      100000 FMFlg1=           0
         NFxFlg=           0 DoJE=T BraDBF=F KetDBF=T FulRan=T
         wScrn=  0.000000 ICntrl=       500 IOpCl=  0 I1Cent=   200000004 NGrid=           0
         NMat0=    1 NMatS0=      1 NMatT0=    0 NMatD0=    1 NMtDS0=    0 NMtDT0=    0
 Petite list used in FoFCou.
 Keep R1 ints in memory in canonical form, NReq=3486400.
 Requested convergence on RMS density matrix=1.00D-08 within 128 cycles.
 Requested convergence on MAX density matrix=1.00D-06.
 Requested convergence on             energy=1.00D-06.
 No special actions if energy rises.
 Integral accuracy reduced to 1.0D-05 until final iterations.
 Initial convergence to 1.0D-05 achieved.  Increase integral accuracy.
 SCF Done:  E(RB3LYP) =  -40.5170313196     A.U. after    9 cycles
            NFock=  9  Conv=0.63D-08     -V/T= 2.0120

 **********************************************************************

            Population analysis using the SCF density.

 **********************************************************************

 Orbital symmetries:
       Occupied  (A) (A) (A) (A) (A)
       Virtual   (A) (A) (A) (A) (A) (A) (A) (A) (A) (A) (A) (A)
                 (A) (A) (A) (A) (A) (A)
 The electronic state is 1-A.
 Alpha  occ. eigenvalues --  -10.16987  -0.68854  -0.39376  -0.38732  -0.38244
 Alpha virt. eigenvalues --    0.11547   0.16926   0.17333   0.18045   0.52921
 Alpha virt. eigenvalues --    0.53237   0.54513   0.87642   0.88919   0.90580
 Alpha virt. eigenvalues --    0.94501   1.09786   1.65659   1.65975   2.20037
 Alpha virt. eigenvalues --    2.24455   2.25683   4.17400
          Condensed to atoms (all electrons):
               1          2          3          4          5
     1  C    5.095379   0.381584   0.382206   0.385421   0.380465
     2  H    0.381584   0.546182  -0.030542  -0.028964  -0.024221
     3  H    0.382206  -0.030542   0.543279  -0.026164  -0.025303
     4  H    0.385421  -0.028964  -0.026164   0.532014  -0.025002
     5  H    0.380465  -0.024221  -0.025303  -0.025002   0.544187
 Mulliken charges:
               1
     1  C   -0.625055
     2  H    0.155961
     3  H    0.156524
     4  H    0.162696
     5  H    0.149874
 Sum of Mulliken charges =   0.00000
 Mulliken charges with hydrogens summed into heavy atoms:
               1
     1  C    0.000000
 Electronic spatial extent (au):  <R**2>=             35.7444
 Charge=              0.0000 electrons
 Dipole moment (field-independent basis, Debye):
    X=             -0.0485    Y=              0.0004    Z=              0.0037  Tot=              0.0486
 Quadrupole moment (field-independent basis, Debye-Ang):
   XX=             -8.1789   YY=             -8.2409   ZZ=             -8.3915
   XY=             -0.0087   XZ=              0.0011   YZ=             -0.0232
 Traceless Quadrupole moment (field-independent basis, Debye-Ang):
   XX=              0.0915   YY=              0.0295   ZZ=             -0.1211
   XY=             -0.0087   XZ=              0.0011   YZ=             -0.0232
 Octapole moment (field-independent basis, Debye-Ang**2):
  XXX=              0.6806  YYY=              0.2645  ZZZ=              0.3326  XYY=             -0.3964
  XXY=             -0.1053  XXZ=              0.1918  XZZ=             -0.4736  YZZ=             -0.1076
  YYZ=             -0.5463  XYZ=             -0.0276
 Hexadecapole moment (field-independent basis, Debye-Ang**3):
 XXXX=            -15.4048 YYYY=            -14.9916 ZZZZ=            -15.2296 XXXY=             -0.1062
 XXXZ=              0.0986 YYYX=             -0.0393 YYYZ=             -0.0843 ZZZX=             -0.3564
 ZZZY=             -0.0075 XXYY=             -5.4091 XXZZ=             -5.2408 YYZZ=             -4.9798
 XXYZ=             -0.0092 YYXZ=              0.2729 ZZXY=              0.1014
 N-N= 1.331317915396D+01 E-N=-1.196402614383D+02  KE= 4.003772776914D+01
 1\1\GINC-NODE99\SP\RB3LYP\6-31G(d)\C1H4\YANZ\22-Sep-2023\0\\# b3lyp/6-
 31g(d)\\tmpdir/M1_conf_0_5.gjf\\0,1\C,0,1.203469,1.185098,0.127962\H,0
 ,1.550511,1.841116,-0.679778\H,0,1.550479,1.641516,1.063623\H,0,0.1270
 4183,1.15363574,0.09884948\H,0,1.6451133,0.15116222,0.01646835\\Versio
 n=ES64L-G16RevA.03\State=1-A\HF=-40.5170313\RMSD=6.333e-09\Dipole=-0.0
 047822,0.0185041,-0.0007807\Quadrupole=0.0208401,0.0599836,-0.0808237,
 -0.0208123,0.0330174,0.0120021\PG=C01 [X(C1H4)]\\@


 CHINESE FORTUNE COOKIE OF JAN 1 1967 SAY....
 ALL THINGS ARE DIFFICULT BEFORE THEY ARE EASY.
 WE LEARN SO LITTLE AND FORGET SO MUCH.
 YOU WILL OVERCOME OBSTACLES TO ACHIEVE SUCCESS.
 AH SO.
 Job cpu time:       0 days  0 hours  0 minutes  5.3 seconds.
 Elapsed time:       0 days  0 hours  0 minutes  1.5 seconds.
 File lengths (MBytes):  RWF=      6 Int=      0 D2E=      0 Chk=      1 Scr=      1
 Normal termination of Gaussian 16 at Fri Sep 22 09:31:49 2023.
