 Entering Gaussian System, Link 0=g16
 Initial command:
 /share/apps/gaussian/g16/l1.exe "/tmp/55434.mgr/Gau-432618.inp" -scrdir="/tmp/55434.mgr/"
 Entering Link 1 = /share/apps/gaussian/g16/l1.exe PID=    432624.
  
 Copyright (c) 1988,1990,1992,1993,1995,1998,2003,2009,2016,
            Gaussian, Inc.  All Rights Reserved.
  
 This is part of the Gaussian(R) 16 program.  It is based on
 the Gaussian(R) 09 system (copyright 2009, Gaussian, Inc.),
 the Gaussian(R) 03 system (copyright 2003, Gaussian, Inc.),
 the Gaussian(R) 98 system (copyright 1998, Gaussian, Inc.),
 the Gaussian(R) 94 system (copyright 1995, Gaussian, Inc.),
 the Gaussian 92(TM) system (copyright 1992, Gaussian, Inc.),
 the Gaussian 90(TM) system (copyright 1990, Gaussian, Inc.),
 the Gaussian 88(TM) system (copyright 1988, Gaussian, Inc.),
 the Gaussian 86(TM) system (copyright 1986, Carnegie Mellon
 University), and the Gaussian 82(TM) system (copyright 1983,
 Carnegie Mellon University). Gaussian is a federally registered
 trademark of Gaussian, Inc.
  
 This software contains proprietary and confidential information,
 including trade secrets, belonging to Gaussian, Inc.
  
 This software is provided under written license and may be
 used, copied, transmitted, or stored only in accord with that
 written license.
  
 The following legend is applicable only to US Government
 contracts under FAR:
  
                    RESTRICTED RIGHTS LEGEND
  
 Use, reproduction and disclosure by the US Government is
 subject to restrictions as set forth in subparagraphs (a)
 and (c) of the Commercial Computer Software - Restricted
 Rights clause in FAR 52.227-19.
  
 Gaussian, Inc.
 340 Quinnipiac St., Bldg. 40, Wallingford CT 06492
  
  
 ---------------------------------------------------------------
 Warning -- This program may not be used in any manner that
 competes with the business of Gaussian, Inc. or will provide
 assistance to any competitor of Gaussian, Inc.  The licensee
 of this program is prohibited from giving any competitor of
 Gaussian, Inc. access to this program.  By using this program,
 the user acknowledges that Gaussian, Inc. is engaged in the
 business of creating and licensing software in the field of
 computational chemistry and represents and warrants to the
 licensee that it is not a competitor of Gaussian, Inc. and that
 it will not use this program in any manner prohibited above.
 ---------------------------------------------------------------
  

 Cite this work as:
 Gaussian 16, Revision A.03,
 M. J. Frisch, G. W. Trucks, H. B. Schlegel, G. E. Scuseria, 
 M. A. Robb, J. R. Cheeseman, G. Scalmani, V. Barone, 
 G. A. Petersson, H. Nakatsuji, X. Li, M. Caricato, A. V. Marenich, 
 J. Bloino, B. G. Janesko, R. Gomperts, B. Mennucci, H. P. Hratchian, 
 J. V. Ortiz, A. F. Izmaylov, J. L. Sonnenberg, D. Williams-Young, 
 F. Ding, F. Lipparini, F. Egidi, J. Goings, B. Peng, A. Petrone, 
 T. Henderson, D. Ranasinghe, V. G. Zakrzewski, J. Gao, N. Rega, 
 G. Zheng, W. Liang, M. Hada, M. Ehara, K. Toyota, R. Fukuda, 
 J. Hasegawa, M. Ishida, T. Nakajima, Y. Honda, O. Kitao, H. Nakai, 
 T. Vreven, K. Throssell, J. A. Montgomery, Jr., J. E. Peralta, 
 F. Ogliaro, M. J. Bearpark, J. J. Heyd, E. N. Brothers, K. N. Kudin, 
 V. N. Staroverov, T. A. Keith, R. Kobayashi, J. Normand, 
 K. Raghavachari, A. P. Rendell, J. C. Burant, S. S. Iyengar, 
 J. Tomasi, M. Cossi, J. M. Millam, M. Klene, C. Adamo, R. Cammi, 
 J. W. Ochterski, R. L. Martin, K. Morokuma, O. Farkas, 
 J. B. Foresman, and D. J. Fox, Gaussian, Inc., Wallingford CT, 2016.
 
 ******************************************
 Gaussian 16:  ES64L-G16RevA.03 25-Dec-2016
                22-Sep-2023 
 ******************************************
 %nprocshared=4
 Will use up to    4 processors via shared memory.
 %mem=4GB
 ----------------
 # b3lyp/6-31g(d)
 ----------------
 1/38=1,172=1/1;
 2/12=2,17=6,18=5,40=1/2;
 3/5=1,6=6,7=1,11=2,25=1,30=1,74=-5/1,2,3;
 4//1;
 5/5=2,38=5/2;
 6/7=2,8=2,9=2,10=2,28=1/1;
 99/5=1,9=1/99;
 ----------------------
 tmpdir/M1_conf_0_2.gjf
 ----------------------
 Symbolic Z-matrix:
 Charge =  0 Multiplicity = 1
 N                    -0.43866  -0.8251    0.4251 
 H                    -0.33598  -1.08623   1.40604 
 H                    -1.45514  -1.03455   0.08238 
 H                     0.35072  -1.10259  -0.16038 
 
                          Input orientation:                          
 ---------------------------------------------------------------------
 Center     Atomic      Atomic             Coordinates (Angstroms)
 Number     Number       Type             X           Y           Z
 ---------------------------------------------------------------------
      1          7           0       -0.438663   -0.825099    0.425095
      2          1           0       -0.335983   -1.086226    1.406036
      3          1           0       -1.455137   -1.034553    0.082380
      4          1           0        0.350722   -1.102588   -0.160379
 ---------------------------------------------------------------------
                    Distance matrix (angstroms):
                    1          2          3          4
     1  N    0.000000
     2  H    1.020282   0.000000
     3  H    1.092952   1.734140   0.000000
     4  H    1.021229   1.710406   1.823373   0.000000
 Stoichiometry    H3N
 Framework group  C1[X(H3N)]
 Deg. of freedom     6
 Full point group                 C1      NOp   1
 Largest Abelian subgroup         C1      NOp   1
 Largest concise Abelian subgroup C1      NOp   1
                         Standard orientation:                         
 ---------------------------------------------------------------------
 Center     Atomic      Atomic             Coordinates (Angstroms)
 Number     Number       Type             X           Y           Z
 ---------------------------------------------------------------------
      1          7           0        0.010663   -0.005827   -0.075040
      2          1           0        0.072466    0.982856    0.169216
      3          1           0       -0.981911   -0.393925    0.167283
      4          1           0        0.834801   -0.548140    0.188782
 ---------------------------------------------------------------------
 Rotational constants (GHZ):         318.0483978         275.1914837         162.3052386
 Standard basis: 6-31G(d) (6D, 7F)
 There are    21 symmetry adapted cartesian basis functions of A   symmetry.
 There are    21 symmetry adapted basis functions of A   symmetry.
    21 basis functions,    40 primitive gaussians,    21 cartesian basis functions
     5 alpha electrons        5 beta electrons
       nuclear repulsion energy        11.5518067719 Hartrees.
 NAtoms=    4 NActive=    4 NUniq=    4 SFac= 1.00D+00 NAtFMM=   60 NAOKFM=F Big=F
 Integral buffers will be    131072 words long.
 Raffenetti 2 integral format.
 Two-electron integral symmetry is turned on.
 One-electron integrals computed using PRISM.
 NBasis=    21 RedAO= T EigKep=  2.53D-02  NBF=    21
 NBsUse=    21 1.00D-06 EigRej= -1.00D+00 NBFU=    21
 ExpMin= 1.61D-01 ExpMax= 4.17D+03 ExpMxC= 6.27D+02 IAcc=3 IRadAn=         5 AccDes= 0.00D+00
 Harris functional with IExCor=  402 and IRadAn=       5 diagonalized for initial guess.
 HarFok:  IExCor=  402 AccDes= 0.00D+00 IRadAn=         5 IDoV= 1 UseB2=F ITyADJ=14
 ICtDFT=  3500011 ScaDFX=  1.000000  1.000000  1.000000  1.000000
 FoFCou: FMM=F IPFlag=           0 FMFlag=      100000 FMFlg1=           0
         NFxFlg=           0 DoJE=T BraDBF=F KetDBF=T FulRan=T
         wScrn=  0.000000 ICntrl=       500 IOpCl=  0 I1Cent=   200000004 NGrid=           0
         NMat0=    1 NMatS0=      1 NMatT0=    0 NMatD0=    1 NMtDS0=    0 NMtDT0=    0
 Petite list used in FoFCou.
 Keep R1 ints in memory in canonical form, NReq=3474317.
 Requested convergence on RMS density matrix=1.00D-08 within 128 cycles.
 Requested convergence on MAX density matrix=1.00D-06.
 Requested convergence on             energy=1.00D-06.
 No special actions if energy rises.
 Integral accuracy reduced to 1.0D-05 until final iterations.
 Initial convergence to 1.0D-05 achieved.  Increase integral accuracy.
 SCF Done:  E(RB3LYP) =  -56.5377946417     A.U. after   10 cycles
            NFock= 10  Conv=0.24D-08     -V/T= 2.0122

 **********************************************************************

            Population analysis using the SCF density.

 **********************************************************************

 Orbital symmetries:
       Occupied  (A) (A) (A) (A) (A)
       Virtual   (A) (A) (A) (A) (A) (A) (A) (A) (A) (A) (A) (A)
                 (A) (A) (A) (A)
 The electronic state is 1-A.
 Alpha  occ. eigenvalues --  -14.30382  -0.81747  -0.46166  -0.44125  -0.22650
 Alpha virt. eigenvalues --    0.07169   0.15745   0.17262   0.69302   0.72033
 Alpha virt. eigenvalues --    0.73899   0.81317   0.89682   0.92196   1.09198
 Alpha virt. eigenvalues --    1.69337   1.70313   2.05204   2.29615   2.38006
 Alpha virt. eigenvalues --    3.66504
          Condensed to atoms (all electrons):
               1          2          3          4
     1  N    6.944638   0.325667   0.320252   0.327398
     2  H    0.325667   0.425428  -0.029376  -0.028612
     3  H    0.320252  -0.029376   0.434540  -0.022008
     4  H    0.327398  -0.028612  -0.022008   0.408751
 Mulliken charges:
               1
     1  N   -0.917955
     2  H    0.306893
     3  H    0.296591
     4  H    0.314471
 Sum of Mulliken charges =  -0.00000
 Mulliken charges with hydrogens summed into heavy atoms:
               1
     1  N   -0.000000
 Electronic spatial extent (au):  <R**2>=             26.8436
 Charge=             -0.0000 electrons
 Dipole moment (field-independent basis, Debye):
    X=             -0.0597    Y=              0.0663    Z=              1.3097  Tot=              1.3127
 Quadrupole moment (field-independent basis, Debye-Ang):
   XX=             -5.5021   YY=             -5.9412   ZZ=             -9.1929
   XY=             -0.0628   XZ=              0.0460   YZ=             -0.0048
 Traceless Quadrupole moment (field-independent basis, Debye-Ang):
   XX=              1.3767   YY=              0.9375   ZZ=             -2.3142
   XY=             -0.0628   XZ=              0.0460   YZ=             -0.0048
 Octapole moment (field-independent basis, Debye-Ang**2):
  XXX=             -0.3871  YYY=              1.1245  ZZZ=              1.1263  XYY=              0.2925
  XXY=             -1.0664  XXZ=              0.6844  XZZ=              0.0343  YZZ=              0.0448
  YYZ=              0.6048  XYZ=             -0.0182
 Hexadecapole moment (field-independent basis, Debye-Ang**3):
 XXXX=             -9.5232 YYYY=             -9.4275 ZZZZ=             -9.3309 XXXY=             -0.0220
 XXXZ=             -0.0318 YYYX=             -0.1390 YYYZ=              0.2275 ZZZX=              0.0644
 ZZZY=              0.0028 XXYY=             -3.2445 XXZZ=             -3.4714 YYZZ=             -3.3481
 XXYZ=             -0.2477 YYXZ=              0.0818 ZZXY=             -0.0428
 N-N= 1.155180677187D+01 E-N=-1.548849747905D+02  KE= 5.585814733033D+01
 1\1\GINC-NODE99\SP\RB3LYP\6-31G(d)\H3N1\YANZ\22-Sep-2023\0\\# b3lyp/6-
 31g(d)\\tmpdir/M1_conf_0_2.gjf\\0,1\N,0,-0.438663,-0.825099,0.425095\H
 ,0,-0.335983,-1.086226,1.406036\H,0,-1.45513738,-1.03455264,0.08238007
 \H,0,0.35072168,-1.1025881,-0.16037924\\Version=ES64L-G16RevA.03\State
 =1-A\HF=-56.5377946\RMSD=2.356e-09\Dipole=-0.0364373,-0.5147929,0.0198
 958\Quadrupole=1.0142787,-1.7162683,0.7019896,-0.1087559,-0.063588,-0.
 0273465\PG=C01 [X(H3N1)]\\@


 CHINESE FORTUNE COOKIE OF JAN 1 1967 SAY....
 ALL THINGS ARE DIFFICULT BEFORE THEY ARE EASY.
 WE LEARN SO LITTLE AND FORGET SO MUCH.
 YOU WILL OVERCOME OBSTACLES TO ACHIEVE SUCCESS.
 AH SO.
 Job cpu time:       0 days  0 hours  0 minutes  5.1 seconds.
 Elapsed time:       0 days  0 hours  0 minutes  1.4 seconds.
 File lengths (MBytes):  RWF=      6 Int=      0 D2E=      0 Chk=      1 Scr=      1
 Normal termination of Gaussian 16 at Fri Sep 22 09:31:49 2023.
