 Entering Gaussian System, Link 0=g16
 Initial command:
 /share/apps/gaussian/g16/l1.exe "/tmp/55435.mgr/Gau-244241.inp" -scrdir="/tmp/55435.mgr/"
 Entering Link 1 = /share/apps/gaussian/g16/l1.exe PID=    244242.
  
 Copyright (c) 1988,1990,1992,1993,1995,1998,2003,2009,2016,
            Gaussian, Inc.  All Rights Reserved.
  
 This is part of the Gaussian(R) 16 program.  It is based on
 the Gaussian(R) 09 system (copyright 2009, Gaussian, Inc.),
 the Gaussian(R) 03 system (copyright 2003, Gaussian, Inc.),
 the Gaussian(R) 98 system (copyright 1998, Gaussian, Inc.),
 the Gaussian(R) 94 system (copyright 1995, Gaussian, Inc.),
 the Gaussian 92(TM) system (copyright 1992, Gaussian, Inc.),
 the Gaussian 90(TM) system (copyright 1990, Gaussian, Inc.),
 the Gaussian 88(TM) system (copyright 1988, Gaussian, Inc.),
 the Gaussian 86(TM) system (copyright 1986, Carnegie Mellon
 University), and the Gaussian 82(TM) system (copyright 1983,
 Carnegie Mellon University). Gaussian is a federally registered
 trademark of Gaussian, Inc.
  
 This software contains proprietary and confidential information,
 including trade secrets, belonging to Gaussian, Inc.
  
 This software is provided under written license and may be
 used, copied, transmitted, or stored only in accord with that
 written license.
  
 The following legend is applicable only to US Government
 contracts under FAR:
  
                    RESTRICTED RIGHTS LEGEND
  
 Use, reproduction and disclosure by the US Government is
 subject to restrictions as set forth in subparagraphs (a)
 and (c) of the Commercial Computer Software - Restricted
 Rights clause in FAR 52.227-19.
  
 Gaussian, Inc.
 340 Quinnipiac St., Bldg. 40, Wallingford CT 06492
  
  
 ---------------------------------------------------------------
 Warning -- This program may not be used in any manner that
 competes with the business of Gaussian, Inc. or will provide
 assistance to any competitor of Gaussian, Inc.  The licensee
 of this program is prohibited from giving any competitor of
 Gaussian, Inc. access to this program.  By using this program,
 the user acknowledges that Gaussian, Inc. is engaged in the
 business of creating and licensing software in the field of
 computational chemistry and represents and warrants to the
 licensee that it is not a competitor of Gaussian, Inc. and that
 it will not use this program in any manner prohibited above.
 ---------------------------------------------------------------
  

 Cite this work as:
 Gaussian 16, Revision A.03,
 M. J. Frisch, G. W. Trucks, H. B. Schlegel, G. E. Scuseria, 
 M. A. Robb, J. R. Cheeseman, G. Scalmani, V. Barone, 
 G. A. Petersson, H. Nakatsuji, X. Li, M. Caricato, A. V. Marenich, 
 J. Bloino, B. G. Janesko, R. Gomperts, B. Mennucci, H. P. Hratchian, 
 J. V. Ortiz, A. F. Izmaylov, J. L. Sonnenberg, D. Williams-Young, 
 F. Ding, F. Lipparini, F. Egidi, J. Goings, B. Peng, A. Petrone, 
 T. Henderson, D. Ranasinghe, V. G. Zakrzewski, J. Gao, N. Rega, 
 G. Zheng, W. Liang, M. Hada, M. Ehara, K. Toyota, R. Fukuda, 
 J. Hasegawa, M. Ishida, T. Nakajima, Y. Honda, O. Kitao, H. Nakai, 
 T. Vreven, K. Throssell, J. A. Montgomery, Jr., J. E. Peralta, 
 F. Ogliaro, M. J. Bearpark, J. J. Heyd, E. N. Brothers, K. N. Kudin, 
 V. N. Staroverov, T. A. Keith, R. Kobayashi, J. Normand, 
 K. Raghavachari, A. P. Rendell, J. C. Burant, S. S. Iyengar, 
 J. Tomasi, M. Cossi, J. M. Millam, M. Klene, C. Adamo, R. Cammi, 
 J. W. Ochterski, R. L. Martin, K. Morokuma, O. Farkas, 
 J. B. Foresman, and D. J. Fox, Gaussian, Inc., Wallingford CT, 2016.
 
 ******************************************
 Gaussian 16:  ES64L-G16RevA.03 25-Dec-2016
                 5-Jun-2019 
 ******************************************
 %nprocshared=2
 Will use up to    2 processors via shared memory.
 %mem=2GB
 ----------------
 # b3lyp/6-31g(d)
 ----------------
 1/38=1,172=1/1;
 2/12=2,17=6,18=5,40=1/2;
 3/5=1,6=6,7=1,11=2,25=1,30=1,74=-5/1,2,3;
 4//1;
 5/5=2,38=5/2;
 6/7=2,8=2,9=2,10=2,28=1/1;
 99/5=1,9=1/99;
 -----------------------
 tmpdir/M2_conf_0_35.gjf
 -----------------------
 Symbolic Z-matrix:
 Charge =  0 Multiplicity = 1
 C                     0.        0.        0. 
 C                     1.5422    0.        0. 
 H                     1.94697   0.        1.01766 
 H                    -0.41394  -0.83325   0.50663 
 H                    -0.36623   0.92631   0.46507 
 H                    -0.36904   0.01446  -1.03572 
 H                     1.95813   0.87899  -0.5269 
 H                     1.91331  -0.91616  -0.47367 
 
                          Input orientation:                          
 ---------------------------------------------------------------------
 Center     Atomic      Atomic             Coordinates (Angstroms)
 Number     Number       Type             X           Y           Z
 ---------------------------------------------------------------------
      1          6           0        0.000000    0.000000    0.000000
      2          6           0        1.542200    0.000000    0.000000
      3          1           0        1.946970    0.000000    1.017660
      4          1           0       -0.413940   -0.833250    0.506630
      5          1           0       -0.366230    0.926310    0.465070
      6          1           0       -0.369040    0.014460   -1.035720
      7          1           0        1.958130    0.878990   -0.526900
      8          1           0        1.913310   -0.916160   -0.473670
 ---------------------------------------------------------------------
                    Distance matrix (angstroms):
                    1          2          3          4          5
     1  C    0.000000
     2  C    1.542200   0.000000
     3  H    2.196890   1.095203   0.000000
     4  H    1.059399   2.185741   2.555260   0.000000
     5  H    1.099302   2.171738   2.552313   1.760697   0.000000
     6  H    1.099598   2.173882   3.095235   1.760532   1.756089
     7  H    2.210095   1.106004   1.777193   3.102687   2.527626
     8  H    2.173584   1.096100   1.750585   2.526649   3.077699
                    6          7          8
     6  H    0.000000
     7  H    2.534172   0.000000
     8  H    2.528058   1.796498   0.000000
 Stoichiometry    C2H6
 Framework group  C1[X(C2H6)]
 Deg. of freedom    18
 Full point group                 C1      NOp   1
 Largest Abelian subgroup         C1      NOp   1
 Largest concise Abelian subgroup C1      NOp   1
                         Standard orientation:                         
 ---------------------------------------------------------------------
 Center     Atomic      Atomic             Coordinates (Angstroms)
 Number     Number       Type             X           Y           Z
 ---------------------------------------------------------------------
      1          6           0        0.773384   -0.011556   -0.004075
      2          6           0       -0.768742    0.002373    0.001880
      3          1           0       -1.180368   -0.347138   -0.950946
      4          1           0        1.177940   -0.972543   -0.191598
      5          1           0        1.143059    0.692440   -0.763151
      6          1           0        1.149507    0.358106    0.960806
      7          1           0       -1.174824    1.013307    0.192545
      8          1           0       -1.143166   -0.689075    0.765517
 ---------------------------------------------------------------------
 Rotational constants (GHZ):          80.2731320          19.8014868          19.7180331
 Standard basis: 6-31G(d) (6D, 7F)
 There are    42 symmetry adapted cartesian basis functions of A   symmetry.
 There are    42 symmetry adapted basis functions of A   symmetry.
    42 basis functions,    80 primitive gaussians,    42 cartesian basis functions
     9 alpha electrons        9 beta electrons
       nuclear repulsion energy        42.0716902802 Hartrees.
 NAtoms=    8 NActive=    8 NUniq=    8 SFac= 1.00D+00 NAtFMM=   60 NAOKFM=F Big=F
 Integral buffers will be    131072 words long.
 Raffenetti 2 integral format.
 Two-electron integral symmetry is turned on.
 One-electron integrals computed using PRISM.
 NBasis=    42 RedAO= T EigKep=  8.57D-03  NBF=    42
 NBsUse=    42 1.00D-06 EigRej= -1.00D+00 NBFU=    42
 ExpMin= 1.61D-01 ExpMax= 3.05D+03 ExpMxC= 4.57D+02 IAcc=3 IRadAn=         5 AccDes= 0.00D+00
 Harris functional with IExCor=  402 and IRadAn=       5 diagonalized for initial guess.
 HarFok:  IExCor=  402 AccDes= 0.00D+00 IRadAn=         5 IDoV= 1 UseB2=F ITyADJ=14
 ICtDFT=  3500011 ScaDFX=  1.000000  1.000000  1.000000  1.000000
 FoFCou: FMM=F IPFlag=           0 FMFlag=      100000 FMFlg1=           0
         NFxFlg=           0 DoJE=T BraDBF=F KetDBF=T FulRan=T
         wScrn=  0.000000 ICntrl=       500 IOpCl=  0 I1Cent=   200000004 NGrid=           0
         NMat0=    1 NMatS0=      1 NMatT0=    0 NMatD0=    1 NMtDS0=    0 NMtDT0=    0
 Petite list used in FoFCou.
 Keep R1 ints in memory in canonical form, NReq=2135132.
 Requested convergence on RMS density matrix=1.00D-08 within 128 cycles.
 Requested convergence on MAX density matrix=1.00D-06.
 Requested convergence on             energy=1.00D-06.
 No special actions if energy rises.
 Integral accuracy reduced to 1.0D-05 until final iterations.
 Initial convergence to 1.0D-05 achieved.  Increase integral accuracy.
 SCF Done:  E(RB3LYP) =  -79.8288982098     A.U. after   10 cycles
            NFock= 10  Conv=0.51D-08     -V/T= 2.0106

 **********************************************************************

            Population analysis using the SCF density.

 **********************************************************************

 Orbital symmetries:
       Occupied  (A) (A) (A) (A) (A) (A) (A) (A) (A)
       Virtual   (A) (A) (A) (A) (A) (A) (A) (A) (A) (A) (A) (A)
                 (A) (A) (A) (A) (A) (A) (A) (A) (A) (A) (A) (A)
                 (A) (A) (A) (A) (A) (A) (A) (A) (A)
 The electronic state is 1-A.
 Alpha  occ. eigenvalues --  -10.17330 -10.16995  -0.74631  -0.61304  -0.43465
 Alpha  occ. eigenvalues --   -0.42652  -0.36033  -0.34567  -0.33657
 Alpha virt. eigenvalues --    0.10465   0.15677   0.16519   0.16649   0.18556
 Alpha virt. eigenvalues --    0.19514   0.23810   0.51567   0.54018   0.54488
 Alpha virt. eigenvalues --    0.62628   0.64411   0.66355   0.88235   0.88525
 Alpha virt. eigenvalues --    0.91166   0.91411   0.93160   0.98627   1.06857
 Alpha virt. eigenvalues --    1.43704   1.51516   1.53783   1.92252   1.96767
 Alpha virt. eigenvalues --    2.00326   2.26276   2.28157   2.30918   2.35013
 Alpha virt. eigenvalues --    2.58264   4.14377   4.36698
          Condensed to atoms (all electrons):
               1          2          3          4          5          6
     1  C    5.009839   0.374502  -0.033925   0.387613   0.382479   0.382902
     2  C    0.374502   5.017773   0.381762  -0.032230  -0.036074  -0.035492
     3  H   -0.033925   0.381762   0.577456  -0.003257  -0.003727   0.004664
     4  H    0.387613  -0.032230  -0.003257   0.555574  -0.031252  -0.031652
     5  H    0.382479  -0.036074  -0.003727  -0.031252   0.578672  -0.033560
     6  H    0.382902  -0.035492   0.004664  -0.031652  -0.033560   0.578102
     7  H   -0.032200   0.382602  -0.032328   0.004263  -0.003498  -0.003610
     8  H   -0.036627   0.382008  -0.034656  -0.003265   0.004852  -0.003926
               7          8
     1  C   -0.032200  -0.036627
     2  C    0.382602   0.382008
     3  H   -0.032328  -0.034656
     4  H    0.004263  -0.003265
     5  H   -0.003498   0.004852
     6  H   -0.003610  -0.003926
     7  H    0.571502  -0.029636
     8  H   -0.029636   0.577618
 Mulliken charges:
               1
     1  C   -0.434583
     2  C   -0.434852
     3  H    0.144011
     4  H    0.154206
     5  H    0.142108
     6  H    0.142574
     7  H    0.142905
     8  H    0.143630
 Sum of Mulliken charges =   0.00000
 Mulliken charges with hydrogens summed into heavy atoms:
               1
     1  C    0.004306
     2  C   -0.004306
 Electronic spatial extent (au):  <R**2>=            109.8732
 Charge=              0.0000 electrons
 Dipole moment (field-independent basis, Debye):
    X=              0.0160    Y=             -0.0237    Z=             -0.0058  Tot=              0.0292
 Quadrupole moment (field-independent basis, Debye-Ang):
   XX=            -15.2555   YY=            -14.5659   ZZ=            -14.8052
   XY=             -0.0681   XZ=              0.0320   YZ=              0.0218
 Traceless Quadrupole moment (field-independent basis, Debye-Ang):
   XX=             -0.3800   YY=              0.3096   ZZ=              0.0703
   XY=             -0.0681   XZ=              0.0320   YZ=              0.0218
 Octapole moment (field-independent basis, Debye-Ang**2):
  XXX=              0.1035  YYY=             -0.0825  ZZZ=             -0.0095  XYY=              0.0477
  XXY=             -0.1026  XXZ=             -0.0808  XZZ=              0.0400  YZZ=             -0.0362
  YYZ=              0.0001  XYZ=              0.0231
 Hexadecapole moment (field-independent basis, Debye-Ang**3):
 XXXX=            -93.1498 YYYY=            -28.5075 ZZZZ=            -28.6567 XXXY=             -0.3610
 XXXZ=              0.1150 YYYX=             -1.1426 YYYZ=             -0.0023 ZZZX=              0.6620
 ZZZY=              0.0599 XXYY=            -19.0118 XXZZ=            -19.3871 YYZZ=             -9.4720
 XXYZ=              0.1011 YYXZ=             -0.6412 ZZXY=              0.9559
 N-N= 4.207169028019D+01 E-N=-2.679595512266D+02  KE= 7.898894419472D+01
 1\1\GINC-NODE97\SP\RB3LYP\6-31G(d)\C2H6\YANZ\05-Jun-2019\0\\# b3lyp/6-
 31g(d)\\tmpdir/M2_conf_0_35.gjf\\0,1\C,0,0.,0.,0.\C,0,1.5422,0.,0.\H,0
 ,1.94697,0.,1.01766\H,0,-0.41394,-0.83325,0.50663\H,0,-0.36623,0.92631
 ,0.46507\H,0,-0.36904,0.01446,-1.03572\H,0,1.95813,0.87899,-0.5269\H,0
 ,1.91331,-0.91616,-0.47367\\Version=ES64L-G16RevA.03\State=1-A\HF=-79.
 8288982\RMSD=5.071e-09\Dipole=-0.0063766,-0.0079167,0.005336\Quadrupol
 e=-0.2817138,0.1974215,0.0842923,0.0596632,0.0017398,-0.0698264\PG=C01
  [X(C2H6)]\\@


 IF YOU WANT TO LEARN FROM THE THEORETICAL PHYSICISTS ABOUT THE
 METHODS WHICH THEY USE, I ADVISE YOU TO FOLLOW THIS PRINCIPLE VERY STRICTLY:
 DON'T LISTEN TO THEIR WORDS; PAY ATTENTION, INSTEAD, TO THEIR ACTIONS.
 -- A.EINSTEIN, 1934
 Job cpu time:       0 days  0 hours  0 minutes  6.8 seconds.
 Elapsed time:       0 days  0 hours  0 minutes  3.5 seconds.
 File lengths (MBytes):  RWF=      6 Int=      0 D2E=      0 Chk=      1 Scr=      1
 Normal termination of Gaussian 16 at Wed Jun  5 15:18:41 2019.
