 Entering Gaussian System, Link 0=g16
 Initial command:
 /share/apps/gaussian/g16/l1.exe "/tmp/55435.mgr/Gau-244118.inp" -scrdir="/tmp/55435.mgr/"
 Entering Link 1 = /share/apps/gaussian/g16/l1.exe PID=    244119.
  
 Copyright (c) 1988,1990,1992,1993,1995,1998,2003,2009,2016,
            Gaussian, Inc.  All Rights Reserved.
  
 This is part of the Gaussian(R) 16 program.  It is based on
 the Gaussian(R) 09 system (copyright 2009, Gaussian, Inc.),
 the Gaussian(R) 03 system (copyright 2003, Gaussian, Inc.),
 the Gaussian(R) 98 system (copyright 1998, Gaussian, Inc.),
 the Gaussian(R) 94 system (copyright 1995, Gaussian, Inc.),
 the Gaussian 92(TM) system (copyright 1992, Gaussian, Inc.),
 the Gaussian 90(TM) system (copyright 1990, Gaussian, Inc.),
 the Gaussian 88(TM) system (copyright 1988, Gaussian, Inc.),
 the Gaussian 86(TM) system (copyright 1986, Carnegie Mellon
 University), and the Gaussian 82(TM) system (copyright 1983,
 Carnegie Mellon University). Gaussian is a federally registered
 trademark of Gaussian, Inc.
  
 This software contains proprietary and confidential information,
 including trade secrets, belonging to Gaussian, Inc.
  
 This software is provided under written license and may be
 used, copied, transmitted, or stored only in accord with that
 written license.
  
 The following legend is applicable only to US Government
 contracts under FAR:
  
                    RESTRICTED RIGHTS LEGEND
  
 Use, reproduction and disclosure by the US Government is
 subject to restrictions as set forth in subparagraphs (a)
 and (c) of the Commercial Computer Software - Restricted
 Rights clause in FAR 52.227-19.
  
 Gaussian, Inc.
 340 Quinnipiac St., Bldg. 40, Wallingford CT 06492
  
  
 ---------------------------------------------------------------
 Warning -- This program may not be used in any manner that
 competes with the business of Gaussian, Inc. or will provide
 assistance to any competitor of Gaussian, Inc.  The licensee
 of this program is prohibited from giving any competitor of
 Gaussian, Inc. access to this program.  By using this program,
 the user acknowledges that Gaussian, Inc. is engaged in the
 business of creating and licensing software in the field of
 computational chemistry and represents and warrants to the
 licensee that it is not a competitor of Gaussian, Inc. and that
 it will not use this program in any manner prohibited above.
 ---------------------------------------------------------------
  

 Cite this work as:
 Gaussian 16, Revision A.03,
 M. J. Frisch, G. W. Trucks, H. B. Schlegel, G. E. Scuseria, 
 M. A. Robb, J. R. Cheeseman, G. Scalmani, V. Barone, 
 G. A. Petersson, H. Nakatsuji, X. Li, M. Caricato, A. V. Marenich, 
 J. Bloino, B. G. Janesko, R. Gomperts, B. Mennucci, H. P. Hratchian, 
 J. V. Ortiz, A. F. Izmaylov, J. L. Sonnenberg, D. Williams-Young, 
 F. Ding, F. Lipparini, F. Egidi, J. Goings, B. Peng, A. Petrone, 
 T. Henderson, D. Ranasinghe, V. G. Zakrzewski, J. Gao, N. Rega, 
 G. Zheng, W. Liang, M. Hada, M. Ehara, K. Toyota, R. Fukuda, 
 J. Hasegawa, M. Ishida, T. Nakajima, Y. Honda, O. Kitao, H. Nakai, 
 T. Vreven, K. Throssell, J. A. Montgomery, Jr., J. E. Peralta, 
 F. Ogliaro, M. J. Bearpark, J. J. Heyd, E. N. Brothers, K. N. Kudin, 
 V. N. Staroverov, T. A. Keith, R. Kobayashi, J. Normand, 
 K. Raghavachari, A. P. Rendell, J. C. Burant, S. S. Iyengar, 
 J. Tomasi, M. Cossi, J. M. Millam, M. Klene, C. Adamo, R. Cammi, 
 J. W. Ochterski, R. L. Martin, K. Morokuma, O. Farkas, 
 J. B. Foresman, and D. J. Fox, Gaussian, Inc., Wallingford CT, 2016.
 
 ******************************************
 Gaussian 16:  ES64L-G16RevA.03 25-Dec-2016
                 5-Jun-2019 
 ******************************************
 %nprocshared=2
 Will use up to    2 processors via shared memory.
 %mem=2GB
 ----------------
 # b3lyp/6-31g(d)
 ----------------
 1/38=1,172=1/1;
 2/12=2,17=6,18=5,40=1/2;
 3/5=1,6=6,7=1,11=2,25=1,30=1,74=-5/1,2,3;
 4//1;
 5/5=2,38=5/2;
 6/7=2,8=2,9=2,10=2,28=1/1;
 99/5=1,9=1/99;
 -----------------------
 tmpdir/M2_conf_0_26.gjf
 -----------------------
 Symbolic Z-matrix:
 Charge =  0 Multiplicity = 1
 N                     0.        0.        0. 
 C                     1.4665    0.        0. 
 H                     1.90165   0.        1.01332 
 H                    -0.34685   0.82772   0.74189 
 H                    -0.31017  -0.85587   0.46296 
 H                     1.76727  -0.94302  -0.47801 
 H                     1.86682   0.86153  -0.56635 
 
                          Input orientation:                          
 ---------------------------------------------------------------------
 Center     Atomic      Atomic             Coordinates (Angstroms)
 Number     Number       Type             X           Y           Z
 ---------------------------------------------------------------------
      1          7           0        0.000000    0.000000    0.000000
      2          6           0        1.466500    0.000000    0.000000
      3          1           0        1.901650    0.000000    1.013320
      4          1           0       -0.346850    0.827720    0.741890
      5          1           0       -0.310170   -0.855870    0.462960
      6          1           0        1.767270   -0.943020   -0.478010
      7          1           0        1.866820    0.861530   -0.566350
 ---------------------------------------------------------------------
                    Distance matrix (angstroms):
                    1          2          3          4          5
     1  N    0.000000
     2  C    1.466500   0.000000
     3  H    2.154783   1.102802   0.000000
     4  H    1.164399   2.126913   2.411337   0.000000
     5  H    1.021299   2.025685   2.434658   1.706934   0.000000
     6  H    2.059375   1.099201   1.769579   3.015490   2.282274
     7  H    2.132605   1.106003   1.799668   2.571570   2.957740
                    6          7
     6  H    0.000000
     7  H    1.809452   0.000000
 Stoichiometry    CH5N
 Framework group  C1[X(CH5N)]
 Deg. of freedom    15
 Full point group                 C1      NOp   1
 Largest Abelian subgroup         C1      NOp   1
 Largest concise Abelian subgroup C1      NOp   1
                         Standard orientation:                         
 ---------------------------------------------------------------------
 Center     Atomic      Atomic             Coordinates (Angstroms)
 Number     Number       Type             X           Y           Z
 ---------------------------------------------------------------------
      1          7           0        0.747150    0.024381   -0.151228
      2          6           0       -0.709404   -0.010551    0.015663
      3          1           0       -1.023801   -0.211443    1.053435
      4          1           0        1.179412   -0.919567    0.375970
      5          1           0        1.107468    0.785080    0.427182
      6          1           0       -1.065434    0.998089   -0.237576
      7          1           0       -1.171270   -0.759516   -0.654392
 ---------------------------------------------------------------------
 Rotational constants (GHZ):          95.3446773          22.6880421          21.7854953
 Standard basis: 6-31G(d) (6D, 7F)
 There are    40 symmetry adapted cartesian basis functions of A   symmetry.
 There are    40 symmetry adapted basis functions of A   symmetry.
    40 basis functions,    76 primitive gaussians,    40 cartesian basis functions
     9 alpha electrons        9 beta electrons
       nuclear repulsion energy        41.3413898816 Hartrees.
 NAtoms=    7 NActive=    7 NUniq=    7 SFac= 1.00D+00 NAtFMM=   60 NAOKFM=F Big=F
 Integral buffers will be    131072 words long.
 Raffenetti 2 integral format.
 Two-electron integral symmetry is turned on.
 One-electron integrals computed using PRISM.
 NBasis=    40 RedAO= T EigKep=  9.10D-03  NBF=    40
 NBsUse=    40 1.00D-06 EigRej= -1.00D+00 NBFU=    40
 ExpMin= 1.61D-01 ExpMax= 4.17D+03 ExpMxC= 6.27D+02 IAcc=3 IRadAn=         5 AccDes= 0.00D+00
 Harris functional with IExCor=  402 and IRadAn=       5 diagonalized for initial guess.
 HarFok:  IExCor=  402 AccDes= 0.00D+00 IRadAn=         5 IDoV= 1 UseB2=F ITyADJ=14
 ICtDFT=  3500011 ScaDFX=  1.000000  1.000000  1.000000  1.000000
 FoFCou: FMM=F IPFlag=           0 FMFlag=      100000 FMFlg1=           0
         NFxFlg=           0 DoJE=T BraDBF=F KetDBF=T FulRan=T
         wScrn=  0.000000 ICntrl=       500 IOpCl=  0 I1Cent=   200000004 NGrid=           0
         NMat0=    1 NMatS0=      1 NMatT0=    0 NMatD0=    1 NMtDS0=    0 NMtDT0=    0
 Petite list used in FoFCou.
 Keep R1 ints in memory in canonical form, NReq=2063221.
 Requested convergence on RMS density matrix=1.00D-08 within 128 cycles.
 Requested convergence on MAX density matrix=1.00D-06.
 Requested convergence on             energy=1.00D-06.
 No special actions if energy rises.
 Integral accuracy reduced to 1.0D-05 until final iterations.
 Initial convergence to 1.0D-05 achieved.  Increase integral accuracy.
 SCF Done:  E(RB3LYP) =  -95.8400989653     A.U. after   11 cycles
            NFock= 11  Conv=0.68D-08     -V/T= 2.0115

 **********************************************************************

            Population analysis using the SCF density.

 **********************************************************************

 Orbital symmetries:
       Occupied  (A) (A) (A) (A) (A) (A) (A) (A) (A)
       Virtual   (A) (A) (A) (A) (A) (A) (A) (A) (A) (A) (A) (A)
                 (A) (A) (A) (A) (A) (A) (A) (A) (A) (A) (A) (A)
                 (A) (A) (A) (A) (A) (A) (A)
 The electronic state is 1-A.
 Alpha  occ. eigenvalues --  -14.32329 -10.20134  -0.86117  -0.64688  -0.46969
 Alpha  occ. eigenvalues --   -0.43363  -0.39365  -0.35591  -0.23383
 Alpha virt. eigenvalues --    0.06236   0.12571   0.14119   0.17535   0.17982
 Alpha virt. eigenvalues --    0.23308   0.54607   0.56564   0.58792   0.72063
 Alpha virt. eigenvalues --    0.74648   0.80158   0.83274   0.86960   0.91507
 Alpha virt. eigenvalues --    0.91851   0.95465   1.06372   1.41201   1.50660
 Alpha virt. eigenvalues --    1.56649   1.85112   2.02004   2.05004   2.16340
 Alpha virt. eigenvalues --    2.29976   2.34351   2.36145   2.65647   3.73717
 Alpha virt. eigenvalues --    4.23988
          Condensed to atoms (all electrons):
               1          2          3          4          5          6
     1  N    6.907605   0.303282  -0.043160   0.291886   0.297378  -0.040368
     2  C    0.303282   4.940771   0.370300  -0.040955  -0.040631   0.382548
     3  H   -0.043160   0.370300   0.645244  -0.008714  -0.004379  -0.039497
     4  H    0.291886  -0.040955  -0.008714   0.535914  -0.031221   0.006323
     5  H    0.297378  -0.040631  -0.004379  -0.031221   0.480873  -0.006021
     6  H   -0.040368   0.382548  -0.039497   0.006323  -0.006021   0.571408
     7  H   -0.039983   0.384303  -0.043885  -0.001370   0.006167  -0.025223
               7
     1  N   -0.039983
     2  C    0.384303
     3  H   -0.043885
     4  H   -0.001370
     5  H    0.006167
     6  H   -0.025223
     7  H    0.564628
 Mulliken charges:
               1
     1  N   -0.676639
     2  C   -0.299618
     3  H    0.124092
     4  H    0.248137
     5  H    0.297834
     6  H    0.150831
     7  H    0.155363
 Sum of Mulliken charges =   0.00000
 Mulliken charges with hydrogens summed into heavy atoms:
               1
     1  N   -0.130668
     2  C    0.130668
 Electronic spatial extent (au):  <R**2>=             96.2873
 Charge=              0.0000 electrons
 Dipole moment (field-independent basis, Debye):
    X=             -0.3480    Y=             -0.0256    Z=              1.5853  Tot=              1.6232
 Quadrupole moment (field-independent basis, Debye-Ang):
   XX=            -14.0984   YY=            -12.5933   ZZ=            -15.0914
   XY=             -0.1074   XZ=              2.2340   YZ=              0.1968
 Traceless Quadrupole moment (field-independent basis, Debye-Ang):
   XX=             -0.1707   YY=              1.3344   ZZ=             -1.1637
   XY=             -0.1074   XZ=              2.2340   YZ=              0.1968
 Octapole moment (field-independent basis, Debye-Ang**2):
  XXX=              2.2077  YYY=              0.4018  ZZZ=              1.5217  XYY=              1.6823
  XXY=             -0.1741  XXZ=              2.1983  XZZ=             -0.4069  YZZ=             -0.1836
  YYZ=              0.5468  XYZ=             -0.0697
 Hexadecapole moment (field-independent basis, Debye-Ang**3):
 XXXX=            -75.3272 YYYY=            -24.2732 ZZZZ=            -24.1888 XXXY=              0.1257
 XXXZ=              3.8666 YYYX=             -0.4923 YYYZ=              0.1453 ZZZX=              1.6972
 ZZZY=              0.3351 XXYY=            -14.6231 XXZZ=            -17.0880 YYZZ=             -7.9869
 XXYZ=              0.3268 YYXZ=              1.7753 ZZXY=              0.3930
 N-N= 4.134138988157D+01 E-N=-3.050464695505D+02  KE= 9.475325543634D+01
 1\1\GINC-NODE97\SP\RB3LYP\6-31G(d)\C1H5N1\YANZ\05-Jun-2019\0\\# b3lyp/
 6-31g(d)\\tmpdir/M2_conf_0_26.gjf\\0,1\N,0,0.,0.,0.\C,0,1.4665,0.,0.\H
 ,0,1.90165,0.,1.01332\H,0,-0.34685,0.82772,0.74189\H,0,-0.31017,-0.855
 87,0.46296\H,0,1.76727,-0.94302,-0.47801\H,0,1.86682,0.86153,-0.56635\
 \Version=ES64L-G16RevA.03\State=1-A\HF=-95.840099\RMSD=6.799e-09\Dipol
 e=0.2072039,-0.1085683,0.5942318\Quadrupole=-0.5158929,0.9790023,-0.46
 31094,0.2615039,-1.6849995,0.1836511\PG=C01 [X(C1H5N1)]\\@


 There are more things in heaven and earth, Horatio,
 than are dreamt of in your philosophy.
                   -- Hamlet, Act I, Scene 5
 Job cpu time:       0 days  0 hours  0 minutes  6.6 seconds.
 Elapsed time:       0 days  0 hours  0 minutes  3.4 seconds.
 File lengths (MBytes):  RWF=      6 Int=      0 D2E=      0 Chk=      1 Scr=      1
 Normal termination of Gaussian 16 at Wed Jun  5 15:18:38 2019.
