 Entering Gaussian System, Link 0=g16
 Initial command:
 /share/apps/gaussian/g16/l1.exe "/tmp/55435.mgr/Gau-244219.inp" -scrdir="/tmp/55435.mgr/"
 Entering Link 1 = /share/apps/gaussian/g16/l1.exe PID=    244220.
  
 Copyright (c) 1988,1990,1992,1993,1995,1998,2003,2009,2016,
            Gaussian, Inc.  All Rights Reserved.
  
 This is part of the Gaussian(R) 16 program.  It is based on
 the Gaussian(R) 09 system (copyright 2009, Gaussian, Inc.),
 the Gaussian(R) 03 system (copyright 2003, Gaussian, Inc.),
 the Gaussian(R) 98 system (copyright 1998, Gaussian, Inc.),
 the Gaussian(R) 94 system (copyright 1995, Gaussian, Inc.),
 the Gaussian 92(TM) system (copyright 1992, Gaussian, Inc.),
 the Gaussian 90(TM) system (copyright 1990, Gaussian, Inc.),
 the Gaussian 88(TM) system (copyright 1988, Gaussian, Inc.),
 the Gaussian 86(TM) system (copyright 1986, Carnegie Mellon
 University), and the Gaussian 82(TM) system (copyright 1983,
 Carnegie Mellon University). Gaussian is a federally registered
 trademark of Gaussian, Inc.
  
 This software contains proprietary and confidential information,
 including trade secrets, belonging to Gaussian, Inc.
  
 This software is provided under written license and may be
 used, copied, transmitted, or stored only in accord with that
 written license.
  
 The following legend is applicable only to US Government
 contracts under FAR:
  
                    RESTRICTED RIGHTS LEGEND
  
 Use, reproduction and disclosure by the US Government is
 subject to restrictions as set forth in subparagraphs (a)
 and (c) of the Commercial Computer Software - Restricted
 Rights clause in FAR 52.227-19.
  
 Gaussian, Inc.
 340 Quinnipiac St., Bldg. 40, Wallingford CT 06492
  
  
 ---------------------------------------------------------------
 Warning -- This program may not be used in any manner that
 competes with the business of Gaussian, Inc. or will provide
 assistance to any competitor of Gaussian, Inc.  The licensee
 of this program is prohibited from giving any competitor of
 Gaussian, Inc. access to this program.  By using this program,
 the user acknowledges that Gaussian, Inc. is engaged in the
 business of creating and licensing software in the field of
 computational chemistry and represents and warrants to the
 licensee that it is not a competitor of Gaussian, Inc. and that
 it will not use this program in any manner prohibited above.
 ---------------------------------------------------------------
  

 Cite this work as:
 Gaussian 16, Revision A.03,
 M. J. Frisch, G. W. Trucks, H. B. Schlegel, G. E. Scuseria, 
 M. A. Robb, J. R. Cheeseman, G. Scalmani, V. Barone, 
 G. A. Petersson, H. Nakatsuji, X. Li, M. Caricato, A. V. Marenich, 
 J. Bloino, B. G. Janesko, R. Gomperts, B. Mennucci, H. P. Hratchian, 
 J. V. Ortiz, A. F. Izmaylov, J. L. Sonnenberg, D. Williams-Young, 
 F. Ding, F. Lipparini, F. Egidi, J. Goings, B. Peng, A. Petrone, 
 T. Henderson, D. Ranasinghe, V. G. Zakrzewski, J. Gao, N. Rega, 
 G. Zheng, W. Liang, M. Hada, M. Ehara, K. Toyota, R. Fukuda, 
 J. Hasegawa, M. Ishida, T. Nakajima, Y. Honda, O. Kitao, H. Nakai, 
 T. Vreven, K. Throssell, J. A. Montgomery, Jr., J. E. Peralta, 
 F. Ogliaro, M. J. Bearpark, J. J. Heyd, E. N. Brothers, K. N. Kudin, 
 V. N. Staroverov, T. A. Keith, R. Kobayashi, J. Normand, 
 K. Raghavachari, A. P. Rendell, J. C. Burant, S. S. Iyengar, 
 J. Tomasi, M. Cossi, J. M. Millam, M. Klene, C. Adamo, R. Cammi, 
 J. W. Ochterski, R. L. Martin, K. Morokuma, O. Farkas, 
 J. B. Foresman, and D. J. Fox, Gaussian, Inc., Wallingford CT, 2016.
 
 ******************************************
 Gaussian 16:  ES64L-G16RevA.03 25-Dec-2016
                 5-Jun-2019 
 ******************************************
 %nprocshared=2
 Will use up to    2 processors via shared memory.
 %mem=2GB
 ----------------
 # b3lyp/6-31g(d)
 ----------------
 1/38=1,172=1/1;
 2/12=2,17=6,18=5,40=1/2;
 3/5=1,6=6,7=1,11=2,25=1,30=1,74=-5/1,2,3;
 4//1;
 5/5=2,38=5/2;
 6/7=2,8=2,9=2,10=2,28=1/1;
 99/5=1,9=1/99;
 -----------------------
 tmpdir/M2_conf_0_33.gjf
 -----------------------
 Symbolic Z-matrix:
 Charge =  0 Multiplicity = 1
 C                     0.        0.        0. 
 C                     1.5422    0.        0. 
 C                     2.03178   0.        1.44723 
 H                    -0.41394  -0.00613  -0.97516 
 H                    -0.36623  -0.87515   0.55539 
 H                    -0.36904   0.88091   0.54491 
 H                     1.91331   0.87731  -0.54226 
 H                     1.904    -0.88662  -0.53147 
 H                     3.18335   0.0045    1.49812 
 H                     1.7044    0.91539   1.96018 
 H                     1.6056   -0.8595    1.99111 
 
                          Input orientation:                          
 ---------------------------------------------------------------------
 Center     Atomic      Atomic             Coordinates (Angstroms)
 Number     Number       Type             X           Y           Z
 ---------------------------------------------------------------------
      1          6           0        0.000000    0.000000    0.000000
      2          6           0        1.542200    0.000000    0.000000
      3          6           0        2.031780    0.000000    1.447230
      4          1           0       -0.413940   -0.006130   -0.975160
      5          1           0       -0.366230   -0.875150    0.555390
      6          1           0       -0.369040    0.880910    0.544910
      7          1           0        1.913310    0.877310   -0.542260
      8          1           0        1.904000   -0.886620   -0.531470
      9          1           0        3.183350    0.004500    1.498120
     10          1           0        1.704400    0.915390    1.960180
     11          1           0        1.605600   -0.859500    1.991110
 ---------------------------------------------------------------------
                    Distance matrix (angstroms):
                    1          2          3          4          5
     1  C    0.000000
     2  C    1.542200   0.000000
     3  C    2.494515   1.527797   0.000000
     4  H    1.059396   2.185740   3.442319   0.000000
     5  H    1.099304   2.171739   2.704019   1.760697   0.000000
     6  H    1.099600   2.173883   2.711848   1.760531   1.756094
     7  H    2.173585   1.096103   2.177562   2.526650   3.077703
     8  H    2.166511   1.095196   2.172021   2.518922   2.517010
     9  H    3.518253   2.222106   1.152703   4.365515   3.776512
    10  H    2.754129   2.169459   1.099197   3.735343   3.076845
    11  H    2.698372   2.169626   1.102803   3.688569   2.439191
                    6          7          8          9         10
     6  H    0.000000
     7  H    2.528057   0.000000
     8  H    3.073999   1.763988   0.000000
     9  H    3.781029   2.556941   2.559310   0.000000
    10  H    2.510644   2.511434   3.081461   1.797363   0.000000
    11  H    3.003286   3.086933   2.540313   1.865162   1.777907
                   11
    11  H    0.000000
 Stoichiometry    C3H8
 Framework group  C1[X(C3H8)]
 Deg. of freedom    27
 Full point group                 C1      NOp   1
 Largest Abelian subgroup         C1      NOp   1
 Largest concise Abelian subgroup C1      NOp   1
                         Standard orientation:                         
 ---------------------------------------------------------------------
 Center     Atomic      Atomic             Coordinates (Angstroms)
 Number     Number       Type             X           Y           Z
 ---------------------------------------------------------------------
      1          6           0       -1.255135   -0.259583    0.004816
      2          6           0        0.008285    0.624762   -0.004518
      3          6           0        1.239270   -0.280133   -0.006459
      4          1           0       -2.153475    0.301921    0.000503
      5          1           0       -1.240662   -0.928133   -0.867709
      6          1           0       -1.240977   -0.914049    0.888328
      7          1           0        0.005349    1.285363    0.870147
      8          1           0       -0.004123    1.264043   -0.893686
      9          1           0        2.211876    0.338539   -0.008893
     10          1           0        1.269387   -0.884388    0.911257
     11          1           0        1.198101   -0.973568   -0.862980
 ---------------------------------------------------------------------
 Rotational constants (GHZ):          27.9598873           8.7399631           7.6021851
 Standard basis: 6-31G(d) (6D, 7F)
 There are    61 symmetry adapted cartesian basis functions of A   symmetry.
 There are    61 symmetry adapted basis functions of A   symmetry.
    61 basis functions,   116 primitive gaussians,    61 cartesian basis functions
    13 alpha electrons       13 beta electrons
       nuclear repulsion energy        82.5254873840 Hartrees.
 NAtoms=   11 NActive=   11 NUniq=   11 SFac= 1.00D+00 NAtFMM=   60 NAOKFM=F Big=F
 Integral buffers will be    131072 words long.
 Raffenetti 2 integral format.
 Two-electron integral symmetry is turned on.
 One-electron integrals computed using PRISM.
 NBasis=    61 RedAO= T EigKep=  6.27D-03  NBF=    61
 NBsUse=    61 1.00D-06 EigRej= -1.00D+00 NBFU=    61
 ExpMin= 1.61D-01 ExpMax= 3.05D+03 ExpMxC= 4.57D+02 IAcc=3 IRadAn=         5 AccDes= 0.00D+00
 Harris functional with IExCor=  402 and IRadAn=       5 diagonalized for initial guess.
 HarFok:  IExCor=  402 AccDes= 0.00D+00 IRadAn=         5 IDoV= 1 UseB2=F ITyADJ=14
 ICtDFT=  3500011 ScaDFX=  1.000000  1.000000  1.000000  1.000000
 FoFCou: FMM=F IPFlag=           0 FMFlag=      100000 FMFlg1=           0
         NFxFlg=           0 DoJE=T BraDBF=F KetDBF=T FulRan=T
         wScrn=  0.000000 ICntrl=       500 IOpCl=  0 I1Cent=   200000004 NGrid=           0
         NMat0=    1 NMatS0=      1 NMatT0=    0 NMatD0=    1 NMtDS0=    0 NMtDT0=    0
 Petite list used in FoFCou.
 Keep R1 ints in memory in canonical form, NReq=3557582.
 Requested convergence on RMS density matrix=1.00D-08 within 128 cycles.
 Requested convergence on MAX density matrix=1.00D-06.
 Requested convergence on             energy=1.00D-06.
 No special actions if energy rises.
 Integral accuracy reduced to 1.0D-05 until final iterations.
 Initial convergence to 1.0D-05 achieved.  Increase integral accuracy.
 SCF Done:  E(RB3LYP) =  -119.140171115     A.U. after   11 cycles
            NFock= 11  Conv=0.38D-08     -V/T= 2.0108

 **********************************************************************

            Population analysis using the SCF density.

 **********************************************************************

 Orbital symmetries:
       Occupied  (A) (A) (A) (A) (A) (A) (A) (A) (A) (A) (A) (A)
                 (A)
       Virtual   (A) (A) (A) (A) (A) (A) (A) (A) (A) (A) (A) (A)
                 (A) (A) (A) (A) (A) (A) (A) (A) (A) (A) (A) (A)
                 (A) (A) (A) (A) (A) (A) (A) (A) (A) (A) (A) (A)
                 (A) (A) (A) (A) (A) (A) (A) (A) (A) (A) (A) (A)
 The electronic state is 1-A.
 Alpha  occ. eigenvalues --  -10.17799 -10.17625 -10.16681  -0.77566  -0.67124
 Alpha  occ. eigenvalues --   -0.58086  -0.45358  -0.43329  -0.39071  -0.37244
 Alpha  occ. eigenvalues --   -0.33876  -0.32844  -0.32426
 Alpha virt. eigenvalues --    0.09421   0.14406   0.14487   0.15248   0.16682
 Alpha virt. eigenvalues --    0.19240   0.19922   0.20148   0.22817   0.26065
 Alpha virt. eigenvalues --    0.51753   0.52746   0.55115   0.55420   0.57840
 Alpha virt. eigenvalues --    0.66448   0.69595   0.73769   0.79806   0.86878
 Alpha virt. eigenvalues --    0.87285   0.89680   0.91619   0.92608   0.95649
 Alpha virt. eigenvalues --    0.96192   0.99620   1.03326   1.42201   1.46483
 Alpha virt. eigenvalues --    1.47605   1.54746   1.75891   1.90540   1.90701
 Alpha virt. eigenvalues --    1.97716   2.04947   2.09682   2.23094   2.23856
 Alpha virt. eigenvalues --    2.33265   2.36841   2.42638   2.54339   2.68395
 Alpha virt. eigenvalues --    4.14071   4.27532   4.46074
          Condensed to atoms (all electrons):
               1          2          3          4          5          6
     1  C    5.062770   0.382247  -0.058014   0.376455   0.378489   0.378410
     2  C    0.382247   4.918813   0.383001  -0.028202  -0.036643  -0.036889
     3  C   -0.058014   0.383001   5.061340   0.005033  -0.005271  -0.004466
     4  H    0.376455  -0.028202   0.005033   0.563403  -0.030255  -0.030338
     5  H    0.378489  -0.036643  -0.005271  -0.030255   0.583447  -0.034554
     6  H    0.378410  -0.036889  -0.004466  -0.030338  -0.034554   0.583366
     7  H   -0.038090   0.381369  -0.036879  -0.002182   0.005254  -0.004631
     8  H   -0.039312   0.382267  -0.038113  -0.002295  -0.004634   0.005339
     9  H    0.004910  -0.030041   0.365853  -0.000185   0.000006  -0.000023
    10  H   -0.004980  -0.036675   0.376617   0.000004  -0.000412   0.005668
    11  H   -0.005179  -0.037885   0.377830   0.000023   0.006417  -0.000491
               7          8          9         10         11
     1  C   -0.038090  -0.039312   0.004910  -0.004980  -0.005179
     2  C    0.381369   0.382267  -0.030041  -0.036675  -0.037885
     3  C   -0.036879  -0.038113   0.365853   0.376617   0.377830
     4  H   -0.002182  -0.002295  -0.000185   0.000004   0.000023
     5  H    0.005254  -0.004634   0.000006  -0.000412   0.006417
     6  H   -0.004631   0.005339  -0.000023   0.005668  -0.000491
     7  H    0.601727  -0.039290  -0.001896  -0.005065   0.005179
     8  H   -0.039290   0.602910  -0.002909   0.005304  -0.004348
     9  H   -0.001896  -0.002909   0.594421  -0.032081  -0.024721
    10  H   -0.005065   0.005304  -0.032081   0.583154  -0.033921
    11  H    0.005179  -0.004348  -0.024721  -0.033921   0.575048
 Mulliken charges:
               1
     1  C   -0.437706
     2  C   -0.241360
     3  C   -0.426930
     4  H    0.148540
     5  H    0.138157
     6  H    0.138609
     7  H    0.134505
     8  H    0.135081
     9  H    0.126666
    10  H    0.142389
    11  H    0.142049
 Sum of Mulliken charges =   0.00000
 Mulliken charges with hydrogens summed into heavy atoms:
               1
     1  C   -0.012400
     2  C    0.028226
     3  C   -0.015826
 Electronic spatial extent (au):  <R**2>=            223.6014
 Charge=              0.0000 electrons
 Dipole moment (field-independent basis, Debye):
    X=             -0.0692    Y=              0.0406    Z=              0.0218  Tot=              0.0831
 Quadrupole moment (field-independent basis, Debye-Ang):
   XX=            -22.1176   YY=            -21.5506   ZZ=            -21.2622
   XY=             -0.0584   XZ=              0.1066   YZ=              0.0587
 Traceless Quadrupole moment (field-independent basis, Debye-Ang):
   XX=             -0.4741   YY=              0.0929   ZZ=              0.3813
   XY=             -0.0584   XZ=              0.1066   YZ=              0.0587
 Octapole moment (field-independent basis, Debye-Ang**2):
  XXX=             -0.9583  YYY=              0.1787  ZZZ=              0.0808  XYY=             -0.1415
  XXY=              1.4626  XXZ=              0.2421  XZZ=             -0.1231  YZZ=             -0.3914
  YYZ=             -0.0684  XYZ=              0.0207
 Hexadecapole moment (field-independent basis, Debye-Ang**3):
 XXXX=           -193.0630 YYYY=            -71.7767 ZZZZ=            -42.5579 XXXY=              0.0277
 XXXZ=              0.5707 YYYX=             -0.2281 YYYZ=              0.2417 ZZZX=              0.2022
 ZZZY=             -0.0141 XXYY=            -44.2397 XXZZ=            -40.4341 YYZZ=            -17.1831
 XXYZ=             -0.0305 YYXZ=             -0.0267 ZZXY=             -0.1566
 N-N= 8.252548738402D+01 E-N=-4.396090621634D+02  KE= 1.178648204914D+02
 1\1\GINC-NODE97\SP\RB3LYP\6-31G(d)\C3H8\YANZ\05-Jun-2019\0\\# b3lyp/6-
 31g(d)\\tmpdir/M2_conf_0_33.gjf\\0,1\C,0,0.,0.,0.\C,0,1.5422,0.,0.\C,0
 ,2.03178,0.,1.44723\H,0,-0.41394,-0.00613,-0.97516\H,0,-0.36623,-0.875
 15,0.55539\H,0,-0.36904,0.88091,0.54491\H,0,1.91331,0.87731,-0.54226\H
 ,0,1.904,-0.88662,-0.53147\H,0,3.18335,0.0045,1.49812\H,0,1.7044,0.915
 39,1.96018\H,0,1.6056,-0.8595,1.99111\\Version=ES64L-G16RevA.03\State=
 1-A\HF=-119.1401711\RMSD=3.804e-09\Dipole=-0.0131809,0.0085021,-0.0286
 863\Quadrupole=-0.255732,0.2845186,-0.0287867,0.0867948,-0.1831658,0.0
 088013\PG=C01 [X(C3H8)]\\@


 A COMPLEXITY IS MERELY A DISARRANGEMENT OF SIMPLICITIES.

                                    -- G. O. ABELL IN "EXPLORATION OF THE UNIVERSE"
 Job cpu time:       0 days  0 hours  0 minutes 13.5 seconds.
 Elapsed time:       0 days  0 hours  0 minutes  6.8 seconds.
 File lengths (MBytes):  RWF=      6 Int=      0 D2E=      0 Chk=      1 Scr=      1
 Normal termination of Gaussian 16 at Wed Jun  5 15:18:43 2019.
