 Entering Gaussian System, Link 0=g16
 Initial command:
 /share/apps/gaussian/g16/l1.exe "/tmp/55435.mgr/Gau-243965.inp" -scrdir="/tmp/55435.mgr/"
 Entering Link 1 = /share/apps/gaussian/g16/l1.exe PID=    243966.
  
 Copyright (c) 1988,1990,1992,1993,1995,1998,2003,2009,2016,
            Gaussian, Inc.  All Rights Reserved.
  
 This is part of the Gaussian(R) 16 program.  It is based on
 the Gaussian(R) 09 system (copyright 2009, Gaussian, Inc.),
 the Gaussian(R) 03 system (copyright 2003, Gaussian, Inc.),
 the Gaussian(R) 98 system (copyright 1998, Gaussian, Inc.),
 the Gaussian(R) 94 system (copyright 1995, Gaussian, Inc.),
 the Gaussian 92(TM) system (copyright 1992, Gaussian, Inc.),
 the Gaussian 90(TM) system (copyright 1990, Gaussian, Inc.),
 the Gaussian 88(TM) system (copyright 1988, Gaussian, Inc.),
 the Gaussian 86(TM) system (copyright 1986, Carnegie Mellon
 University), and the Gaussian 82(TM) system (copyright 1983,
 Carnegie Mellon University). Gaussian is a federally registered
 trademark of Gaussian, Inc.
  
 This software contains proprietary and confidential information,
 including trade secrets, belonging to Gaussian, Inc.
  
 This software is provided under written license and may be
 used, copied, transmitted, or stored only in accord with that
 written license.
  
 The following legend is applicable only to US Government
 contracts under FAR:
  
                    RESTRICTED RIGHTS LEGEND
  
 Use, reproduction and disclosure by the US Government is
 subject to restrictions as set forth in subparagraphs (a)
 and (c) of the Commercial Computer Software - Restricted
 Rights clause in FAR 52.227-19.
  
 Gaussian, Inc.
 340 Quinnipiac St., Bldg. 40, Wallingford CT 06492
  
  
 ---------------------------------------------------------------
 Warning -- This program may not be used in any manner that
 competes with the business of Gaussian, Inc. or will provide
 assistance to any competitor of Gaussian, Inc.  The licensee
 of this program is prohibited from giving any competitor of
 Gaussian, Inc. access to this program.  By using this program,
 the user acknowledges that Gaussian, Inc. is engaged in the
 business of creating and licensing software in the field of
 computational chemistry and represents and warrants to the
 licensee that it is not a competitor of Gaussian, Inc. and that
 it will not use this program in any manner prohibited above.
 ---------------------------------------------------------------
  

 Cite this work as:
 Gaussian 16, Revision A.03,
 M. J. Frisch, G. W. Trucks, H. B. Schlegel, G. E. Scuseria, 
 M. A. Robb, J. R. Cheeseman, G. Scalmani, V. Barone, 
 G. A. Petersson, H. Nakatsuji, X. Li, M. Caricato, A. V. Marenich, 
 J. Bloino, B. G. Janesko, R. Gomperts, B. Mennucci, H. P. Hratchian, 
 J. V. Ortiz, A. F. Izmaylov, J. L. Sonnenberg, D. Williams-Young, 
 F. Ding, F. Lipparini, F. Egidi, J. Goings, B. Peng, A. Petrone, 
 T. Henderson, D. Ranasinghe, V. G. Zakrzewski, J. Gao, N. Rega, 
 G. Zheng, W. Liang, M. Hada, M. Ehara, K. Toyota, R. Fukuda, 
 J. Hasegawa, M. Ishida, T. Nakajima, Y. Honda, O. Kitao, H. Nakai, 
 T. Vreven, K. Throssell, J. A. Montgomery, Jr., J. E. Peralta, 
 F. Ogliaro, M. J. Bearpark, J. J. Heyd, E. N. Brothers, K. N. Kudin, 
 V. N. Staroverov, T. A. Keith, R. Kobayashi, J. Normand, 
 K. Raghavachari, A. P. Rendell, J. C. Burant, S. S. Iyengar, 
 J. Tomasi, M. Cossi, J. M. Millam, M. Klene, C. Adamo, R. Cammi, 
 J. W. Ochterski, R. L. Martin, K. Morokuma, O. Farkas, 
 J. B. Foresman, and D. J. Fox, Gaussian, Inc., Wallingford CT, 2016.
 
 ******************************************
 Gaussian 16:  ES64L-G16RevA.03 25-Dec-2016
                 5-Jun-2019 
 ******************************************
 %nprocshared=2
 Will use up to    2 processors via shared memory.
 %mem=2GB
 ----------------
 # b3lyp/6-31g(d)
 ----------------
 1/38=1,172=1/1;
 2/12=2,17=6,18=5,40=1/2;
 3/5=1,6=6,7=1,11=2,25=1,30=1,74=-5/1,2,3;
 4//1;
 5/5=2,38=5/2;
 6/7=2,8=2,9=2,10=2,28=1/1;
 99/5=1,9=1/99;
 -----------------------
 tmpdir/M2_conf_0_14.gjf
 -----------------------
 Symbolic Z-matrix:
 Charge =  0 Multiplicity = 1
 N                     0.        0.        0. 
 O                     1.3603    0.        0. 
 H                    -0.22105   0.       -0.99709 
 H                    -0.30586   0.90045   0.38724 
 H                     1.56559  -0.78945   0.52471 
 
                          Input orientation:                          
 ---------------------------------------------------------------------
 Center     Atomic      Atomic             Coordinates (Angstroms)
 Number     Number       Type             X           Y           Z
 ---------------------------------------------------------------------
      1          7           0        0.000000    0.000000    0.000000
      2          8           0        1.360300    0.000000    0.000000
      3          1           0       -0.221050    0.000000   -0.997090
      4          1           0       -0.305860    0.900450    0.387240
      5          1           0        1.565590   -0.789450    0.524710
 ---------------------------------------------------------------------
                    Distance matrix (angstroms):
                    1          2          3          4          5
     1  N    0.000000
     2  O    1.360300   0.000000
     3  H    1.021299   1.869453   0.000000
     4  H    1.026799   1.933094   1.653594   0.000000
     5  H    1.830198   0.969895   2.476124   2.525269   0.000000
 Stoichiometry    H3NO
 Framework group  C1[X(H3NO)]
 Deg. of freedom     9
 Full point group                 C1      NOp   1
 Largest Abelian subgroup         C1      NOp   1
 Largest concise Abelian subgroup C1      NOp   1
                         Standard orientation:                         
 ---------------------------------------------------------------------
 Center     Atomic      Atomic             Coordinates (Angstroms)
 Number     Number       Type             X           Y           Z
 ---------------------------------------------------------------------
      1          7           0        0.644990   -0.012562    0.150029
      2          8           0       -0.683222    0.010468   -0.142782
      3          1           0        0.974523    0.868108   -0.248568
      4          1           0        1.064579   -0.776751   -0.392443
      5          1           0       -1.088251   -0.087163    0.733069
 ---------------------------------------------------------------------
 Rotational constants (GHZ):         191.2738991          28.1434894          27.9598222
 Standard basis: 6-31G(d) (6D, 7F)
 There are    36 symmetry adapted cartesian basis functions of A   symmetry.
 There are    36 symmetry adapted basis functions of A   symmetry.
    36 basis functions,    68 primitive gaussians,    36 cartesian basis functions
     9 alpha electrons        9 beta electrons
       nuclear repulsion energy        40.6059467192 Hartrees.
 NAtoms=    5 NActive=    5 NUniq=    5 SFac= 1.00D+00 NAtFMM=   60 NAOKFM=F Big=F
 Integral buffers will be    131072 words long.
 Raffenetti 2 integral format.
 Two-electron integral symmetry is turned on.
 One-electron integrals computed using PRISM.
 NBasis=    36 RedAO= T EigKep=  9.00D-03  NBF=    36
 NBsUse=    36 1.00D-06 EigRej= -1.00D+00 NBFU=    36
 ExpMin= 1.61D-01 ExpMax= 5.48D+03 ExpMxC= 8.25D+02 IAcc=3 IRadAn=         5 AccDes= 0.00D+00
 Harris functional with IExCor=  402 and IRadAn=       5 diagonalized for initial guess.
 HarFok:  IExCor=  402 AccDes= 0.00D+00 IRadAn=         5 IDoV= 1 UseB2=F ITyADJ=14
 ICtDFT=  3500011 ScaDFX=  1.000000  1.000000  1.000000  1.000000
 FoFCou: FMM=F IPFlag=           0 FMFlag=      100000 FMFlg1=           0
         NFxFlg=           0 DoJE=T BraDBF=F KetDBF=T FulRan=T
         wScrn=  0.000000 ICntrl=       500 IOpCl=  0 I1Cent=   200000004 NGrid=           0
         NMat0=    1 NMatS0=      1 NMatT0=    0 NMatD0=    1 NMtDS0=    0 NMtDT0=    0
 Petite list used in FoFCou.
 Keep R1 ints in memory in canonical form, NReq=1947994.
 Requested convergence on RMS density matrix=1.00D-08 within 128 cycles.
 Requested convergence on MAX density matrix=1.00D-06.
 Requested convergence on             energy=1.00D-06.
 No special actions if energy rises.
 Integral accuracy reduced to 1.0D-05 until final iterations.
 Initial convergence to 1.0D-05 achieved.  Increase integral accuracy.
 SCF Done:  E(RB3LYP) =  -131.699695920     A.U. after   11 cycles
            NFock= 11  Conv=0.87D-08     -V/T= 2.0072

 **********************************************************************

            Population analysis using the SCF density.

 **********************************************************************

 Orbital symmetries:
       Occupied  (A) (A) (A) (A) (A) (A) (A) (A) (A)
       Virtual   (A) (A) (A) (A) (A) (A) (A) (A) (A) (A) (A) (A)
                 (A) (A) (A) (A) (A) (A) (A) (A) (A) (A) (A) (A)
                 (A) (A) (A)
 The electronic state is 1-A.
 Alpha  occ. eigenvalues --  -19.16137 -14.35875  -1.07618  -0.78592  -0.50718
 Alpha  occ. eigenvalues --   -0.49830  -0.43791  -0.27720  -0.23843
 Alpha virt. eigenvalues --    0.08570   0.09611   0.15625   0.20487   0.63313
 Alpha virt. eigenvalues --    0.72409   0.73515   0.81053   0.83706   0.88385
 Alpha virt. eigenvalues --    0.95036   0.95937   1.02999   1.21575   1.34220
 Alpha virt. eigenvalues --    1.48436   1.49629   1.74734   1.96523   2.22406
 Alpha virt. eigenvalues --    2.37681   2.39790   2.43066   2.45593   2.78667
 Alpha virt. eigenvalues --    3.59515   3.74011
          Condensed to atoms (all electrons):
               1          2          3          4          5
     1  N    6.768686   0.142551   0.320422   0.311958  -0.055014
     2  O    0.142551   8.253987  -0.053158  -0.047057   0.241091
     3  H    0.320422  -0.053158   0.462634  -0.044567   0.005577
     4  H    0.311958  -0.047057  -0.044567   0.467746   0.004831
     5  H   -0.055014   0.241091   0.005577   0.004831   0.393680
 Mulliken charges:
               1
     1  N   -0.488603
     2  O   -0.537414
     3  H    0.309092
     4  H    0.307089
     5  H    0.409835
 Sum of Mulliken charges =  -0.00000
 Mulliken charges with hydrogens summed into heavy atoms:
               1
     1  N    0.127579
     2  O   -0.127579
 Electronic spatial extent (au):  <R**2>=             69.8885
 Charge=             -0.0000 electrons
 Dipole moment (field-independent basis, Debye):
    X=              0.4752    Y=             -0.0128    Z=              0.0494  Tot=              0.4779
 Quadrupole moment (field-independent basis, Debye-Ang):
   XX=            -10.9249   YY=            -11.2394   ZZ=            -12.4988
   XY=              0.2839   XZ=             -3.6216   YZ=              0.0318
 Traceless Quadrupole moment (field-independent basis, Debye-Ang):
   XX=              0.6295   YY=              0.3149   ZZ=             -0.9444
   XY=              0.2839   XZ=             -3.6216   YZ=              0.0318
 Octapole moment (field-independent basis, Debye-Ang**2):
  XXX=             -1.8814  YYY=              0.2945  ZZZ=             -0.3647  XYY=              1.2957
  XXY=             -0.2495  XXZ=              0.3226  XZZ=             -2.3006  YZZ=             -0.1020
  YYZ=             -0.6812  XYZ=              0.3637
 Hexadecapole moment (field-independent basis, Debye-Ang**3):
 XXXX=            -44.9211 YYYY=            -12.9792 ZZZZ=            -14.1219 XXXY=              0.1890
 XXXZ=             -4.9677 YYYX=              0.3596 YYYZ=              0.0351 ZZZX=             -3.2382
 ZZZY=              0.0082 XXYY=             -9.3649 XXZZ=            -10.1569 YYZZ=             -4.6082
 XXYZ=              0.0804 YYXZ=             -1.2913 ZZXY=              0.0766
 N-N= 4.060594671923D+01 E-N=-3.910221969625D+02  KE= 1.307524387180D+02
 1\1\GINC-NODE97\SP\RB3LYP\6-31G(d)\H3N1O1\YANZ\05-Jun-2019\0\\# b3lyp/
 6-31g(d)\\tmpdir/M2_conf_0_14.gjf\\0,1\N,0,0.,0.,0.\O,0,1.3603,0.,0.\H
 ,0,-0.22105,0.,-0.99709\H,0,-0.30586,0.90045,0.38724\H,0,1.56559,-0.78
 945,0.52471\\Version=ES64L-G16RevA.03\State=1-A\HF=-131.6996959\RMSD=8
 .665e-09\Dipole=-0.1868063,0.0197199,-0.0081339\Quadrupole=-0.7252604,
 0.3768512,0.3484093,-2.2947906,1.4136939,-0.1385275\PG=C01 [X(H3N1O1)]
 \\@


 OLD AGE AND TREACHERY WILL ALWAYS PREVAIL OVER YOUTH AND SKILL.
 Job cpu time:       0 days  0 hours  0 minutes  4.7 seconds.
 Elapsed time:       0 days  0 hours  0 minutes  2.4 seconds.
 File lengths (MBytes):  RWF=      6 Int=      0 D2E=      0 Chk=      1 Scr=      1
 Normal termination of Gaussian 16 at Wed Jun  5 15:18:34 2019.
