 Entering Gaussian System, Link 0=g16
 Initial command:
 /share/apps/gaussian/g16/l1.exe "/tmp/55435.mgr/Gau-243823.inp" -scrdir="/tmp/55435.mgr/"
 Entering Link 1 = /share/apps/gaussian/g16/l1.exe PID=    243831.
  
 Copyright (c) 1988,1990,1992,1993,1995,1998,2003,2009,2016,
            Gaussian, Inc.  All Rights Reserved.
  
 This is part of the Gaussian(R) 16 program.  It is based on
 the Gaussian(R) 09 system (copyright 2009, Gaussian, Inc.),
 the Gaussian(R) 03 system (copyright 2003, Gaussian, Inc.),
 the Gaussian(R) 98 system (copyright 1998, Gaussian, Inc.),
 the Gaussian(R) 94 system (copyright 1995, Gaussian, Inc.),
 the Gaussian 92(TM) system (copyright 1992, Gaussian, Inc.),
 the Gaussian 90(TM) system (copyright 1990, Gaussian, Inc.),
 the Gaussian 88(TM) system (copyright 1988, Gaussian, Inc.),
 the Gaussian 86(TM) system (copyright 1986, Carnegie Mellon
 University), and the Gaussian 82(TM) system (copyright 1983,
 Carnegie Mellon University). Gaussian is a federally registered
 trademark of Gaussian, Inc.
  
 This software contains proprietary and confidential information,
 including trade secrets, belonging to Gaussian, Inc.
  
 This software is provided under written license and may be
 used, copied, transmitted, or stored only in accord with that
 written license.
  
 The following legend is applicable only to US Government
 contracts under FAR:
  
                    RESTRICTED RIGHTS LEGEND
  
 Use, reproduction and disclosure by the US Government is
 subject to restrictions as set forth in subparagraphs (a)
 and (c) of the Commercial Computer Software - Restricted
 Rights clause in FAR 52.227-19.
  
 Gaussian, Inc.
 340 Quinnipiac St., Bldg. 40, Wallingford CT 06492
  
  
 ---------------------------------------------------------------
 Warning -- This program may not be used in any manner that
 competes with the business of Gaussian, Inc. or will provide
 assistance to any competitor of Gaussian, Inc.  The licensee
 of this program is prohibited from giving any competitor of
 Gaussian, Inc. access to this program.  By using this program,
 the user acknowledges that Gaussian, Inc. is engaged in the
 business of creating and licensing software in the field of
 computational chemistry and represents and warrants to the
 licensee that it is not a competitor of Gaussian, Inc. and that
 it will not use this program in any manner prohibited above.
 ---------------------------------------------------------------
  

 Cite this work as:
 Gaussian 16, Revision A.03,
 M. J. Frisch, G. W. Trucks, H. B. Schlegel, G. E. Scuseria, 
 M. A. Robb, J. R. Cheeseman, G. Scalmani, V. Barone, 
 G. A. Petersson, H. Nakatsuji, X. Li, M. Caricato, A. V. Marenich, 
 J. Bloino, B. G. Janesko, R. Gomperts, B. Mennucci, H. P. Hratchian, 
 J. V. Ortiz, A. F. Izmaylov, J. L. Sonnenberg, D. Williams-Young, 
 F. Ding, F. Lipparini, F. Egidi, J. Goings, B. Peng, A. Petrone, 
 T. Henderson, D. Ranasinghe, V. G. Zakrzewski, J. Gao, N. Rega, 
 G. Zheng, W. Liang, M. Hada, M. Ehara, K. Toyota, R. Fukuda, 
 J. Hasegawa, M. Ishida, T. Nakajima, Y. Honda, O. Kitao, H. Nakai, 
 T. Vreven, K. Throssell, J. A. Montgomery, Jr., J. E. Peralta, 
 F. Ogliaro, M. J. Bearpark, J. J. Heyd, E. N. Brothers, K. N. Kudin, 
 V. N. Staroverov, T. A. Keith, R. Kobayashi, J. Normand, 
 K. Raghavachari, A. P. Rendell, J. C. Burant, S. S. Iyengar, 
 J. Tomasi, M. Cossi, J. M. Millam, M. Klene, C. Adamo, R. Cammi, 
 J. W. Ochterski, R. L. Martin, K. Morokuma, O. Farkas, 
 J. B. Foresman, and D. J. Fox, Gaussian, Inc., Wallingford CT, 2016.
 
 ******************************************
 Gaussian 16:  ES64L-G16RevA.03 25-Dec-2016
                 5-Jun-2019 
 ******************************************
 %nprocshared=2
 Will use up to    2 processors via shared memory.
 %mem=2GB
 ----------------
 # b3lyp/6-31g(d)
 ----------------
 1/38=1,172=1/1;
 2/12=2,17=6,18=5,40=1/2;
 3/5=1,6=6,7=1,11=2,25=1,30=1,74=-5/1,2,3;
 4//1;
 5/5=2,38=5/2;
 6/7=2,8=2,9=2,10=2,28=1/1;
 99/5=1,9=1/99;
 ----------------------
 tmpdir/M2_conf_0_7.gjf
 ----------------------
 Symbolic Z-matrix:
 Charge =  0 Multiplicity = 1
 C                     0.        0.        0. 
 C                     1.5608    0.        0. 
 H                    -0.41394   0.       -0.97518 
 H                    -0.36623  -0.87862   0.54988 
 H                    -0.36904   0.87747   0.55043 
 H                     1.97673  -0.00644   1.02479 
 H                     1.93191   0.88079  -0.53658 
 H                     1.9226   -0.88327  -0.53703 
 
                          Input orientation:                          
 ---------------------------------------------------------------------
 Center     Atomic      Atomic             Coordinates (Angstroms)
 Number     Number       Type             X           Y           Z
 ---------------------------------------------------------------------
      1          6           0        0.000000    0.000000    0.000000
      2          6           0        1.560800    0.000000    0.000000
      3          1           0       -0.413940    0.000000   -0.975180
      4          1           0       -0.366230   -0.878620    0.549880
      5          1           0       -0.369040    0.877470    0.550430
      6          1           0        1.976730   -0.006440    1.024790
      7          1           0        1.931910    0.880790   -0.536580
      8          1           0        1.922600   -0.883270   -0.537030
 ---------------------------------------------------------------------
                    Distance matrix (angstroms):
                    1          2          3          4          5
     1  C    0.000000
     2  C    1.560800   0.000000
     3  H    1.059397   2.202402   0.000000
     4  H    1.099302   2.188101   1.760698   0.000000
     5  H    1.099599   2.190253   1.760527   1.756092   0.000000
     6  H    2.226589   1.105999   3.116925   2.544739   2.551265
     7  H    2.189974   1.096098   2.543850   3.091499   2.544793
     8  H    2.182878   1.095202   2.536052   2.533799   3.087781
                    6          7          8
     6  H    0.000000
     7  H    1.796403   0.000000
     8  H    1.791938   1.764085   0.000000
 Stoichiometry    C2H6
 Framework group  C1[X(C2H6)]
 Deg. of freedom    18
 Full point group                 C1      NOp   1
 Largest Abelian subgroup         C1      NOp   1
 Largest concise Abelian subgroup C1      NOp   1
                         Standard orientation:                         
 ---------------------------------------------------------------------
 Center     Atomic      Atomic             Coordinates (Angstroms)
 Number     Number       Type             X           Y           Z
 ---------------------------------------------------------------------
      1          6           0       -0.780316   -0.010851    0.000305
      2          6           0        0.780428    0.002321   -0.000917
      3          1           0       -1.185980   -0.987762    0.058653
      4          1           0       -1.150945    0.587227    0.844936
      5          1           0       -1.154250    0.483255   -0.908073
      6          1           0        1.187664    1.029152   -0.055790
      7          1           0        1.155825   -0.582569   -0.848509
      8          1           0        1.147011   -0.478125    0.912459
 ---------------------------------------------------------------------
 Rotational constants (GHZ):          79.8495016          19.4925364          19.4285265
 Standard basis: 6-31G(d) (6D, 7F)
 There are    42 symmetry adapted cartesian basis functions of A   symmetry.
 There are    42 symmetry adapted basis functions of A   symmetry.
    42 basis functions,    80 primitive gaussians,    42 cartesian basis functions
     9 alpha electrons        9 beta electrons
       nuclear repulsion energy        41.8709724883 Hartrees.
 NAtoms=    8 NActive=    8 NUniq=    8 SFac= 1.00D+00 NAtFMM=   60 NAOKFM=F Big=F
 Integral buffers will be    131072 words long.
 Raffenetti 2 integral format.
 Two-electron integral symmetry is turned on.
 One-electron integrals computed using PRISM.
 NBasis=    42 RedAO= T EigKep=  8.81D-03  NBF=    42
 NBsUse=    42 1.00D-06 EigRej= -1.00D+00 NBFU=    42
 ExpMin= 1.61D-01 ExpMax= 3.05D+03 ExpMxC= 4.57D+02 IAcc=3 IRadAn=         5 AccDes= 0.00D+00
 Harris functional with IExCor=  402 and IRadAn=       5 diagonalized for initial guess.
 HarFok:  IExCor=  402 AccDes= 0.00D+00 IRadAn=         5 IDoV= 1 UseB2=F ITyADJ=14
 ICtDFT=  3500011 ScaDFX=  1.000000  1.000000  1.000000  1.000000
 FoFCou: FMM=F IPFlag=           0 FMFlag=      100000 FMFlg1=           0
         NFxFlg=           0 DoJE=T BraDBF=F KetDBF=T FulRan=T
         wScrn=  0.000000 ICntrl=       500 IOpCl=  0 I1Cent=   200000004 NGrid=           0
         NMat0=    1 NMatS0=      1 NMatT0=    0 NMatD0=    1 NMtDS0=    0 NMtDT0=    0
 Petite list used in FoFCou.
 Keep R1 ints in memory in canonical form, NReq=2135132.
 Requested convergence on RMS density matrix=1.00D-08 within 128 cycles.
 Requested convergence on MAX density matrix=1.00D-06.
 Requested convergence on             energy=1.00D-06.
 No special actions if energy rises.
 Integral accuracy reduced to 1.0D-05 until final iterations.
 Initial convergence to 1.0D-05 achieved.  Increase integral accuracy.
 SCF Done:  E(RB3LYP) =  -79.8285239667     A.U. after   10 cycles
            NFock= 10  Conv=0.38D-08     -V/T= 2.0110

 **********************************************************************

            Population analysis using the SCF density.

 **********************************************************************

 Orbital symmetries:
       Occupied  (A) (A) (A) (A) (A) (A) (A) (A) (A)
       Virtual   (A) (A) (A) (A) (A) (A) (A) (A) (A) (A) (A) (A)
                 (A) (A) (A) (A) (A) (A) (A) (A) (A) (A) (A) (A)
                 (A) (A) (A) (A) (A) (A) (A) (A) (A)
 The electronic state is 1-A.
 Alpha  occ. eigenvalues --  -10.17463 -10.17063  -0.74318  -0.61338  -0.43319
 Alpha  occ. eigenvalues --   -0.42612  -0.35724  -0.34568  -0.33869
 Alpha virt. eigenvalues --    0.10430   0.15603   0.16699   0.16729   0.18442
 Alpha virt. eigenvalues --    0.19460   0.23098   0.52035   0.53882   0.54375
 Alpha virt. eigenvalues --    0.62470   0.64446   0.65481   0.88534   0.88716
 Alpha virt. eigenvalues --    0.90787   0.91423   0.93005   0.98608   1.06840
 Alpha virt. eigenvalues --    1.43556   1.51358   1.53821   1.90532   1.96763
 Alpha virt. eigenvalues --    2.00691   2.25858   2.28167   2.29413   2.34133
 Alpha virt. eigenvalues --    2.57408   4.13809   4.36564
          Condensed to atoms (all electrons):
               1          2          3          4          5          6
     1  C    5.016398   0.371167   0.387290   0.382216   0.382126  -0.031032
     2  C    0.371167   5.018334  -0.031168  -0.034862  -0.034814   0.382404
     3  H    0.387290  -0.031168   0.555041  -0.031610  -0.031664   0.004008
     4  H    0.382216  -0.034862  -0.031610   0.577897  -0.033556  -0.003302
     5  H    0.382126  -0.034814  -0.031664  -0.033556   0.577964  -0.003270
     6  H   -0.031032   0.382404   0.004008  -0.003302  -0.003270   0.568487
     7  H   -0.035276   0.381869  -0.003078   0.004562  -0.003580  -0.030358
     8  H   -0.035878   0.381816  -0.003176  -0.003636   0.004610  -0.030737
               7          8
     1  C   -0.035276  -0.035878
     2  C    0.381869   0.381816
     3  H   -0.003078  -0.003176
     4  H    0.004562  -0.003636
     5  H   -0.003580   0.004610
     6  H   -0.030358  -0.030737
     7  H    0.574433  -0.033106
     8  H   -0.033106   0.575514
 Mulliken charges:
               1
     1  C   -0.437011
     2  C   -0.434745
     3  H    0.154357
     4  H    0.142290
     5  H    0.142184
     6  H    0.143800
     7  H    0.144533
     8  H    0.144592
 Sum of Mulliken charges =   0.00000
 Mulliken charges with hydrogens summed into heavy atoms:
               1
     1  C    0.001820
     2  C   -0.001820
 Electronic spatial extent (au):  <R**2>=            110.7190
 Charge=              0.0000 electrons
 Dipole moment (field-independent basis, Debye):
    X=             -0.0173    Y=             -0.0249    Z=              0.0052  Tot=              0.0308
 Quadrupole moment (field-independent basis, Debye-Ang):
   XX=            -15.2838   YY=            -14.5625   ZZ=            -14.7829
   XY=              0.0881   XZ=             -0.0079   YZ=             -0.0059
 Traceless Quadrupole moment (field-independent basis, Debye-Ang):
   XX=             -0.4074   YY=              0.3139   ZZ=              0.0935
   XY=              0.0881   XZ=             -0.0079   YZ=             -0.0059
 Octapole moment (field-independent basis, Debye-Ang**2):
  XXX=             -0.2052  YYY=             -0.0694  ZZZ=              0.0180  XYY=             -0.0363
  XXY=             -0.0726  XXZ=             -0.0050  XZZ=             -0.0071  YZZ=             -0.0619
  YYZ=              0.0022  XYZ=              0.0129
 Hexadecapole moment (field-independent basis, Debye-Ang**3):
 XXXX=            -94.4121 YYYY=            -28.5192 ZZZZ=            -28.7118 XXXY=              0.4530
 XXXZ=             -0.0408 YYYX=              1.3572 YYYZ=              0.0068 ZZZX=              0.2002
 ZZZY=             -0.0268 XXYY=            -19.1321 XXZZ=            -19.5986 YYZZ=             -9.4636
 XXYZ=             -0.0145 YYXZ=             -0.2164 ZZXY=             -1.1471
 N-N= 4.187097248826D+01 E-N=-2.675419279424D+02  KE= 7.896258919000D+01
 1\1\GINC-NODE97\SP\RB3LYP\6-31G(d)\C2H6\YANZ\05-Jun-2019\0\\# b3lyp/6-
 31g(d)\\tmpdir/M2_conf_0_7.gjf\\0,1\C,0,0.,0.,0.\C,0,1.5608,0.,0.\H,0,
 -0.41394,0.,-0.97518\H,0,-0.36623,-0.87862,0.54988\H,0,-0.36904,0.8774
 7,0.55043\H,0,1.97673,-0.00644,1.02479\H,0,1.93191,0.88079,-0.53658\H,
 0,1.9226,-0.88327,-0.53703\\Version=ES64L-G16RevA.03\State=1-A\HF=-79.
 828524\RMSD=3.754e-09\Dipole=-0.0069044,-0.001459,-0.0098605\Quadrupol
 e=-0.3017207,0.0695538,0.2321669,0.0020224,0.0702962,-0.0054046\PG=C01
  [X(C2H6)]\\@


 THERE'S NOTHING WRONG WITH FOLLOWING A TRAIN OF THOUGHT...
 AS LONG AS IT ULTIMATELY PULLS INTO THE STATION.
 Job cpu time:       0 days  0 hours  0 minutes  7.1 seconds.
 Elapsed time:       0 days  0 hours  0 minutes  3.7 seconds.
 File lengths (MBytes):  RWF=      6 Int=      0 D2E=      0 Chk=      1 Scr=      1
 Normal termination of Gaussian 16 at Wed Jun  5 15:18:33 2019.
