 Entering Gaussian System, Link 0=g16
 Initial command:
 /share/apps/gaussian/g16/l1.exe "/tmp/55435.mgr/Gau-244022.inp" -scrdir="/tmp/55435.mgr/"
 Entering Link 1 = /share/apps/gaussian/g16/l1.exe PID=    244023.
  
 Copyright (c) 1988,1990,1992,1993,1995,1998,2003,2009,2016,
            Gaussian, Inc.  All Rights Reserved.
  
 This is part of the Gaussian(R) 16 program.  It is based on
 the Gaussian(R) 09 system (copyright 2009, Gaussian, Inc.),
 the Gaussian(R) 03 system (copyright 2003, Gaussian, Inc.),
 the Gaussian(R) 98 system (copyright 1998, Gaussian, Inc.),
 the Gaussian(R) 94 system (copyright 1995, Gaussian, Inc.),
 the Gaussian 92(TM) system (copyright 1992, Gaussian, Inc.),
 the Gaussian 90(TM) system (copyright 1990, Gaussian, Inc.),
 the Gaussian 88(TM) system (copyright 1988, Gaussian, Inc.),
 the Gaussian 86(TM) system (copyright 1986, Carnegie Mellon
 University), and the Gaussian 82(TM) system (copyright 1983,
 Carnegie Mellon University). Gaussian is a federally registered
 trademark of Gaussian, Inc.
  
 This software contains proprietary and confidential information,
 including trade secrets, belonging to Gaussian, Inc.
  
 This software is provided under written license and may be
 used, copied, transmitted, or stored only in accord with that
 written license.
  
 The following legend is applicable only to US Government
 contracts under FAR:
  
                    RESTRICTED RIGHTS LEGEND
  
 Use, reproduction and disclosure by the US Government is
 subject to restrictions as set forth in subparagraphs (a)
 and (c) of the Commercial Computer Software - Restricted
 Rights clause in FAR 52.227-19.
  
 Gaussian, Inc.
 340 Quinnipiac St., Bldg. 40, Wallingford CT 06492
  
  
 ---------------------------------------------------------------
 Warning -- This program may not be used in any manner that
 competes with the business of Gaussian, Inc. or will provide
 assistance to any competitor of Gaussian, Inc.  The licensee
 of this program is prohibited from giving any competitor of
 Gaussian, Inc. access to this program.  By using this program,
 the user acknowledges that Gaussian, Inc. is engaged in the
 business of creating and licensing software in the field of
 computational chemistry and represents and warrants to the
 licensee that it is not a competitor of Gaussian, Inc. and that
 it will not use this program in any manner prohibited above.
 ---------------------------------------------------------------
  

 Cite this work as:
 Gaussian 16, Revision A.03,
 M. J. Frisch, G. W. Trucks, H. B. Schlegel, G. E. Scuseria, 
 M. A. Robb, J. R. Cheeseman, G. Scalmani, V. Barone, 
 G. A. Petersson, H. Nakatsuji, X. Li, M. Caricato, A. V. Marenich, 
 J. Bloino, B. G. Janesko, R. Gomperts, B. Mennucci, H. P. Hratchian, 
 J. V. Ortiz, A. F. Izmaylov, J. L. Sonnenberg, D. Williams-Young, 
 F. Ding, F. Lipparini, F. Egidi, J. Goings, B. Peng, A. Petrone, 
 T. Henderson, D. Ranasinghe, V. G. Zakrzewski, J. Gao, N. Rega, 
 G. Zheng, W. Liang, M. Hada, M. Ehara, K. Toyota, R. Fukuda, 
 J. Hasegawa, M. Ishida, T. Nakajima, Y. Honda, O. Kitao, H. Nakai, 
 T. Vreven, K. Throssell, J. A. Montgomery, Jr., J. E. Peralta, 
 F. Ogliaro, M. J. Bearpark, J. J. Heyd, E. N. Brothers, K. N. Kudin, 
 V. N. Staroverov, T. A. Keith, R. Kobayashi, J. Normand, 
 K. Raghavachari, A. P. Rendell, J. C. Burant, S. S. Iyengar, 
 J. Tomasi, M. Cossi, J. M. Millam, M. Klene, C. Adamo, R. Cammi, 
 J. W. Ochterski, R. L. Martin, K. Morokuma, O. Farkas, 
 J. B. Foresman, and D. J. Fox, Gaussian, Inc., Wallingford CT, 2016.
 
 ******************************************
 Gaussian 16:  ES64L-G16RevA.03 25-Dec-2016
                 5-Jun-2019 
 ******************************************
 %nprocshared=2
 Will use up to    2 processors via shared memory.
 %mem=2GB
 ----------------
 # b3lyp/6-31g(d)
 ----------------
 1/38=1,172=1/1;
 2/12=2,17=6,18=5,40=1/2;
 3/5=1,6=6,7=1,11=2,25=1,30=1,74=-5/1,2,3;
 4//1;
 5/5=2,38=5/2;
 6/7=2,8=2,9=2,10=2,28=1/1;
 99/5=1,9=1/99;
 -----------------------
 tmpdir/M2_conf_0_18.gjf
 -----------------------
 Symbolic Z-matrix:
 Charge =  0 Multiplicity = 1
 O                     0.        0.        0. 
 N                     1.4492    0.        0. 
 C                     2.16353   0.        1.28076 
 H                    -0.20529   0.79391  -0.51794 
 H                     1.67025  -0.91598  -0.39392 
 H                     3.20196  -0.27346   1.04598 
 H                     1.76294  -0.76381   1.968 
 H                     2.12836   0.99676   1.75875 
 
                          Input orientation:                          
 ---------------------------------------------------------------------
 Center     Atomic      Atomic             Coordinates (Angstroms)
 Number     Number       Type             X           Y           Z
 ---------------------------------------------------------------------
      1          8           0        0.000000    0.000000    0.000000
      2          7           0        1.449200    0.000000    0.000000
      3          6           0        2.163530    0.000000    1.280760
      4          1           0       -0.205290    0.793910   -0.517940
      5          1           0        1.670250   -0.915980   -0.393920
      6          1           0        3.201960   -0.273460    1.045980
      7          1           0        1.762940   -0.763810    1.968000
      8          1           0        2.128360    0.996760    1.758750
 ---------------------------------------------------------------------
                    Distance matrix (angstroms):
                    1          2          3          4          5
     1  O    0.000000
     2  N    1.449200   0.000000
     3  C    2.514201   1.466497   0.000000
     4  H    0.969896   1.906802   3.078461   0.000000
     5  H    1.945232   1.021301   1.971522   2.541015   0.000000
     6  H    3.379557   2.059374   1.099199   3.898009   2.198245
     7  H    2.750343   2.134212   1.102804   3.532749   2.368631
     8  H    2.935413   2.132602   1.106003   3.266556   2.915892
                    6          7          8
     6  H    0.000000
     7  H    1.778016   0.000000
     8  H    1.809452   1.810228   0.000000
 Stoichiometry    CH5NO
 Framework group  C1[X(CH5NO)]
 Deg. of freedom    18
 Full point group                 C1      NOp   1
 Largest Abelian subgroup         C1      NOp   1
 Largest concise Abelian subgroup C1      NOp   1
                         Standard orientation:                         
 ---------------------------------------------------------------------
 Center     Atomic      Atomic             Coordinates (Angstroms)
 Number     Number       Type             X           Y           Z
 ---------------------------------------------------------------------
      1          8           0        1.265629   -0.246539    0.140106
      2          7           0        0.043827    0.469277   -0.168093
      3          6           0       -1.244729   -0.208813    0.006357
      4          1           0        1.752230   -0.192070   -0.697122
      5          1           0        0.027040    1.196714    0.548572
      6          1           0       -2.006798    0.583003   -0.016354
      7          1           0       -1.309877   -0.708722    0.987185
      8          1           0       -1.426044   -0.938668   -0.804617
 ---------------------------------------------------------------------
 Rotational constants (GHZ):          46.4180505           8.7126324           8.0275994
 Standard basis: 6-31G(d) (6D, 7F)
 There are    55 symmetry adapted cartesian basis functions of A   symmetry.
 There are    55 symmetry adapted basis functions of A   symmetry.
    55 basis functions,   104 primitive gaussians,    55 cartesian basis functions
    13 alpha electrons       13 beta electrons
       nuclear repulsion energy        80.7869223185 Hartrees.
 NAtoms=    8 NActive=    8 NUniq=    8 SFac= 1.00D+00 NAtFMM=   60 NAOKFM=F Big=F
 Integral buffers will be    131072 words long.
 Raffenetti 2 integral format.
 Two-electron integral symmetry is turned on.
 One-electron integrals computed using PRISM.
 NBasis=    55 RedAO= T EigKep=  7.48D-03  NBF=    55
 NBsUse=    55 1.00D-06 EigRej= -1.00D+00 NBFU=    55
 ExpMin= 1.61D-01 ExpMax= 5.48D+03 ExpMxC= 8.25D+02 IAcc=3 IRadAn=         5 AccDes= 0.00D+00
 Harris functional with IExCor=  402 and IRadAn=       5 diagonalized for initial guess.
 HarFok:  IExCor=  402 AccDes= 0.00D+00 IRadAn=         5 IDoV= 1 UseB2=F ITyADJ=14
 ICtDFT=  3500011 ScaDFX=  1.000000  1.000000  1.000000  1.000000
 FoFCou: FMM=F IPFlag=           0 FMFlag=      100000 FMFlg1=           0
         NFxFlg=           0 DoJE=T BraDBF=F KetDBF=T FulRan=T
         wScrn=  0.000000 ICntrl=       500 IOpCl=  0 I1Cent=   200000004 NGrid=           0
         NMat0=    1 NMatS0=      1 NMatT0=    0 NMatD0=    1 NMtDS0=    0 NMtDT0=    0
 Petite list used in FoFCou.
 Keep R1 ints in memory in canonical form, NReq=2938547.
 Requested convergence on RMS density matrix=1.00D-08 within 128 cycles.
 Requested convergence on MAX density matrix=1.00D-06.
 Requested convergence on             energy=1.00D-06.
 No special actions if energy rises.
 Integral accuracy reduced to 1.0D-05 until final iterations.
 Initial convergence to 1.0D-05 achieved.  Increase integral accuracy.
 SCF Done:  E(RB3LYP) =  -171.011420179     A.U. after   13 cycles
            NFock= 13  Conv=0.18D-08     -V/T= 2.0093

 **********************************************************************

            Population analysis using the SCF density.

 **********************************************************************

 Orbital symmetries:
       Occupied  (A) (A) (A) (A) (A) (A) (A) (A) (A) (A) (A) (A)
                 (A)
       Virtual   (A) (A) (A) (A) (A) (A) (A) (A) (A) (A) (A) (A)
                 (A) (A) (A) (A) (A) (A) (A) (A) (A) (A) (A) (A)
                 (A) (A) (A) (A) (A) (A) (A) (A) (A) (A) (A) (A)
                 (A) (A) (A) (A) (A) (A)
 The electronic state is 1-A.
 Alpha  occ. eigenvalues --  -19.16418 -14.36374 -10.20874  -1.03918  -0.83242
 Alpha  occ. eigenvalues --   -0.65154  -0.50147  -0.47430  -0.42576  -0.40316
 Alpha  occ. eigenvalues --   -0.38232  -0.27977  -0.22711
 Alpha virt. eigenvalues --    0.07799   0.08999   0.13485   0.14170   0.17430
 Alpha virt. eigenvalues --    0.18245   0.23079   0.53909   0.56583   0.58467
 Alpha virt. eigenvalues --    0.70556   0.75259   0.78200   0.81540   0.84127
 Alpha virt. eigenvalues --    0.87508   0.90386   0.94005   0.95164   0.99965
 Alpha virt. eigenvalues --    1.02129   1.14888   1.32283   1.39338   1.45902
 Alpha virt. eigenvalues --    1.49648   1.77083   1.79663   1.90545   2.02849
 Alpha virt. eigenvalues --    2.05393   2.16438   2.21329   2.26936   2.38920
 Alpha virt. eigenvalues --    2.46819   2.48341   2.69504   2.84034   3.59612
 Alpha virt. eigenvalues --    3.85416   4.24802
          Condensed to atoms (all electrons):
               1          2          3          4          5          6
     1  O    8.228804   0.142797  -0.035867   0.233548  -0.041609   0.002919
     2  N    0.142797   6.743809   0.292726  -0.035816   0.314094  -0.028734
     3  C   -0.035867   0.292726   4.998437   0.001942  -0.062315   0.365532
     4  H    0.233548  -0.035816   0.001942   0.384632   0.004333  -0.000257
     5  H   -0.041609   0.314094  -0.062315   0.004333   0.476210  -0.001255
     6  H    0.002919  -0.028734   0.365532  -0.000257  -0.001255   0.564044
     7  H    0.002623  -0.045834   0.359541  -0.000427  -0.004300  -0.033706
     8  H    0.001646  -0.038801   0.374169   0.000741   0.006660  -0.023985
               7          8
     1  O    0.002623   0.001646
     2  N   -0.045834  -0.038801
     3  C    0.359541   0.374169
     4  H   -0.000427   0.000741
     5  H   -0.004300   0.006660
     6  H   -0.033706  -0.023985
     7  H    0.621661  -0.041370
     8  H   -0.041370   0.564408
 Mulliken charges:
               1
     1  O   -0.534862
     2  N   -0.344242
     3  C   -0.294165
     4  H    0.411303
     5  H    0.308181
     6  H    0.155442
     7  H    0.141812
     8  H    0.156532
 Sum of Mulliken charges =  -0.00000
 Mulliken charges with hydrogens summed into heavy atoms:
               1
     1  O   -0.123559
     2  N   -0.036061
     3  C    0.159620
 Electronic spatial extent (au):  <R**2>=            187.5617
 Charge=             -0.0000 electrons
 Dipole moment (field-independent basis, Debye):
    X=             -0.6752    Y=              0.4358    Z=             -0.2599  Tot=              0.8446
 Quadrupole moment (field-independent basis, Debye-Ang):
   XX=            -16.6377   YY=            -18.8760   ZZ=            -18.7866
   XY=             -0.0266   XZ=             -2.6846   YZ=              2.1168
 Traceless Quadrupole moment (field-independent basis, Debye-Ang):
   XX=              1.4624   YY=             -0.7759   ZZ=             -0.6865
   XY=             -0.0266   XZ=             -2.6846   YZ=              2.1168
 Octapole moment (field-independent basis, Debye-Ang**2):
  XXX=              9.2622  YYY=              1.7482  ZZZ=              0.3567  XYY=              0.9925
  XXY=              0.5206  XXZ=             -5.3744  XZZ=              3.2299  YZZ=             -0.8201
  YYZ=              1.3775  XYZ=              0.4220
 Hexadecapole moment (field-independent basis, Debye-Ang**3):
 XXXX=           -146.7569 YYYY=            -39.4855 ZZZZ=            -28.0075 XXXY=             -5.0309
 XXXZ=             -9.0214 YYYX=             -1.5164 YYYZ=              3.2174 ZZZX=             -2.0883
 ZZZY=              1.9617 XXYY=            -32.7859 XXZZ=            -29.0263 YYZZ=            -11.0327
 XXYZ=              1.4515 YYXZ=              0.0976 ZZXY=             -0.1042
 N-N= 8.078692231847D+01 E-N=-5.619112319564D+02  KE= 1.694436330500D+02
 1\1\GINC-NODE97\SP\RB3LYP\6-31G(d)\C1H5N1O1\YANZ\05-Jun-2019\0\\# b3ly
 p/6-31g(d)\\tmpdir/M2_conf_0_18.gjf\\0,1\O,0,0.,0.,0.\N,0,1.4492,0.,0.
 \C,0,2.16353,0.,1.28076\H,0,-0.20529,0.79391,-0.51794\H,0,1.67025,-0.9
 1598,-0.39392\H,0,3.20196,-0.27346,1.04598\H,0,1.76294,-0.76381,1.968\
 H,0,2.12836,0.99676,1.75875\\Version=ES64L-G16RevA.03\State=1-A\HF=-17
 1.0114202\RMSD=1.810e-09\Dipole=0.3304045,0.0280568,-0.021711\Quadrupo
 le=-0.4208915,0.6331844,-0.2122929,-2.2475587,1.4088631,-0.0279999\PG=
 C01 [X(C1H5N1O1)]\\@


 There are more things in heaven and earth, Horatio,
 than are dreamt of in your philosophy.
                   -- Hamlet, Act I, Scene 5
 Job cpu time:       0 days  0 hours  0 minutes 11.1 seconds.
 Elapsed time:       0 days  0 hours  0 minutes  5.6 seconds.
 File lengths (MBytes):  RWF=      6 Int=      0 D2E=      0 Chk=      1 Scr=      1
 Normal termination of Gaussian 16 at Wed Jun  5 15:18:38 2019.
