 Entering Gaussian System, Link 0=g16
 Initial command:
 /share/apps/gaussian/g16/l1.exe "/tmp/55435.mgr/Gau-243813.inp" -scrdir="/tmp/55435.mgr/"
 Entering Link 1 = /share/apps/gaussian/g16/l1.exe PID=    243821.
  
 Copyright (c) 1988,1990,1992,1993,1995,1998,2003,2009,2016,
            Gaussian, Inc.  All Rights Reserved.
  
 This is part of the Gaussian(R) 16 program.  It is based on
 the Gaussian(R) 09 system (copyright 2009, Gaussian, Inc.),
 the Gaussian(R) 03 system (copyright 2003, Gaussian, Inc.),
 the Gaussian(R) 98 system (copyright 1998, Gaussian, Inc.),
 the Gaussian(R) 94 system (copyright 1995, Gaussian, Inc.),
 the Gaussian 92(TM) system (copyright 1992, Gaussian, Inc.),
 the Gaussian 90(TM) system (copyright 1990, Gaussian, Inc.),
 the Gaussian 88(TM) system (copyright 1988, Gaussian, Inc.),
 the Gaussian 86(TM) system (copyright 1986, Carnegie Mellon
 University), and the Gaussian 82(TM) system (copyright 1983,
 Carnegie Mellon University). Gaussian is a federally registered
 trademark of Gaussian, Inc.
  
 This software contains proprietary and confidential information,
 including trade secrets, belonging to Gaussian, Inc.
  
 This software is provided under written license and may be
 used, copied, transmitted, or stored only in accord with that
 written license.
  
 The following legend is applicable only to US Government
 contracts under FAR:
  
                    RESTRICTED RIGHTS LEGEND
  
 Use, reproduction and disclosure by the US Government is
 subject to restrictions as set forth in subparagraphs (a)
 and (c) of the Commercial Computer Software - Restricted
 Rights clause in FAR 52.227-19.
  
 Gaussian, Inc.
 340 Quinnipiac St., Bldg. 40, Wallingford CT 06492
  
  
 ---------------------------------------------------------------
 Warning -- This program may not be used in any manner that
 competes with the business of Gaussian, Inc. or will provide
 assistance to any competitor of Gaussian, Inc.  The licensee
 of this program is prohibited from giving any competitor of
 Gaussian, Inc. access to this program.  By using this program,
 the user acknowledges that Gaussian, Inc. is engaged in the
 business of creating and licensing software in the field of
 computational chemistry and represents and warrants to the
 licensee that it is not a competitor of Gaussian, Inc. and that
 it will not use this program in any manner prohibited above.
 ---------------------------------------------------------------
  

 Cite this work as:
 Gaussian 16, Revision A.03,
 M. J. Frisch, G. W. Trucks, H. B. Schlegel, G. E. Scuseria, 
 M. A. Robb, J. R. Cheeseman, G. Scalmani, V. Barone, 
 G. A. Petersson, H. Nakatsuji, X. Li, M. Caricato, A. V. Marenich, 
 J. Bloino, B. G. Janesko, R. Gomperts, B. Mennucci, H. P. Hratchian, 
 J. V. Ortiz, A. F. Izmaylov, J. L. Sonnenberg, D. Williams-Young, 
 F. Ding, F. Lipparini, F. Egidi, J. Goings, B. Peng, A. Petrone, 
 T. Henderson, D. Ranasinghe, V. G. Zakrzewski, J. Gao, N. Rega, 
 G. Zheng, W. Liang, M. Hada, M. Ehara, K. Toyota, R. Fukuda, 
 J. Hasegawa, M. Ishida, T. Nakajima, Y. Honda, O. Kitao, H. Nakai, 
 T. Vreven, K. Throssell, J. A. Montgomery, Jr., J. E. Peralta, 
 F. Ogliaro, M. J. Bearpark, J. J. Heyd, E. N. Brothers, K. N. Kudin, 
 V. N. Staroverov, T. A. Keith, R. Kobayashi, J. Normand, 
 K. Raghavachari, A. P. Rendell, J. C. Burant, S. S. Iyengar, 
 J. Tomasi, M. Cossi, J. M. Millam, M. Klene, C. Adamo, R. Cammi, 
 J. W. Ochterski, R. L. Martin, K. Morokuma, O. Farkas, 
 J. B. Foresman, and D. J. Fox, Gaussian, Inc., Wallingford CT, 2016.
 
 ******************************************
 Gaussian 16:  ES64L-G16RevA.03 25-Dec-2016
                 5-Jun-2019 
 ******************************************
 %nprocshared=2
 Will use up to    2 processors via shared memory.
 %mem=2GB
 ----------------
 # b3lyp/6-31g(d)
 ----------------
 1/38=1,172=1/1;
 2/12=2,17=6,18=5,40=1/2;
 3/5=1,6=6,7=1,11=2,25=1,30=1,74=-5/1,2,3;
 4//1;
 5/5=2,38=5/2;
 6/7=2,8=2,9=2,10=2,28=1/1;
 99/5=1,9=1/99;
 ----------------------
 tmpdir/M2_conf_0_1.gjf
 ----------------------
 Symbolic Z-matrix:
 Charge =  0 Multiplicity = 1
 C                     0.        0.        0. 
 C                     1.4882    0.        0. 
 N                    -1.11201   0.       -0.01417 
 H                     1.85135  -0.8861    0.53982 
 H                     1.85073   0.86985   0.56662 
 H                     1.92441   0.01399  -1.02756 
 
                          Input orientation:                          
 ---------------------------------------------------------------------
 Center     Atomic      Atomic             Coordinates (Angstroms)
 Number     Number       Type             X           Y           Z
 ---------------------------------------------------------------------
      1          6           0        0.000000    0.000000    0.000000
      2          6           0        1.488200    0.000000    0.000000
      3          7           0       -1.112010    0.000000   -0.014170
      4          1           0        1.851350   -0.886100    0.539820
      5          1           0        1.850730    0.869850    0.566620
      6          1           0        1.924410    0.013990   -1.027560
 ---------------------------------------------------------------------
                    Distance matrix (angstroms):
                    1          2          3          4          5
     1  C    0.000000
     2  C    1.488200   0.000000
     3  N    1.112100   2.600249   0.000000
     4  H    2.122281   1.099298   3.142225   0.000000
     5  H    2.122003   1.099602   3.141940   1.756155   0.000000
     6  H    2.181612   1.116402   3.201094   1.808917   1.810893
                    6
     6  H    0.000000
 Stoichiometry    C2H3N
 Framework group  C1[X(C2H3N)]
 Deg. of freedom    12
 Full point group                 C1      NOp   1
 Largest Abelian subgroup         C1      NOp   1
 Largest concise Abelian subgroup C1      NOp   1
                         Standard orientation:                         
 ---------------------------------------------------------------------
 Center     Atomic      Atomic             Coordinates (Angstroms)
 Number     Number       Type             X           Y           Z
 ---------------------------------------------------------------------
      1          6           0        0.307788   -0.002927   -0.000066
      2          6           0       -1.180380    0.006761   -0.000235
      3          7           0        1.419867    0.004003    0.000039
      4          1           0       -1.547129   -0.529409    0.886598
      5          1           0       -1.546501   -0.558736   -0.869312
      6          1           0       -1.609890    1.037118   -0.015751
 ---------------------------------------------------------------------
 Rotational constants (GHZ):         156.1736654           9.2655494           9.2438803
 Standard basis: 6-31G(d) (6D, 7F)
 There are    51 symmetry adapted cartesian basis functions of A   symmetry.
 There are    51 symmetry adapted basis functions of A   symmetry.
    51 basis functions,    96 primitive gaussians,    51 cartesian basis functions
    11 alpha electrons       11 beta electrons
       nuclear repulsion energy        58.8020157659 Hartrees.
 NAtoms=    6 NActive=    6 NUniq=    6 SFac= 1.00D+00 NAtFMM=   60 NAOKFM=F Big=F
 Integral buffers will be    131072 words long.
 Raffenetti 2 integral format.
 Two-electron integral symmetry is turned on.
 One-electron integrals computed using PRISM.
 NBasis=    51 RedAO= T EigKep=  1.47D-03  NBF=    51
 NBsUse=    51 1.00D-06 EigRej= -1.00D+00 NBFU=    51
 ExpMin= 1.61D-01 ExpMax= 4.17D+03 ExpMxC= 6.27D+02 IAcc=3 IRadAn=         5 AccDes= 0.00D+00
 Harris functional with IExCor=  402 and IRadAn=       5 diagonalized for initial guess.
 HarFok:  IExCor=  402 AccDes= 0.00D+00 IRadAn=         5 IDoV= 1 UseB2=F ITyADJ=14
 ICtDFT=  3500011 ScaDFX=  1.000000  1.000000  1.000000  1.000000
 FoFCou: FMM=F IPFlag=           0 FMFlag=      100000 FMFlg1=           0
         NFxFlg=           0 DoJE=T BraDBF=F KetDBF=T FulRan=T
         wScrn=  0.000000 ICntrl=       500 IOpCl=  0 I1Cent=   200000004 NGrid=           0
         NMat0=    1 NMatS0=      1 NMatT0=    0 NMatD0=    1 NMtDS0=    0 NMtDT0=    0
 Petite list used in FoFCou.
 Keep R1 ints in memory in canonical form, NReq=2623252.
 Requested convergence on RMS density matrix=1.00D-08 within 128 cycles.
 Requested convergence on MAX density matrix=1.00D-06.
 Requested convergence on             energy=1.00D-06.
 No special actions if energy rises.
 Integral accuracy reduced to 1.0D-05 until final iterations.
 Initial convergence to 1.0D-05 achieved.  Increase integral accuracy.
 SCF Done:  E(RB3LYP) =  -132.747853909     A.U. after   12 cycles
            NFock= 12  Conv=0.28D-08     -V/T= 2.0084

 **********************************************************************

            Population analysis using the SCF density.

 **********************************************************************

 Orbital symmetries:
       Occupied  (A) (A) (A) (A) (A) (A) (A) (A) (A) (A) (A)
       Virtual   (A) (A) (A) (A) (A) (A) (A) (A) (A) (A) (A) (A)
                 (A) (A) (A) (A) (A) (A) (A) (A) (A) (A) (A) (A)
                 (A) (A) (A) (A) (A) (A) (A) (A) (A) (A) (A) (A)
                 (A) (A) (A) (A)
 The electronic state is 1-A.
 Alpha  occ. eigenvalues --  -14.32221 -10.24418 -10.22197  -0.91962  -0.76930
 Alpha  occ. eigenvalues --   -0.50963  -0.46201  -0.45824  -0.35515  -0.33841
 Alpha  occ. eigenvalues --   -0.33701
 Alpha virt. eigenvalues --    0.04871   0.05247   0.08204   0.16066   0.16325
 Alpha virt. eigenvalues --    0.17796   0.28247   0.52263   0.52734   0.57237
 Alpha virt. eigenvalues --    0.61815   0.63985   0.68880   0.78172   0.80820
 Alpha virt. eigenvalues --    0.81004   0.85015   0.85670   0.88920   1.09513
 Alpha virt. eigenvalues --    1.38965   1.42208   1.42877   1.50942   1.51149
 Alpha virt. eigenvalues --    1.60887   1.89020   1.91529   1.98211   1.99110
 Alpha virt. eigenvalues --    2.14162   2.18009   2.21243   2.78118   2.78836
 Alpha virt. eigenvalues --    2.79339   3.26367   4.01420   4.11648   4.57555
          Condensed to atoms (all electrons):
               1          2          3          4          5          6
     1  C    4.485919   0.316616   0.929058  -0.024335  -0.024343  -0.021095
     2  C    0.316616   5.201677  -0.095859   0.365874   0.365839   0.367017
     3  N    0.929058  -0.095859   6.599953  -0.000013  -0.000002  -0.000263
     4  H   -0.024335   0.365874  -0.000013   0.504805  -0.027992  -0.023949
     5  H   -0.024343   0.365839  -0.000002  -0.027992   0.504704  -0.023761
     6  H   -0.021095   0.367017  -0.000263  -0.023949  -0.023761   0.497359
 Mulliken charges:
               1
     1  C    0.338181
     2  C   -0.521164
     3  N   -0.432874
     4  H    0.205610
     5  H    0.205556
     6  H    0.204691
 Sum of Mulliken charges =  -0.00000
 Mulliken charges with hydrogens summed into heavy atoms:
               1
     1  C    0.338181
     2  C    0.094693
     3  N   -0.432874
 Electronic spatial extent (au):  <R**2>=            160.7033
 Charge=              0.0000 electrons
 Dipole moment (field-independent basis, Debye):
    X=             -3.7611    Y=             -0.0373    Z=              0.0011  Tot=              3.7613
 Quadrupole moment (field-independent basis, Debye-Ang):
   XX=            -20.3296   YY=            -17.0577   ZZ=            -17.2426
   XY=             -0.0134   XZ=             -0.0025   YZ=              0.0001
 Traceless Quadrupole moment (field-independent basis, Debye-Ang):
   XX=             -2.1197   YY=              1.1523   ZZ=              0.9674
   XY=             -0.0134   XZ=             -0.0025   YZ=              0.0001
 Octapole moment (field-independent basis, Debye-Ang**2):
  XXX=            -10.8520  YYY=              0.6756  ZZZ=              0.0384  XYY=             -1.5423
  XXY=              0.0876  XXZ=              0.0039  XZZ=             -1.1883  YZZ=             -0.7804
  YYZ=             -0.0357  XYZ=              0.0014
 Hexadecapole moment (field-independent basis, Debye-Ang**3):
 XXXX=           -175.7799 YYYY=            -22.4551 ZZZZ=            -22.2388 XXXY=             -0.3095
 XXXZ=             -0.0098 YYYX=             -1.2236 YYYZ=              0.0038 ZZZX=             -0.0644
 ZZZY=             -0.0024 XXYY=            -28.9993 XXZZ=            -29.6478 YYZZ=             -7.4006
 XXYZ=             -0.0053 YYXZ=              0.0601 ZZXY=              1.2860
 N-N= 5.880201576593D+01 E-N=-4.259138250990D+02  KE= 1.316412091874D+02
 1\1\GINC-NODE97\SP\RB3LYP\6-31G(d)\C2H3N1\YANZ\05-Jun-2019\0\\# b3lyp/
 6-31g(d)\\tmpdir/M2_conf_0_1.gjf\\0,1\C,0,0.,0.,0.\C,0,1.4882,0.,0.\N,
 0,-1.11201,0.,-0.01417\H,0,1.85135,-0.8861,0.53982\H,0,1.85073,0.86985
 ,0.56662\H,0,1.92441,0.01399,-1.02756\\Version=ES64L-G16RevA.03\State=
 1-A\HF=-132.7478539\RMSD=2.810e-09\Dipole=1.4796003,-0.0005594,0.02432
 18\Quadrupole=-1.5756852,0.7192139,0.8564712,-0.0016502,-0.0258003,0.0
 002422\PG=C01 [X(C2H3N1)]\\@


 THERE'S NOTHING WRONG WITH FOLLOWING A TRAIN OF THOUGHT...
 AS LONG AS IT ULTIMATELY PULLS INTO THE STATION.
 Job cpu time:       0 days  0 hours  0 minutes  7.4 seconds.
 Elapsed time:       0 days  0 hours  0 minutes  3.8 seconds.
 File lengths (MBytes):  RWF=      6 Int=      0 D2E=      0 Chk=      1 Scr=      1
 Normal termination of Gaussian 16 at Wed Jun  5 15:18:33 2019.
