 Entering Gaussian System, Link 0=g16
 Initial command:
 /share/apps/gaussian/g16/l1.exe "/tmp/55435.mgr/Gau-243486.inp" -scrdir="/tmp/55435.mgr/"
 Entering Link 1 = /share/apps/gaussian/g16/l1.exe PID=    243487.
  
 Copyright (c) 1988,1990,1992,1993,1995,1998,2003,2009,2016,
            Gaussian, Inc.  All Rights Reserved.
  
 This is part of the Gaussian(R) 16 program.  It is based on
 the Gaussian(R) 09 system (copyright 2009, Gaussian, Inc.),
 the Gaussian(R) 03 system (copyright 2003, Gaussian, Inc.),
 the Gaussian(R) 98 system (copyright 1998, Gaussian, Inc.),
 the Gaussian(R) 94 system (copyright 1995, Gaussian, Inc.),
 the Gaussian 92(TM) system (copyright 1992, Gaussian, Inc.),
 the Gaussian 90(TM) system (copyright 1990, Gaussian, Inc.),
 the Gaussian 88(TM) system (copyright 1988, Gaussian, Inc.),
 the Gaussian 86(TM) system (copyright 1986, Carnegie Mellon
 University), and the Gaussian 82(TM) system (copyright 1983,
 Carnegie Mellon University). Gaussian is a federally registered
 trademark of Gaussian, Inc.
  
 This software contains proprietary and confidential information,
 including trade secrets, belonging to Gaussian, Inc.
  
 This software is provided under written license and may be
 used, copied, transmitted, or stored only in accord with that
 written license.
  
 The following legend is applicable only to US Government
 contracts under FAR:
  
                    RESTRICTED RIGHTS LEGEND
  
 Use, reproduction and disclosure by the US Government is
 subject to restrictions as set forth in subparagraphs (a)
 and (c) of the Commercial Computer Software - Restricted
 Rights clause in FAR 52.227-19.
  
 Gaussian, Inc.
 340 Quinnipiac St., Bldg. 40, Wallingford CT 06492
  
  
 ---------------------------------------------------------------
 Warning -- This program may not be used in any manner that
 competes with the business of Gaussian, Inc. or will provide
 assistance to any competitor of Gaussian, Inc.  The licensee
 of this program is prohibited from giving any competitor of
 Gaussian, Inc. access to this program.  By using this program,
 the user acknowledges that Gaussian, Inc. is engaged in the
 business of creating and licensing software in the field of
 computational chemistry and represents and warrants to the
 licensee that it is not a competitor of Gaussian, Inc. and that
 it will not use this program in any manner prohibited above.
 ---------------------------------------------------------------
  

 Cite this work as:
 Gaussian 16, Revision A.03,
 M. J. Frisch, G. W. Trucks, H. B. Schlegel, G. E. Scuseria, 
 M. A. Robb, J. R. Cheeseman, G. Scalmani, V. Barone, 
 G. A. Petersson, H. Nakatsuji, X. Li, M. Caricato, A. V. Marenich, 
 J. Bloino, B. G. Janesko, R. Gomperts, B. Mennucci, H. P. Hratchian, 
 J. V. Ortiz, A. F. Izmaylov, J. L. Sonnenberg, D. Williams-Young, 
 F. Ding, F. Lipparini, F. Egidi, J. Goings, B. Peng, A. Petrone, 
 T. Henderson, D. Ranasinghe, V. G. Zakrzewski, J. Gao, N. Rega, 
 G. Zheng, W. Liang, M. Hada, M. Ehara, K. Toyota, R. Fukuda, 
 J. Hasegawa, M. Ishida, T. Nakajima, Y. Honda, O. Kitao, H. Nakai, 
 T. Vreven, K. Throssell, J. A. Montgomery, Jr., J. E. Peralta, 
 F. Ogliaro, M. J. Bearpark, J. J. Heyd, E. N. Brothers, K. N. Kudin, 
 V. N. Staroverov, T. A. Keith, R. Kobayashi, J. Normand, 
 K. Raghavachari, A. P. Rendell, J. C. Burant, S. S. Iyengar, 
 J. Tomasi, M. Cossi, J. M. Millam, M. Klene, C. Adamo, R. Cammi, 
 J. W. Ochterski, R. L. Martin, K. Morokuma, O. Farkas, 
 J. B. Foresman, and D. J. Fox, Gaussian, Inc., Wallingford CT, 2016.
 
 ******************************************
 Gaussian 16:  ES64L-G16RevA.03 25-Dec-2016
                 5-Jun-2019 
 ******************************************
 %nprocshared=2
 Will use up to    2 processors via shared memory.
 %mem=2GB
 ----------------
 # b3lyp/6-31g(d)
 ----------------
 1/38=1,172=1/1;
 2/12=2,17=6,18=5,40=1/2;
 3/5=1,6=6,7=1,11=2,25=1,30=1,74=-5/1,2,3;
 4//1;
 5/5=2,38=5/2;
 6/7=2,8=2,9=2,10=2,28=1/1;
 99/5=1,9=1/99;
 --------------------
 tmpdir/M2_ref_18.gjf
 --------------------
 Symbolic Z-matrix:
 Charge =  0 Multiplicity = 1
 O                     2.65858  -0.96764   0.41397 
 N                     2.3613    0.12633  -0.48885 
 C                     1.1758    0.81373   0.03333 
 H                     2.63969  -1.73452  -0.17952 
 H                     3.16244   0.74581  -0.35677 
 H                     1.1315    1.77818  -0.49221 
 H                     1.27141   1.02376   1.11168 
 H                     0.25682   0.22943  -0.15962 
 
                          Input orientation:                          
 ---------------------------------------------------------------------
 Center     Atomic      Atomic             Coordinates (Angstroms)
 Number     Number       Type             X           Y           Z
 ---------------------------------------------------------------------
      1          8           0        2.658583   -0.967636    0.413970
      2          7           0        2.361301    0.126334   -0.488845
      3          6           0        1.175805    0.813726    0.033333
      4          1           0        2.639689   -1.734523   -0.179515
      5          1           0        3.162444    0.745811   -0.356766
      6          1           0        1.131503    1.778183   -0.492214
      7          1           0        1.271413    1.023758    1.111676
      8          1           0        0.256822    0.229432   -0.159619
 ---------------------------------------------------------------------
                    Distance matrix (angstroms):
                    1          2          3          4          5
     1  O    0.000000
     2  N    1.449214   0.000000
     3  C    2.348780   1.466485   0.000000
     4  H    0.969895   1.906823   2.946495   0.000000
     5  H    1.945202   1.021287   2.025716   2.541013   0.000000
     6  H    3.269964   2.059374   1.099245   3.835559   2.282293
     7  H    2.525210   2.134220   1.102759   3.338782   2.410306
     8  H    2.744163   2.132569   1.105965   3.087972   2.957727
                    6          7          8
     6  H    0.000000
     7  H    1.777975   0.000000
     8  H    1.809507   1.810121   0.000000
 Stoichiometry    CH5NO
 Framework group  C1[X(CH5NO)]
 Deg. of freedom    18
 Full point group                 C1      NOp   1
 Largest Abelian subgroup         C1      NOp   1
 Largest concise Abelian subgroup C1      NOp   1
                         Standard orientation:                         
 ---------------------------------------------------------------------
 Center     Atomic      Atomic             Coordinates (Angstroms)
 Number     Number       Type             X           Y           Z
 ---------------------------------------------------------------------
      1          8           0        1.174829   -0.289784    0.133605
      2          7           0        0.045112    0.568029   -0.163242
      3          6           0       -1.169615   -0.236961    0.001103
      4          1           0        1.696621   -0.231648   -0.681901
      5          1           0        0.074606    1.244743    0.601097
      6          1           0       -2.002000    0.479777    0.043070
      7          1           0       -1.159979   -0.795424    0.951947
      8          1           0       -1.305971   -0.933614   -0.846977
 ---------------------------------------------------------------------
 Rotational constants (GHZ):          38.9521881           9.8291039           8.6471755
 Standard basis: 6-31G(d) (6D, 7F)
 There are    55 symmetry adapted cartesian basis functions of A   symmetry.
 There are    55 symmetry adapted basis functions of A   symmetry.
    55 basis functions,   104 primitive gaussians,    55 cartesian basis functions
    13 alpha electrons       13 beta electrons
       nuclear repulsion energy        81.7863882980 Hartrees.
 NAtoms=    8 NActive=    8 NUniq=    8 SFac= 1.00D+00 NAtFMM=   60 NAOKFM=F Big=F
 Integral buffers will be    131072 words long.
 Raffenetti 2 integral format.
 Two-electron integral symmetry is turned on.
 One-electron integrals computed using PRISM.
 NBasis=    55 RedAO= T EigKep=  7.22D-03  NBF=    55
 NBsUse=    55 1.00D-06 EigRej= -1.00D+00 NBFU=    55
 ExpMin= 1.61D-01 ExpMax= 5.48D+03 ExpMxC= 8.25D+02 IAcc=3 IRadAn=         5 AccDes= 0.00D+00
 Harris functional with IExCor=  402 and IRadAn=       5 diagonalized for initial guess.
 HarFok:  IExCor=  402 AccDes= 0.00D+00 IRadAn=         5 IDoV= 1 UseB2=F ITyADJ=14
 ICtDFT=  3500011 ScaDFX=  1.000000  1.000000  1.000000  1.000000
 FoFCou: FMM=F IPFlag=           0 FMFlag=      100000 FMFlg1=           0
         NFxFlg=           0 DoJE=T BraDBF=F KetDBF=T FulRan=T
         wScrn=  0.000000 ICntrl=       500 IOpCl=  0 I1Cent=   200000004 NGrid=           0
         NMat0=    1 NMatS0=      1 NMatT0=    0 NMatD0=    1 NMtDS0=    0 NMtDT0=    0
 Petite list used in FoFCou.
 Keep R1 ints in memory in canonical form, NReq=2938547.
 Requested convergence on RMS density matrix=1.00D-08 within 128 cycles.
 Requested convergence on MAX density matrix=1.00D-06.
 Requested convergence on             energy=1.00D-06.
 No special actions if energy rises.
 Integral accuracy reduced to 1.0D-05 until final iterations.
 Initial convergence to 1.0D-05 achieved.  Increase integral accuracy.
 SCF Done:  E(RB3LYP) =  -171.017930188     A.U. after   13 cycles
            NFock= 13  Conv=0.17D-08     -V/T= 2.0091

 **********************************************************************

            Population analysis using the SCF density.

 **********************************************************************

 Orbital symmetries:
       Occupied  (A) (A) (A) (A) (A) (A) (A) (A) (A) (A) (A) (A)
                 (A)
       Virtual   (A) (A) (A) (A) (A) (A) (A) (A) (A) (A) (A) (A)
                 (A) (A) (A) (A) (A) (A) (A) (A) (A) (A) (A) (A)
                 (A) (A) (A) (A) (A) (A) (A) (A) (A) (A) (A) (A)
                 (A) (A) (A) (A) (A) (A)
 The electronic state is 1-A.
 Alpha  occ. eigenvalues --  -19.16125 -14.36748 -10.20480  -1.04253  -0.82834
 Alpha  occ. eigenvalues --   -0.65257  -0.50374  -0.47493  -0.42554  -0.39575
 Alpha  occ. eigenvalues --   -0.38093  -0.27871  -0.23634
 Alpha virt. eigenvalues --    0.08209   0.09246   0.13661   0.14571   0.17704
 Alpha virt. eigenvalues --    0.18259   0.21978   0.54686   0.57422   0.58782
 Alpha virt. eigenvalues --    0.68925   0.74536   0.78570   0.81113   0.83894
 Alpha virt. eigenvalues --    0.88054   0.90771   0.93411   0.96374   0.99726
 Alpha virt. eigenvalues --    1.02744   1.14830   1.34576   1.40839   1.44261
 Alpha virt. eigenvalues --    1.47926   1.77179   1.86891   1.89611   1.99408
 Alpha virt. eigenvalues --    2.04410   2.18815   2.25851   2.29104   2.35034
 Alpha virt. eigenvalues --    2.48041   2.50564   2.63111   2.85639   3.61954
 Alpha virt. eigenvalues --    3.85517   4.25279
          Condensed to atoms (all electrons):
               1          2          3          4          5          6
     1  O    8.257157   0.136087  -0.054873   0.230613  -0.039632   0.004708
     2  N    0.136087   6.747912   0.301396  -0.034351   0.305652  -0.031236
     3  C   -0.054873   0.301396   4.990901   0.003410  -0.052863   0.354906
     4  H    0.230613  -0.034351   0.003410   0.388268   0.004170  -0.000385
     5  H   -0.039632   0.305652  -0.052863   0.004170   0.467120   0.000394
     6  H    0.004708  -0.031236   0.354906  -0.000385   0.000394   0.584891
     7  H    0.003280  -0.044067   0.365940  -0.000489  -0.005440  -0.032782
     8  H    0.002021  -0.037367   0.376698   0.000902   0.006002  -0.024182
               7          8
     1  O    0.003280   0.002021
     2  N   -0.044067  -0.037367
     3  C    0.365940   0.376698
     4  H   -0.000489   0.000902
     5  H   -0.005440   0.006002
     6  H   -0.032782  -0.024182
     7  H    0.609631  -0.041358
     8  H   -0.041358   0.559817
 Mulliken charges:
               1
     1  O   -0.539359
     2  N   -0.344027
     3  C   -0.285515
     4  H    0.407863
     5  H    0.314598
     6  H    0.143685
     7  H    0.145286
     8  H    0.157468
 Sum of Mulliken charges =  -0.00000
 Mulliken charges with hydrogens summed into heavy atoms:
               1
     1  O   -0.131495
     2  N   -0.029429
     3  C    0.160925
 Electronic spatial extent (au):  <R**2>=            178.3015
 Charge=             -0.0000 electrons
 Dipole moment (field-independent basis, Debye):
    X=             -0.4827    Y=              0.3915    Z=             -0.1570  Tot=              0.6410
 Quadrupole moment (field-independent basis, Debye-Ang):
   XX=            -16.8254   YY=            -18.9566   ZZ=            -18.6687
   XY=              0.1340   XZ=             -2.4984   YZ=              2.3528
 Traceless Quadrupole moment (field-independent basis, Debye-Ang):
   XX=              1.3248   YY=             -0.8064   ZZ=             -0.5184
   XY=              0.1340   XZ=             -2.4984   YZ=              2.3528
 Octapole moment (field-independent basis, Debye-Ang**2):
  XXX=              9.2870  YYY=              1.5784  ZZZ=              0.4010  XYY=              1.1499
  XXY=              0.1385  XXZ=             -4.7556  XZZ=              3.0004  YZZ=             -0.8553
  YYZ=              1.8278  XYZ=              0.5664
 Hexadecapole moment (field-independent basis, Debye-Ang**3):
 XXXX=           -132.6816 YYYY=            -44.4188 ZZZZ=            -27.8440 XXXY=             -4.7661
 XXXZ=             -8.2845 YYYX=             -1.3336 YYYZ=              3.7621 ZZZX=             -1.8379
 ZZZY=              2.2599 XXYY=            -30.8051 XXZZ=            -26.6844 YYZZ=            -11.7085
 XXYZ=              1.6126 YYXZ=              0.0995 ZZXY=             -0.0962
 N-N= 8.178638829804D+01 E-N=-5.639567307236D+02  KE= 1.694779809219D+02
 1\1\GINC-NODE97\SP\RB3LYP\6-31G(d)\C1H5N1O1\YANZ\05-Jun-2019\0\\# b3ly
 p/6-31g(d)\\tmpdir/M2_ref_18.gjf\\0,1\O,0,2.658583,-0.967636,0.41397\N
 ,0,2.361301,0.126334,-0.488845\C,0,1.175805,0.813726,0.033333\H,0,2.63
 9689,-1.734523,-0.179515\H,0,3.162444,0.745811,-0.356766\H,0,1.131503,
 1.778183,-0.492214\H,0,1.271413,1.023758,1.111676\H,0,0.25682231,0.229
 432,-0.15961881\\Version=ES64L-G16RevA.03\State=1-A\HF=-171.0179302\RM
 SD=1.671e-09\Dipole=-0.0492884,0.1823609,-0.167078\Quadrupole=0.090255
 5,2.3928203,-2.4830757,0.2466767,-0.5153424,0.9915085\PG=C01 [X(C1H5N1
 O1)]\\@


 PERICLES, SOPHOCLES,
 PELOPONESIAN WAR,
 FRENCH VERBS, LATIN VERBS
 H2SO4.
 Job cpu time:       0 days  0 hours  0 minutes 11.1 seconds.
 Elapsed time:       0 days  0 hours  0 minutes  5.7 seconds.
 File lengths (MBytes):  RWF=      6 Int=      0 D2E=      0 Chk=      1 Scr=      1
 Normal termination of Gaussian 16 at Wed Jun  5 15:18:24 2019.
