 Entering Gaussian System, Link 0=g16
 Initial command:
 /share/apps/gaussian/g16/l1.exe "/tmp/55435.mgr/Gau-243289.inp" -scrdir="/tmp/55435.mgr/"
 Entering Link 1 = /share/apps/gaussian/g16/l1.exe PID=    243297.
  
 Copyright (c) 1988,1990,1992,1993,1995,1998,2003,2009,2016,
            Gaussian, Inc.  All Rights Reserved.
  
 This is part of the Gaussian(R) 16 program.  It is based on
 the Gaussian(R) 09 system (copyright 2009, Gaussian, Inc.),
 the Gaussian(R) 03 system (copyright 2003, Gaussian, Inc.),
 the Gaussian(R) 98 system (copyright 1998, Gaussian, Inc.),
 the Gaussian(R) 94 system (copyright 1995, Gaussian, Inc.),
 the Gaussian 92(TM) system (copyright 1992, Gaussian, Inc.),
 the Gaussian 90(TM) system (copyright 1990, Gaussian, Inc.),
 the Gaussian 88(TM) system (copyright 1988, Gaussian, Inc.),
 the Gaussian 86(TM) system (copyright 1986, Carnegie Mellon
 University), and the Gaussian 82(TM) system (copyright 1983,
 Carnegie Mellon University). Gaussian is a federally registered
 trademark of Gaussian, Inc.
  
 This software contains proprietary and confidential information,
 including trade secrets, belonging to Gaussian, Inc.
  
 This software is provided under written license and may be
 used, copied, transmitted, or stored only in accord with that
 written license.
  
 The following legend is applicable only to US Government
 contracts under FAR:
  
                    RESTRICTED RIGHTS LEGEND
  
 Use, reproduction and disclosure by the US Government is
 subject to restrictions as set forth in subparagraphs (a)
 and (c) of the Commercial Computer Software - Restricted
 Rights clause in FAR 52.227-19.
  
 Gaussian, Inc.
 340 Quinnipiac St., Bldg. 40, Wallingford CT 06492
  
  
 ---------------------------------------------------------------
 Warning -- This program may not be used in any manner that
 competes with the business of Gaussian, Inc. or will provide
 assistance to any competitor of Gaussian, Inc.  The licensee
 of this program is prohibited from giving any competitor of
 Gaussian, Inc. access to this program.  By using this program,
 the user acknowledges that Gaussian, Inc. is engaged in the
 business of creating and licensing software in the field of
 computational chemistry and represents and warrants to the
 licensee that it is not a competitor of Gaussian, Inc. and that
 it will not use this program in any manner prohibited above.
 ---------------------------------------------------------------
  

 Cite this work as:
 Gaussian 16, Revision A.03,
 M. J. Frisch, G. W. Trucks, H. B. Schlegel, G. E. Scuseria, 
 M. A. Robb, J. R. Cheeseman, G. Scalmani, V. Barone, 
 G. A. Petersson, H. Nakatsuji, X. Li, M. Caricato, A. V. Marenich, 
 J. Bloino, B. G. Janesko, R. Gomperts, B. Mennucci, H. P. Hratchian, 
 J. V. Ortiz, A. F. Izmaylov, J. L. Sonnenberg, D. Williams-Young, 
 F. Ding, F. Lipparini, F. Egidi, J. Goings, B. Peng, A. Petrone, 
 T. Henderson, D. Ranasinghe, V. G. Zakrzewski, J. Gao, N. Rega, 
 G. Zheng, W. Liang, M. Hada, M. Ehara, K. Toyota, R. Fukuda, 
 J. Hasegawa, M. Ishida, T. Nakajima, Y. Honda, O. Kitao, H. Nakai, 
 T. Vreven, K. Throssell, J. A. Montgomery, Jr., J. E. Peralta, 
 F. Ogliaro, M. J. Bearpark, J. J. Heyd, E. N. Brothers, K. N. Kudin, 
 V. N. Staroverov, T. A. Keith, R. Kobayashi, J. Normand, 
 K. Raghavachari, A. P. Rendell, J. C. Burant, S. S. Iyengar, 
 J. Tomasi, M. Cossi, J. M. Millam, M. Klene, C. Adamo, R. Cammi, 
 J. W. Ochterski, R. L. Martin, K. Morokuma, O. Farkas, 
 J. B. Foresman, and D. J. Fox, Gaussian, Inc., Wallingford CT, 2016.
 
 ******************************************
 Gaussian 16:  ES64L-G16RevA.03 25-Dec-2016
                 5-Jun-2019 
 ******************************************
 %nprocshared=2
 Will use up to    2 processors via shared memory.
 %mem=2GB
 ----------------
 # b3lyp/6-31g(d)
 ----------------
 1/38=1,172=1/1;
 2/12=2,17=6,18=5,40=1/2;
 3/5=1,6=6,7=1,11=2,25=1,30=1,74=-5/1,2,3;
 4//1;
 5/5=2,38=5/2;
 6/7=2,8=2,9=2,10=2,28=1/1;
 99/5=1,9=1/99;
 -------------------
 tmpdir/M2_ref_1.gjf
 -------------------
 Symbolic Z-matrix:
 Charge =  0 Multiplicity = 1
 C                    -2.58198  -0.0458    0.06552 
 C                    -1.35441   0.7147    0.303 
 N                    -3.50723  -0.63397  -0.12109 
 H                    -1.24209   0.89544   1.38155 
 H                    -1.44664   1.70669  -0.16249 
 H                    -0.44181   0.20209  -0.08516 
 
                          Input orientation:                          
 ---------------------------------------------------------------------
 Center     Atomic      Atomic             Coordinates (Angstroms)
 Number     Number       Type             X           Y           Z
 ---------------------------------------------------------------------
      1          6           0       -2.581978   -0.045798    0.065521
      2          6           0       -1.354410    0.714704    0.303001
      3          7           0       -3.507232   -0.633974   -0.121094
      4          1           0       -1.242090    0.895439    1.381546
      5          1           0       -1.446643    1.706693   -0.162488
      6          1           0       -0.441805    0.202091   -0.085160
 ---------------------------------------------------------------------
                    Distance matrix (angstroms):
                    1          2          3          4          5
     1  C    0.000000
     2  C    1.463449   0.000000
     3  N    1.112147   2.575545   0.000000
     4  H    2.100750   1.099336   3.118958   0.000000
     5  H    2.100523   1.099650   3.118728   1.756137   0.000000
     6  H    2.159743   1.116373   3.177599   1.808981   1.810941
                    6
     6  H    0.000000
 Stoichiometry    C2H3N
 Framework group  C1[X(C2H3N)]
 Deg. of freedom    12
 Full point group                 C1      NOp   1
 Largest Abelian subgroup         C1      NOp   1
 Largest concise Abelian subgroup C1      NOp   1
                         Standard orientation:                         
 ---------------------------------------------------------------------
 Center     Atomic      Atomic             Coordinates (Angstroms)
 Number     Number       Type             X           Y           Z
 ---------------------------------------------------------------------
      1          6           0        0.297648   -0.002875   -0.000068
      2          6           0       -1.165769    0.006754   -0.000232
      3          7           0        1.409774    0.003977    0.000038
      4          1           0       -1.532563   -0.529601    0.886518
      5          1           0       -1.531997   -0.558658   -0.869378
      6          1           0       -1.595132    1.037143   -0.015599
 ---------------------------------------------------------------------
 Rotational constants (GHZ):         156.1674439           9.4408858           9.4183562
 Standard basis: 6-31G(d) (6D, 7F)
 There are    51 symmetry adapted cartesian basis functions of A   symmetry.
 There are    51 symmetry adapted basis functions of A   symmetry.
    51 basis functions,    96 primitive gaussians,    51 cartesian basis functions
    11 alpha electrons       11 beta electrons
       nuclear repulsion energy        59.1709925161 Hartrees.
 NAtoms=    6 NActive=    6 NUniq=    6 SFac= 1.00D+00 NAtFMM=   60 NAOKFM=F Big=F
 Integral buffers will be    131072 words long.
 Raffenetti 2 integral format.
 Two-electron integral symmetry is turned on.
 One-electron integrals computed using PRISM.
 NBasis=    51 RedAO= T EigKep=  1.43D-03  NBF=    51
 NBsUse=    51 1.00D-06 EigRej= -1.00D+00 NBFU=    51
 ExpMin= 1.61D-01 ExpMax= 4.17D+03 ExpMxC= 6.27D+02 IAcc=3 IRadAn=         5 AccDes= 0.00D+00
 Harris functional with IExCor=  402 and IRadAn=       5 diagonalized for initial guess.
 HarFok:  IExCor=  402 AccDes= 0.00D+00 IRadAn=         5 IDoV= 1 UseB2=F ITyADJ=14
 ICtDFT=  3500011 ScaDFX=  1.000000  1.000000  1.000000  1.000000
 FoFCou: FMM=F IPFlag=           0 FMFlag=      100000 FMFlg1=           0
         NFxFlg=           0 DoJE=T BraDBF=F KetDBF=T FulRan=T
         wScrn=  0.000000 ICntrl=       500 IOpCl=  0 I1Cent=   200000004 NGrid=           0
         NMat0=    1 NMatS0=      1 NMatT0=    0 NMatD0=    1 NMtDS0=    0 NMtDT0=    0
 Petite list used in FoFCou.
 Keep R1 ints in memory in canonical form, NReq=2623252.
 Requested convergence on RMS density matrix=1.00D-08 within 128 cycles.
 Requested convergence on MAX density matrix=1.00D-06.
 Requested convergence on             energy=1.00D-06.
 No special actions if energy rises.
 Integral accuracy reduced to 1.0D-05 until final iterations.
 Initial convergence to 1.0D-05 achieved.  Increase integral accuracy.
 SCF Done:  E(RB3LYP) =  -132.748298102     A.U. after   13 cycles
            NFock= 13  Conv=0.34D-08     -V/T= 2.0081

 **********************************************************************

            Population analysis using the SCF density.

 **********************************************************************

 Orbital symmetries:
       Occupied  (A) (A) (A) (A) (A) (A) (A) (A) (A) (A) (A)
       Virtual   (A) (A) (A) (A) (A) (A) (A) (A) (A) (A) (A) (A)
                 (A) (A) (A) (A) (A) (A) (A) (A) (A) (A) (A) (A)
                 (A) (A) (A) (A) (A) (A) (A) (A) (A) (A) (A) (A)
                 (A) (A) (A) (A)
 The electronic state is 1-A.
 Alpha  occ. eigenvalues --  -14.32153 -10.24185 -10.22049  -0.91979  -0.77335
 Alpha  occ. eigenvalues --   -0.51224  -0.46379  -0.46012  -0.35493  -0.33721
 Alpha  occ. eigenvalues --   -0.33573
 Alpha virt. eigenvalues --    0.04815   0.05193   0.08269   0.16224   0.16492
 Alpha virt. eigenvalues --    0.19001   0.27981   0.52386   0.52887   0.57403
 Alpha virt. eigenvalues --    0.61825   0.64039   0.68886   0.78761   0.80923
 Alpha virt. eigenvalues --    0.81062   0.84900   0.85580   0.88960   1.10687
 Alpha virt. eigenvalues --    1.39588   1.41943   1.42589   1.50896   1.51119
 Alpha virt. eigenvalues --    1.60715   1.89757   1.92429   1.98344   1.99385
 Alpha virt. eigenvalues --    2.16646   2.18616   2.21641   2.79668   2.80001
 Alpha virt. eigenvalues --    2.80421   3.27854   4.03183   4.12508   4.58920
          Condensed to atoms (all electrons):
               1          2          3          4          5          6
     1  C    4.478031   0.314780   0.937283  -0.025091  -0.025091  -0.021847
     2  C    0.314780   5.212956  -0.101508   0.365558   0.365517   0.366781
     3  N    0.937283  -0.101508   6.599391  -0.000114  -0.000103  -0.000365
     4  H   -0.025091   0.365558  -0.000114   0.505175  -0.027749  -0.023680
     5  H   -0.025091   0.365517  -0.000103  -0.027749   0.505080  -0.023495
     6  H   -0.021847   0.366781  -0.000365  -0.023680  -0.023495   0.497616
 Mulliken charges:
               1
     1  C    0.341936
     2  C   -0.524084
     3  N   -0.434584
     4  H    0.205900
     5  H    0.205841
     6  H    0.204990
 Sum of Mulliken charges =  -0.00000
 Mulliken charges with hydrogens summed into heavy atoms:
               1
     1  C    0.341936
     2  C    0.092647
     3  N   -0.434584
 Electronic spatial extent (au):  <R**2>=            158.6189
 Charge=             -0.0000 electrons
 Dipole moment (field-independent basis, Debye):
    X=             -3.7450    Y=             -0.0376    Z=              0.0011  Tot=              3.7452
 Quadrupole moment (field-independent basis, Debye-Ang):
   XX=            -20.3697   YY=            -17.0268   ZZ=            -17.2113
   XY=             -0.0135   XZ=             -0.0025   YZ=              0.0001
 Traceless Quadrupole moment (field-independent basis, Debye-Ang):
   XX=             -2.1671   YY=              1.1758   ZZ=              0.9913
   XY=             -0.0135   XZ=             -0.0025   YZ=              0.0001
 Octapole moment (field-independent basis, Debye-Ang**2):
  XXX=            -10.6081  YYY=              0.6783  ZZZ=              0.0382  XYY=             -1.5453
  XXY=              0.0874  XXZ=              0.0037  XZZ=             -1.1958  YZZ=             -0.7824
  YYZ=             -0.0354  XYZ=              0.0013
 Hexadecapole moment (field-independent basis, Debye-Ang**3):
 XXXX=           -173.1061 YYYY=            -22.4084 ZZZZ=            -22.1904 XXXY=             -0.3048
 XXXZ=             -0.0092 YYYX=             -1.2145 YYYZ=              0.0037 ZZZX=             -0.0633
 ZZZY=             -0.0024 XXYY=            -28.5868 XXZZ=            -29.2232 YYZZ=             -7.3847
 XXYZ=             -0.0051 YYXZ=              0.0590 ZZXY=              1.2742
 N-N= 5.917099251611D+01 E-N=-4.266842808331D+02  KE= 1.316852494576D+02
 1\1\GINC-NODE97\SP\RB3LYP\6-31G(d)\C2H3N1\YANZ\05-Jun-2019\0\\# b3lyp/
 6-31g(d)\\tmpdir/M2_ref_1.gjf\\0,1\C,0,-2.581978,-0.045798,0.065521\C,
 0,-1.35441,0.714704,0.303001\N,0,-3.5072316,-0.63397435,-0.12109425\H,
 0,-1.24209,0.895439,1.381546\H,0,-1.446643,1.706693,-0.162488\H,0,-0.4
 4180547,0.20209064,-0.0851597\\Version=ES64L-G16RevA.03\State=1-A\HF=-
 132.7482981\RMSD=3.391e-09\Dipole=1.2227983,0.7831351,0.2502228\Quadru
 pole=-0.8521626,0.1545322,0.6976304,-1.085802,-0.3573582,-0.1633746\PG
 =C01 [X(C2H3N1)]\\@


 THE HURRIEDER I GO, THE BEHINDER I GET.
 Job cpu time:       0 days  0 hours  0 minutes  8.6 seconds.
 Elapsed time:       0 days  0 hours  0 minutes  4.4 seconds.
 File lengths (MBytes):  RWF=      6 Int=      0 D2E=      0 Chk=      1 Scr=      1
 Normal termination of Gaussian 16 at Wed Jun  5 15:18:19 2019.
