 Entering Gaussian System, Link 0=g16
 Initial command:
 /share/apps/gaussian/g16/l1.exe "/tmp/55435.mgr/Gau-243642.inp" -scrdir="/tmp/55435.mgr/"
 Entering Link 1 = /share/apps/gaussian/g16/l1.exe PID=    243643.
  
 Copyright (c) 1988,1990,1992,1993,1995,1998,2003,2009,2016,
            Gaussian, Inc.  All Rights Reserved.
  
 This is part of the Gaussian(R) 16 program.  It is based on
 the Gaussian(R) 09 system (copyright 2009, Gaussian, Inc.),
 the Gaussian(R) 03 system (copyright 2003, Gaussian, Inc.),
 the Gaussian(R) 98 system (copyright 1998, Gaussian, Inc.),
 the Gaussian(R) 94 system (copyright 1995, Gaussian, Inc.),
 the Gaussian 92(TM) system (copyright 1992, Gaussian, Inc.),
 the Gaussian 90(TM) system (copyright 1990, Gaussian, Inc.),
 the Gaussian 88(TM) system (copyright 1988, Gaussian, Inc.),
 the Gaussian 86(TM) system (copyright 1986, Carnegie Mellon
 University), and the Gaussian 82(TM) system (copyright 1983,
 Carnegie Mellon University). Gaussian is a federally registered
 trademark of Gaussian, Inc.
  
 This software contains proprietary and confidential information,
 including trade secrets, belonging to Gaussian, Inc.
  
 This software is provided under written license and may be
 used, copied, transmitted, or stored only in accord with that
 written license.
  
 The following legend is applicable only to US Government
 contracts under FAR:
  
                    RESTRICTED RIGHTS LEGEND
  
 Use, reproduction and disclosure by the US Government is
 subject to restrictions as set forth in subparagraphs (a)
 and (c) of the Commercial Computer Software - Restricted
 Rights clause in FAR 52.227-19.
  
 Gaussian, Inc.
 340 Quinnipiac St., Bldg. 40, Wallingford CT 06492
  
  
 ---------------------------------------------------------------
 Warning -- This program may not be used in any manner that
 competes with the business of Gaussian, Inc. or will provide
 assistance to any competitor of Gaussian, Inc.  The licensee
 of this program is prohibited from giving any competitor of
 Gaussian, Inc. access to this program.  By using this program,
 the user acknowledges that Gaussian, Inc. is engaged in the
 business of creating and licensing software in the field of
 computational chemistry and represents and warrants to the
 licensee that it is not a competitor of Gaussian, Inc. and that
 it will not use this program in any manner prohibited above.
 ---------------------------------------------------------------
  

 Cite this work as:
 Gaussian 16, Revision A.03,
 M. J. Frisch, G. W. Trucks, H. B. Schlegel, G. E. Scuseria, 
 M. A. Robb, J. R. Cheeseman, G. Scalmani, V. Barone, 
 G. A. Petersson, H. Nakatsuji, X. Li, M. Caricato, A. V. Marenich, 
 J. Bloino, B. G. Janesko, R. Gomperts, B. Mennucci, H. P. Hratchian, 
 J. V. Ortiz, A. F. Izmaylov, J. L. Sonnenberg, D. Williams-Young, 
 F. Ding, F. Lipparini, F. Egidi, J. Goings, B. Peng, A. Petrone, 
 T. Henderson, D. Ranasinghe, V. G. Zakrzewski, J. Gao, N. Rega, 
 G. Zheng, W. Liang, M. Hada, M. Ehara, K. Toyota, R. Fukuda, 
 J. Hasegawa, M. Ishida, T. Nakajima, Y. Honda, O. Kitao, H. Nakai, 
 T. Vreven, K. Throssell, J. A. Montgomery, Jr., J. E. Peralta, 
 F. Ogliaro, M. J. Bearpark, J. J. Heyd, E. N. Brothers, K. N. Kudin, 
 V. N. Staroverov, T. A. Keith, R. Kobayashi, J. Normand, 
 K. Raghavachari, A. P. Rendell, J. C. Burant, S. S. Iyengar, 
 J. Tomasi, M. Cossi, J. M. Millam, M. Klene, C. Adamo, R. Cammi, 
 J. W. Ochterski, R. L. Martin, K. Morokuma, O. Farkas, 
 J. B. Foresman, and D. J. Fox, Gaussian, Inc., Wallingford CT, 2016.
 
 ******************************************
 Gaussian 16:  ES64L-G16RevA.03 25-Dec-2016
                 5-Jun-2019 
 ******************************************
 %nprocshared=2
 Will use up to    2 processors via shared memory.
 %mem=2GB
 ----------------
 # b3lyp/6-31g(d)
 ----------------
 1/38=1,172=1/1;
 2/12=2,17=6,18=5,40=1/2;
 3/5=1,6=6,7=1,11=2,25=1,30=1,74=-5/1,2,3;
 4//1;
 5/5=2,38=5/2;
 6/7=2,8=2,9=2,10=2,28=1/1;
 99/5=1,9=1/99;
 --------------------
 tmpdir/M2_ref_31.gjf
 --------------------
 Symbolic Z-matrix:
 Charge =  0 Multiplicity = 1
 C                    -0.09371   0.00656  -0.23322 
 H                    -0.19481  -0.16538  -1.31101 
 H                    -1.00631   0.51918   0.15494 
 H                     0.82527   0.59086  -0.04027 
 H                     0.00093  -0.97452   0.24421 
 
                          Input orientation:                          
 ---------------------------------------------------------------------
 Center     Atomic      Atomic             Coordinates (Angstroms)
 Number     Number       Type             X           Y           Z
 ---------------------------------------------------------------------
      1          6           0       -0.093708    0.006563   -0.233217
      2          1           0       -0.194808   -0.165380   -1.311007
      3          1           0       -1.006313    0.519176    0.154944
      4          1           0        0.825275    0.590857   -0.040265
      5          1           0        0.000930   -0.974522    0.244205
 ---------------------------------------------------------------------
                    Distance matrix (angstroms):
                    1          2          3          4          5
     1  C    0.000000
     2  H    1.096092   0.000000
     3  H    1.116373   1.810019   0.000000
     4  H    1.105965   1.796454   1.843355   0.000000
     5  H    1.095178   1.764004   1.803785   1.791893   0.000000
 Stoichiometry    CH4
 Framework group  C1[X(CH4)]
 Deg. of freedom     9
 Full point group                 C1      NOp   1
 Largest Abelian subgroup         C1      NOp   1
 Largest concise Abelian subgroup C1      NOp   1
                         Standard orientation:                         
 ---------------------------------------------------------------------
 Center     Atomic      Atomic             Coordinates (Angstroms)
 Number     Number       Type             X           Y           Z
 ---------------------------------------------------------------------
      1          6           0       -0.001016    0.005637   -0.001547
      2          1           0        0.139368   -0.728502   -0.803263
      3          1           0       -1.025341    0.444779   -0.066356
      4          1           0        0.787650    0.777952   -0.070067
      5          1           0        0.104420   -0.528052    0.948966
 ---------------------------------------------------------------------
 Rotational constants (GHZ):         158.2874017         153.9547593         151.2705716
 Standard basis: 6-31G(d) (6D, 7F)
 There are    23 symmetry adapted cartesian basis functions of A   symmetry.
 There are    23 symmetry adapted basis functions of A   symmetry.
    23 basis functions,    44 primitive gaussians,    23 cartesian basis functions
     5 alpha electrons        5 beta electrons
       nuclear repulsion energy        13.2734583959 Hartrees.
 NAtoms=    5 NActive=    5 NUniq=    5 SFac= 1.00D+00 NAtFMM=   60 NAOKFM=F Big=F
 Integral buffers will be    131072 words long.
 Raffenetti 2 integral format.
 Two-electron integral symmetry is turned on.
 One-electron integrals computed using PRISM.
 NBasis=    23 RedAO= T EigKep=  1.85D-02  NBF=    23
 NBsUse=    23 1.00D-06 EigRej= -1.00D+00 NBFU=    23
 ExpMin= 1.61D-01 ExpMax= 3.05D+03 ExpMxC= 4.57D+02 IAcc=3 IRadAn=         5 AccDes= 0.00D+00
 Harris functional with IExCor=  402 and IRadAn=       5 diagonalized for initial guess.
 HarFok:  IExCor=  402 AccDes= 0.00D+00 IRadAn=         5 IDoV= 1 UseB2=F ITyADJ=14
 ICtDFT=  3500011 ScaDFX=  1.000000  1.000000  1.000000  1.000000
 FoFCou: FMM=F IPFlag=           0 FMFlag=      100000 FMFlg1=           0
         NFxFlg=           0 DoJE=T BraDBF=F KetDBF=T FulRan=T
         wScrn=  0.000000 ICntrl=       500 IOpCl=  0 I1Cent=   200000004 NGrid=           0
         NMat0=    1 NMatS0=      1 NMatT0=    0 NMatD0=    1 NMtDS0=    0 NMtDT0=    0
 Petite list used in FoFCou.
 Keep R1 ints in memory in canonical form, NReq=1762518.
 Requested convergence on RMS density matrix=1.00D-08 within 128 cycles.
 Requested convergence on MAX density matrix=1.00D-06.
 Requested convergence on             energy=1.00D-06.
 No special actions if energy rises.
 Integral accuracy reduced to 1.0D-05 until final iterations.
 Initial convergence to 1.0D-05 achieved.  Increase integral accuracy.
 SCF Done:  E(RB3LYP) =  -40.5176729320     A.U. after    9 cycles
            NFock=  9  Conv=0.53D-08     -V/T= 2.0124

 **********************************************************************

            Population analysis using the SCF density.

 **********************************************************************

 Orbital symmetries:
       Occupied  (A) (A) (A) (A) (A)
       Virtual   (A) (A) (A) (A) (A) (A) (A) (A) (A) (A) (A) (A)
                 (A) (A) (A) (A) (A) (A)
 The electronic state is 1-A.
 Alpha  occ. eigenvalues --  -10.17115  -0.68740  -0.38990  -0.38688  -0.38519
 Alpha virt. eigenvalues --    0.11507   0.17167   0.17370   0.17470   0.53151
 Alpha virt. eigenvalues --    0.53535   0.54236   0.88416   0.89047   0.89222
 Alpha virt. eigenvalues --    0.93708   1.09729   1.65832   1.65864   2.20943
 Alpha virt. eigenvalues --    2.23304   2.24681   4.17170
          Condensed to atoms (all electrons):
               1          2          3          4          5
     1  C    5.096481   0.381906   0.381488   0.382339   0.381675
     2  H    0.381906   0.543251  -0.026046  -0.026909  -0.029371
     3  H    0.381488  -0.026046   0.541041  -0.023505  -0.026578
     4  H    0.382339  -0.026909  -0.023505   0.539346  -0.027252
     5  H    0.381675  -0.029371  -0.026578  -0.027252   0.544384
 Mulliken charges:
               1
     1  C   -0.623889
     2  H    0.157169
     3  H    0.153599
     4  H    0.155981
     5  H    0.157141
 Sum of Mulliken charges =  -0.00000
 Mulliken charges with hydrogens summed into heavy atoms:
               1
     1  C   -0.000000
 Electronic spatial extent (au):  <R**2>=             35.8556
 Charge=             -0.0000 electrons
 Dipole moment (field-independent basis, Debye):
    X=              0.0155    Y=             -0.0360    Z=              0.0085  Tot=              0.0401
 Quadrupole moment (field-independent basis, Debye-Ang):
   XX=             -8.1839   YY=             -8.2884   ZZ=             -8.3634
   XY=              0.0074   XZ=             -0.0015   YZ=              0.0015
 Traceless Quadrupole moment (field-independent basis, Debye-Ang):
   XX=              0.0946   YY=             -0.0098   ZZ=             -0.0848
   XY=              0.0074   XZ=             -0.0015   YZ=              0.0015
 Octapole moment (field-independent basis, Debye-Ang**2):
  XXX=             -0.3574  YYY=             -0.0881  ZZZ=              0.2336  XYY=              0.2791
  XXY=              0.6150  XXZ=             -0.0734  XZZ=              0.1385  YZZ=             -0.6400
  YYZ=             -0.1355  XYZ=              0.0109
 Hexadecapole moment (field-independent basis, Debye-Ang**3):
 XXXX=            -15.4184 YYYY=            -15.8338 ZZZZ=            -15.1467 XXXY=             -0.0888
 XXXZ=              0.0344 YYYX=              0.2366 YYYZ=              0.1428 ZZZX=              0.0149
 ZZZY=             -0.0758 XXYY=             -4.9796 XXZZ=             -5.5400 YYZZ=             -4.8830
 XXYZ=             -0.0602 YYXZ=             -0.0554 ZZXY=             -0.1150
 N-N= 1.327345839588D+01 E-N=-1.195501335600D+02  KE= 4.002041568616D+01
 1\1\GINC-NODE97\SP\RB3LYP\6-31G(d)\C1H4\YANZ\05-Jun-2019\0\\# b3lyp/6-
 31g(d)\\tmpdir/M2_ref_31.gjf\\0,1\C,0,-0.093708,0.006563,-0.233217\H,0
 ,-0.194808,-0.16538,-1.311007\H,0,-1.00631253,0.51917636,0.1549437\H,0
 ,0.82527469,0.590857,-0.04026519\H,0,0.00093,-0.974522,0.244205\\Versi
 on=ES64L-G16RevA.03\State=1-A\HF=-40.5176729\RMSD=5.344e-09\Dipole=0.0
 033555,-0.0141901,-0.0060135\Quadrupole=0.0675517,-0.0258426,-0.041709
 1,-0.0003066,-0.0182994,0.0265314\PG=C01 [X(C1H4)]\\@


 You never know when you're making a memory.
                        -- Rickie Lee Jones
 Job cpu time:       0 days  0 hours  0 minutes  3.3 seconds.
 Elapsed time:       0 days  0 hours  0 minutes  1.7 seconds.
 File lengths (MBytes):  RWF=      6 Int=      0 D2E=      0 Chk=      1 Scr=      1
 Normal termination of Gaussian 16 at Wed Jun  5 15:18:23 2019.
