 Entering Gaussian System, Link 0=g16
 Initial command:
 /share/apps/gaussian/g16/l1.exe "/tmp/55435.mgr/Gau-243290.inp" -scrdir="/tmp/55435.mgr/"
 Entering Link 1 = /share/apps/gaussian/g16/l1.exe PID=    243299.
  
 Copyright (c) 1988,1990,1992,1993,1995,1998,2003,2009,2016,
            Gaussian, Inc.  All Rights Reserved.
  
 This is part of the Gaussian(R) 16 program.  It is based on
 the Gaussian(R) 09 system (copyright 2009, Gaussian, Inc.),
 the Gaussian(R) 03 system (copyright 2003, Gaussian, Inc.),
 the Gaussian(R) 98 system (copyright 1998, Gaussian, Inc.),
 the Gaussian(R) 94 system (copyright 1995, Gaussian, Inc.),
 the Gaussian 92(TM) system (copyright 1992, Gaussian, Inc.),
 the Gaussian 90(TM) system (copyright 1990, Gaussian, Inc.),
 the Gaussian 88(TM) system (copyright 1988, Gaussian, Inc.),
 the Gaussian 86(TM) system (copyright 1986, Carnegie Mellon
 University), and the Gaussian 82(TM) system (copyright 1983,
 Carnegie Mellon University). Gaussian is a federally registered
 trademark of Gaussian, Inc.
  
 This software contains proprietary and confidential information,
 including trade secrets, belonging to Gaussian, Inc.
  
 This software is provided under written license and may be
 used, copied, transmitted, or stored only in accord with that
 written license.
  
 The following legend is applicable only to US Government
 contracts under FAR:
  
                    RESTRICTED RIGHTS LEGEND
  
 Use, reproduction and disclosure by the US Government is
 subject to restrictions as set forth in subparagraphs (a)
 and (c) of the Commercial Computer Software - Restricted
 Rights clause in FAR 52.227-19.
  
 Gaussian, Inc.
 340 Quinnipiac St., Bldg. 40, Wallingford CT 06492
  
  
 ---------------------------------------------------------------
 Warning -- This program may not be used in any manner that
 competes with the business of Gaussian, Inc. or will provide
 assistance to any competitor of Gaussian, Inc.  The licensee
 of this program is prohibited from giving any competitor of
 Gaussian, Inc. access to this program.  By using this program,
 the user acknowledges that Gaussian, Inc. is engaged in the
 business of creating and licensing software in the field of
 computational chemistry and represents and warrants to the
 licensee that it is not a competitor of Gaussian, Inc. and that
 it will not use this program in any manner prohibited above.
 ---------------------------------------------------------------
  

 Cite this work as:
 Gaussian 16, Revision A.03,
 M. J. Frisch, G. W. Trucks, H. B. Schlegel, G. E. Scuseria, 
 M. A. Robb, J. R. Cheeseman, G. Scalmani, V. Barone, 
 G. A. Petersson, H. Nakatsuji, X. Li, M. Caricato, A. V. Marenich, 
 J. Bloino, B. G. Janesko, R. Gomperts, B. Mennucci, H. P. Hratchian, 
 J. V. Ortiz, A. F. Izmaylov, J. L. Sonnenberg, D. Williams-Young, 
 F. Ding, F. Lipparini, F. Egidi, J. Goings, B. Peng, A. Petrone, 
 T. Henderson, D. Ranasinghe, V. G. Zakrzewski, J. Gao, N. Rega, 
 G. Zheng, W. Liang, M. Hada, M. Ehara, K. Toyota, R. Fukuda, 
 J. Hasegawa, M. Ishida, T. Nakajima, Y. Honda, O. Kitao, H. Nakai, 
 T. Vreven, K. Throssell, J. A. Montgomery, Jr., J. E. Peralta, 
 F. Ogliaro, M. J. Bearpark, J. J. Heyd, E. N. Brothers, K. N. Kudin, 
 V. N. Staroverov, T. A. Keith, R. Kobayashi, J. Normand, 
 K. Raghavachari, A. P. Rendell, J. C. Burant, S. S. Iyengar, 
 J. Tomasi, M. Cossi, J. M. Millam, M. Klene, C. Adamo, R. Cammi, 
 J. W. Ochterski, R. L. Martin, K. Morokuma, O. Farkas, 
 J. B. Foresman, and D. J. Fox, Gaussian, Inc., Wallingford CT, 2016.
 
 ******************************************
 Gaussian 16:  ES64L-G16RevA.03 25-Dec-2016
                 5-Jun-2019 
 ******************************************
 %nprocshared=2
 Will use up to    2 processors via shared memory.
 %mem=2GB
 ----------------
 # b3lyp/6-31g(d)
 ----------------
 1/38=1,172=1/1;
 2/12=2,17=6,18=5,40=1/2;
 3/5=1,6=6,7=1,11=2,25=1,30=1,74=-5/1,2,3;
 4//1;
 5/5=2,38=5/2;
 6/7=2,8=2,9=2,10=2,28=1/1;
 99/5=1,9=1/99;
 -------------------
 tmpdir/M2_ref_2.gjf
 -------------------
 Symbolic Z-matrix:
 Charge =  0 Multiplicity = 1
 C                    -3.58664  -0.68445  -0.13711 
 C                    -2.58198  -0.0458    0.06552 
 C                    -1.35441   0.7147    0.303 
 H                    -4.47463  -1.24717  -0.31445 
 H                    -1.24209   0.89544   1.38155 
 H                    -1.44664   1.70669  -0.16249 
 H                    -0.44181   0.20209  -0.08516 
 
                          Input orientation:                          
 ---------------------------------------------------------------------
 Center     Atomic      Atomic             Coordinates (Angstroms)
 Number     Number       Type             X           Y           Z
 ---------------------------------------------------------------------
      1          6           0       -3.586639   -0.684453   -0.137110
      2          6           0       -2.581978   -0.045798    0.065521
      3          6           0       -1.354410    0.714704    0.303001
      4          1           0       -4.474630   -1.247165   -0.314453
      5          1           0       -1.242090    0.895439    1.381546
      6          1           0       -1.446643    1.706693   -0.162488
      7          1           0       -0.441805    0.202091   -0.085160
 ---------------------------------------------------------------------
                    Distance matrix (angstroms):
                    1          2          3          4          5
     1  C    0.000000
     2  C    1.207594   0.000000
     3  C    2.670989   1.463449   0.000000
     4  H    1.066125   2.273718   3.737105   0.000000
     5  H    3.209250   2.100750   1.099336   4.232786   0.000000
     6  H    3.209019   2.100523   1.099650   4.232857   1.756137
     7  H    3.267818   2.159743   1.116373   4.291456   1.808981
                    6          7
     6  H    0.000000
     7  H    1.810941   0.000000
 Stoichiometry    C3H4
 Framework group  C1[X(C3H4)]
 Deg. of freedom    15
 Full point group                 C1      NOp   1
 Largest Abelian subgroup         C1      NOp   1
 Largest concise Abelian subgroup C1      NOp   1
                         Standard orientation:                         
 ---------------------------------------------------------------------
 Center     Atomic      Atomic             Coordinates (Angstroms)
 Number     Number       Type             X           Y           Z
 ---------------------------------------------------------------------
      1          6           0        1.426393    0.003146   -0.000091
      2          6           0        0.218817   -0.003425   -0.000125
      3          6           0       -1.244593    0.007256   -0.000191
      4          1           0        2.492512    0.006911    0.000697
      5          1           0       -1.611713   -0.528789    0.886611
      6          1           0       -1.611286   -0.557937   -0.869284
      7          1           0       -1.673215    1.037952   -0.015581
 ---------------------------------------------------------------------
 Rotational constants (GHZ):         156.1628750           8.5213836           8.5030113
 Standard basis: 6-31G(d) (6D, 7F)
 There are    53 symmetry adapted cartesian basis functions of A   symmetry.
 There are    53 symmetry adapted basis functions of A   symmetry.
    53 basis functions,   100 primitive gaussians,    53 cartesian basis functions
    11 alpha electrons       11 beta electrons
       nuclear repulsion energy        58.4718786786 Hartrees.
 NAtoms=    7 NActive=    7 NUniq=    7 SFac= 1.00D+00 NAtFMM=   60 NAOKFM=F Big=F
 Integral buffers will be    131072 words long.
 Raffenetti 2 integral format.
 Two-electron integral symmetry is turned on.
 One-electron integrals computed using PRISM.
 NBasis=    53 RedAO= T EigKep=  5.22D-04  NBF=    53
 NBsUse=    53 1.00D-06 EigRej= -1.00D+00 NBFU=    53
 ExpMin= 1.61D-01 ExpMax= 3.05D+03 ExpMxC= 4.57D+02 IAcc=3 IRadAn=         5 AccDes= 0.00D+00
 Harris functional with IExCor=  402 and IRadAn=       5 diagonalized for initial guess.
 HarFok:  IExCor=  402 AccDes= 0.00D+00 IRadAn=         5 IDoV= 1 UseB2=F ITyADJ=14
 ICtDFT=  3500011 ScaDFX=  1.000000  1.000000  1.000000  1.000000
 FoFCou: FMM=F IPFlag=           0 FMFlag=      100000 FMFlg1=           0
         NFxFlg=           0 DoJE=T BraDBF=F KetDBF=T FulRan=T
         wScrn=  0.000000 ICntrl=       500 IOpCl=  0 I1Cent=   200000004 NGrid=           0
         NMat0=    1 NMatS0=      1 NMatT0=    0 NMatD0=    1 NMtDS0=    0 NMtDT0=    0
 Petite list used in FoFCou.
 Keep R1 ints in memory in canonical form, NReq=2776208.
 Requested convergence on RMS density matrix=1.00D-08 within 128 cycles.
 Requested convergence on MAX density matrix=1.00D-06.
 Requested convergence on             energy=1.00D-06.
 No special actions if energy rises.
 Integral accuracy reduced to 1.0D-05 until final iterations.
 Initial convergence to 1.0D-05 achieved.  Increase integral accuracy.
 SCF Done:  E(RB3LYP) =  -116.652506025     A.U. after   12 cycles
            NFock= 12  Conv=0.33D-08     -V/T= 2.0106

 **********************************************************************

            Population analysis using the SCF density.

 **********************************************************************

 Orbital symmetries:
       Occupied  (A) (A) (A) (A) (A) (A) (A) (A) (A) (A) (A)
       Virtual   (A) (A) (A) (A) (A) (A) (A) (A) (A) (A) (A) (A)
                 (A) (A) (A) (A) (A) (A) (A) (A) (A) (A) (A) (A)
                 (A) (A) (A) (A) (A) (A) (A) (A) (A) (A) (A) (A)
                 (A) (A) (A) (A) (A) (A)
 The electronic state is 1-A.
 Alpha  occ. eigenvalues --  -10.20966 -10.18413 -10.17182  -0.77267  -0.69342
 Alpha  occ. eigenvalues --   -0.52337  -0.44686  -0.43059  -0.42654  -0.25982
 Alpha  occ. eigenvalues --   -0.25855
 Alpha virt. eigenvalues --    0.06033   0.06326   0.10756   0.13248   0.17896
 Alpha virt. eigenvalues --    0.18102   0.23638   0.40234   0.46369   0.52797
 Alpha virt. eigenvalues --    0.53164   0.62197   0.63723   0.72027   0.72953
 Alpha virt. eigenvalues --    0.76923   0.78771   0.85412   0.85452   0.90037
 Alpha virt. eigenvalues --    1.01336   1.19496   1.40677   1.41612   1.48046
 Alpha virt. eigenvalues --    1.55729   1.55753   1.56513   1.86368   1.88405
 Alpha virt. eigenvalues --    1.94333   1.95263   2.10081   2.19351   2.23341
 Alpha virt. eigenvalues --    2.60058   2.70339   2.71182   3.34589   4.09460
 Alpha virt. eigenvalues --    4.24942   4.63356
          Condensed to atoms (all electrons):
               1          2          3          4          5          6
     1  C    5.475056   0.801275  -0.167878   0.347775   0.001204   0.001260
     2  C    0.801275   4.581710   0.384010   0.004660  -0.026354  -0.026308
     3  C   -0.167878   0.384010   5.278301   0.002447   0.358469   0.358337
     4  H    0.347775   0.004660   0.002447   0.461929  -0.000017  -0.000016
     5  H    0.001204  -0.026354   0.358469  -0.000017   0.543876  -0.031906
     6  H    0.001260  -0.026308   0.358337  -0.000016  -0.031906   0.543763
     7  H    0.000979  -0.021649   0.358109  -0.000008  -0.028005  -0.027804
               7
     1  C    0.000979
     2  C   -0.021649
     3  C    0.358109
     4  H   -0.000008
     5  H   -0.028005
     6  H   -0.027804
     7  H    0.538204
 Mulliken charges:
               1
     1  C   -0.459671
     2  C    0.302656
     3  C   -0.571794
     4  H    0.183229
     5  H    0.182733
     6  H    0.182674
     7  H    0.180173
 Sum of Mulliken charges =  -0.00000
 Mulliken charges with hydrogens summed into heavy atoms:
               1
     1  C   -0.276441
     2  C    0.302656
     3  C   -0.026214
 Electronic spatial extent (au):  <R**2>=            178.5886
 Charge=             -0.0000 electrons
 Dipole moment (field-independent basis, Debye):
    X=             -0.6813    Y=             -0.0314    Z=              0.0021  Tot=              0.6820
 Quadrupole moment (field-independent basis, Debye-Ang):
   XX=            -13.8016   YY=            -18.9602   ZZ=            -19.1325
   XY=              0.0188   XZ=             -0.0000   YZ=              0.0001
 Traceless Quadrupole moment (field-independent basis, Debye-Ang):
   XX=              3.4965   YY=             -1.6621   ZZ=             -1.8344
   XY=              0.0188   XZ=             -0.0000   YZ=              0.0001
 Octapole moment (field-independent basis, Debye-Ang**2):
  XXX=              9.6135  YYY=              0.5685  ZZZ=              0.0349  XYY=             -2.5924
  XXY=              0.1142  XXZ=              0.0106  XZZ=             -2.2808  YZZ=             -0.6832
  YYZ=             -0.0302  XYZ=              0.0008
 Hexadecapole moment (field-independent basis, Debye-Ang**3):
 XXXX=           -157.7410 YYYY=            -26.2016 ZZZZ=            -25.9384 XXXY=             -0.0914
 XXXZ=              0.0065 YYYX=             -1.0560 YYYZ=              0.0035 ZZZX=             -0.0551
 ZZZY=             -0.0022 XXYY=            -35.9686 XXZZ=            -36.5917 YYZZ=             -8.6463
 XXYZ=             -0.0045 YYXZ=              0.0531 ZZXY=              1.1418
 N-N= 5.847187867862D+01 E-N=-3.866356637037D+02  KE= 1.154345376737D+02
 1\1\GINC-NODE97\SP\RB3LYP\6-31G(d)\C3H4\YANZ\05-Jun-2019\0\\# b3lyp/6-
 31g(d)\\tmpdir/M2_ref_2.gjf\\0,1\C,0,-3.586639,-0.684453,-0.13711\C,0,
 -2.581978,-0.045798,0.065521\C,0,-1.35441,0.714704,0.303001\H,0,-4.474
 63,-1.247165,-0.314453\H,0,-1.24209,0.895439,1.381546\H,0,-1.446643,1.
 706693,-0.162488\H,0,-0.44180547,0.20209064,-0.0851597\\Version=ES64L-
 G16RevA.03\State=1-A\HF=-116.652506\RMSD=3.309e-09\Dipole=0.217201,0.1
 492487,0.0504416\Quadrupole=1.4236642,-0.1942547,-1.2294096,1.691506,0
 .5215242,0.3890636\PG=C01 [X(C3H4)]\\@


 THE HURRIEDER I GO, THE BEHINDER I GET.
 Job cpu time:       0 days  0 hours  0 minutes  9.3 seconds.
 Elapsed time:       0 days  0 hours  0 minutes  4.8 seconds.
 File lengths (MBytes):  RWF=      6 Int=      0 D2E=      0 Chk=      1 Scr=      1
 Normal termination of Gaussian 16 at Wed Jun  5 15:18:19 2019.
