 Entering Gaussian System, Link 0=g16
 Initial command:
 /share/apps/gaussian/g16/l1.exe "/tmp/55435.mgr/Gau-243422.inp" -scrdir="/tmp/55435.mgr/"
 Entering Link 1 = /share/apps/gaussian/g16/l1.exe PID=    243430.
  
 Copyright (c) 1988,1990,1992,1993,1995,1998,2003,2009,2016,
            Gaussian, Inc.  All Rights Reserved.
  
 This is part of the Gaussian(R) 16 program.  It is based on
 the Gaussian(R) 09 system (copyright 2009, Gaussian, Inc.),
 the Gaussian(R) 03 system (copyright 2003, Gaussian, Inc.),
 the Gaussian(R) 98 system (copyright 1998, Gaussian, Inc.),
 the Gaussian(R) 94 system (copyright 1995, Gaussian, Inc.),
 the Gaussian 92(TM) system (copyright 1992, Gaussian, Inc.),
 the Gaussian 90(TM) system (copyright 1990, Gaussian, Inc.),
 the Gaussian 88(TM) system (copyright 1988, Gaussian, Inc.),
 the Gaussian 86(TM) system (copyright 1986, Carnegie Mellon
 University), and the Gaussian 82(TM) system (copyright 1983,
 Carnegie Mellon University). Gaussian is a federally registered
 trademark of Gaussian, Inc.
  
 This software contains proprietary and confidential information,
 including trade secrets, belonging to Gaussian, Inc.
  
 This software is provided under written license and may be
 used, copied, transmitted, or stored only in accord with that
 written license.
  
 The following legend is applicable only to US Government
 contracts under FAR:
  
                    RESTRICTED RIGHTS LEGEND
  
 Use, reproduction and disclosure by the US Government is
 subject to restrictions as set forth in subparagraphs (a)
 and (c) of the Commercial Computer Software - Restricted
 Rights clause in FAR 52.227-19.
  
 Gaussian, Inc.
 340 Quinnipiac St., Bldg. 40, Wallingford CT 06492
  
  
 ---------------------------------------------------------------
 Warning -- This program may not be used in any manner that
 competes with the business of Gaussian, Inc. or will provide
 assistance to any competitor of Gaussian, Inc.  The licensee
 of this program is prohibited from giving any competitor of
 Gaussian, Inc. access to this program.  By using this program,
 the user acknowledges that Gaussian, Inc. is engaged in the
 business of creating and licensing software in the field of
 computational chemistry and represents and warrants to the
 licensee that it is not a competitor of Gaussian, Inc. and that
 it will not use this program in any manner prohibited above.
 ---------------------------------------------------------------
  

 Cite this work as:
 Gaussian 16, Revision A.03,
 M. J. Frisch, G. W. Trucks, H. B. Schlegel, G. E. Scuseria, 
 M. A. Robb, J. R. Cheeseman, G. Scalmani, V. Barone, 
 G. A. Petersson, H. Nakatsuji, X. Li, M. Caricato, A. V. Marenich, 
 J. Bloino, B. G. Janesko, R. Gomperts, B. Mennucci, H. P. Hratchian, 
 J. V. Ortiz, A. F. Izmaylov, J. L. Sonnenberg, D. Williams-Young, 
 F. Ding, F. Lipparini, F. Egidi, J. Goings, B. Peng, A. Petrone, 
 T. Henderson, D. Ranasinghe, V. G. Zakrzewski, J. Gao, N. Rega, 
 G. Zheng, W. Liang, M. Hada, M. Ehara, K. Toyota, R. Fukuda, 
 J. Hasegawa, M. Ishida, T. Nakajima, Y. Honda, O. Kitao, H. Nakai, 
 T. Vreven, K. Throssell, J. A. Montgomery, Jr., J. E. Peralta, 
 F. Ogliaro, M. J. Bearpark, J. J. Heyd, E. N. Brothers, K. N. Kudin, 
 V. N. Staroverov, T. A. Keith, R. Kobayashi, J. Normand, 
 K. Raghavachari, A. P. Rendell, J. C. Burant, S. S. Iyengar, 
 J. Tomasi, M. Cossi, J. M. Millam, M. Klene, C. Adamo, R. Cammi, 
 J. W. Ochterski, R. L. Martin, K. Morokuma, O. Farkas, 
 J. B. Foresman, and D. J. Fox, Gaussian, Inc., Wallingford CT, 2016.
 
 ******************************************
 Gaussian 16:  ES64L-G16RevA.03 25-Dec-2016
                 5-Jun-2019 
 ******************************************
 %nprocshared=2
 Will use up to    2 processors via shared memory.
 %mem=2GB
 ----------------
 # b3lyp/6-31g(d)
 ----------------
 1/38=1,172=1/1;
 2/12=2,17=6,18=5,40=1/2;
 3/5=1,6=6,7=1,11=2,25=1,30=1,74=-5/1,2,3;
 4//1;
 5/5=2,38=5/2;
 6/7=2,8=2,9=2,10=2,28=1/1;
 99/5=1,9=1/99;
 --------------------
 tmpdir/M2_ref_15.gjf
 --------------------
 Symbolic Z-matrix:
 Charge =  0 Multiplicity = 1
 N                     2.3613    0.12633  -0.48885 
 H                     3.16244   0.74581  -0.35677 
 H                     2.60016  -0.75264   0.23654 
 H                     1.53123   0.60764  -0.12322 
 
                          Input orientation:                          
 ---------------------------------------------------------------------
 Center     Atomic      Atomic             Coordinates (Angstroms)
 Number     Number       Type             X           Y           Z
 ---------------------------------------------------------------------
      1          7           0        2.361301    0.126334   -0.488845
      2          1           0        3.162444    0.745811   -0.356766
      3          1           0        2.600158   -0.752639    0.236541
      4          1           0        1.531230    0.607638   -0.123222
 ---------------------------------------------------------------------
                    Distance matrix (angstroms):
                    1          2          3          4
     1  N    0.000000
     2  H    1.021287   0.000000
     3  H    1.164402   1.706907   0.000000
     4  H    1.026817   1.653631   1.767029   0.000000
 Stoichiometry    H3N
 Framework group  C1[X(H3N)]
 Deg. of freedom     6
 Full point group                 C1      NOp   1
 Largest Abelian subgroup         C1      NOp   1
 Largest concise Abelian subgroup C1      NOp   1
                         Standard orientation:                         
 ---------------------------------------------------------------------
 Center     Atomic      Atomic             Coordinates (Angstroms)
 Number     Number       Type             X           Y           Z
 ---------------------------------------------------------------------
      1          7           0       -0.027534    0.001502   -0.123011
      2          1           0       -0.181465    0.917134    0.302370
      3          1           0        1.047124   -0.265992    0.236697
      4          1           0       -0.672924   -0.661655    0.322012
 ---------------------------------------------------------------------
 Rotational constants (GHZ):         283.5715442         249.5493906         170.5346480
 Standard basis: 6-31G(d) (6D, 7F)
 There are    21 symmetry adapted cartesian basis functions of A   symmetry.
 There are    21 symmetry adapted basis functions of A   symmetry.
    21 basis functions,    40 primitive gaussians,    21 cartesian basis functions
     5 alpha electrons        5 beta electrons
       nuclear repulsion energy        11.3452746667 Hartrees.
 NAtoms=    4 NActive=    4 NUniq=    4 SFac= 1.00D+00 NAtFMM=   60 NAOKFM=F Big=F
 Integral buffers will be    131072 words long.
 Raffenetti 2 integral format.
 Two-electron integral symmetry is turned on.
 One-electron integrals computed using PRISM.
 NBasis=    21 RedAO= T EigKep=  2.46D-02  NBF=    21
 NBsUse=    21 1.00D-06 EigRej= -1.00D+00 NBFU=    21
 ExpMin= 1.61D-01 ExpMax= 4.17D+03 ExpMxC= 6.27D+02 IAcc=3 IRadAn=         5 AccDes= 0.00D+00
 Harris functional with IExCor=  402 and IRadAn=       5 diagonalized for initial guess.
 HarFok:  IExCor=  402 AccDes= 0.00D+00 IRadAn=         5 IDoV= 1 UseB2=F ITyADJ=14
 ICtDFT=  3500011 ScaDFX=  1.000000  1.000000  1.000000  1.000000
 FoFCou: FMM=F IPFlag=           0 FMFlag=      100000 FMFlg1=           0
         NFxFlg=           0 DoJE=T BraDBF=F KetDBF=T FulRan=T
         wScrn=  0.000000 ICntrl=       500 IOpCl=  0 I1Cent=   200000004 NGrid=           0
         NMat0=    1 NMatS0=      1 NMatT0=    0 NMatD0=    1 NMtDS0=    0 NMtDT0=    0
 Petite list used in FoFCou.
 Keep R1 ints in memory in canonical form, NReq=1750727.
 Requested convergence on RMS density matrix=1.00D-08 within 128 cycles.
 Requested convergence on MAX density matrix=1.00D-06.
 Requested convergence on             energy=1.00D-06.
 No special actions if energy rises.
 Integral accuracy reduced to 1.0D-05 until final iterations.
 Initial convergence to 1.0D-05 achieved.  Increase integral accuracy.
 SCF Done:  E(RB3LYP) =  -56.5353141974     A.U. after   10 cycles
            NFock= 10  Conv=0.20D-08     -V/T= 2.0123

 **********************************************************************

            Population analysis using the SCF density.

 **********************************************************************

 Orbital symmetries:
       Occupied  (A) (A) (A) (A) (A)
       Virtual   (A) (A) (A) (A) (A) (A) (A) (A) (A) (A) (A) (A)
                 (A) (A) (A) (A)
 The electronic state is 1-A.
 Alpha  occ. eigenvalues --  -14.32053  -0.82863  -0.45582  -0.42227  -0.25223
 Alpha virt. eigenvalues --    0.05906   0.13685   0.16707   0.68411   0.70042
 Alpha virt. eigenvalues --    0.72612   0.81962   0.90546   0.91163   1.14539
 Alpha virt. eigenvalues --    1.68410   1.68921   1.90665   2.27642   2.39723
 Alpha virt. eigenvalues --    3.64060
          Condensed to atoms (all electrons):
               1          2          3          4
     1  N    6.966289   0.301121   0.293915   0.302243
     2  H    0.301121   0.455737  -0.029097  -0.029622
     3  H    0.293915  -0.029097   0.501069  -0.023865
     4  H    0.302243  -0.029622  -0.023865   0.447517
 Mulliken charges:
               1
     1  N   -0.863568
     2  H    0.301861
     3  H    0.257979
     4  H    0.303728
 Sum of Mulliken charges =  -0.00000
 Mulliken charges with hydrogens summed into heavy atoms:
               1
     1  N   -0.000000
 Electronic spatial extent (au):  <R**2>=             27.5822
 Charge=              0.0000 electrons
 Dipole moment (field-independent basis, Debye):
    X=              0.1430    Y=              0.0240    Z=              1.8860  Tot=              1.8916
 Quadrupole moment (field-independent basis, Debye-Ang):
   XX=             -6.1025   YY=             -6.2672   ZZ=             -8.9061
   XY=              0.0932   XZ=             -0.1453   YZ=              0.0239
 Traceless Quadrupole moment (field-independent basis, Debye-Ang):
   XX=              0.9894   YY=              0.8247   ZZ=             -1.8141
   XY=              0.0932   XZ=             -0.1453   YZ=              0.0239
 Octapole moment (field-independent basis, Debye-Ang**2):
  XXX=              0.7397  YYY=              0.6958  ZZZ=              1.6007  XYY=             -0.5746
  XXY=             -0.6638  XXZ=              0.9006  XZZ=             -0.0783  YZZ=              0.0370
  YYZ=              0.8879  XYZ=              0.0426
 Hexadecapole moment (field-independent basis, Debye-Ang**3):
 XXXX=            -10.7494 YYYY=             -9.9297 ZZZZ=            -10.1138 XXXY=             -0.0049
 XXXZ=              0.1229 YYYX=              0.2304 YYYZ=              0.2663 ZZZX=             -0.2122
 ZZZY=              0.0373 XXYY=             -3.5804 XXZZ=             -3.6402 YYZZ=             -3.3416
 XXYZ=             -0.2539 YYXZ=             -0.2661 ZZXY=              0.0809
 N-N= 1.134527466669D+01 E-N=-1.544124990570D+02  KE= 5.584821840079D+01
 1\1\GINC-NODE97\SP\RB3LYP\6-31G(d)\H3N1\YANZ\05-Jun-2019\0\\# b3lyp/6-
 31g(d)\\tmpdir/M2_ref_15.gjf\\0,1\N,0,2.361301,0.126334,-0.488845\H,0,
 3.162444,0.745811,-0.356766\H,0,2.60015847,-0.75263917,0.23654067\H,0,
 1.53122974,0.60763832,-0.12322171\\Version=ES64L-G16RevA.03\State=1-A\
 HF=-56.5353142\RMSD=1.989e-09\Dipole=0.097491,0.2342695,0.6996222\Quad
 rupole=0.6664987,0.4570568,-1.1235555,-0.1541787,-0.1613621,-0.6142919
 \PG=C01 [X(H3N1)]\\@


 THE HURRIEDER I GO, THE BEHINDER I GET.
 Job cpu time:       0 days  0 hours  0 minutes  3.1 seconds.
 Elapsed time:       0 days  0 hours  0 minutes  1.6 seconds.
 File lengths (MBytes):  RWF=      6 Int=      0 D2E=      0 Chk=      1 Scr=      1
 Normal termination of Gaussian 16 at Wed Jun  5 15:18:19 2019.
