 Entering Gaussian System, Link 0=g16
 Initial command:
 /share/apps/gaussian/g16/l1.exe "/tmp/55435.mgr/Gau-243686.inp" -scrdir="/tmp/55435.mgr/"
 Entering Link 1 = /share/apps/gaussian/g16/l1.exe PID=    243687.
  
 Copyright (c) 1988,1990,1992,1993,1995,1998,2003,2009,2016,
            Gaussian, Inc.  All Rights Reserved.
  
 This is part of the Gaussian(R) 16 program.  It is based on
 the Gaussian(R) 09 system (copyright 2009, Gaussian, Inc.),
 the Gaussian(R) 03 system (copyright 2003, Gaussian, Inc.),
 the Gaussian(R) 98 system (copyright 1998, Gaussian, Inc.),
 the Gaussian(R) 94 system (copyright 1995, Gaussian, Inc.),
 the Gaussian 92(TM) system (copyright 1992, Gaussian, Inc.),
 the Gaussian 90(TM) system (copyright 1990, Gaussian, Inc.),
 the Gaussian 88(TM) system (copyright 1988, Gaussian, Inc.),
 the Gaussian 86(TM) system (copyright 1986, Carnegie Mellon
 University), and the Gaussian 82(TM) system (copyright 1983,
 Carnegie Mellon University). Gaussian is a federally registered
 trademark of Gaussian, Inc.
  
 This software contains proprietary and confidential information,
 including trade secrets, belonging to Gaussian, Inc.
  
 This software is provided under written license and may be
 used, copied, transmitted, or stored only in accord with that
 written license.
  
 The following legend is applicable only to US Government
 contracts under FAR:
  
                    RESTRICTED RIGHTS LEGEND
  
 Use, reproduction and disclosure by the US Government is
 subject to restrictions as set forth in subparagraphs (a)
 and (c) of the Commercial Computer Software - Restricted
 Rights clause in FAR 52.227-19.
  
 Gaussian, Inc.
 340 Quinnipiac St., Bldg. 40, Wallingford CT 06492
  
  
 ---------------------------------------------------------------
 Warning -- This program may not be used in any manner that
 competes with the business of Gaussian, Inc. or will provide
 assistance to any competitor of Gaussian, Inc.  The licensee
 of this program is prohibited from giving any competitor of
 Gaussian, Inc. access to this program.  By using this program,
 the user acknowledges that Gaussian, Inc. is engaged in the
 business of creating and licensing software in the field of
 computational chemistry and represents and warrants to the
 licensee that it is not a competitor of Gaussian, Inc. and that
 it will not use this program in any manner prohibited above.
 ---------------------------------------------------------------
  

 Cite this work as:
 Gaussian 16, Revision A.03,
 M. J. Frisch, G. W. Trucks, H. B. Schlegel, G. E. Scuseria, 
 M. A. Robb, J. R. Cheeseman, G. Scalmani, V. Barone, 
 G. A. Petersson, H. Nakatsuji, X. Li, M. Caricato, A. V. Marenich, 
 J. Bloino, B. G. Janesko, R. Gomperts, B. Mennucci, H. P. Hratchian, 
 J. V. Ortiz, A. F. Izmaylov, J. L. Sonnenberg, D. Williams-Young, 
 F. Ding, F. Lipparini, F. Egidi, J. Goings, B. Peng, A. Petrone, 
 T. Henderson, D. Ranasinghe, V. G. Zakrzewski, J. Gao, N. Rega, 
 G. Zheng, W. Liang, M. Hada, M. Ehara, K. Toyota, R. Fukuda, 
 J. Hasegawa, M. Ishida, T. Nakajima, Y. Honda, O. Kitao, H. Nakai, 
 T. Vreven, K. Throssell, J. A. Montgomery, Jr., J. E. Peralta, 
 F. Ogliaro, M. J. Bearpark, J. J. Heyd, E. N. Brothers, K. N. Kudin, 
 V. N. Staroverov, T. A. Keith, R. Kobayashi, J. Normand, 
 K. Raghavachari, A. P. Rendell, J. C. Burant, S. S. Iyengar, 
 J. Tomasi, M. Cossi, J. M. Millam, M. Klene, C. Adamo, R. Cammi, 
 J. W. Ochterski, R. L. Martin, K. Morokuma, O. Farkas, 
 J. B. Foresman, and D. J. Fox, Gaussian, Inc., Wallingford CT, 2016.
 
 ******************************************
 Gaussian 16:  ES64L-G16RevA.03 25-Dec-2016
                 5-Jun-2019 
 ******************************************
 %nprocshared=2
 Will use up to    2 processors via shared memory.
 %mem=2GB
 ----------------
 # b3lyp/6-31g(d)
 ----------------
 1/38=1,172=1/1;
 2/12=2,17=6,18=5,40=1/2;
 3/5=1,6=6,7=1,11=2,25=1,30=1,74=-5/1,2,3;
 4//1;
 5/5=2,38=5/2;
 6/7=2,8=2,9=2,10=2,28=1/1;
 99/5=1,9=1/99;
 --------------------
 tmpdir/M2_ref_33.gjf
 --------------------
 Symbolic Z-matrix:
 Charge =  0 Multiplicity = 1
 C                    -1.35441   0.7147    0.303 
 C                    -0.09371   0.00656  -0.23322 
 C                     1.1758    0.81373   0.03333 
 H                    -2.24303   0.16419   0.13109 
 H                    -1.24209   0.89544   1.38155 
 H                    -1.44664   1.70669  -0.16249 
 H                    -0.19481  -0.16538  -1.31101 
 H                     0.00093  -0.97452   0.24421 
 H                     2.10762   0.27343  -0.3771 
 H                     1.1315    1.77818  -0.49221 
 H                     1.27141   1.02376   1.11168 
 
                          Input orientation:                          
 ---------------------------------------------------------------------
 Center     Atomic      Atomic             Coordinates (Angstroms)
 Number     Number       Type             X           Y           Z
 ---------------------------------------------------------------------
      1          6           0       -1.354410    0.714704    0.303001
      2          6           0       -0.093708    0.006563   -0.233217
      3          6           0        1.175805    0.813726    0.033333
      4          1           0       -2.243029    0.164187    0.131093
      5          1           0       -1.242090    0.895439    1.381546
      6          1           0       -1.446643    1.706693   -0.162488
      7          1           0       -0.194808   -0.165380   -1.311007
      8          1           0        0.000930   -0.974522    0.244205
      9          1           0        2.107618    0.273428   -0.377105
     10          1           0        1.131503    1.778183   -0.492214
     11          1           0        1.271413    1.023758    1.111676
 ---------------------------------------------------------------------
                    Distance matrix (angstroms):
                    1          2          3          4          5
     1  C    0.000000
     2  C    1.542194   0.000000
     3  C    2.546471   1.527817   0.000000
     4  H    1.059370   2.185669   3.481363   0.000000
     5  H    1.099336   2.171714   2.769580   1.760751   0.000000
     6  H    1.099650   2.173908   2.777223   1.760609   1.756137
     7  H    2.173533   1.096092   2.155105   2.526554   3.077658
     8  H    2.166538   1.095178   2.150030   2.518890   2.517022
     9  H    3.555686   2.222106   1.152673   4.381590   3.834096
    10  H    2.818354   2.169530   1.099245   3.792224   3.150263
    11  H    2.764854   2.169557   1.102759   3.748561   2.531204
                    6          7          8          9         10
     6  H    0.000000
     7  H    2.528012   0.000000
     8  H    3.074050   1.764004   0.000000
     9  H    3.838369   2.523072   2.526171   0.000000
    10  H    2.600128   2.491377   3.065598   1.797314   0.000000
    11  H    3.078591   3.071359   2.521856   1.865128   1.777975
                   11
    11  H    0.000000
 Stoichiometry    C3H8
 Framework group  C1[X(C3H8)]
 Deg. of freedom    27
 Full point group                 C1      NOp   1
 Largest Abelian subgroup         C1      NOp   1
 Largest concise Abelian subgroup C1      NOp   1
                         Standard orientation:                         
 ---------------------------------------------------------------------
 Center     Atomic      Atomic             Coordinates (Angstroms)
 Number     Number       Type             X           Y           Z
 ---------------------------------------------------------------------
      1          6           0       -1.282747   -0.247945    0.004869
      2          6           0        0.007489    0.596780   -0.004881
      3          6           0        1.263577   -0.272969   -0.006173
      4          1           0       -2.163180    0.341188   -0.000263
      5          1           0       -1.288693   -0.917451   -0.867063
      6          1           0       -1.289114   -0.901775    0.889004
      7          1           0        0.024773    1.257890    0.869219
      8          1           0        0.015231    1.235319   -0.894614
      9          1           0        2.218287    0.372923   -0.008973
     10          1           0        1.310779   -0.875491    0.912021
     11          1           0        1.242005   -0.967800   -0.862224
 ---------------------------------------------------------------------
 Rotational constants (GHZ):          29.0686259           8.4331727           7.4438848
 Standard basis: 6-31G(d) (6D, 7F)
 There are    61 symmetry adapted cartesian basis functions of A   symmetry.
 There are    61 symmetry adapted basis functions of A   symmetry.
    61 basis functions,   116 primitive gaussians,    61 cartesian basis functions
    13 alpha electrons       13 beta electrons
       nuclear repulsion energy        82.2479246846 Hartrees.
 NAtoms=   11 NActive=   11 NUniq=   11 SFac= 1.00D+00 NAtFMM=   60 NAOKFM=F Big=F
 Integral buffers will be    131072 words long.
 Raffenetti 2 integral format.
 Two-electron integral symmetry is turned on.
 One-electron integrals computed using PRISM.
 NBasis=    61 RedAO= T EigKep=  6.27D-03  NBF=    61
 NBsUse=    61 1.00D-06 EigRej= -1.00D+00 NBFU=    61
 ExpMin= 1.61D-01 ExpMax= 3.05D+03 ExpMxC= 4.57D+02 IAcc=3 IRadAn=         5 AccDes= 0.00D+00
 Harris functional with IExCor=  402 and IRadAn=       5 diagonalized for initial guess.
 HarFok:  IExCor=  402 AccDes= 0.00D+00 IRadAn=         5 IDoV= 1 UseB2=F ITyADJ=14
 ICtDFT=  3500011 ScaDFX=  1.000000  1.000000  1.000000  1.000000
 FoFCou: FMM=F IPFlag=           0 FMFlag=      100000 FMFlg1=           0
         NFxFlg=           0 DoJE=T BraDBF=F KetDBF=T FulRan=T
         wScrn=  0.000000 ICntrl=       500 IOpCl=  0 I1Cent=   200000004 NGrid=           0
         NMat0=    1 NMatS0=      1 NMatT0=    0 NMatD0=    1 NMtDS0=    0 NMtDT0=    0
 Petite list used in FoFCou.
 Keep R1 ints in memory in canonical form, NReq=3557582.
 Requested convergence on RMS density matrix=1.00D-08 within 128 cycles.
 Requested convergence on MAX density matrix=1.00D-06.
 Requested convergence on             energy=1.00D-06.
 No special actions if energy rises.
 Integral accuracy reduced to 1.0D-05 until final iterations.
 Initial convergence to 1.0D-05 achieved.  Increase integral accuracy.
 SCF Done:  E(RB3LYP) =  -119.140770673     A.U. after   11 cycles
            NFock= 11  Conv=0.41D-08     -V/T= 2.0109

 **********************************************************************

            Population analysis using the SCF density.

 **********************************************************************

 Orbital symmetries:
       Occupied  (A) (A) (A) (A) (A) (A) (A) (A) (A) (A) (A) (A)
                 (A)
       Virtual   (A) (A) (A) (A) (A) (A) (A) (A) (A) (A) (A) (A)
                 (A) (A) (A) (A) (A) (A) (A) (A) (A) (A) (A) (A)
                 (A) (A) (A) (A) (A) (A) (A) (A) (A) (A) (A) (A)
                 (A) (A) (A) (A) (A) (A) (A) (A) (A) (A) (A) (A)
 The electronic state is 1-A.
 Alpha  occ. eigenvalues --  -10.17771 -10.17625 -10.16771  -0.77430  -0.67374
 Alpha  occ. eigenvalues --   -0.57931  -0.45291  -0.43240  -0.39226  -0.37421
 Alpha  occ. eigenvalues --   -0.33609  -0.32938  -0.32421
 Alpha virt. eigenvalues --    0.09361   0.14534   0.14678   0.15302   0.16703
 Alpha virt. eigenvalues --    0.19155   0.19547   0.19877   0.22608   0.26457
 Alpha virt. eigenvalues --    0.51534   0.51993   0.55127   0.55738   0.58038
 Alpha virt. eigenvalues --    0.66683   0.69853   0.73210   0.79395   0.86567
 Alpha virt. eigenvalues --    0.87260   0.89733   0.91387   0.92502   0.95449
 Alpha virt. eigenvalues --    0.96149   0.99284   1.03435   1.40061   1.45970
 Alpha virt. eigenvalues --    1.47921   1.55749   1.74288   1.91580   1.91935
 Alpha virt. eigenvalues --    1.97506   2.05241   2.08281   2.22988   2.23708
 Alpha virt. eigenvalues --    2.32999   2.36980   2.41859   2.56571   2.67346
 Alpha virt. eigenvalues --    4.13532   4.27672   4.45885
          Condensed to atoms (all electrons):
               1          2          3          4          5          6
     1  C    5.055044   0.383166  -0.051321   0.378088   0.377693   0.377689
     2  C    0.383166   4.916762   0.382881  -0.027305  -0.036589  -0.036833
     3  C   -0.051321   0.382881   5.060395   0.004557  -0.004600  -0.003949
     4  H    0.378088  -0.027305   0.004557   0.559980  -0.030436  -0.030521
     5  H    0.377693  -0.036589  -0.004600  -0.030436   0.583618  -0.034228
     6  H    0.377689  -0.036833  -0.003949  -0.030521  -0.034228   0.583554
     7  H   -0.038636   0.381289  -0.039565  -0.002360   0.005309  -0.004546
     8  H   -0.039813   0.382157  -0.040850  -0.002470  -0.004553   0.005389
     9  H    0.004451  -0.029001   0.367554  -0.000163  -0.000019  -0.000045
    10  H   -0.004300  -0.037101   0.375721  -0.000022  -0.000377   0.005174
    11  H   -0.004453  -0.038225   0.376855  -0.000012   0.005851  -0.000430
               7          8          9         10         11
     1  C   -0.038636  -0.039813   0.004451  -0.004300  -0.004453
     2  C    0.381289   0.382157  -0.029001  -0.037101  -0.038225
     3  C   -0.039565  -0.040850   0.367554   0.375721   0.376855
     4  H   -0.002360  -0.002470  -0.000163  -0.000022  -0.000012
     5  H    0.005309  -0.004553  -0.000019  -0.000377   0.005851
     6  H   -0.004546   0.005389  -0.000045   0.005174  -0.000430
     7  H    0.605417  -0.038401  -0.002186  -0.005234   0.005445
     8  H   -0.038401   0.606498  -0.003247   0.005580  -0.004467
     9  H   -0.002186  -0.003247   0.591634  -0.032365  -0.024921
    10  H   -0.005234   0.005580  -0.032365   0.585027  -0.033621
    11  H    0.005445  -0.004467  -0.024921  -0.033621   0.576707
 Mulliken charges:
               1
     1  C   -0.437608
     2  C   -0.241199
     3  C   -0.427679
     4  H    0.150664
     5  H    0.138331
     6  H    0.138747
     7  H    0.133468
     8  H    0.134177
     9  H    0.128310
    10  H    0.141518
    11  H    0.141270
 Sum of Mulliken charges =  -0.00000
 Mulliken charges with hydrogens summed into heavy atoms:
               1
     1  C   -0.009866
     2  C    0.026446
     3  C   -0.016580
 Electronic spatial extent (au):  <R**2>=            226.7377
 Charge=             -0.0000 electrons
 Dipole moment (field-independent basis, Debye):
    X=             -0.0675    Y=              0.0433    Z=              0.0206  Tot=              0.0828
 Quadrupole moment (field-independent basis, Debye-Ang):
   XX=            -21.9961   YY=            -21.6073   ZZ=            -21.2763
   XY=             -0.0083   XZ=              0.1040   YZ=              0.0609
 Traceless Quadrupole moment (field-independent basis, Debye-Ang):
   XX=             -0.3695   YY=              0.0193   ZZ=              0.3503
   XY=             -0.0083   XZ=              0.1040   YZ=              0.0609
 Octapole moment (field-independent basis, Debye-Ang**2):
  XXX=             -0.9987  YYY=              0.0936  ZZZ=              0.0802  XYY=             -0.1228
  XXY=              1.5592  XXZ=              0.2402  XZZ=             -0.1137  YZZ=             -0.4162
  YYZ=             -0.0726  XYZ=              0.0285
 Hexadecapole moment (field-independent basis, Debye-Ang**3):
 XXXX=           -199.2369 YYYY=            -69.9074 ZZZZ=            -42.6044 XXXY=              0.0604
 XXXZ=              0.5805 YYYX=             -0.1190 YYYZ=              0.2456 ZZZX=              0.1980
 ZZZY=             -0.0127 XXYY=            -44.7918 XXZZ=            -41.4410 YYZZ=            -16.9320
 XXYZ=             -0.0183 YYXZ=             -0.0352 ZZXY=             -0.0961
 N-N= 8.224792468463D+01 E-N=-4.390490007623D+02  KE= 1.178584334623D+02
 1\1\GINC-NODE97\SP\RB3LYP\6-31G(d)\C3H8\YANZ\05-Jun-2019\0\\# b3lyp/6-
 31g(d)\\tmpdir/M2_ref_33.gjf\\0,1\C,0,-1.35441,0.714704,0.303001\C,0,-
 0.093708,0.006563,-0.233217\C,0,1.175805,0.813726,0.033333\H,0,-2.2430
 2929,0.16418725,0.13109255\H,0,-1.24209,0.895439,1.381546\H,0,-1.44664
 3,1.706693,-0.162488\H,0,-0.194808,-0.16538,-1.311007\H,0,0.00093,-0.9
 74522,0.244205\H,0,2.1076179,0.27342833,-0.37710465\H,0,1.131503,1.778
 183,-0.492214\H,0,1.271413,1.023758,1.111676\\Version=ES64L-G16RevA.03
 \State=1-A\HF=-119.1407707\RMSD=4.058e-09\Dipole=-0.0277293,-0.0120847
 ,-0.0120939\Quadrupole=-0.2845926,0.0334925,0.2511001,0.0226238,-0.002
 0283,-0.0820149\PG=C01 [X(C3H8)]\\@


 KEEP CLOSE TO NATURES HEART, YOURSELF;
 AND BREAK CLEAR AWAY, ONCE IN A WHILE, AND
 CLIMB A MOUNTAIN OR SPEND A WEEK IN THE
 WOODS.  WASH YOUR SPIRIT CLEAN...
                                         -- JOHN MUIR
 Job cpu time:       0 days  0 hours  0 minutes 13.6 seconds.
 Elapsed time:       0 days  0 hours  0 minutes  6.9 seconds.
 File lengths (MBytes):  RWF=      6 Int=      0 D2E=      0 Chk=      1 Scr=      1
 Normal termination of Gaussian 16 at Wed Jun  5 15:18:29 2019.
