 Entering Gaussian System, Link 0=g16
 Initial command:
 /share/apps/gaussian/g16/l1.exe "/tmp/55555.mgr/Gau-401221.inp" -scrdir="/tmp/55555.mgr/"
 Entering Link 1 = /share/apps/gaussian/g16/l1.exe PID=    401222.
  
 Copyright (c) 1988,1990,1992,1993,1995,1998,2003,2009,2016,
            Gaussian, Inc.  All Rights Reserved.
  
 This is part of the Gaussian(R) 16 program.  It is based on
 the Gaussian(R) 09 system (copyright 2009, Gaussian, Inc.),
 the Gaussian(R) 03 system (copyright 2003, Gaussian, Inc.),
 the Gaussian(R) 98 system (copyright 1998, Gaussian, Inc.),
 the Gaussian(R) 94 system (copyright 1995, Gaussian, Inc.),
 the Gaussian 92(TM) system (copyright 1992, Gaussian, Inc.),
 the Gaussian 90(TM) system (copyright 1990, Gaussian, Inc.),
 the Gaussian 88(TM) system (copyright 1988, Gaussian, Inc.),
 the Gaussian 86(TM) system (copyright 1986, Carnegie Mellon
 University), and the Gaussian 82(TM) system (copyright 1983,
 Carnegie Mellon University). Gaussian is a federally registered
 trademark of Gaussian, Inc.
  
 This software contains proprietary and confidential information,
 including trade secrets, belonging to Gaussian, Inc.
  
 This software is provided under written license and may be
 used, copied, transmitted, or stored only in accord with that
 written license.
  
 The following legend is applicable only to US Government
 contracts under FAR:
  
                    RESTRICTED RIGHTS LEGEND
  
 Use, reproduction and disclosure by the US Government is
 subject to restrictions as set forth in subparagraphs (a)
 and (c) of the Commercial Computer Software - Restricted
 Rights clause in FAR 52.227-19.
  
 Gaussian, Inc.
 340 Quinnipiac St., Bldg. 40, Wallingford CT 06492
  
  
 ---------------------------------------------------------------
 Warning -- This program may not be used in any manner that
 competes with the business of Gaussian, Inc. or will provide
 assistance to any competitor of Gaussian, Inc.  The licensee
 of this program is prohibited from giving any competitor of
 Gaussian, Inc. access to this program.  By using this program,
 the user acknowledges that Gaussian, Inc. is engaged in the
 business of creating and licensing software in the field of
 computational chemistry and represents and warrants to the
 licensee that it is not a competitor of Gaussian, Inc. and that
 it will not use this program in any manner prohibited above.
 ---------------------------------------------------------------
  

 Cite this work as:
 Gaussian 16, Revision A.03,
 M. J. Frisch, G. W. Trucks, H. B. Schlegel, G. E. Scuseria, 
 M. A. Robb, J. R. Cheeseman, G. Scalmani, V. Barone, 
 G. A. Petersson, H. Nakatsuji, X. Li, M. Caricato, A. V. Marenich, 
 J. Bloino, B. G. Janesko, R. Gomperts, B. Mennucci, H. P. Hratchian, 
 J. V. Ortiz, A. F. Izmaylov, J. L. Sonnenberg, D. Williams-Young, 
 F. Ding, F. Lipparini, F. Egidi, J. Goings, B. Peng, A. Petrone, 
 T. Henderson, D. Ranasinghe, V. G. Zakrzewski, J. Gao, N. Rega, 
 G. Zheng, W. Liang, M. Hada, M. Ehara, K. Toyota, R. Fukuda, 
 J. Hasegawa, M. Ishida, T. Nakajima, Y. Honda, O. Kitao, H. Nakai, 
 T. Vreven, K. Throssell, J. A. Montgomery, Jr., J. E. Peralta, 
 F. Ogliaro, M. J. Bearpark, J. J. Heyd, E. N. Brothers, K. N. Kudin, 
 V. N. Staroverov, T. A. Keith, R. Kobayashi, J. Normand, 
 K. Raghavachari, A. P. Rendell, J. C. Burant, S. S. Iyengar, 
 J. Tomasi, M. Cossi, J. M. Millam, M. Klene, C. Adamo, R. Cammi, 
 J. W. Ochterski, R. L. Martin, K. Morokuma, O. Farkas, 
 J. B. Foresman, and D. J. Fox, Gaussian, Inc., Wallingford CT, 2016.
 
 ******************************************
 Gaussian 16:  ES64L-G16RevA.03 25-Dec-2016
                22-Sep-2023 
 ******************************************
 %nprocshared=8
 Will use up to    8 processors via shared memory.
 %mem=8GB
 ----------------------------------------------------------------------
 #p b3lyp/gen scrf=(cpcm,solvent=toluene) pop=hirshfeld empiricaldisper
 sion=gd3bj
 ----------------------------------------------------------------------
 1/38=1,172=1/1;
 2/12=2,17=6,18=5,40=1/2;
 3/5=7,11=2,25=1,30=1,70=2101,72=13,74=-5,124=41/1,2,3;
 4//1;
 5/5=2,38=5,53=13/2;
 6/7=2,8=2,9=2,10=2,28=1,79=1/1;
 99/5=1,9=1/99;
 Leave Link    1 at Fri Sep 22 16:26:50 2023, MaxMem=  1073741824 cpu:               0.4 elap:               0.1
 (Enter /share/apps/gaussian/g16/l101.exe)
 ----------------------
 tmpdir/M1_conf_0_4.gjf
 ----------------------
 Symbolic Z-matrix:
 Charge =  0 Multiplicity = 1
 C                    -4.11756   3.85276   0.63711 
 H                    -4.93014   3.13043   0.7874 
 H                    -4.38294   4.4225   -0.26104 
 H                    -4.03928   4.55117   1.48847 
 H                    -3.17943   3.27919   0.44778 
 
 ITRead=  0  0  0  0  0
 MicOpt= -1 -1 -1 -1 -1
 NAtoms=      5 NQM=        5 NQMF=       0 NMMI=      0 NMMIF=      0
                NMic=       0 NMicF=      0.
                    Isotopes and Nuclear Properties:
 (Nuclear quadrupole moments (NQMom) in fm**2, nuclear magnetic moments (NMagM)
  in nuclear magnetons)

  Atom         1           2           3           4           5
 IAtWgt=          12           1           1           1           1
 AtmWgt=  12.0000000   1.0078250   1.0078250   1.0078250   1.0078250
 NucSpn=           0           1           1           1           1
 AtZEff=  -0.0000000  -0.0000000  -0.0000000  -0.0000000  -0.0000000
 NQMom=    0.0000000   0.0000000   0.0000000   0.0000000   0.0000000
 NMagM=    0.0000000   2.7928460   2.7928460   2.7928460   2.7928460
 AtZNuc=   6.0000000   1.0000000   1.0000000   1.0000000   1.0000000
 Leave Link  101 at Fri Sep 22 16:26:50 2023, MaxMem=  1073741824 cpu:               0.6 elap:               0.1
 (Enter /share/apps/gaussian/g16/l202.exe)
                          Input orientation:                          
 ---------------------------------------------------------------------
 Center     Atomic      Atomic             Coordinates (Angstroms)
 Number     Number       Type             X           Y           Z
 ---------------------------------------------------------------------
      1          6           0       -4.117558    3.852761    0.637107
      2          1           0       -4.930142    3.130427    0.787401
      3          1           0       -4.382942    4.422500   -0.261037
      4          1           0       -4.039277    4.551168    1.488472
      5          1           0       -3.179429    3.279193    0.447783
 ---------------------------------------------------------------------
                    Distance matrix (angstroms):
                    1          2          3          4          5
     1  C    0.000000
     2  H    1.097564   0.000000
     3  H    1.096218   1.751600   0.000000
     4  H    1.103958   1.817594   1.787580   0.000000
     5  H    1.115755   1.789544   1.804999   1.854802   0.000000
 Stoichiometry    CH4
 Framework group  C1[X(CH4)]
 Deg. of freedom     9
 Full point group                 C1      NOp   1
 Largest Abelian subgroup         C1      NOp   1
 Largest concise Abelian subgroup C1      NOp   1
                         Standard orientation:                         
 ---------------------------------------------------------------------
 Center     Atomic      Atomic             Coordinates (Angstroms)
 Number     Number       Type             X           Y           Z
 ---------------------------------------------------------------------
      1          6           0       -0.004306   -0.009626   -0.002832
      2          1           0        0.251232    0.703595   -0.796975
      3          1           0       -0.134598    0.586873    0.907611
      4          1           0       -0.952094   -0.531439   -0.222220
      5          1           0        0.861298   -0.701270    0.128574
 ---------------------------------------------------------------------
 Rotational constants (GHZ):         159.7249883         154.0733932         149.9429706
 Leave Link  202 at Fri Sep 22 16:26:50 2023, MaxMem=  1073741824 cpu:               0.1 elap:               0.0
 (Enter /share/apps/gaussian/g16/l301.exe)
 General basis read from cards:  (5D, 7F)
 Centers:       2      3      4      5
 S 3 1.00
     Exponent=  1.2251800000D+01 Coefficients=  2.3337100000D-02
     Exponent=  1.8687100000D+00 Coefficients=  1.5915000000D-01
     Exponent=  4.1820800000D-01 Coefficients=  5.0000000000D-01
 S 1 1.00
     Exponent=  1.0610000000D-01 Coefficients=  1.0000000000D+00
 P 1 1.00
     Exponent=  1.0000000000D+00 Coefficients=  1.0000000000D+00
 ****
 Centers:       1
 S 5 1.00
     Exponent=  1.2432000000D+03 Coefficients=  6.0336600000D-03
     Exponent=  1.8714500000D+02 Coefficients=  4.4957600000D-02
     Exponent=  4.2512600000D+01 Coefficients=  1.9790100000D-01
     Exponent=  1.1739300000D+01 Coefficients=  5.0000000000D-01
     Exponent=  3.5054800000D+00 Coefficients=  4.8036400000D-01
 S 2 1.00
     Exponent=  5.3908900000D+00 Coefficients= -7.0398000000D-02
     Exponent=  4.9334100000D-01 Coefficients=  5.0000000000D-01
 S 1 1.00
     Exponent=  1.4974100000D-01 Coefficients=  1.0000000000D+00
 P 3 1.00
     Exponent=  9.1805600000D+00 Coefficients=  4.3170100000D-02
     Exponent=  1.9365800000D+00 Coefficients=  2.2499900000D-01
     Exponent=  5.2629600000D-01 Coefficients=  5.0000000000D-01
 P 1 1.00
     Exponent=  1.3631900000D-01 Coefficients=  1.0000000000D+00
 D 1 1.00
     Exponent=  8.0000000000D-01 Coefficients=  1.0000000000D+00
 ****
 Ernie: Thresh=  0.10000D-02 Tol=  0.10000D-05 Strict=F.
 There are    35 symmetry adapted cartesian basis functions of A   symmetry.
 There are    34 symmetry adapted basis functions of A   symmetry.
    34 basis functions,    54 primitive gaussians,    35 cartesian basis functions
     5 alpha electrons        5 beta electrons
       nuclear repulsion energy        13.2744047642 Hartrees.
 IExCor=  402 DFT=T Ex+Corr=B3LYP ExCW=0 ScaHFX=  0.200000
 ScaDFX=  0.800000  0.720000  1.000000  0.810000 ScalE2=  1.000000  1.000000
 IRadAn=      5 IRanWt=     -1 IRanGd=            0 ICorTp=0 IEmpDi=141
 NAtoms=    5 NActive=    5 NUniq=    5 SFac= 1.00D+00 NAtFMM=   60 NAOKFM=F Big=F
 Integral buffers will be    131072 words long.
 Raffenetti 2 integral format.
 Two-electron integral symmetry is turned on.
 R6Disp:  Grimme-D3(BJ) Dispersion energy=       -0.0019123835 Hartrees.
 Nuclear repulsion after empirical dispersion term =       13.2724923807 Hartrees.
 ------------------------------------------------------------------------------
 Polarizable Continuum Model (PCM)
 =================================
 Model                : C-PCM.
 Atomic radii         : UFF (Universal Force Field).
 Polarization charges : Total charges.
 Charge compensation  : None.
 Solution method      : On-the-fly selection.
 Cavity type          : Scaled VdW (van der Waals Surface) (Alpha=1.100).
 Cavity algorithm     : GePol (No added spheres)
                        Default sphere list used, NSphG=    5.
                        Lebedev-Laikov grids with approx.  5.0 points / Ang**2.
                        Smoothing algorithm: York/Karplus (Gamma=1.0000).
                        Polarization charges: spherical gaussians, with
                                              point-specific exponents (IZeta= 3).
                        Self-potential: point-specific (ISelfS= 7).
                        Self-field    : sphere-specific E.n sum rule (ISelfD= 2).
 Solvent              : Toluene, Eps=   2.374100 Eps(inf)=   2.238315
 ------------------------------------------------------------------------------
 Spheres list:
 ISph  on   Nord     Re0    Alpha      Xe            Ye            Ze
    1   C      1    1.9255  1.100     -0.004306     -0.009626     -0.002832
    2   H      2    1.4430  1.100      0.251232      0.703595     -0.796975
    3   H      3    1.4430  1.100     -0.134598      0.586873      0.907611
    4   H      4    1.4430  1.100     -0.952094     -0.531439     -0.222220
    5   H      5    1.4430  1.100      0.861298     -0.701270      0.128574
 ------------------------------------------------------------------------------
 GePol: Number of generator spheres                  =       5
 GePol: Total number of spheres                      =       5
 GePol: Number of exposed spheres                    =       5 (100.00%)
 GePol: Number of points                             =     499
 GePol: Average weight of points                     =       0.14
 GePol: Minimum weight of points                     =   0.18D-08
 GePol: Maximum weight of points                     =    0.20577
 GePol: Number of points with low weight             =      21
 GePol: Fraction of low-weight points (<1% of avg)   =       4.21%
 GePol: Cavity surface area                          =     70.122 Ang**2
 GePol: Cavity volume                                =     51.759 Ang**3
 Leave Link  301 at Fri Sep 22 16:26:50 2023, MaxMem=  1073741824 cpu:               0.8 elap:               0.1
 (Enter /share/apps/gaussian/g16/l302.exe)
 NPDir=0 NMtPBC=     1 NCelOv=     1 NCel=       1 NClECP=     1 NCelD=      1
         NCelK=      1 NCelE2=     1 NClLst=     1 CellRange=     0.0.
 One-electron integrals computed using PRISM.
 One-electron integral symmetry used in STVInt
 NBasis=    34 RedAO= T EigKep=  2.86D-02  NBF=    34
 NBsUse=    34 1.00D-06 EigRej= -1.00D+00 NBFU=    34
 Precomputing XC quadrature grid using
 IXCGrd= 4 IRadAn=           5 IRanWt=          -1 IRanGd=           0 AccXCQ= 0.00D+00.
 Generated NRdTot=       0 NPtTot=           0 NUsed=           0 NTot=          32
 NSgBfM=    35    35    35    35    35 MxSgAt=     5 MxSgA2=     5.
 Leave Link  302 at Fri Sep 22 16:26:50 2023, MaxMem=  1073741824 cpu:               0.8 elap:               0.1
 (Enter /share/apps/gaussian/g16/l303.exe)
 DipDrv:  MaxL=1.
 Leave Link  303 at Fri Sep 22 16:26:50 2023, MaxMem=  1073741824 cpu:               0.2 elap:               0.0
 (Enter /share/apps/gaussian/g16/l401.exe)
 ExpMin= 1.06D-01 ExpMax= 1.24D+03 ExpMxC= 1.87D+02 IAcc=3 IRadAn=         5 AccDes= 0.00D+00
 Harris functional with IExCor=  402 and IRadAn=       5 diagonalized for initial guess.
 HarFok:  IExCor=  402 AccDes= 0.00D+00 IRadAn=         5 IDoV= 1 UseB2=F ITyADJ=14
 ICtDFT=  3500011 ScaDFX=  1.000000  1.000000  1.000000  1.000000
 FoFCou: FMM=F IPFlag=           0 FMFlag=      100000 FMFlg1=           0
         NFxFlg=           0 DoJE=T BraDBF=F KetDBF=T FulRan=T
         wScrn=  0.000000 ICntrl=       500 IOpCl=  0 I1Cent=   200000004 NGrid=           0
         NMat0=    1 NMatS0=      1 NMatT0=    0 NMatD0=    1 NMtDS0=    0 NMtDT0=    0
 Petite list used in FoFCou.
 Harris En= -40.5492608099025    
 JPrj=0 DoOrth=F DoCkMO=F.
 Leave Link  401 at Fri Sep 22 16:26:50 2023, MaxMem=  1073741824 cpu:               1.3 elap:               0.2
 (Enter /share/apps/gaussian/g16/l502.exe)
 Keep R1 ints in memory in canonical form, NReq=7079445.
 FoFCou: FMM=F IPFlag=           0 FMFlag=           0 FMFlg1=           0
         NFxFlg=           0 DoJE=F BraDBF=F KetDBF=F FulRan=T
         wScrn=  0.000000 ICntrl=       600 IOpCl=  0 I1Cent=           0 NGrid=           0
         NMat0=    1 NMatS0=    595 NMatT0=    0 NMatD0=    1 NMtDS0=    0 NMtDT0=    0
 Symmetry not used in FoFCou.
 Two-electron integral symmetry not used.
 Closed shell SCF:
 Using DIIS extrapolation, IDIIS=  1040.
 NGot=  1073741824 LenX=  1073561195 LenY=  1073559529
 Requested convergence on RMS density matrix=1.00D-08 within 128 cycles.
 Requested convergence on MAX density matrix=1.00D-06.
 Requested convergence on             energy=1.00D-06.
 No special actions if energy rises.

 Cycle   1  Pass 1  IDiag  1:
 Inv3:  Mode=1 IEnd=      747003.
 Iteration    1 A*A^-1 deviation from unit magnitude is 3.11D-15 for    497.
 Iteration    1 A*A^-1 deviation from orthogonality  is 9.97D-16 for    386    196.
 Iteration    1 A^-1*A deviation from unit magnitude is 3.11D-15 for    497.
 Iteration    1 A^-1*A deviation from orthogonality  is 1.43D-15 for    460    264.
 E= -40.4276259926450    
 DIIS: error= 4.63D-02 at cycle   1 NSaved=   1.
 NSaved= 1 IEnMin= 1 EnMin= -40.4276259926450     IErMin= 1 ErrMin= 4.63D-02
 ErrMax= 4.63D-02  0.00D+00 EMaxC= 1.00D-01 BMatC= 7.60D-02 BMatP= 7.60D-02
 IDIUse=3 WtCom= 5.37D-01 WtEn= 4.63D-01
 Coeff-Com:  0.100D+01
 Coeff-En:   0.100D+01
 Coeff:      0.100D+01
 Gap=     0.357 Goal=   None    Shift=    0.000
 GapD=    0.357 DampG=1.000 DampE=0.500 DampFc=0.5000 IDamp=-1.
 Damping current iteration by 5.00D-01
 RMSDP=1.45D-02 MaxDP=1.48D-01              OVMax= 1.97D-01

 Cycle   2  Pass 1  IDiag  1:
 E= -40.4661153287343     Delta-E=       -0.038489336089 Rises=F Damp=T
 DIIS: error= 8.10D-03 at cycle   2 NSaved=   2.
 NSaved= 2 IEnMin= 2 EnMin= -40.4661153287343     IErMin= 2 ErrMin= 8.10D-03
 ErrMax= 8.10D-03  0.00D+00 EMaxC= 1.00D-01 BMatC= 1.30D-03 BMatP= 7.60D-02
 IDIUse=3 WtCom= 9.19D-01 WtEn= 8.10D-02
 Coeff-Com:  0.862D-01 0.914D+00
 Coeff-En:   0.141D+00 0.859D+00
 Coeff:      0.907D-01 0.909D+00
 Gap=     0.434 Goal=   None    Shift=    0.000
 RMSDP=1.35D-03 MaxDP=1.13D-02 DE=-3.85D-02 OVMax= 1.04D-01

 Cycle   3  Pass 1  IDiag  1:
 E= -40.5132599514975     Delta-E=       -0.047144622763 Rises=F Damp=F
 DIIS: error= 5.47D-04 at cycle   3 NSaved=   3.
 NSaved= 3 IEnMin= 3 EnMin= -40.5132599514975     IErMin= 3 ErrMin= 5.47D-04
 ErrMax= 5.47D-04  0.00D+00 EMaxC= 1.00D-01 BMatC= 1.10D-05 BMatP= 1.30D-03
 IDIUse=3 WtCom= 9.95D-01 WtEn= 5.47D-03
 Coeff-Com:  0.677D-02-0.453D-01 0.104D+01
 Coeff-En:   0.000D+00 0.000D+00 0.100D+01
 Coeff:      0.673D-02-0.451D-01 0.104D+01
 Gap=     0.442 Goal=   None    Shift=    0.000
 RMSDP=8.65D-05 MaxDP=8.14D-04 DE=-4.71D-02 OVMax= 1.09D-03

 Cycle   4  Pass 1  IDiag  1:
 E= -40.5132697554746     Delta-E=       -0.000009803977 Rises=F Damp=F
 DIIS: error= 1.08D-04 at cycle   4 NSaved=   4.
 NSaved= 4 IEnMin= 4 EnMin= -40.5132697554746     IErMin= 4 ErrMin= 1.08D-04
 ErrMax= 1.08D-04  0.00D+00 EMaxC= 1.00D-01 BMatC= 2.23D-07 BMatP= 1.10D-05
 IDIUse=3 WtCom= 9.99D-01 WtEn= 1.08D-03
 Coeff-Com:  0.205D-02-0.122D-01 0.254D+00 0.756D+00
 Coeff-En:   0.000D+00 0.000D+00 0.000D+00 0.100D+01
 Coeff:      0.205D-02-0.122D-01 0.254D+00 0.756D+00
 Gap=     0.442 Goal=   None    Shift=    0.000
 RMSDP=1.31D-05 MaxDP=1.11D-04 DE=-9.80D-06 OVMax= 1.86D-04

 Cycle   5  Pass 1  IDiag  1:
 E= -40.5132700009396     Delta-E=       -0.000000245465 Rises=F Damp=F
 DIIS: error= 8.73D-06 at cycle   5 NSaved=   5.
 NSaved= 5 IEnMin= 5 EnMin= -40.5132700009396     IErMin= 5 ErrMin= 8.73D-06
 ErrMax= 8.73D-06  0.00D+00 EMaxC= 1.00D-01 BMatC= 2.08D-09 BMatP= 2.23D-07
 IDIUse=1 WtCom= 1.00D+00 WtEn= 0.00D+00
 Coeff-Com:  0.186D-03 0.848D-04 0.298D-02 0.596D-01 0.937D+00
 Coeff:      0.186D-03 0.848D-04 0.298D-02 0.596D-01 0.937D+00
 Gap=     0.442 Goal=   None    Shift=    0.000
 RMSDP=1.63D-06 MaxDP=1.52D-05 DE=-2.45D-07 OVMax= 2.13D-05

 Cycle   6  Pass 1  IDiag  1:
 E= -40.5132700035728     Delta-E=       -0.000000002633 Rises=F Damp=F
 DIIS: error= 7.77D-07 at cycle   6 NSaved=   6.
 NSaved= 6 IEnMin= 6 EnMin= -40.5132700035728     IErMin= 6 ErrMin= 7.77D-07
 ErrMax= 7.77D-07  0.00D+00 EMaxC= 1.00D-01 BMatC= 1.24D-11 BMatP= 2.08D-09
 IDIUse=1 WtCom= 1.00D+00 WtEn= 0.00D+00
 Coeff-Com: -0.108D-04 0.504D-04-0.126D-02-0.186D-02 0.679D-01 0.935D+00
 Coeff:     -0.108D-04 0.504D-04-0.126D-02-0.186D-02 0.679D-01 0.935D+00
 Gap=     0.442 Goal=   None    Shift=    0.000
 RMSDP=1.24D-07 MaxDP=1.31D-06 DE=-2.63D-09 OVMax= 1.60D-06

 Cycle   7  Pass 1  IDiag  1:
 E= -40.5132700035906     Delta-E=       -0.000000000018 Rises=F Damp=F
 DIIS: error= 1.84D-08 at cycle   7 NSaved=   7.
 NSaved= 7 IEnMin= 7 EnMin= -40.5132700035906     IErMin= 7 ErrMin= 1.84D-08
 ErrMax= 1.84D-08  0.00D+00 EMaxC= 1.00D-01 BMatC= 1.21D-14 BMatP= 1.24D-11
 IDIUse=1 WtCom= 1.00D+00 WtEn= 0.00D+00
 Coeff-Com: -0.434D-06 0.397D-06-0.546D-04 0.285D-04 0.272D-02 0.283D-01
 Coeff-Com:  0.969D+00
 Coeff:     -0.434D-06 0.397D-06-0.546D-04 0.285D-04 0.272D-02 0.283D-01
 Coeff:      0.969D+00
 Gap=     0.442 Goal=   None    Shift=    0.000
 RMSDP=4.98D-09 MaxDP=6.80D-08 DE=-1.77D-11 OVMax= 5.90D-08

 Error on total polarization charges =  0.00450
 SCF Done:  E(RB3LYP) =  -40.5132700036     A.U. after    7 cycles
            NFock=  7  Conv=0.50D-08     -V/T= 2.0100
 KE= 4.011051408946D+01 PE=-1.196069196620D+02 EE= 2.571064318827D+01
 Leave Link  502 at Fri Sep 22 16:26:51 2023, MaxMem=  1073741824 cpu:               7.4 elap:               1.0
 (Enter /share/apps/gaussian/g16/l601.exe)
 Copying SCF densities to generalized density rwf, IOpCl= 0 IROHF=0.

 **********************************************************************

            Population analysis using the SCF density.

 **********************************************************************

 Orbital symmetries:
       Occupied  (A) (A) (A) (A) (A)
       Virtual   (A) (A) (A) (A) (A) (A) (A) (A) (A) (A) (A) (A)
                 (A) (A) (A) (A) (A) (A) (A) (A) (A) (A) (A) (A)
                 (A) (A) (A) (A) (A)
 The electronic state is 1-A.
 Alpha  occ. eigenvalues --  -10.16551  -0.69180  -0.39822  -0.39035  -0.38631
 Alpha virt. eigenvalues --    0.05577   0.12290   0.12462   0.12564   0.36898
 Alpha virt. eigenvalues --    0.37462   0.38688   0.62891   0.63440   0.63714
 Alpha virt. eigenvalues --    0.67146   0.96068   1.28618   1.29411   1.82948
 Alpha virt. eigenvalues --    1.85029   1.86197   1.87768   1.88507   1.91329
 Alpha virt. eigenvalues --    2.36829   2.40385   2.44970   2.73164   2.74809
 Alpha virt. eigenvalues --    2.91009   3.16511   3.19712   3.21660
          Condensed to atoms (all electrons):
               1          2          3          4          5
     1  C    4.750605   0.402286   0.402266   0.402638   0.400475
     2  H    0.402286   0.577721  -0.023612  -0.019564  -0.022661
     3  H    0.402266  -0.023612   0.579776  -0.022241  -0.020701
     4  H    0.402638  -0.019564  -0.022241   0.562800  -0.018455
     5  H    0.400475  -0.022661  -0.020701  -0.018455   0.568240
 Mulliken charges:
               1
     1  C   -0.358269
     2  H    0.085831
     3  H    0.084512
     4  H    0.094823
     5  H    0.093102
 Sum of Mulliken charges =  -0.00000
 Mulliken charges with hydrogens summed into heavy atoms:
               1
     1  C   -0.000000
 Electronic spatial extent (au):  <R**2>=             36.2843
 Charge=              0.0000 electrons
 Dipole moment (field-independent basis, Debye):
    X=              0.0083    Y=              0.0575    Z=              0.0126  Tot=              0.0594
 Quadrupole moment (field-independent basis, Debye-Ang):
   XX=             -8.3067   YY=             -8.4883   ZZ=             -8.6228
   XY=              0.0207   XZ=              0.0014   YZ=              0.0034
 Traceless Quadrupole moment (field-independent basis, Debye-Ang):
   XX=              0.1659   YY=             -0.0157   ZZ=             -0.1502
   XY=              0.0207   XZ=              0.0014   YZ=              0.0034
 Octapole moment (field-independent basis, Debye-Ang**2):
  XXX=             -0.1621  YYY=              0.1989  ZZZ=              0.1624  XYY=              0.1477
  XXY=             -0.5991  XXZ=             -0.0866  XZZ=              0.0113  YZZ=              0.5827
  YYZ=             -0.0420  XYZ=             -0.2588
 Hexadecapole moment (field-independent basis, Debye-Ang**3):
 XXXX=            -16.5133 YYYY=            -17.0291 ZZZZ=            -16.3641 XXXY=              0.0668
 XXXZ=              0.2826 YYYX=             -0.0508 YYYZ=             -0.1060 ZZZX=             -0.2357
 ZZZY=              0.1057 XXYY=             -5.2515 XXZZ=             -5.8087 YYZZ=             -5.2088
 XXYZ=              0.0155 YYXZ=             -0.0343 ZZXY=              0.0841
 N-N= 1.327249238073D+01 E-N=-1.196069194727D+02  KE= 4.011051408946D+01
 There are a total of      109428 grid points.
 ElSum from          density=       10.0000000314
 ElSum from atomic densities=       10.0000000753
 Hirshfeld populations at iteration   1 (CA, CB, DipXYZ):
               1          2          3          4          5
     1  C    3.060542   3.060542  -0.003155  -0.004545  -0.001524
     2  H    0.485670   0.485670   0.035263   0.093867  -0.095099
     3  H    0.485979   0.485979  -0.016709   0.079267   0.111260
     4  H    0.483662   0.483662  -0.124694  -0.062134  -0.025146
     5  H    0.484148   0.484148   0.112287  -0.080425   0.015904
       Tot   5.000000   5.000000   0.002992   0.026030   0.005395

 Dip from Atomic Chgs              0.000270  -0.003422  -0.000438
         Total Dipole              0.003261   0.022608   0.004957

 Hirshfeld charges, spin densities, dipoles, and CM5 charges using IRadAn=      5:
              Q-H        S-H        Dx         Dy         Dz        Q-CM5   
     1  C   -0.121084   0.000000  -0.003155  -0.004545  -0.001524  -0.306004
     2  H    0.028660   0.000000   0.035263   0.093867  -0.095099   0.075551
     3  H    0.028042   0.000000  -0.016709   0.079267   0.111260   0.075090
     4  H    0.032677   0.000000  -0.124694  -0.062134  -0.025146   0.078832
     5  H    0.031704   0.000000   0.112287  -0.080425   0.015904   0.076531
       Tot  -0.000000   0.000000   0.002992   0.026030   0.005395  -0.000000
 Hirshfeld charges with hydrogens summed into heavy atoms:
              Q-H       Q-CM5   
     1  C   -0.000000  -0.000000
 
 EQQ= 0.000000000000E+00 EQD= 0.000000000000E+00 EDD=-0.976648103711E-03
 EQQ+QD+DD=-0.976648103711E-03
 
 No NMR shielding tensors so no spin-rotation constants.
 Leave Link  601 at Fri Sep 22 16:26:52 2023, MaxMem=  1073741824 cpu:               1.1 elap:               0.2
 (Enter /share/apps/gaussian/g16/l9999.exe)
 1\1\GINC-NODE101\SP\RB3LYP\Gen\C1H4\YANZ\22-Sep-2023\0\\#p b3lyp/gen s
 crf=(cpcm,solvent=toluene) pop=hirshfeld empiricaldispersion=gd3bj\\tm
 pdir/M1_conf_0_4.gjf\\0,1\C,0,-4.117558,3.852761,0.63710701\H,0,-4.930
 142,3.130427,0.78740102\H,0,-4.382942,4.4225,-0.26103699\H,0,-4.039276
 97,4.55116838,1.48847151\H,0,-3.17942925,3.27919282,0.4477833\\Version
 =ES64L-G16RevA.03\State=1-A\HF=-40.51327\RMSD=4.977e-09\Dipole=-0.0172
 631,-0.001864,-0.0156487\Quadrupole=-0.0185927,0.0479037,-0.029311,-0.
 0458107,0.0093876,0.1010997\PG=C01 [X(C1H4)]\\@


 TIMES HAVE CHANGED. IN THE BIBLE WHEN AN ASS
 SPOKE IT WAS CONSIDERED A MIRACLE.
 Job cpu time:       0 days  0 hours  0 minutes 13.0 seconds.
 Elapsed time:       0 days  0 hours  0 minutes  1.8 seconds.
 File lengths (MBytes):  RWF=      6 Int=      0 D2E=      0 Chk=      1 Scr=      1
 Normal termination of Gaussian 16 at Fri Sep 22 16:26:52 2023.
