 Entering Gaussian System, Link 0=g16
 Initial command:
 /share/apps/gaussian/g16/l1.exe "/tmp/55555.mgr/Gau-402587.inp" -scrdir="/tmp/55555.mgr/"
 Entering Link 1 = /share/apps/gaussian/g16/l1.exe PID=    402588.
  
 Copyright (c) 1988,1990,1992,1993,1995,1998,2003,2009,2016,
            Gaussian, Inc.  All Rights Reserved.
  
 This is part of the Gaussian(R) 16 program.  It is based on
 the Gaussian(R) 09 system (copyright 2009, Gaussian, Inc.),
 the Gaussian(R) 03 system (copyright 2003, Gaussian, Inc.),
 the Gaussian(R) 98 system (copyright 1998, Gaussian, Inc.),
 the Gaussian(R) 94 system (copyright 1995, Gaussian, Inc.),
 the Gaussian 92(TM) system (copyright 1992, Gaussian, Inc.),
 the Gaussian 90(TM) system (copyright 1990, Gaussian, Inc.),
 the Gaussian 88(TM) system (copyright 1988, Gaussian, Inc.),
 the Gaussian 86(TM) system (copyright 1986, Carnegie Mellon
 University), and the Gaussian 82(TM) system (copyright 1983,
 Carnegie Mellon University). Gaussian is a federally registered
 trademark of Gaussian, Inc.
  
 This software contains proprietary and confidential information,
 including trade secrets, belonging to Gaussian, Inc.
  
 This software is provided under written license and may be
 used, copied, transmitted, or stored only in accord with that
 written license.
  
 The following legend is applicable only to US Government
 contracts under FAR:
  
                    RESTRICTED RIGHTS LEGEND
  
 Use, reproduction and disclosure by the US Government is
 subject to restrictions as set forth in subparagraphs (a)
 and (c) of the Commercial Computer Software - Restricted
 Rights clause in FAR 52.227-19.
  
 Gaussian, Inc.
 340 Quinnipiac St., Bldg. 40, Wallingford CT 06492
  
  
 ---------------------------------------------------------------
 Warning -- This program may not be used in any manner that
 competes with the business of Gaussian, Inc. or will provide
 assistance to any competitor of Gaussian, Inc.  The licensee
 of this program is prohibited from giving any competitor of
 Gaussian, Inc. access to this program.  By using this program,
 the user acknowledges that Gaussian, Inc. is engaged in the
 business of creating and licensing software in the field of
 computational chemistry and represents and warrants to the
 licensee that it is not a competitor of Gaussian, Inc. and that
 it will not use this program in any manner prohibited above.
 ---------------------------------------------------------------
  

 Cite this work as:
 Gaussian 16, Revision A.03,
 M. J. Frisch, G. W. Trucks, H. B. Schlegel, G. E. Scuseria, 
 M. A. Robb, J. R. Cheeseman, G. Scalmani, V. Barone, 
 G. A. Petersson, H. Nakatsuji, X. Li, M. Caricato, A. V. Marenich, 
 J. Bloino, B. G. Janesko, R. Gomperts, B. Mennucci, H. P. Hratchian, 
 J. V. Ortiz, A. F. Izmaylov, J. L. Sonnenberg, D. Williams-Young, 
 F. Ding, F. Lipparini, F. Egidi, J. Goings, B. Peng, A. Petrone, 
 T. Henderson, D. Ranasinghe, V. G. Zakrzewski, J. Gao, N. Rega, 
 G. Zheng, W. Liang, M. Hada, M. Ehara, K. Toyota, R. Fukuda, 
 J. Hasegawa, M. Ishida, T. Nakajima, Y. Honda, O. Kitao, H. Nakai, 
 T. Vreven, K. Throssell, J. A. Montgomery, Jr., J. E. Peralta, 
 F. Ogliaro, M. J. Bearpark, J. J. Heyd, E. N. Brothers, K. N. Kudin, 
 V. N. Staroverov, T. A. Keith, R. Kobayashi, J. Normand, 
 K. Raghavachari, A. P. Rendell, J. C. Burant, S. S. Iyengar, 
 J. Tomasi, M. Cossi, J. M. Millam, M. Klene, C. Adamo, R. Cammi, 
 J. W. Ochterski, R. L. Martin, K. Morokuma, O. Farkas, 
 J. B. Foresman, and D. J. Fox, Gaussian, Inc., Wallingford CT, 2016.
 
 ******************************************
 Gaussian 16:  ES64L-G16RevA.03 25-Dec-2016
                22-Sep-2023 
 ******************************************
 %nprocshared=8
 Will use up to    8 processors via shared memory.
 %mem=8GB
 ----------------------------------------------------------------------
 #p b3lyp/gen scrf=(cpcm,solvent=toluene) pop=hirshfeld empiricaldisper
 sion=gd3bj
 ----------------------------------------------------------------------
 1/38=1,172=1/1;
 2/12=2,17=6,18=5,40=1/2;
 3/5=7,11=2,25=1,30=1,70=2101,72=13,74=-5,124=41/1,2,3;
 4//1;
 5/5=2,38=5,53=13/2;
 6/7=2,8=2,9=2,10=2,28=1,79=1/1;
 99/5=1,9=1/99;
 Leave Link    1 at Fri Sep 22 16:27:20 2023, MaxMem=  1073741824 cpu:               0.7 elap:               0.1
 (Enter /share/apps/gaussian/g16/l101.exe)
 -----------------------
 tmpdir/M1_conf_0_23.gjf
 -----------------------
 Symbolic Z-matrix:
 Charge =  0 Multiplicity = 1
 C                     1.41106  -0.16362   3.37948 
 H                     1.69289   0.68469   2.75872 
 C                     0.07311  -0.19297   3.77427 
 H                     2.21237  -0.56102   4.00896 
 H                    -0.28928  -0.85653   4.53654 
 H                    -0.62783   0.43694   3.27386 
 
 ITRead=  0  0  0  0  0  0
 MicOpt= -1 -1 -1 -1 -1 -1
 NAtoms=      6 NQM=        6 NQMF=       0 NMMI=      0 NMMIF=      0
                NMic=       0 NMicF=      0.
                    Isotopes and Nuclear Properties:
 (Nuclear quadrupole moments (NQMom) in fm**2, nuclear magnetic moments (NMagM)
  in nuclear magnetons)

  Atom         1           2           3           4           5           6
 IAtWgt=          12           1          12           1           1           1
 AtmWgt=  12.0000000   1.0078250  12.0000000   1.0078250   1.0078250   1.0078250
 NucSpn=           0           1           0           1           1           1
 AtZEff=  -0.0000000  -0.0000000  -0.0000000  -0.0000000  -0.0000000  -0.0000000
 NQMom=    0.0000000   0.0000000   0.0000000   0.0000000   0.0000000   0.0000000
 NMagM=    0.0000000   2.7928460   0.0000000   2.7928460   2.7928460   2.7928460
 AtZNuc=   6.0000000   1.0000000   6.0000000   1.0000000   1.0000000   1.0000000
 Leave Link  101 at Fri Sep 22 16:27:20 2023, MaxMem=  1073741824 cpu:               0.9 elap:               0.1
 (Enter /share/apps/gaussian/g16/l202.exe)
                          Input orientation:                          
 ---------------------------------------------------------------------
 Center     Atomic      Atomic             Coordinates (Angstroms)
 Number     Number       Type             X           Y           Z
 ---------------------------------------------------------------------
      1          6           0        1.411064   -0.163623    3.379477
      2          1           0        1.692892    0.684691    2.758725
      3          6           0        0.073113   -0.192971    3.774270
      4          1           0        2.212370   -0.561021    4.008957
      5          1           0       -0.289280   -0.856534    4.536544
      6          1           0       -0.627834    0.436942    3.273861
 ---------------------------------------------------------------------
                    Distance matrix (angstroms):
                    1          2          3          4          5
     1  C    0.000000
     2  H    1.088300   0.000000
     3  C    1.395291   2.103641   0.000000
     4  H    1.093738   1.839766   2.183337   0.000000
     5  H    2.170276   3.076528   1.073641   2.573700   0.000000
     6  H    2.128130   2.390086   1.067018   3.098880   1.839040
                    6
     6  H    0.000000
 Stoichiometry    C2H4
 Framework group  C1[X(C2H4)]
 Deg. of freedom    12
 Full point group                 C1      NOp   1
 Largest Abelian subgroup         C1      NOp   1
 Largest concise Abelian subgroup C1      NOp   1
                         Standard orientation:                         
 ---------------------------------------------------------------------
 Center     Atomic      Atomic             Coordinates (Angstroms)
 Number     Number       Type             X           Y           Z
 ---------------------------------------------------------------------
      1          6           0        0.697684   -0.006178   -0.071640
      2          1           0        1.174946    0.947529    0.145296
      3          6           0       -0.695172   -0.006338    0.010749
      4          1           0        1.295364   -0.888034    0.176092
      5          1           0       -1.273072   -0.911176    0.013212
      6          1           0       -1.212304    0.926776    0.030746
 ---------------------------------------------------------------------
 Rotational constants (GHZ):         144.0614886          28.1560237          23.7863399
 Leave Link  202 at Fri Sep 22 16:27:20 2023, MaxMem=  1073741824 cpu:               0.1 elap:               0.0
 (Enter /share/apps/gaussian/g16/l301.exe)
 General basis read from cards:  (5D, 7F)
 Centers:       2      4      5      6
 S 3 1.00
     Exponent=  1.2251800000D+01 Coefficients=  2.3337100000D-02
     Exponent=  1.8687100000D+00 Coefficients=  1.5915000000D-01
     Exponent=  4.1820800000D-01 Coefficients=  5.0000000000D-01
 S 1 1.00
     Exponent=  1.0610000000D-01 Coefficients=  1.0000000000D+00
 P 1 1.00
     Exponent=  1.0000000000D+00 Coefficients=  1.0000000000D+00
 ****
 Centers:       1      3
 S 5 1.00
     Exponent=  1.2432000000D+03 Coefficients=  6.0336600000D-03
     Exponent=  1.8714500000D+02 Coefficients=  4.4957600000D-02
     Exponent=  4.2512600000D+01 Coefficients=  1.9790100000D-01
     Exponent=  1.1739300000D+01 Coefficients=  5.0000000000D-01
     Exponent=  3.5054800000D+00 Coefficients=  4.8036400000D-01
 S 2 1.00
     Exponent=  5.3908900000D+00 Coefficients= -7.0398000000D-02
     Exponent=  4.9334100000D-01 Coefficients=  5.0000000000D-01
 S 1 1.00
     Exponent=  1.4974100000D-01 Coefficients=  1.0000000000D+00
 P 3 1.00
     Exponent=  9.1805600000D+00 Coefficients=  4.3170100000D-02
     Exponent=  1.9365800000D+00 Coefficients=  2.2499900000D-01
     Exponent=  5.2629600000D-01 Coefficients=  5.0000000000D-01
 P 1 1.00
     Exponent=  1.3631900000D-01 Coefficients=  1.0000000000D+00
 D 1 1.00
     Exponent=  8.0000000000D-01 Coefficients=  1.0000000000D+00
 ****
 Ernie: Thresh=  0.10000D-02 Tol=  0.10000D-05 Strict=F.
 There are    50 symmetry adapted cartesian basis functions of A   symmetry.
 There are    48 symmetry adapted basis functions of A   symmetry.
    48 basis functions,    80 primitive gaussians,    50 cartesian basis functions
     8 alpha electrons        8 beta electrons
       nuclear repulsion energy        32.6703002379 Hartrees.
 IExCor=  402 DFT=T Ex+Corr=B3LYP ExCW=0 ScaHFX=  0.200000
 ScaDFX=  0.800000  0.720000  1.000000  0.810000 ScalE2=  1.000000  1.000000
 IRadAn=      5 IRanWt=     -1 IRanGd=            0 ICorTp=0 IEmpDi=141
 NAtoms=    6 NActive=    6 NUniq=    6 SFac= 1.00D+00 NAtFMM=   60 NAOKFM=F Big=F
 Integral buffers will be    131072 words long.
 Raffenetti 2 integral format.
 Two-electron integral symmetry is turned on.
 R6Disp:  Grimme-D3(BJ) Dispersion energy=       -0.0039328158 Hartrees.
 Nuclear repulsion after empirical dispersion term =       32.6663674221 Hartrees.
 ------------------------------------------------------------------------------
 Polarizable Continuum Model (PCM)
 =================================
 Model                : C-PCM.
 Atomic radii         : UFF (Universal Force Field).
 Polarization charges : Total charges.
 Charge compensation  : None.
 Solution method      : On-the-fly selection.
 Cavity type          : Scaled VdW (van der Waals Surface) (Alpha=1.100).
 Cavity algorithm     : GePol (No added spheres)
                        Default sphere list used, NSphG=    6.
                        Lebedev-Laikov grids with approx.  5.0 points / Ang**2.
                        Smoothing algorithm: York/Karplus (Gamma=1.0000).
                        Polarization charges: spherical gaussians, with
                                              point-specific exponents (IZeta= 3).
                        Self-potential: point-specific (ISelfS= 7).
                        Self-field    : sphere-specific E.n sum rule (ISelfD= 2).
 Solvent              : Toluene, Eps=   2.374100 Eps(inf)=   2.238315
 ------------------------------------------------------------------------------
 Spheres list:
 ISph  on   Nord     Re0    Alpha      Xe            Ye            Ze
    1   C      1    1.9255  1.100      0.697684     -0.006178     -0.071640
    2   H      2    1.4430  1.100      1.174946      0.947529      0.145296
    3   C      3    1.9255  1.100     -0.695172     -0.006338      0.010749
    4   H      4    1.4430  1.100      1.295364     -0.888034      0.176092
    5   H      5    1.4430  1.100     -1.273072     -0.911176      0.013212
    6   H      6    1.4430  1.100     -1.212304      0.926776      0.030746
 ------------------------------------------------------------------------------
 GePol: Number of generator spheres                  =       6
 GePol: Total number of spheres                      =       6
 GePol: Number of exposed spheres                    =       6 (100.00%)
 GePol: Number of points                             =     625
 GePol: Average weight of points                     =       0.14
 GePol: Minimum weight of points                     =   0.56D-06
 GePol: Maximum weight of points                     =    0.20577
 GePol: Number of points with low weight             =      31
 GePol: Fraction of low-weight points (<1% of avg)   =       4.96%
 GePol: Cavity surface area                          =     87.993 Ang**2
 GePol: Cavity volume                                =     70.137 Ang**3
 Leave Link  301 at Fri Sep 22 16:27:20 2023, MaxMem=  1073741824 cpu:               0.7 elap:               0.1
 (Enter /share/apps/gaussian/g16/l302.exe)
 NPDir=0 NMtPBC=     1 NCelOv=     1 NCel=       1 NClECP=     1 NCelD=      1
         NCelK=      1 NCelE2=     1 NClLst=     1 CellRange=     0.0.
 One-electron integrals computed using PRISM.
 One-electron integral symmetry used in STVInt
 NBasis=    48 RedAO= T EigKep=  7.51D-03  NBF=    48
 NBsUse=    48 1.00D-06 EigRej= -1.00D+00 NBFU=    48
 Precomputing XC quadrature grid using
 IXCGrd= 4 IRadAn=           5 IRanWt=          -1 IRanGd=           0 AccXCQ= 0.00D+00.
 Generated NRdTot=       0 NPtTot=           0 NUsed=           0 NTot=          32
 NSgBfM=    50    50    50    50    50 MxSgAt=     6 MxSgA2=     6.
 Leave Link  302 at Fri Sep 22 16:27:20 2023, MaxMem=  1073741824 cpu:               0.9 elap:               0.1
 (Enter /share/apps/gaussian/g16/l303.exe)
 DipDrv:  MaxL=1.
 Leave Link  303 at Fri Sep 22 16:27:20 2023, MaxMem=  1073741824 cpu:               0.2 elap:               0.0
 (Enter /share/apps/gaussian/g16/l401.exe)
 ExpMin= 1.06D-01 ExpMax= 1.24D+03 ExpMxC= 1.87D+02 IAcc=3 IRadAn=         5 AccDes= 0.00D+00
 Harris functional with IExCor=  402 and IRadAn=       5 diagonalized for initial guess.
 HarFok:  IExCor=  402 AccDes= 0.00D+00 IRadAn=         5 IDoV= 1 UseB2=F ITyADJ=14
 ICtDFT=  3500011 ScaDFX=  1.000000  1.000000  1.000000  1.000000
 FoFCou: FMM=F IPFlag=           0 FMFlag=      100000 FMFlg1=           0
         NFxFlg=           0 DoJE=T BraDBF=F KetDBF=T FulRan=T
         wScrn=  0.000000 ICntrl=       500 IOpCl=  0 I1Cent=   200000004 NGrid=           0
         NMat0=    1 NMatS0=      1 NMatT0=    0 NMatD0=    1 NMtDS0=    0 NMtDT0=    0
 Petite list used in FoFCou.
 Harris En= -78.5955143405651    
 JPrj=0 DoOrth=F DoCkMO=F.
 Leave Link  401 at Fri Sep 22 16:27:21 2023, MaxMem=  1073741824 cpu:               1.7 elap:               0.2
 (Enter /share/apps/gaussian/g16/l502.exe)
 Keep R1 ints in memory in canonical form, NReq=7664298.
 FoFCou: FMM=F IPFlag=           0 FMFlag=           0 FMFlg1=           0
         NFxFlg=           0 DoJE=F BraDBF=F KetDBF=F FulRan=T
         wScrn=  0.000000 ICntrl=       600 IOpCl=  0 I1Cent=           0 NGrid=           0
         NMat0=    1 NMatS0=   1176 NMatT0=    0 NMatD0=    1 NMtDS0=    0 NMtDT0=    0
 Symmetry not used in FoFCou.
 Two-electron integral symmetry not used.
 Closed shell SCF:
 Using DIIS extrapolation, IDIIS=  1040.
 NGot=  1073741824 LenX=  1073043630 LenY=  1073040689
 Requested convergence on RMS density matrix=1.00D-08 within 128 cycles.
 Requested convergence on MAX density matrix=1.00D-06.
 Requested convergence on             energy=1.00D-06.
 No special actions if energy rises.

 Cycle   1  Pass 1  IDiag  1:
 Inv3:  Mode=1 IEnd=     1171875.
 Iteration    1 A*A^-1 deviation from unit magnitude is 3.77D-15 for    625.
 Iteration    1 A*A^-1 deviation from orthogonality  is 1.20D-15 for    587    208.
 Iteration    1 A^-1*A deviation from unit magnitude is 3.77D-15 for    625.
 Iteration    1 A^-1*A deviation from orthogonality  is 1.04D-15 for    624    211.
 E= -78.4969179995388    
 DIIS: error= 4.70D-02 at cycle   1 NSaved=   1.
 NSaved= 1 IEnMin= 1 EnMin= -78.4969179995388     IErMin= 1 ErrMin= 4.70D-02
 ErrMax= 4.70D-02  0.00D+00 EMaxC= 1.00D-01 BMatC= 5.88D-02 BMatP= 5.88D-02
 IDIUse=3 WtCom= 5.30D-01 WtEn= 4.70D-01
 Coeff-Com:  0.100D+01
 Coeff-En:   0.100D+01
 Coeff:      0.100D+01
 Gap=     0.247 Goal=   None    Shift=    0.000
 GapD=    0.247 DampG=1.000 DampE=0.500 DampFc=0.5000 IDamp=-1.
 Damping current iteration by 5.00D-01
 RMSDP=9.30D-03 MaxDP=1.10D-01              OVMax= 1.61D-01

 Cycle   2  Pass 1  IDiag  1:
 E= -78.5325295712346     Delta-E=       -0.035611571696 Rises=F Damp=T
 DIIS: error= 3.91D-03 at cycle   2 NSaved=   2.
 NSaved= 2 IEnMin= 2 EnMin= -78.5325295712346     IErMin= 2 ErrMin= 3.91D-03
 ErrMax= 3.91D-03  0.00D+00 EMaxC= 1.00D-01 BMatC= 1.20D-03 BMatP= 5.88D-02
 IDIUse=3 WtCom= 9.61D-01 WtEn= 3.91D-02
 Coeff-Com:  0.322D-01 0.968D+00
 Coeff-En:   0.264D-01 0.974D+00
 Coeff:      0.320D-01 0.968D+00
 Gap=     0.254 Goal=   None    Shift=    0.000
 RMSDP=1.42D-03 MaxDP=1.33D-02 DE=-3.56D-02 OVMax= 7.59D-02

 Cycle   3  Pass 1  IDiag  1:
 E= -78.5711275677660     Delta-E=       -0.038597996531 Rises=F Damp=F
 DIIS: error= 1.08D-03 at cycle   3 NSaved=   3.
 NSaved= 3 IEnMin= 3 EnMin= -78.5711275677660     IErMin= 3 ErrMin= 1.08D-03
 ErrMax= 1.08D-03  0.00D+00 EMaxC= 1.00D-01 BMatC= 4.44D-05 BMatP= 1.20D-03
 IDIUse=3 WtCom= 9.89D-01 WtEn= 1.08D-02
 Coeff-Com: -0.421D-02 0.976D-01 0.907D+00
 Coeff-En:   0.000D+00 0.000D+00 0.100D+01
 Coeff:     -0.416D-02 0.965D-01 0.908D+00
 Gap=     0.250 Goal=   None    Shift=    0.000
 RMSDP=1.80D-04 MaxDP=2.32D-03 DE=-3.86D-02 OVMax= 4.45D-03

 Cycle   4  Pass 1  IDiag  1:
 E= -78.5711509023833     Delta-E=       -0.000023334617 Rises=F Damp=F
 DIIS: error= 6.78D-04 at cycle   4 NSaved=   4.
 NSaved= 4 IEnMin= 4 EnMin= -78.5711509023833     IErMin= 4 ErrMin= 6.78D-04
 ErrMax= 6.78D-04  0.00D+00 EMaxC= 1.00D-01 BMatC= 2.05D-05 BMatP= 4.44D-05
 IDIUse=3 WtCom= 9.93D-01 WtEn= 6.78D-03
 Coeff-Com: -0.242D-02 0.244D-01 0.414D+00 0.564D+00
 Coeff-En:   0.000D+00 0.000D+00 0.263D+00 0.737D+00
 Coeff:     -0.241D-02 0.242D-01 0.413D+00 0.565D+00
 Gap=     0.250 Goal=   None    Shift=    0.000
 RMSDP=1.17D-04 MaxDP=2.13D-03 DE=-2.33D-05 OVMax= 4.43D-03

 Cycle   5  Pass 1  IDiag  1:
 E= -78.5711639542980     Delta-E=       -0.000013051915 Rises=F Damp=F
 DIIS: error= 4.65D-04 at cycle   5 NSaved=   5.
 NSaved= 5 IEnMin= 5 EnMin= -78.5711639542980     IErMin= 5 ErrMin= 4.65D-04
 ErrMax= 4.65D-04  0.00D+00 EMaxC= 1.00D-01 BMatC= 8.30D-06 BMatP= 2.05D-05
 IDIUse=3 WtCom= 9.95D-01 WtEn= 4.65D-03
 Coeff-Com: -0.889D-03-0.674D-03 0.118D+00 0.391D+00 0.492D+00
 Coeff-En:   0.000D+00 0.000D+00 0.000D+00 0.326D+00 0.674D+00
 Coeff:     -0.885D-03-0.671D-03 0.118D+00 0.391D+00 0.493D+00
 Gap=     0.250 Goal=   None    Shift=    0.000
 RMSDP=4.85D-05 MaxDP=8.74D-04 DE=-1.31D-05 OVMax= 1.82D-03

 Cycle   6  Pass 1  IDiag  1:
 E= -78.5711730374306     Delta-E=       -0.000009083133 Rises=F Damp=F
 DIIS: error= 9.41D-06 at cycle   6 NSaved=   6.
 NSaved= 6 IEnMin= 6 EnMin= -78.5711730374306     IErMin= 6 ErrMin= 9.41D-06
 ErrMax= 9.41D-06  0.00D+00 EMaxC= 1.00D-01 BMatC= 4.11D-09 BMatP= 8.30D-06
 IDIUse=1 WtCom= 1.00D+00 WtEn= 0.00D+00
 Coeff-Com: -0.495D-04-0.622D-03 0.499D-02 0.295D-01 0.514D-01 0.915D+00
 Coeff:     -0.495D-04-0.622D-03 0.499D-02 0.295D-01 0.514D-01 0.915D+00
 Gap=     0.250 Goal=   None    Shift=    0.000
 RMSDP=1.47D-06 MaxDP=1.52D-05 DE=-9.08D-06 OVMax= 2.99D-05

 Cycle   7  Pass 1  IDiag  1:
 E= -78.5711730418160     Delta-E=       -0.000000004385 Rises=F Damp=F
 DIIS: error= 1.74D-06 at cycle   7 NSaved=   7.
 NSaved= 7 IEnMin= 7 EnMin= -78.5711730418160     IErMin= 7 ErrMin= 1.74D-06
 ErrMax= 1.74D-06  0.00D+00 EMaxC= 1.00D-01 BMatC= 1.32D-10 BMatP= 4.11D-09
 IDIUse=1 WtCom= 1.00D+00 WtEn= 0.00D+00
 Coeff-Com:  0.113D-04-0.126D-03-0.854D-03-0.355D-03 0.285D-02 0.181D+00
 Coeff-Com:  0.818D+00
 Coeff:      0.113D-04-0.126D-03-0.854D-03-0.355D-03 0.285D-02 0.181D+00
 Coeff:      0.818D+00
 Gap=     0.250 Goal=   None    Shift=    0.000
 RMSDP=2.48D-07 MaxDP=2.85D-06 DE=-4.39D-09 OVMax= 5.03D-06

 Cycle   8  Pass 1  IDiag  1:
 E= -78.5711730419629     Delta-E=       -0.000000000147 Rises=F Damp=F
 DIIS: error= 2.14D-07 at cycle   8 NSaved=   8.
 NSaved= 8 IEnMin= 8 EnMin= -78.5711730419629     IErMin= 8 ErrMin= 2.14D-07
 ErrMax= 2.14D-07  0.00D+00 EMaxC= 1.00D-01 BMatC= 1.51D-12 BMatP= 1.32D-10
 IDIUse=1 WtCom= 1.00D+00 WtEn= 0.00D+00
 Coeff-Com:  0.343D-05 0.814D-05-0.200D-03-0.827D-03-0.108D-02-0.116D-01
 Coeff-Com:  0.582D-01 0.956D+00
 Coeff:      0.343D-05 0.814D-05-0.200D-03-0.827D-03-0.108D-02-0.116D-01
 Coeff:      0.582D-01 0.956D+00
 Gap=     0.250 Goal=   None    Shift=    0.000
 RMSDP=3.52D-08 MaxDP=2.95D-07 DE=-1.47D-10 OVMax= 6.37D-07

 Cycle   9  Pass 1  IDiag  1:
 E= -78.5711730419652     Delta-E=       -0.000000000002 Rises=F Damp=F
 DIIS: error= 1.41D-08 at cycle   9 NSaved=   9.
 NSaved= 9 IEnMin= 9 EnMin= -78.5711730419652     IErMin= 9 ErrMin= 1.41D-08
 ErrMax= 1.41D-08  0.00D+00 EMaxC= 1.00D-01 BMatC= 1.03D-14 BMatP= 1.51D-12
 IDIUse=1 WtCom= 1.00D+00 WtEn= 0.00D+00
 Coeff-Com:  0.241D-06 0.158D-05-0.159D-04-0.898D-04-0.140D-03-0.243D-02
 Coeff-Com:  0.290D-02 0.113D+00 0.886D+00
 Coeff:      0.241D-06 0.158D-05-0.159D-04-0.898D-04-0.140D-03-0.243D-02
 Coeff:      0.290D-02 0.113D+00 0.886D+00
 Gap=     0.250 Goal=   None    Shift=    0.000
 RMSDP=4.03D-09 MaxDP=5.84D-08 DE=-2.39D-12 OVMax= 6.70D-08

 Error on total polarization charges =  0.00525
 SCF Done:  E(RB3LYP) =  -78.5711730420     A.U. after    9 cycles
            NFock=  9  Conv=0.40D-08     -V/T= 2.0082
 KE= 7.792967815912D+01 PE=-2.467780722474D+02 EE= 5.761085362420D+01
 Leave Link  502 at Fri Sep 22 16:27:22 2023, MaxMem=  1073741824 cpu:              12.8 elap:               1.6
 (Enter /share/apps/gaussian/g16/l601.exe)
 Copying SCF densities to generalized density rwf, IOpCl= 0 IROHF=0.

 **********************************************************************

            Population analysis using the SCF density.

 **********************************************************************

 Orbital symmetries:
       Occupied  (A) (A) (A) (A) (A) (A) (A) (A)
       Virtual   (A) (A) (A) (A) (A) (A) (A) (A) (A) (A) (A) (A)
                 (A) (A) (A) (A) (A) (A) (A) (A) (A) (A) (A) (A)
                 (A) (A) (A) (A) (A) (A) (A) (A) (A) (A) (A) (A)
                 (A) (A) (A) (A)
 The electronic state is 1-A.
 Alpha  occ. eigenvalues --  -10.18908 -10.18727  -0.75633  -0.59003  -0.47055
 Alpha  occ. eigenvalues --   -0.41569  -0.36696  -0.27389
 Alpha virt. eigenvalues --   -0.02374   0.06382   0.09223   0.09556   0.15959
 Alpha virt. eigenvalues --    0.26869   0.36127   0.40833   0.43900   0.50747
 Alpha virt. eigenvalues --    0.51871   0.55052   0.62349   0.63939   0.68644
 Alpha virt. eigenvalues --    0.75752   0.85390   0.94447   1.33808   1.37228
 Alpha virt. eigenvalues --    1.46564   1.71523   1.77618   1.80435   1.84085
 Alpha virt. eigenvalues --    1.89272   2.01370   2.02455   2.14436   2.27459
 Alpha virt. eigenvalues --    2.33927   2.44565   2.46879   2.57575   2.64715
 Alpha virt. eigenvalues --    2.84200   3.04344   3.15587   3.32788   3.47738
          Condensed to atoms (all electrons):
               1          2          3          4          5          6
     1  C    4.819793   0.396016   0.664852   0.398568  -0.032700  -0.028751
     2  H    0.396016   0.583001  -0.031972  -0.040936   0.009137  -0.014930
     3  C    0.664852  -0.031972   4.791400  -0.031661   0.400573   0.399823
     4  H    0.398568  -0.040936  -0.031661   0.570737  -0.011385   0.008557
     5  H   -0.032700   0.009137   0.400573  -0.011385   0.570660  -0.040085
     6  H   -0.028751  -0.014930   0.399823   0.008557  -0.040085   0.574198
 Mulliken charges:
               1
     1  C   -0.217778
     2  H    0.099684
     3  C   -0.193015
     4  H    0.106121
     5  H    0.103800
     6  H    0.101189
 Sum of Mulliken charges =   0.00000
 Mulliken charges with hydrogens summed into heavy atoms:
               1
     1  C   -0.011974
     3  C    0.011974
 Electronic spatial extent (au):  <R**2>=             85.3442
 Charge=              0.0000 electrons
 Dipole moment (field-independent basis, Debye):
    X=             -0.1586    Y=              0.0232    Z=              0.3959  Tot=              0.4272
 Quadrupole moment (field-independent basis, Debye-Ang):
   XX=            -12.4667   YY=            -12.4897   ZZ=            -15.7219
   XY=             -0.0642   XZ=              0.3879   YZ=              0.0053
 Traceless Quadrupole moment (field-independent basis, Debye-Ang):
   XX=              1.0928   YY=              1.0697   ZZ=             -2.1625
   XY=             -0.0642   XZ=              0.3879   YZ=              0.0053
 Octapole moment (field-independent basis, Debye-Ang**2):
  XXX=             -0.5364  YYY=              0.2239  ZZZ=              0.7173  XYY=             -0.2455
  XXY=             -0.3280  XXZ=              0.9015  XZZ=             -0.0864  YZZ=              0.0241
  YYZ=              0.5378  XYZ=             -0.0742
 Hexadecapole moment (field-independent basis, Debye-Ang**3):
 XXXX=            -72.3177 YYYY=            -27.2038 ZZZZ=            -19.5982 XXXY=             -0.3148
 XXXZ=              1.0428 YYYX=             -0.0227 YYYZ=              0.0335 ZZZX=              0.4785
 ZZZY=              0.0044 XXYY=            -14.2528 XXZZ=            -16.0786 YYZZ=             -8.3378
 XXYZ=             -0.0663 YYXZ=              0.5348 ZZXY=             -0.0388
 N-N= 3.266636742211D+01 E-N=-2.467780721123D+02  KE= 7.792967815912D+01
 There are a total of      132844 grid points.
 ElSum from          density=       15.9999999561
 ElSum from atomic densities=       16.0000002088
 Hirshfeld populations at iteration   1 (CA, CB, DipXYZ):
               1          2          3          4          5
     1  C    3.041438   3.041438   0.088812  -0.007545   0.004059
     2  H    0.483567   0.483567   0.065339   0.131423   0.042629
     3  C    3.032580   3.032580  -0.104808   0.000087   0.013750
     4  H    0.480699   0.480699   0.088402  -0.118644   0.048120
     5  H    0.480785   0.480785  -0.087243  -0.127292   0.004209
     6  H    0.480932   0.480932  -0.076887   0.134645   0.008066
       Tot   8.000000   8.000000  -0.026385   0.012675   0.120833

 Dip from Atomic Chgs             -0.036019  -0.003567   0.034941
         Total Dipole             -0.062404   0.009109   0.155774

 Hirshfeld charges, spin densities, dipoles, and CM5 charges using IRadAn=      5:
              Q-H        S-H        Dx         Dy         Dz        Q-CM5   
     1  C   -0.082875   0.000000   0.088812  -0.007545   0.004059  -0.185153
     2  H    0.032867   0.000000   0.065339   0.131423   0.042629   0.084736
     3  C   -0.065159   0.000000  -0.104808   0.000087   0.013750  -0.172567
     4  H    0.038602   0.000000   0.088402  -0.118644   0.048120   0.089134
     5  H    0.038431   0.000000  -0.087243  -0.127292   0.004209   0.091481
     6  H    0.038135   0.000000  -0.076887   0.134645   0.008066   0.092370
       Tot   0.000000   0.000000  -0.026385   0.012675   0.120833   0.000000
 Hirshfeld charges with hydrogens summed into heavy atoms:
              Q-H       Q-CM5   
     1  C   -0.011407  -0.011283
     3  C    0.011407   0.011283
 
 EQQ= 0.000000000000E+00 EQD= 0.000000000000E+00 EDD= 0.228897560322E-02
 EQQ+QD+DD= 0.228897560322E-02
 
 No NMR shielding tensors so no spin-rotation constants.
 Leave Link  601 at Fri Sep 22 16:27:22 2023, MaxMem=  1073741824 cpu:               1.3 elap:               0.2
 (Enter /share/apps/gaussian/g16/l9999.exe)
 1\1\GINC-NODE101\SP\RB3LYP\Gen\C2H4\YANZ\22-Sep-2023\0\\#p b3lyp/gen s
 crf=(cpcm,solvent=toluene) pop=hirshfeld empiricaldispersion=gd3bj\\tm
 pdir/M1_conf_0_23.gjf\\0,1\C,0,1.411064,-0.163623,3.37947702\H,0,1.692
 892,0.684691,2.75872493\C,0,0.073113,-0.192971,3.77427006\H,0,2.212370
 33,-0.56102121,4.00895746\H,0,-0.28928026,-0.85653413,4.53654374\H,0,-
 0.62783378,0.43694229,3.27386067\\Version=ES64L-G16RevA.03\State=1-A\H
 F=-78.571173\RMSD=4.030e-09\Dipole=-0.0428795,0.1139709,0.115828\Quadr
 upole=0.8634577,-0.4119351,-0.4515226,-0.0439784,0.0004525,-1.209414\P
 G=C01 [X(C2H4)]\\@


 THE RARE EARTHS PERPLEX US IN OUR RESEARCHES,
 BAFFLE US IN OUR SPECULATIONS, AND HAUNT US IN OUR
 VERY DREAMS.  THEY STRETCH LIKE AN UNKNOWN BEFORE US,
 MOCKING, MYSTIFYING, AND MURMURING STRANGE REVELATIONS
 AND POSSIBILITIES.  -- SIR WILLIAM CROOKE, 1832-1919
 Job cpu time:       0 days  0 hours  0 minutes 19.6 seconds.
 Elapsed time:       0 days  0 hours  0 minutes  2.7 seconds.
 File lengths (MBytes):  RWF=     10 Int=      0 D2E=      0 Chk=      1 Scr=      1
 Normal termination of Gaussian 16 at Fri Sep 22 16:27:22 2023.
