 Entering Gaussian System, Link 0=g16
 Initial command:
 /share/apps/gaussian/g16/l1.exe "/tmp/55555.mgr/Gau-402002.inp" -scrdir="/tmp/55555.mgr/"
 Entering Link 1 = /share/apps/gaussian/g16/l1.exe PID=    402003.
  
 Copyright (c) 1988,1990,1992,1993,1995,1998,2003,2009,2016,
            Gaussian, Inc.  All Rights Reserved.
  
 This is part of the Gaussian(R) 16 program.  It is based on
 the Gaussian(R) 09 system (copyright 2009, Gaussian, Inc.),
 the Gaussian(R) 03 system (copyright 2003, Gaussian, Inc.),
 the Gaussian(R) 98 system (copyright 1998, Gaussian, Inc.),
 the Gaussian(R) 94 system (copyright 1995, Gaussian, Inc.),
 the Gaussian 92(TM) system (copyright 1992, Gaussian, Inc.),
 the Gaussian 90(TM) system (copyright 1990, Gaussian, Inc.),
 the Gaussian 88(TM) system (copyright 1988, Gaussian, Inc.),
 the Gaussian 86(TM) system (copyright 1986, Carnegie Mellon
 University), and the Gaussian 82(TM) system (copyright 1983,
 Carnegie Mellon University). Gaussian is a federally registered
 trademark of Gaussian, Inc.
  
 This software contains proprietary and confidential information,
 including trade secrets, belonging to Gaussian, Inc.
  
 This software is provided under written license and may be
 used, copied, transmitted, or stored only in accord with that
 written license.
  
 The following legend is applicable only to US Government
 contracts under FAR:
  
                    RESTRICTED RIGHTS LEGEND
  
 Use, reproduction and disclosure by the US Government is
 subject to restrictions as set forth in subparagraphs (a)
 and (c) of the Commercial Computer Software - Restricted
 Rights clause in FAR 52.227-19.
  
 Gaussian, Inc.
 340 Quinnipiac St., Bldg. 40, Wallingford CT 06492
  
  
 ---------------------------------------------------------------
 Warning -- This program may not be used in any manner that
 competes with the business of Gaussian, Inc. or will provide
 assistance to any competitor of Gaussian, Inc.  The licensee
 of this program is prohibited from giving any competitor of
 Gaussian, Inc. access to this program.  By using this program,
 the user acknowledges that Gaussian, Inc. is engaged in the
 business of creating and licensing software in the field of
 computational chemistry and represents and warrants to the
 licensee that it is not a competitor of Gaussian, Inc. and that
 it will not use this program in any manner prohibited above.
 ---------------------------------------------------------------
  

 Cite this work as:
 Gaussian 16, Revision A.03,
 M. J. Frisch, G. W. Trucks, H. B. Schlegel, G. E. Scuseria, 
 M. A. Robb, J. R. Cheeseman, G. Scalmani, V. Barone, 
 G. A. Petersson, H. Nakatsuji, X. Li, M. Caricato, A. V. Marenich, 
 J. Bloino, B. G. Janesko, R. Gomperts, B. Mennucci, H. P. Hratchian, 
 J. V. Ortiz, A. F. Izmaylov, J. L. Sonnenberg, D. Williams-Young, 
 F. Ding, F. Lipparini, F. Egidi, J. Goings, B. Peng, A. Petrone, 
 T. Henderson, D. Ranasinghe, V. G. Zakrzewski, J. Gao, N. Rega, 
 G. Zheng, W. Liang, M. Hada, M. Ehara, K. Toyota, R. Fukuda, 
 J. Hasegawa, M. Ishida, T. Nakajima, Y. Honda, O. Kitao, H. Nakai, 
 T. Vreven, K. Throssell, J. A. Montgomery, Jr., J. E. Peralta, 
 F. Ogliaro, M. J. Bearpark, J. J. Heyd, E. N. Brothers, K. N. Kudin, 
 V. N. Staroverov, T. A. Keith, R. Kobayashi, J. Normand, 
 K. Raghavachari, A. P. Rendell, J. C. Burant, S. S. Iyengar, 
 J. Tomasi, M. Cossi, J. M. Millam, M. Klene, C. Adamo, R. Cammi, 
 J. W. Ochterski, R. L. Martin, K. Morokuma, O. Farkas, 
 J. B. Foresman, and D. J. Fox, Gaussian, Inc., Wallingford CT, 2016.
 
 ******************************************
 Gaussian 16:  ES64L-G16RevA.03 25-Dec-2016
                22-Sep-2023 
 ******************************************
 %nprocshared=8
 Will use up to    8 processors via shared memory.
 %mem=8GB
 ----------------------------------------------------------------------
 #p b3lyp/gen scrf=(cpcm,solvent=toluene) pop=hirshfeld empiricaldisper
 sion=gd3bj
 ----------------------------------------------------------------------
 1/38=1,172=1/1;
 2/12=2,17=6,18=5,40=1/2;
 3/5=7,11=2,25=1,30=1,70=2101,72=13,74=-5,124=41/1,2,3;
 4//1;
 5/5=2,38=5,53=13/2;
 6/7=2,8=2,9=2,10=2,28=1,79=1/1;
 99/5=1,9=1/99;
 Leave Link    1 at Fri Sep 22 16:27:04 2023, MaxMem=  1073741824 cpu:               0.4 elap:               0.1
 (Enter /share/apps/gaussian/g16/l101.exe)
 -----------------------
 tmpdir/M1_conf_0_15.gjf
 -----------------------
 Symbolic Z-matrix:
 Charge =  0 Multiplicity = 1
 N                    -3.01135   2.24941  -0.84116 
 C                    -3.32753   0.90645  -0.81107 
 C                    -3.19737   2.74058  -2.1413 
 C                    -3.70711   0.53097  -2.10189 
 C                    -3.60698   1.68991  -2.92441 
 H                    -3.8402    1.73785  -3.9813 
 H                    -2.87849   2.81727   0.01078 
 H                    -3.26787   0.2697    0.04487 
 H                    -3.03      3.75846  -2.46423 
 H                    -4.11572  -0.38782  -2.43407 
 
 ITRead=  0  0  0  0  0  0  0  0  0  0
 MicOpt= -1 -1 -1 -1 -1 -1 -1 -1 -1 -1
 NAtoms=     10 NQM=       10 NQMF=       0 NMMI=      0 NMMIF=      0
                NMic=       0 NMicF=      0.
                    Isotopes and Nuclear Properties:
 (Nuclear quadrupole moments (NQMom) in fm**2, nuclear magnetic moments (NMagM)
  in nuclear magnetons)

  Atom         1           2           3           4           5           6           7           8           9          10
 IAtWgt=          14          12          12          12          12           1           1           1           1           1
 AtmWgt=  14.0030740  12.0000000  12.0000000  12.0000000  12.0000000   1.0078250   1.0078250   1.0078250   1.0078250   1.0078250
 NucSpn=           2           0           0           0           0           1           1           1           1           1
 AtZEff=  -0.0000000  -0.0000000  -0.0000000  -0.0000000  -0.0000000  -0.0000000  -0.0000000  -0.0000000  -0.0000000  -0.0000000
 NQMom=    2.0440000   0.0000000   0.0000000   0.0000000   0.0000000   0.0000000   0.0000000   0.0000000   0.0000000   0.0000000
 NMagM=    0.4037610   0.0000000   0.0000000   0.0000000   0.0000000   2.7928460   2.7928460   2.7928460   2.7928460   2.7928460
 AtZNuc=   7.0000000   6.0000000   6.0000000   6.0000000   6.0000000   1.0000000   1.0000000   1.0000000   1.0000000   1.0000000
 Leave Link  101 at Fri Sep 22 16:27:04 2023, MaxMem=  1073741824 cpu:               0.8 elap:               0.1
 (Enter /share/apps/gaussian/g16/l202.exe)
                          Input orientation:                          
 ---------------------------------------------------------------------
 Center     Atomic      Atomic             Coordinates (Angstroms)
 Number     Number       Type             X           Y           Z
 ---------------------------------------------------------------------
      1          7           0       -3.011347    2.249415   -0.841158
      2          6           0       -3.327529    0.906449   -0.811065
      3          6           0       -3.197367    2.740577   -2.141305
      4          6           0       -3.707114    0.530969   -2.101887
      5          6           0       -3.606982    1.689908   -2.924413
      6          1           0       -3.840202    1.737854   -3.981298
      7          1           0       -2.878485    2.817268    0.010781
      8          1           0       -3.267874    0.269696    0.044869
      9          1           0       -3.029999    3.758459   -2.464232
     10          1           0       -4.115721   -0.387823   -2.434072
 ---------------------------------------------------------------------
                    Distance matrix (angstroms):
                    1          2          3          4          5
     1  N    0.000000
     2  C    1.380012   0.000000
     3  C    1.402222   2.269473   0.000000
     4  C    2.242005   1.396886   2.267987   0.000000
     5  C    2.237807   2.271154   1.372934   1.424681   0.000000
     6  H    3.287731   3.317295   2.191863   2.237514   1.083373
     7  H    1.032429   2.127981   2.176934   3.221359   3.227540
     8  H    2.184064   1.068474   3.299936   2.206753   3.308872
     9  H    2.216288   3.309901   1.080915   3.317600   2.196265
    10  H    3.272925   2.220481   3.273526   1.059002   2.194587
                    6          7          8          9         10
     6  H    0.000000
     7  H    4.245789   0.000000
     8  H    4.323548   2.577384   0.000000
     9  H    2.653443   2.652260   4.303910   0.000000
    10  H    2.643543   4.216712   2.701171   4.286182   0.000000
 Stoichiometry    C4H5N
 Framework group  C1[X(C4H5N)]
 Deg. of freedom    24
 Full point group                 C1      NOp   1
 Largest Abelian subgroup         C1      NOp   1
 Largest concise Abelian subgroup C1      NOp   1
                         Standard orientation:                         
 ---------------------------------------------------------------------
 Center     Atomic      Atomic             Coordinates (Angstroms)
 Number     Number       Type             X           Y           Z
 ---------------------------------------------------------------------
      1          7           0       -0.955154   -0.622393   -0.017369
      2          6           0       -0.911669    0.756922   -0.011727
      3          6           0        0.352754   -1.127644    0.000631
      4          6           0        0.431926    1.138959   -0.002151
      5          6           0        1.209460   -0.054828   -0.007639
      6          1           0        2.291569   -0.105279    0.006164
      7          1           0       -1.818070   -1.160672    0.160230
      8          1           0       -1.758048    1.408669   -0.034167
      9          1           0        0.628423   -2.172813    0.002978
     10          1           0        0.847375    2.106392    0.111691
 ---------------------------------------------------------------------
 Rotational constants (GHZ):           9.0611249           8.8709798           4.4861160
 Leave Link  202 at Fri Sep 22 16:27:04 2023, MaxMem=  1073741824 cpu:               0.1 elap:               0.0
 (Enter /share/apps/gaussian/g16/l301.exe)
 General basis read from cards:  (5D, 7F)
 Centers:       6      7      8      9     10
 S 3 1.00
     Exponent=  1.2251800000D+01 Coefficients=  2.3337100000D-02
     Exponent=  1.8687100000D+00 Coefficients=  1.5915000000D-01
     Exponent=  4.1820800000D-01 Coefficients=  5.0000000000D-01
 S 1 1.00
     Exponent=  1.0610000000D-01 Coefficients=  1.0000000000D+00
 P 1 1.00
     Exponent=  1.0000000000D+00 Coefficients=  1.0000000000D+00
 ****
 Centers:       2      3      4      5
 S 5 1.00
     Exponent=  1.2432000000D+03 Coefficients=  6.0336600000D-03
     Exponent=  1.8714500000D+02 Coefficients=  4.4957600000D-02
     Exponent=  4.2512600000D+01 Coefficients=  1.9790100000D-01
     Exponent=  1.1739300000D+01 Coefficients=  5.0000000000D-01
     Exponent=  3.5054800000D+00 Coefficients=  4.8036400000D-01
 S 2 1.00
     Exponent=  5.3908900000D+00 Coefficients= -7.0398000000D-02
     Exponent=  4.9334100000D-01 Coefficients=  5.0000000000D-01
 S 1 1.00
     Exponent=  1.4974100000D-01 Coefficients=  1.0000000000D+00
 P 3 1.00
     Exponent=  9.1805600000D+00 Coefficients=  4.3170100000D-02
     Exponent=  1.9365800000D+00 Coefficients=  2.2499900000D-01
     Exponent=  5.2629600000D-01 Coefficients=  5.0000000000D-01
 P 1 1.00
     Exponent=  1.3631900000D-01 Coefficients=  1.0000000000D+00
 D 1 1.00
     Exponent=  8.0000000000D-01 Coefficients=  1.0000000000D+00
 ****
 Centers:       1
 S 5 1.00
     Exponent=  1.7263200000D+03 Coefficients=  5.9307700000D-03
     Exponent=  2.5982700000D+02 Coefficients=  4.4253900000D-02
     Exponent=  5.9033500000D+01 Coefficients=  1.9609600000D-01
     Exponent=  1.6350900000D+01 Coefficients=  5.0000000000D-01
     Exponent=  4.9108400000D+00 Coefficients=  4.8298700000D-01
 S 2 1.00
     Exponent=  7.7589400000D+00 Coefficients= -7.0335600000D-02
     Exponent=  7.0557300000D-01 Coefficients=  5.0000000000D-01
 S 1 1.00
     Exponent=  2.0928600000D-01 Coefficients=  1.0000000000D+00
 P 3 1.00
     Exponent=  1.3184400000D+01 Coefficients=  4.4074700000D-02
     Exponent=  2.8186000000D+00 Coefficients=  2.3047800000D-01
     Exponent=  7.6557100000D-01 Coefficients=  5.0000000000D-01
 P 1 1.00
     Exponent=  1.9594900000D-01 Coefficients=  1.0000000000D+00
 D 1 1.00
     Exponent=  9.0000000000D-01 Coefficients=  1.0000000000D+00
 ****
 Ernie: Thresh=  0.10000D-02 Tol=  0.10000D-05 Strict=F.
 There are   100 symmetry adapted cartesian basis functions of A   symmetry.
 There are    95 symmetry adapted basis functions of A   symmetry.
    95 basis functions,   165 primitive gaussians,   100 cartesian basis functions
    18 alpha electrons       18 beta electrons
       nuclear repulsion energy       159.8519632437 Hartrees.
 IExCor=  402 DFT=T Ex+Corr=B3LYP ExCW=0 ScaHFX=  0.200000
 ScaDFX=  0.800000  0.720000  1.000000  0.810000 ScalE2=  1.000000  1.000000
 IRadAn=      5 IRanWt=     -1 IRanGd=            0 ICorTp=0 IEmpDi=141
 NAtoms=   10 NActive=   10 NUniq=   10 SFac= 1.00D+00 NAtFMM=   60 NAOKFM=F Big=F
 Integral buffers will be    131072 words long.
 Raffenetti 2 integral format.
 Two-electron integral symmetry is turned on.
 R6Disp:  Grimme-D3(BJ) Dispersion energy=       -0.0131542820 Hartrees.
 Nuclear repulsion after empirical dispersion term =      159.8388089617 Hartrees.
 ------------------------------------------------------------------------------
 Polarizable Continuum Model (PCM)
 =================================
 Model                : C-PCM.
 Atomic radii         : UFF (Universal Force Field).
 Polarization charges : Total charges.
 Charge compensation  : None.
 Solution method      : On-the-fly selection.
 Cavity type          : Scaled VdW (van der Waals Surface) (Alpha=1.100).
 Cavity algorithm     : GePol (No added spheres)
                        Default sphere list used, NSphG=   10.
                        Lebedev-Laikov grids with approx.  5.0 points / Ang**2.
                        Smoothing algorithm: York/Karplus (Gamma=1.0000).
                        Polarization charges: spherical gaussians, with
                                              point-specific exponents (IZeta= 3).
                        Self-potential: point-specific (ISelfS= 7).
                        Self-field    : sphere-specific E.n sum rule (ISelfD= 2).
 Solvent              : Toluene, Eps=   2.374100 Eps(inf)=   2.238315
 ------------------------------------------------------------------------------
 Spheres list:
 ISph  on   Nord     Re0    Alpha      Xe            Ye            Ze
    1   N      1    1.8300  1.100     -0.955154     -0.622393     -0.017369
    2   C      2    1.9255  1.100     -0.911669      0.756922     -0.011727
    3   C      3    1.9255  1.100      0.352754     -1.127644      0.000631
    4   C      4    1.9255  1.100      0.431926      1.138959     -0.002151
    5   C      5    1.9255  1.100      1.209460     -0.054828     -0.007639
    6   H      6    1.4430  1.100      2.291569     -0.105279      0.006164
    7   H      7    1.4430  1.100     -1.818070     -1.160672      0.160230
    8   H      8    1.4430  1.100     -1.758048      1.408669     -0.034167
    9   H      9    1.4430  1.100      0.628423     -2.172813      0.002978
   10   H     10    1.4430  1.100      0.847375      2.106392      0.111691
 ------------------------------------------------------------------------------
 GePol: Number of generator spheres                  =      10
 GePol: Total number of spheres                      =      10
 GePol: Number of exposed spheres                    =      10 (100.00%)
 GePol: Number of points                             =     931
 GePol: Average weight of points                     =       0.13
 GePol: Minimum weight of points                     =   0.32D-06
 GePol: Maximum weight of points                     =    0.20577
 GePol: Number of points with low weight             =      49
 GePol: Fraction of low-weight points (<1% of avg)   =       5.26%
 GePol: Cavity surface area                          =    125.397 Ang**2
 GePol: Cavity volume                                =    113.333 Ang**3
 Leave Link  301 at Fri Sep 22 16:27:04 2023, MaxMem=  1073741824 cpu:               0.8 elap:               0.1
 (Enter /share/apps/gaussian/g16/l302.exe)
 NPDir=0 NMtPBC=     1 NCelOv=     1 NCel=       1 NClECP=     1 NCelD=      1
         NCelK=      1 NCelE2=     1 NClLst=     1 CellRange=     0.0.
 One-electron integrals computed using PRISM.
 One-electron integral symmetry used in STVInt
 NBasis=    95 RedAO= T EigKep=  1.20D-03  NBF=    95
 NBsUse=    95 1.00D-06 EigRej= -1.00D+00 NBFU=    95
 Precomputing XC quadrature grid using
 IXCGrd= 4 IRadAn=           5 IRanWt=          -1 IRanGd=           0 AccXCQ= 0.00D+00.
 Generated NRdTot=       0 NPtTot=           0 NUsed=           0 NTot=          32
 NSgBfM=   100   100   100   100   100 MxSgAt=    10 MxSgA2=    10.
 Leave Link  302 at Fri Sep 22 16:27:05 2023, MaxMem=  1073741824 cpu:               1.1 elap:               0.2
 (Enter /share/apps/gaussian/g16/l303.exe)
 DipDrv:  MaxL=1.
 Leave Link  303 at Fri Sep 22 16:27:05 2023, MaxMem=  1073741824 cpu:               0.4 elap:               0.1
 (Enter /share/apps/gaussian/g16/l401.exe)
 ExpMin= 1.06D-01 ExpMax= 1.73D+03 ExpMxC= 2.60D+02 IAcc=3 IRadAn=         5 AccDes= 0.00D+00
 Harris functional with IExCor=  402 and IRadAn=       5 diagonalized for initial guess.
 HarFok:  IExCor=  402 AccDes= 0.00D+00 IRadAn=         5 IDoV= 1 UseB2=F ITyADJ=14
 ICtDFT=  3500011 ScaDFX=  1.000000  1.000000  1.000000  1.000000
 FoFCou: FMM=F IPFlag=           0 FMFlag=      100000 FMFlg1=           0
         NFxFlg=           0 DoJE=T BraDBF=F KetDBF=T FulRan=T
         wScrn=  0.000000 ICntrl=       500 IOpCl=  0 I1Cent=   200000004 NGrid=           0
         NMat0=    1 NMatS0=      1 NMatT0=    0 NMatD0=    1 NMtDS0=    0 NMtDT0=    0
 Petite list used in FoFCou.
 Harris En= -210.158238654860    
 JPrj=0 DoOrth=F DoCkMO=F.
 Leave Link  401 at Fri Sep 22 16:27:05 2023, MaxMem=  1073741824 cpu:               3.3 elap:               0.4
 (Enter /share/apps/gaussian/g16/l502.exe)
 Keep R1 ints in memory in canonical form, NReq=17802764.
 FoFCou: FMM=F IPFlag=           0 FMFlag=           0 FMFlg1=           0
         NFxFlg=           0 DoJE=F BraDBF=F KetDBF=F FulRan=T
         wScrn=  0.000000 ICntrl=       600 IOpCl=  0 I1Cent=           0 NGrid=           0
         NMat0=    1 NMatS0=   4560 NMatT0=    0 NMatD0=    1 NMtDS0=    0 NMtDT0=    0
 Symmetry not used in FoFCou.
 Two-electron integral symmetry not used.
 Closed shell SCF:
 Using DIIS extrapolation, IDIIS=  1040.
 NGot=  1073741824 LenX=  1063320742 LenY=  1063310301
 Requested convergence on RMS density matrix=1.00D-08 within 128 cycles.
 Requested convergence on MAX density matrix=1.00D-06.
 Requested convergence on             energy=1.00D-06.
 No special actions if energy rises.

 Cycle   1  Pass 1  IDiag  1:
 Inv3:  Mode=1 IEnd=     2600283.
 Iteration    1 A*A^-1 deviation from unit magnitude is 3.33D-15 for    498.
 Iteration    1 A*A^-1 deviation from orthogonality  is 2.54D-15 for    923    753.
 Iteration    1 A^-1*A deviation from unit magnitude is 3.11D-15 for    322.
 Iteration    1 A^-1*A deviation from orthogonality  is 1.82D-15 for    912     99.
 E= -210.008015959365    
 DIIS: error= 3.16D-02 at cycle   1 NSaved=   1.
 NSaved= 1 IEnMin= 1 EnMin= -210.008015959365     IErMin= 1 ErrMin= 3.16D-02
 ErrMax= 3.16D-02  0.00D+00 EMaxC= 1.00D-01 BMatC= 1.15D-01 BMatP= 1.15D-01
 IDIUse=3 WtCom= 6.84D-01 WtEn= 3.16D-01
 Coeff-Com:  0.100D+01
 Coeff-En:   0.100D+01
 Coeff:      0.100D+01
 Gap=     0.213 Goal=   None    Shift=    0.000
 GapD=    0.213 DampG=1.000 DampE=0.500 DampFc=0.5000 IDamp=-1.
 Damping current iteration by 5.00D-01
 RMSDP=8.38D-03 MaxDP=1.58D-01              OVMax= 2.31D-01

 Cycle   2  Pass 1  IDiag  1:
 E= -210.065794903351     Delta-E=       -0.057778943986 Rises=F Damp=T
 DIIS: error= 6.81D-03 at cycle   2 NSaved=   2.
 NSaved= 2 IEnMin= 2 EnMin= -210.065794903351     IErMin= 2 ErrMin= 6.81D-03
 ErrMax= 6.81D-03  0.00D+00 EMaxC= 1.00D-01 BMatC= 7.53D-03 BMatP= 1.15D-01
 IDIUse=3 WtCom= 9.32D-01 WtEn= 6.81D-02
 Coeff-Com:  0.111D+00 0.889D+00
 Coeff-En:   0.174D+00 0.826D+00
 Coeff:      0.115D+00 0.885D+00
 Gap=     0.258 Goal=   None    Shift=    0.000
 RMSDP=2.24D-03 MaxDP=2.63D-02 DE=-5.78D-02 OVMax= 1.54D-01

 Cycle   3  Pass 1  IDiag  1:
 E= -210.142704020506     Delta-E=       -0.076909117155 Rises=F Damp=F
 DIIS: error= 6.94D-03 at cycle   3 NSaved=   3.
 NSaved= 3 IEnMin= 3 EnMin= -210.142704020506     IErMin= 2 ErrMin= 6.81D-03
 ErrMax= 6.94D-03  0.00D+00 EMaxC= 1.00D-01 BMatC= 4.94D-03 BMatP= 7.53D-03
 IDIUse=3 WtCom= 9.31D-01 WtEn= 6.94D-02
 Coeff-Com:  0.230D-01 0.440D+00 0.537D+00
 Coeff-En:   0.000D+00 0.000D+00 0.100D+01
 Coeff:      0.214D-01 0.410D+00 0.569D+00
 Gap=     0.239 Goal=   None    Shift=    0.000
 RMSDP=9.67D-04 MaxDP=2.30D-02 DE=-7.69D-02 OVMax= 4.04D-02

 Cycle   4  Pass 1  IDiag  1:
 E= -210.146363974219     Delta-E=       -0.003659953714 Rises=F Damp=F
 DIIS: error= 4.08D-03 at cycle   4 NSaved=   4.
 NSaved= 4 IEnMin= 4 EnMin= -210.146363974219     IErMin= 4 ErrMin= 4.08D-03
 ErrMax= 4.08D-03  0.00D+00 EMaxC= 1.00D-01 BMatC= 1.35D-03 BMatP= 4.94D-03
 IDIUse=3 WtCom= 9.59D-01 WtEn= 4.08D-02
 Coeff-Com: -0.219D-03 0.106D+00 0.356D+00 0.538D+00
 Coeff-En:   0.000D+00 0.000D+00 0.238D+00 0.762D+00
 Coeff:     -0.210D-03 0.102D+00 0.351D+00 0.547D+00
 Gap=     0.241 Goal=   None    Shift=    0.000
 RMSDP=3.67D-04 MaxDP=9.06D-03 DE=-3.66D-03 OVMax= 1.48D-02

 Cycle   5  Pass 1  IDiag  1:
 E= -210.147662090843     Delta-E=       -0.001298116624 Rises=F Damp=F
 DIIS: error= 5.02D-04 at cycle   5 NSaved=   5.
 NSaved= 5 IEnMin= 5 EnMin= -210.147662090843     IErMin= 5 ErrMin= 5.02D-04
 ErrMax= 5.02D-04  0.00D+00 EMaxC= 1.00D-01 BMatC= 2.13D-05 BMatP= 1.35D-03
 IDIUse=3 WtCom= 9.95D-01 WtEn= 5.02D-03
 Coeff-Com: -0.176D-02 0.117D-01 0.880D-01 0.189D+00 0.713D+00
 Coeff-En:   0.000D+00 0.000D+00 0.000D+00 0.000D+00 0.100D+01
 Coeff:     -0.175D-02 0.117D-01 0.875D-01 0.188D+00 0.715D+00
 Gap=     0.241 Goal=   None    Shift=    0.000
 RMSDP=4.98D-05 MaxDP=1.59D-03 DE=-1.30D-03 OVMax= 1.92D-03

 Cycle   6  Pass 1  IDiag  1:
 E= -210.147674307714     Delta-E=       -0.000012216872 Rises=F Damp=F
 DIIS: error= 2.22D-04 at cycle   6 NSaved=   6.
 NSaved= 6 IEnMin= 6 EnMin= -210.147674307714     IErMin= 6 ErrMin= 2.22D-04
 ErrMax= 2.22D-04  0.00D+00 EMaxC= 1.00D-01 BMatC= 7.28D-06 BMatP= 2.13D-05
 IDIUse=3 WtCom= 9.98D-01 WtEn= 2.22D-03
 Coeff-Com: -0.122D-02-0.182D-02 0.249D-01 0.710D-01 0.427D+00 0.480D+00
 Coeff-En:   0.000D+00 0.000D+00 0.000D+00 0.000D+00 0.238D+00 0.762D+00
 Coeff:     -0.121D-02-0.181D-02 0.248D-01 0.709D-01 0.427D+00 0.480D+00
 Gap=     0.241 Goal=   None    Shift=    0.000
 RMSDP=2.03D-05 MaxDP=5.33D-04 DE=-1.22D-05 OVMax= 7.49D-04

 Cycle   7  Pass 1  IDiag  1:
 E= -210.147680625342     Delta-E=       -0.000006317627 Rises=F Damp=F
 DIIS: error= 7.21D-06 at cycle   7 NSaved=   7.
 NSaved= 7 IEnMin= 7 EnMin= -210.147680625342     IErMin= 7 ErrMin= 7.21D-06
 ErrMax= 7.21D-06  0.00D+00 EMaxC= 1.00D-01 BMatC= 1.07D-08 BMatP= 7.28D-06
 IDIUse=1 WtCom= 1.00D+00 WtEn= 0.00D+00
 Coeff-Com:  0.388D-05-0.641D-03 0.467D-03 0.216D-02 0.265D-01 0.538D-01
 Coeff-Com:  0.918D+00
 Coeff:      0.388D-05-0.641D-03 0.467D-03 0.216D-02 0.265D-01 0.538D-01
 Coeff:      0.918D+00
 Gap=     0.241 Goal=   None    Shift=    0.000
 RMSDP=1.60D-06 MaxDP=2.04D-05 DE=-6.32D-06 OVMax= 3.47D-05

 Cycle   8  Pass 1  IDiag  1:
 E= -210.147680636662     Delta-E=       -0.000000011320 Rises=F Damp=F
 DIIS: error= 1.97D-06 at cycle   8 NSaved=   8.
 NSaved= 8 IEnMin= 8 EnMin= -210.147680636662     IErMin= 8 ErrMin= 1.97D-06
 ErrMax= 1.97D-06  0.00D+00 EMaxC= 1.00D-01 BMatC= 5.85D-10 BMatP= 1.07D-08
 IDIUse=1 WtCom= 1.00D+00 WtEn= 0.00D+00
 Coeff-Com:  0.285D-04-0.146D-03-0.206D-03-0.575D-03 0.658D-03 0.643D-02
 Coeff-Com:  0.232D+00 0.762D+00
 Coeff:      0.285D-04-0.146D-03-0.206D-03-0.575D-03 0.658D-03 0.643D-02
 Coeff:      0.232D+00 0.762D+00
 Gap=     0.241 Goal=   None    Shift=    0.000
 RMSDP=4.23D-07 MaxDP=8.47D-06 DE=-1.13D-08 OVMax= 1.64D-05

 Cycle   9  Pass 1  IDiag  1:
 E= -210.147680636973     Delta-E=       -0.000000000310 Rises=F Damp=F
 DIIS: error= 1.55D-06 at cycle   9 NSaved=   9.
 NSaved= 9 IEnMin= 9 EnMin= -210.147680636973     IErMin= 9 ErrMin= 1.55D-06
 ErrMax= 1.55D-06  0.00D+00 EMaxC= 1.00D-01 BMatC= 3.15D-10 BMatP= 5.85D-10
 IDIUse=1 WtCom= 1.00D+00 WtEn= 0.00D+00
 Coeff-Com:  0.181D-04-0.152D-04-0.169D-03-0.607D-03-0.264D-02-0.227D-02
 Coeff-Com:  0.315D-01 0.455D+00 0.519D+00
 Coeff:      0.181D-04-0.152D-04-0.169D-03-0.607D-03-0.264D-02-0.227D-02
 Coeff:      0.315D-01 0.455D+00 0.519D+00
 Gap=     0.241 Goal=   None    Shift=    0.000
 RMSDP=1.92D-07 MaxDP=3.38D-06 DE=-3.10D-10 OVMax= 7.76D-06

 Cycle  10  Pass 1  IDiag  1:
 E= -210.147680637300     Delta-E=       -0.000000000328 Rises=F Damp=F
 DIIS: error= 2.05D-07 at cycle  10 NSaved=  10.
 NSaved=10 IEnMin=10 EnMin= -210.147680637300     IErMin=10 ErrMin= 2.05D-07
 ErrMax= 2.05D-07  0.00D+00 EMaxC= 1.00D-01 BMatC= 4.67D-12 BMatP= 3.15D-10
 IDIUse=1 WtCom= 1.00D+00 WtEn= 0.00D+00
 Coeff-Com:  0.601D-05-0.698D-07-0.531D-04-0.211D-03-0.104D-02-0.101D-02
 Coeff-Com:  0.185D-02 0.137D+00 0.188D+00 0.675D+00
 Coeff:      0.601D-05-0.698D-07-0.531D-04-0.211D-03-0.104D-02-0.101D-02
 Coeff:      0.185D-02 0.137D+00 0.188D+00 0.675D+00
 Gap=     0.241 Goal=   None    Shift=    0.000
 RMSDP=3.19D-08 MaxDP=8.62D-07 DE=-3.28D-10 OVMax= 1.68D-06

 Cycle  11  Pass 1  IDiag  1:
 E= -210.147680637309     Delta-E=       -0.000000000009 Rises=F Damp=F
 DIIS: error= 9.84D-08 at cycle  11 NSaved=  11.
 NSaved=11 IEnMin=11 EnMin= -210.147680637309     IErMin=11 ErrMin= 9.84D-08
 ErrMax= 9.84D-08  0.00D+00 EMaxC= 1.00D-01 BMatC= 1.73D-12 BMatP= 4.67D-12
 IDIUse=1 WtCom= 1.00D+00 WtEn= 0.00D+00
 Coeff-Com:  0.166D-05 0.161D-05-0.125D-04-0.604D-04-0.342D-03-0.331D-03
 Coeff-Com: -0.286D-02 0.310D-01 0.542D-01 0.413D+00 0.505D+00
 Coeff:      0.166D-05 0.161D-05-0.125D-04-0.604D-04-0.342D-03-0.331D-03
 Coeff:     -0.286D-02 0.310D-01 0.542D-01 0.413D+00 0.505D+00
 Gap=     0.241 Goal=   None    Shift=    0.000
 RMSDP=1.32D-08 MaxDP=3.75D-07 DE=-8.53D-12 OVMax= 7.14D-07

 Cycle  12  Pass 1  IDiag  1:
 E= -210.147680637306     Delta-E=        0.000000000003 Rises=F Damp=F
 DIIS: error= 1.26D-08 at cycle  12 NSaved=  12.
 NSaved=12 IEnMin=11 EnMin= -210.147680637309     IErMin=12 ErrMin= 1.26D-08
 ErrMax= 1.26D-08  0.00D+00 EMaxC= 1.00D-01 BMatC= 3.42D-14 BMatP= 1.73D-12
 IDIUse=1 WtCom= 1.00D+00 WtEn= 0.00D+00
 Coeff-Com: -0.111D-07 0.230D-06 0.163D-05 0.173D-05-0.206D-05 0.236D-04
 Coeff-Com: -0.832D-03-0.280D-02-0.189D-02 0.441D-01 0.134D+00 0.828D+00
 Coeff:     -0.111D-07 0.230D-06 0.163D-05 0.173D-05-0.206D-05 0.236D-04
 Coeff:     -0.832D-03-0.280D-02-0.189D-02 0.441D-01 0.134D+00 0.828D+00
 Gap=     0.241 Goal=   None    Shift=    0.000
 RMSDP=2.42D-09 MaxDP=3.17D-08 DE= 2.84D-12 OVMax= 6.86D-08

 Error on total polarization charges =  0.00619
 SCF Done:  E(RB3LYP) =  -210.147680637     A.U. after   12 cycles
            NFock= 12  Conv=0.24D-08     -V/T= 2.0057
 KE= 2.089516923696D+02 PE=-8.077955037520D+02 EE= 2.288573217834D+02
 Leave Link  502 at Fri Sep 22 16:27:12 2023, MaxMem=  1073741824 cpu:              48.4 elap:               6.4
 (Enter /share/apps/gaussian/g16/l601.exe)
 Copying SCF densities to generalized density rwf, IOpCl= 0 IROHF=0.

 **********************************************************************

            Population analysis using the SCF density.

 **********************************************************************

 Orbital symmetries:
       Occupied  (A) (A) (A) (A) (A) (A) (A) (A) (A) (A) (A) (A)
                 (A) (A) (A) (A) (A) (A)
       Virtual   (A) (A) (A) (A) (A) (A) (A) (A) (A) (A) (A) (A)
                 (A) (A) (A) (A) (A) (A) (A) (A) (A) (A) (A) (A)
                 (A) (A) (A) (A) (A) (A) (A) (A) (A) (A) (A) (A)
                 (A) (A) (A) (A) (A) (A) (A) (A) (A) (A) (A) (A)
                 (A) (A) (A) (A) (A) (A) (A) (A) (A) (A) (A) (A)
                 (A) (A) (A) (A) (A) (A) (A) (A) (A) (A) (A) (A)
                 (A) (A) (A) (A) (A)
 The electronic state is 1-A.
 Alpha  occ. eigenvalues --  -14.36630 -10.19945 -10.19815 -10.15967 -10.15865
 Alpha  occ. eigenvalues --   -0.97256  -0.77437  -0.72229  -0.59038  -0.56413
 Alpha  occ. eigenvalues --   -0.54898  -0.43692  -0.43177  -0.40616  -0.39347
 Alpha  occ. eigenvalues --   -0.37378  -0.25197  -0.22027
 Alpha virt. eigenvalues --    0.02081   0.04442   0.06808   0.08387   0.09395
 Alpha virt. eigenvalues --    0.10347   0.12094   0.20157   0.20849   0.27318
 Alpha virt. eigenvalues --    0.28036   0.37028   0.38072   0.43236   0.44891
 Alpha virt. eigenvalues --    0.47599   0.48489   0.49474   0.50128   0.52378
 Alpha virt. eigenvalues --    0.52933   0.56380   0.63012   0.64573   0.68683
 Alpha virt. eigenvalues --    0.69526   0.72563   0.74165   0.81664   0.84769
 Alpha virt. eigenvalues --    0.88756   0.96912   0.99652   1.07287   1.11077
 Alpha virt. eigenvalues --    1.22466   1.27974   1.35311   1.37669   1.38819
 Alpha virt. eigenvalues --    1.40291   1.45261   1.70553   1.75251   1.78055
 Alpha virt. eigenvalues --    1.83892   1.86591   1.89050   1.89970   1.93687
 Alpha virt. eigenvalues --    1.97615   2.00888   2.12456   2.14135   2.18250
 Alpha virt. eigenvalues --    2.19019   2.26140   2.29270   2.31905   2.32622
 Alpha virt. eigenvalues --    2.34800   2.37195   2.44342   2.45894   2.58147
 Alpha virt. eigenvalues --    2.67546   2.69764   2.77070   2.77594   2.90093
 Alpha virt. eigenvalues --    2.95040   3.04795   3.13102   3.15646   3.28427
 Alpha virt. eigenvalues --    3.71354   3.73247
          Condensed to atoms (all electrons):
               1          2          3          4          5          6
     1  N    6.493716   0.390207   0.379701  -0.090900  -0.085867   0.004786
     2  C    0.390207   4.865833  -0.161021   0.526394  -0.111548   0.013493
     3  C    0.379701  -0.161021   4.877937  -0.110767   0.530868  -0.046554
     4  C   -0.090900   0.526394  -0.110767   4.969385   0.491070  -0.046042
     5  C   -0.085867  -0.111548   0.530868   0.491070   4.978772   0.428169
     6  H    0.004786   0.013493  -0.046554  -0.046042   0.428169   0.609974
     7  H    0.368359  -0.025662  -0.025447   0.008173   0.007875  -0.000207
     8  H   -0.034105   0.418818   0.004041  -0.038945   0.007241  -0.000129
     9  H   -0.034225   0.003631   0.417054   0.008002  -0.039370  -0.005924
    10  H    0.004533  -0.046488   0.014162   0.432508  -0.048124  -0.010306
               7          8          9         10
     1  N    0.368359  -0.034105  -0.034225   0.004533
     2  C   -0.025662   0.418818   0.003631  -0.046488
     3  C   -0.025447   0.004041   0.417054   0.014162
     4  C    0.008173  -0.038945   0.008002   0.432508
     5  C    0.007875   0.007241  -0.039370  -0.048124
     6  H   -0.000207  -0.000129  -0.005924  -0.010306
     7  H    0.472941  -0.005016  -0.004255  -0.000210
     8  H   -0.005016   0.575101  -0.000201  -0.005201
     9  H   -0.004255  -0.000201   0.574292  -0.000169
    10  H   -0.000210  -0.005201  -0.000169   0.617246
 Mulliken charges:
               1
     1  N   -0.396206
     2  C    0.126343
     3  C    0.120024
     4  C   -0.148877
     5  C   -0.159084
     6  H    0.052740
     7  H    0.203449
     8  H    0.078396
     9  H    0.081164
    10  H    0.042050
 Sum of Mulliken charges =  -0.00000
 Mulliken charges with hydrogens summed into heavy atoms:
               1
     1  N   -0.192757
     2  C    0.204740
     3  C    0.201189
     4  C   -0.106827
     5  C   -0.106344
 Electronic spatial extent (au):  <R**2>=            309.2062
 Charge=             -0.0000 electrons
 Dipole moment (field-independent basis, Debye):
    X=             -1.7241    Y=             -1.1362    Z=              0.3959  Tot=              2.1024
 Quadrupole moment (field-independent basis, Debye-Ang):
   XX=            -24.4661   YY=            -26.0946   ZZ=            -34.3937
   XY=              1.2577   XZ=             -0.4019   YZ=             -0.1777
 Traceless Quadrupole moment (field-independent basis, Debye-Ang):
   XX=              3.8520   YY=              2.2235   ZZ=             -6.0755
   XY=              1.2577   XZ=             -0.4019   YZ=             -0.1777
 Octapole moment (field-independent basis, Debye-Ang**2):
  XXX=            -10.0462  YYY=             -5.5686  ZZZ=              0.4507  XYY=             -3.2977
  XXY=             -3.2864  XXZ=              1.2588  XZZ=             -2.1438  YZZ=             -1.3506
  YYZ=              1.0968  XYZ=              1.0437
 Hexadecapole moment (field-independent basis, Debye-Ang**3):
 XXXX=           -163.4698 YYYY=           -173.6747 ZZZZ=            -40.8337 XXXY=              8.0826
 XXXZ=             -1.6943 YYYX=              3.5962 YYYZ=              0.5455 ZZZX=             -0.2732
 ZZZY=             -0.0292 XXYY=            -53.5151 XXZZ=            -42.9965 YYZZ=            -43.9467
 XXYZ=             -1.2385 YYXZ=             -0.2508 ZZXY=              1.5973
 N-N= 1.598388089617D+02 E-N=-8.077955039427D+02  KE= 2.089516923696D+02
 There are a total of      221424 grid points.
 ElSum from          density=       35.9999969112
 ElSum from atomic densities=       35.9999906054
 Hirshfeld populations at iteration   1 (CA, CB, DipXYZ):
               1          2          3          4          5
     1  N    3.523172   3.523172  -0.032203  -0.023706   0.031301
     2  C    3.016797   3.016797  -0.096691  -0.039005   0.000906
     3  C    3.019097   3.019097  -0.076534  -0.072659   0.003071
     4  C    3.050618   3.050618   0.042518   0.067914   0.007289
     5  C    3.048618   3.048618   0.084033   0.018944   0.000236
     6  H    0.481236   0.481236   0.156793  -0.003617   0.003422
     7  H    0.426297   0.426297  -0.172330  -0.105255   0.036701
     8  H    0.475942   0.475942  -0.126652   0.106712  -0.003261
     9  H    0.475824   0.475824   0.051732  -0.157111   0.001267
    10  H    0.482398   0.482398   0.069825   0.141825   0.021141
       Tot  17.999998  17.999998  -0.099509  -0.065957   0.102073

 Dip from Atomic Chgs             -0.578791  -0.381073   0.053701
         Total Dipole             -0.678300  -0.447031   0.155774

 Hirshfeld charges, spin densities, dipoles, and CM5 charges using IRadAn=      5:
              Q-H        S-H        Dx         Dy         Dz        Q-CM5   
     1  N   -0.046344   0.000000  -0.032203  -0.023706   0.031301  -0.388728
     2  C   -0.033593   0.000000  -0.096691  -0.039005   0.000906  -0.023185
     3  C   -0.038195   0.000000  -0.076534  -0.072659   0.003071  -0.029705
     4  C   -0.101236   0.000000   0.042518   0.067914   0.007289  -0.151036
     5  C   -0.097237   0.000000   0.084033   0.018944   0.000236  -0.144327
     6  H    0.037528   0.000000   0.156793  -0.003617   0.003422   0.092866
     7  H    0.147406   0.000000  -0.172330  -0.105255   0.036701   0.328456
     8  H    0.048116   0.000000  -0.126652   0.106712  -0.003261   0.111974
     9  H    0.048352   0.000000   0.051732  -0.157111   0.001267   0.109982
    10  H    0.035204   0.000000   0.069825   0.141825   0.021141   0.093706
       Tot   0.000003   0.000000  -0.099509  -0.065957   0.102073   0.000003
 Hirshfeld charges with hydrogens summed into heavy atoms:
              Q-H       Q-CM5   
     1  N    0.101063  -0.060272
     2  C    0.014523   0.088789
     3  C    0.010158   0.080278
     4  C   -0.066033  -0.057331
     5  C   -0.059708  -0.051461
 
 EQQ= 0.000000000000E+00 EQD= 0.000000000000E+00 EDD= 0.630556811710E-02
 EQQ+QD+DD= 0.630556811710E-02
 
 No NMR shielding tensors so no spin-rotation constants.
 Leave Link  601 at Fri Sep 22 16:27:12 2023, MaxMem=  1073741824 cpu:               2.5 elap:               0.3
 (Enter /share/apps/gaussian/g16/l9999.exe)
 1\1\GINC-NODE101\SP\RB3LYP\Gen\C4H5N1\YANZ\22-Sep-2023\0\\#p b3lyp/gen
  scrf=(cpcm,solvent=toluene) pop=hirshfeld empiricaldispersion=gd3bj\\
 tmpdir/M1_conf_0_15.gjf\\0,1\N,0,-3.011347,2.249415,-0.84115797\C,0,-3
 .327529,0.906449,-0.81106502\C,0,-3.197367,2.740577,-2.14130497\C,0,-3
 .707114,0.530969,-2.10188699\C,0,-3.606982,1.689908,-2.92441297\H,0,-3
 .840202,1.737854,-3.98129797\H,0,-2.87848544,2.81726828,0.01078086\H,0
 ,-3.26787428,0.26969643,0.04486938\H,0,-3.02999949,3.75845916,-2.46423
 206\H,0,-4.11572086,-0.38782258,-2.4340717\\Version=ES64L-G16RevA.03\S
 tate=1-A\HF=-210.1476806\RMSD=2.421e-09\Dipole=0.0942668,0.4733011,0.6
 717888\Quadrupole=-3.9746955,1.4075047,2.5671908,1.4131383,1.40731,0.6
 984357\PG=C01 [X(C4H5N1)]\\@


 GOD GAVE US TWO ENDS... ONE TO SIT ON...    
 AND THE OTHER TO THINK WITH...              
 YOUR SUCCESS DEPENDS UPON WHICH END YOU     
 USE THE MOST...                             
                                             
 IT'S A CASE OF HEADS YOU WIN TAILS YOU LOSE.
          SOURCE UNKNOWN(IT'S JUST AS WELL.) 
 Job cpu time:       0 days  0 hours  0 minutes 58.2 seconds.
 Elapsed time:       0 days  0 hours  0 minutes  7.8 seconds.
 File lengths (MBytes):  RWF=     14 Int=      0 D2E=      0 Chk=      2 Scr=      1
 Normal termination of Gaussian 16 at Fri Sep 22 16:27:12 2023.
