 Entering Gaussian System, Link 0=g16
 Initial command:
 /share/apps/gaussian/g16/l1.exe "/tmp/55555.mgr/Gau-399818.inp" -scrdir="/tmp/55555.mgr/"
 Entering Link 1 = /share/apps/gaussian/g16/l1.exe PID=    399819.
  
 Copyright (c) 1988,1990,1992,1993,1995,1998,2003,2009,2016,
            Gaussian, Inc.  All Rights Reserved.
  
 This is part of the Gaussian(R) 16 program.  It is based on
 the Gaussian(R) 09 system (copyright 2009, Gaussian, Inc.),
 the Gaussian(R) 03 system (copyright 2003, Gaussian, Inc.),
 the Gaussian(R) 98 system (copyright 1998, Gaussian, Inc.),
 the Gaussian(R) 94 system (copyright 1995, Gaussian, Inc.),
 the Gaussian 92(TM) system (copyright 1992, Gaussian, Inc.),
 the Gaussian 90(TM) system (copyright 1990, Gaussian, Inc.),
 the Gaussian 88(TM) system (copyright 1988, Gaussian, Inc.),
 the Gaussian 86(TM) system (copyright 1986, Carnegie Mellon
 University), and the Gaussian 82(TM) system (copyright 1983,
 Carnegie Mellon University). Gaussian is a federally registered
 trademark of Gaussian, Inc.
  
 This software contains proprietary and confidential information,
 including trade secrets, belonging to Gaussian, Inc.
  
 This software is provided under written license and may be
 used, copied, transmitted, or stored only in accord with that
 written license.
  
 The following legend is applicable only to US Government
 contracts under FAR:
  
                    RESTRICTED RIGHTS LEGEND
  
 Use, reproduction and disclosure by the US Government is
 subject to restrictions as set forth in subparagraphs (a)
 and (c) of the Commercial Computer Software - Restricted
 Rights clause in FAR 52.227-19.
  
 Gaussian, Inc.
 340 Quinnipiac St., Bldg. 40, Wallingford CT 06492
  
  
 ---------------------------------------------------------------
 Warning -- This program may not be used in any manner that
 competes with the business of Gaussian, Inc. or will provide
 assistance to any competitor of Gaussian, Inc.  The licensee
 of this program is prohibited from giving any competitor of
 Gaussian, Inc. access to this program.  By using this program,
 the user acknowledges that Gaussian, Inc. is engaged in the
 business of creating and licensing software in the field of
 computational chemistry and represents and warrants to the
 licensee that it is not a competitor of Gaussian, Inc. and that
 it will not use this program in any manner prohibited above.
 ---------------------------------------------------------------
  

 Cite this work as:
 Gaussian 16, Revision A.03,
 M. J. Frisch, G. W. Trucks, H. B. Schlegel, G. E. Scuseria, 
 M. A. Robb, J. R. Cheeseman, G. Scalmani, V. Barone, 
 G. A. Petersson, H. Nakatsuji, X. Li, M. Caricato, A. V. Marenich, 
 J. Bloino, B. G. Janesko, R. Gomperts, B. Mennucci, H. P. Hratchian, 
 J. V. Ortiz, A. F. Izmaylov, J. L. Sonnenberg, D. Williams-Young, 
 F. Ding, F. Lipparini, F. Egidi, J. Goings, B. Peng, A. Petrone, 
 T. Henderson, D. Ranasinghe, V. G. Zakrzewski, J. Gao, N. Rega, 
 G. Zheng, W. Liang, M. Hada, M. Ehara, K. Toyota, R. Fukuda, 
 J. Hasegawa, M. Ishida, T. Nakajima, Y. Honda, O. Kitao, H. Nakai, 
 T. Vreven, K. Throssell, J. A. Montgomery, Jr., J. E. Peralta, 
 F. Ogliaro, M. J. Bearpark, J. J. Heyd, E. N. Brothers, K. N. Kudin, 
 V. N. Staroverov, T. A. Keith, R. Kobayashi, J. Normand, 
 K. Raghavachari, A. P. Rendell, J. C. Burant, S. S. Iyengar, 
 J. Tomasi, M. Cossi, J. M. Millam, M. Klene, C. Adamo, R. Cammi, 
 J. W. Ochterski, R. L. Martin, K. Morokuma, O. Farkas, 
 J. B. Foresman, and D. J. Fox, Gaussian, Inc., Wallingford CT, 2016.
 
 ******************************************
 Gaussian 16:  ES64L-G16RevA.03 25-Dec-2016
                22-Sep-2023 
 ******************************************
 %nprocshared=8
 Will use up to    8 processors via shared memory.
 %mem=8GB
 ----------------------------------------------------------------------
 #p b3lyp/gen scrf=(cpcm,solvent=toluene) pop=hirshfeld empiricaldisper
 sion=gd3bj
 ----------------------------------------------------------------------
 1/38=1,172=1/1;
 2/12=2,17=6,18=5,40=1/2;
 3/5=7,11=2,25=1,30=1,70=2101,72=13,74=-5,124=41/1,2,3;
 4//1;
 5/5=2,38=5,53=13/2;
 6/7=2,8=2,9=2,10=2,28=1,79=1/1;
 99/5=1,9=1/99;
 Leave Link    1 at Fri Sep 22 16:26:00 2023, MaxMem=  1073741824 cpu:               0.3 elap:               0.0
 (Enter /share/apps/gaussian/g16/l101.exe)
 -------------------
 tmpdir/M1_ref_8.gjf
 -------------------
 Symbolic Z-matrix:
 Charge =  0 Multiplicity = 1
 C                     3.48721  -2.44266  -0.04023 
 H                     4.21492  -2.49502   0.77098 
 C                     3.79062  -3.62652  -1.0173 
 C                     5.23846  -3.49199  -1.51444 
 H                     5.39122  -2.56894  -2.08784 
 H                     5.95222  -3.50312  -0.68045 
 H                     5.483    -4.33389  -2.17415 
 C                     2.84047  -3.65956  -2.22541 
 H                     1.78695  -3.72902  -1.92865 
 H                     2.95622  -2.77266  -2.85727 
 H                     3.06625  -4.54469  -2.8349 
 C                     3.65427  -4.93229  -0.21634 
 H                     4.29747  -4.91991   0.67353 
 H                     2.6226   -5.09952   0.11195 
 H                     3.95206  -5.78371  -0.84179 
 H                     2.45791  -2.5459    0.4263 
 H                     3.56232  -1.45942  -0.5437 
 
 ITRead=  0  0  0  0  0  0  0  0  0  0  0  0  0  0  0  0  0
 MicOpt= -1 -1 -1 -1 -1 -1 -1 -1 -1 -1 -1 -1 -1 -1 -1 -1 -1
 NAtoms=     17 NQM=       17 NQMF=       0 NMMI=      0 NMMIF=      0
                NMic=       0 NMicF=      0.
                    Isotopes and Nuclear Properties:
 (Nuclear quadrupole moments (NQMom) in fm**2, nuclear magnetic moments (NMagM)
  in nuclear magnetons)

  Atom         1           2           3           4           5           6           7           8           9          10
 IAtWgt=          12           1          12          12           1           1           1          12           1           1
 AtmWgt=  12.0000000   1.0078250  12.0000000  12.0000000   1.0078250   1.0078250   1.0078250  12.0000000   1.0078250   1.0078250
 NucSpn=           0           1           0           0           1           1           1           0           1           1
 AtZEff=  -0.0000000  -0.0000000  -0.0000000  -0.0000000  -0.0000000  -0.0000000  -0.0000000  -0.0000000  -0.0000000  -0.0000000
 NQMom=    0.0000000   0.0000000   0.0000000   0.0000000   0.0000000   0.0000000   0.0000000   0.0000000   0.0000000   0.0000000
 NMagM=    0.0000000   2.7928460   0.0000000   0.0000000   2.7928460   2.7928460   2.7928460   0.0000000   2.7928460   2.7928460
 AtZNuc=   6.0000000   1.0000000   6.0000000   6.0000000   1.0000000   1.0000000   1.0000000   6.0000000   1.0000000   1.0000000

  Atom        11          12          13          14          15          16          17
 IAtWgt=           1          12           1           1           1           1           1
 AtmWgt=   1.0078250  12.0000000   1.0078250   1.0078250   1.0078250   1.0078250   1.0078250
 NucSpn=           1           0           1           1           1           1           1
 AtZEff=  -0.0000000  -0.0000000  -0.0000000  -0.0000000  -0.0000000  -0.0000000  -0.0000000
 NQMom=    0.0000000   0.0000000   0.0000000   0.0000000   0.0000000   0.0000000   0.0000000
 NMagM=    2.7928460   0.0000000   2.7928460   2.7928460   2.7928460   2.7928460   2.7928460
 AtZNuc=   1.0000000   6.0000000   1.0000000   1.0000000   1.0000000   1.0000000   1.0000000
 Leave Link  101 at Fri Sep 22 16:26:00 2023, MaxMem=  1073741824 cpu:               0.7 elap:               0.1
 (Enter /share/apps/gaussian/g16/l202.exe)
                          Input orientation:                          
 ---------------------------------------------------------------------
 Center     Atomic      Atomic             Coordinates (Angstroms)
 Number     Number       Type             X           Y           Z
 ---------------------------------------------------------------------
      1          6           0        3.487214   -2.442657   -0.040232
      2          1           0        4.214917   -2.495019    0.770981
      3          6           0        3.790623   -3.626523   -1.017301
      4          6           0        5.238456   -3.491989   -1.514443
      5          1           0        5.391221   -2.568939   -2.087837
      6          1           0        5.952221   -3.503116   -0.680452
      7          1           0        5.483004   -4.333893   -2.174148
      8          6           0        2.840468   -3.659560   -2.225411
      9          1           0        1.786950   -3.729023   -1.928645
     10          1           0        2.956222   -2.772660   -2.857274
     11          1           0        3.066251   -4.544694   -2.834899
     12          6           0        3.654269   -4.932288   -0.216343
     13          1           0        4.297468   -4.919910    0.673527
     14          1           0        2.622597   -5.099522    0.111953
     15          1           0        3.952059   -5.783711   -0.841785
     16          1           0        2.457907   -2.545900    0.426299
     17          1           0        3.562321   -1.459417   -0.543698
 ---------------------------------------------------------------------
                    Distance matrix (angstroms):
                    1          2          3          4          5
     1  C    0.000000
     2  H    1.091036   0.000000
     3  C    1.564691   2.158305   0.000000
     4  C    2.518183   2.695319   1.536708   0.000000
     5  H    2.798906   3.092248   2.196917   1.097333   0.000000
     6  H    2.758752   2.478133   2.191165   1.097782   1.779927
     7  H    3.480452   3.696388   2.168599   1.097186   1.769445
     8  C    2.583436   3.496231   1.537340   2.506771   2.777539
     9  H    2.848111   3.834810   2.203579   3.484342   3.789711
    10  H    2.885581   3.850407   2.193355   2.743943   2.561788
    11  H    3.522206   4.303832   2.161346   2.751412   3.141209
    12  C    2.501437   2.688757   1.537904   2.503832   3.479211
    13  H    2.702359   2.428252   2.188296   2.776982   3.787940
    14  H    2.798152   3.123017   2.192995   3.474485   4.348357
    15  H    3.467162   3.672275   2.170329   2.712799   3.736120
    16  H    1.134805   1.791222   2.242289   3.520372   3.863385
    17  H    1.107194   1.796311   2.229971   2.807690   2.638234
                    6          7          8          9         10
     6  H    0.000000
     7  H    1.772423   0.000000
     8  C    3.477697   2.727700   0.000000
     9  H    4.354136   3.753259   1.096720   0.000000
    10  H    3.774670   3.047743   1.095099   1.773183   0.000000
    11  H    3.749046   2.514304   1.098142   1.767265   1.775588
    12  C    2.745635   2.745059   2.513655   2.804765   3.482209
    13  H    2.564912   3.139771   3.480686   3.806864   4.344673
    14  H    3.776614   3.740906   2.753948   2.596269   3.787070
    15  H    3.037728   2.494184   2.768045   3.176587   3.757701
    16  H    3.788323   4.371551   2.901406   2.719509   3.328902
    17  H    3.147543   3.822304   2.861793   3.197050   2.728479
                   11         12         13         14         15
    11  H    0.000000
    12  C    2.711610   0.000000
    13  H    3.737076   1.098056   0.000000
    14  H    3.031270   1.095487   1.775618   0.000000
    15  H    2.508450   1.097624   1.778097   1.773471   0.000000
    16  H    3.873071   2.745746   3.013475   2.578163   3.784699
    17  H    3.874871   3.489477   3.741268   3.816192   4.352042
                   16         17
    16  H    0.000000
    17  H    1.827859   0.000000
 Stoichiometry    C5H12
 Framework group  C1[X(C5H12)]
 Deg. of freedom    45
 Full point group                 C1      NOp   1
 Largest Abelian subgroup         C1      NOp   1
 Largest concise Abelian subgroup C1      NOp   1
                         Standard orientation:                         
 ---------------------------------------------------------------------
 Center     Atomic      Atomic             Coordinates (Angstroms)
 Number     Number       Type             X           Y           Z
 ---------------------------------------------------------------------
      1          6           0       -1.266726    0.042980   -0.916409
      2          1           0       -2.096803    0.361814   -0.284210
      3          6           0        0.013871   -0.002500   -0.018488
      4          6           0        0.236273    1.391939    0.587768
      5          1           0        0.424393    2.149395   -0.183601
      6          1           0       -0.627528    1.713038    1.184316
      7          1           0        1.110582    1.372307    1.250350
      8          6           0        1.271303   -0.423999   -0.796062
      9          1           0        1.159765   -1.404782   -1.273993
     10          1           0        1.531196    0.303165   -1.572549
     11          1           0        2.116674   -0.495637   -0.098831
     12          6           0       -0.253356   -1.006118    1.115747
     13          1           0       -1.167873   -0.747644    1.665816
     14          1           0       -0.362767   -2.027360    0.734714
     15          1           0        0.585478   -0.997629    1.823606
     16          1           0       -1.527046   -0.986506   -1.316627
     17          1           0       -1.154264    0.746026   -1.764323
 ---------------------------------------------------------------------
 Rotational constants (GHZ):           4.4967436           4.3675154           4.3222517
 Leave Link  202 at Fri Sep 22 16:26:00 2023, MaxMem=  1073741824 cpu:               0.1 elap:               0.0
 (Enter /share/apps/gaussian/g16/l301.exe)
 General basis read from cards:  (5D, 7F)
 Centers:       2      5      6      7      9     10     11     13     14     15
 Centers:      16     17
 S 3 1.00
     Exponent=  1.2251800000D+01 Coefficients=  2.3337100000D-02
     Exponent=  1.8687100000D+00 Coefficients=  1.5915000000D-01
     Exponent=  4.1820800000D-01 Coefficients=  5.0000000000D-01
 S 1 1.00
     Exponent=  1.0610000000D-01 Coefficients=  1.0000000000D+00
 P 1 1.00
     Exponent=  1.0000000000D+00 Coefficients=  1.0000000000D+00
 ****
 Centers:       1      3      4      8     12
 S 5 1.00
     Exponent=  1.2432000000D+03 Coefficients=  6.0336600000D-03
     Exponent=  1.8714500000D+02 Coefficients=  4.4957600000D-02
     Exponent=  4.2512600000D+01 Coefficients=  1.9790100000D-01
     Exponent=  1.1739300000D+01 Coefficients=  5.0000000000D-01
     Exponent=  3.5054800000D+00 Coefficients=  4.8036400000D-01
 S 2 1.00
     Exponent=  5.3908900000D+00 Coefficients= -7.0398000000D-02
     Exponent=  4.9334100000D-01 Coefficients=  5.0000000000D-01
 S 1 1.00
     Exponent=  1.4974100000D-01 Coefficients=  1.0000000000D+00
 P 3 1.00
     Exponent=  9.1805600000D+00 Coefficients=  4.3170100000D-02
     Exponent=  1.9365800000D+00 Coefficients=  2.2499900000D-01
     Exponent=  5.2629600000D-01 Coefficients=  5.0000000000D-01
 P 1 1.00
     Exponent=  1.3631900000D-01 Coefficients=  1.0000000000D+00
 D 1 1.00
     Exponent=  8.0000000000D-01 Coefficients=  1.0000000000D+00
 ****
 Ernie: Thresh=  0.10000D-02 Tol=  0.10000D-05 Strict=F.
 There are   135 symmetry adapted cartesian basis functions of A   symmetry.
 There are   130 symmetry adapted basis functions of A   symmetry.
   130 basis functions,   214 primitive gaussians,   135 cartesian basis functions
    21 alpha electrons       21 beta electrons
       nuclear repulsion energy       197.2993533655 Hartrees.
 IExCor=  402 DFT=T Ex+Corr=B3LYP ExCW=0 ScaHFX=  0.200000
 ScaDFX=  0.800000  0.720000  1.000000  0.810000 ScalE2=  1.000000  1.000000
 IRadAn=      5 IRanWt=     -1 IRanGd=            0 ICorTp=0 IEmpDi=141
 NAtoms=   17 NActive=   17 NUniq=   17 SFac= 1.00D+00 NAtFMM=   60 NAOKFM=F Big=F
 Integral buffers will be    131072 words long.
 Raffenetti 2 integral format.
 Two-electron integral symmetry is turned on.
 R6Disp:  Grimme-D3(BJ) Dispersion energy=       -0.0220701274 Hartrees.
 Nuclear repulsion after empirical dispersion term =      197.2772832381 Hartrees.
 ------------------------------------------------------------------------------
 Polarizable Continuum Model (PCM)
 =================================
 Model                : C-PCM.
 Atomic radii         : UFF (Universal Force Field).
 Polarization charges : Total charges.
 Charge compensation  : None.
 Solution method      : On-the-fly selection.
 Cavity type          : Scaled VdW (van der Waals Surface) (Alpha=1.100).
 Cavity algorithm     : GePol (No added spheres)
                        Default sphere list used, NSphG=   17.
                        Lebedev-Laikov grids with approx.  5.0 points / Ang**2.
                        Smoothing algorithm: York/Karplus (Gamma=1.0000).
                        Polarization charges: spherical gaussians, with
                                              point-specific exponents (IZeta= 3).
                        Self-potential: point-specific (ISelfS= 7).
                        Self-field    : sphere-specific E.n sum rule (ISelfD= 2).
 Solvent              : Toluene, Eps=   2.374100 Eps(inf)=   2.238315
 ------------------------------------------------------------------------------
 Spheres list:
 ISph  on   Nord     Re0    Alpha      Xe            Ye            Ze
    1   C      1    1.9255  1.100     -1.266726      0.042980     -0.916409
    2   H      2    1.4430  1.100     -2.096803      0.361814     -0.284210
    3   C      3    1.9255  1.100      0.013871     -0.002500     -0.018488
    4   C      4    1.9255  1.100      0.236273      1.391939      0.587768
    5   H      5    1.4430  1.100      0.424393      2.149395     -0.183601
    6   H      6    1.4430  1.100     -0.627528      1.713038      1.184316
    7   H      7    1.4430  1.100      1.110582      1.372307      1.250350
    8   C      8    1.9255  1.100      1.271303     -0.423999     -0.796062
    9   H      9    1.4430  1.100      1.159765     -1.404782     -1.273993
   10   H     10    1.4430  1.100      1.531196      0.303165     -1.572549
   11   H     11    1.4430  1.100      2.116674     -0.495637     -0.098831
   12   C     12    1.9255  1.100     -0.253356     -1.006118      1.115747
   13   H     13    1.4430  1.100     -1.167873     -0.747644      1.665816
   14   H     14    1.4430  1.100     -0.362767     -2.027360      0.734714
   15   H     15    1.4430  1.100      0.585478     -0.997629      1.823606
   16   H     16    1.4430  1.100     -1.527046     -0.986506     -1.316627
   17   H     17    1.4430  1.100     -1.154264      0.746026     -1.764323
 ------------------------------------------------------------------------------
 GePol: Number of generator spheres                  =      17
 GePol: Total number of spheres                      =      17
 GePol: Number of exposed spheres                    =      17 (100.00%)
 GePol: Number of points                             =    1187
 GePol: Average weight of points                     =       0.14
 GePol: Minimum weight of points                     =   0.70D-10
 GePol: Maximum weight of points                     =    0.20577
 GePol: Number of points with low weight             =      80
 GePol: Fraction of low-weight points (<1% of avg)   =       6.74%
 GePol: Cavity surface area                          =    161.812 Ang**2
 GePol: Cavity volume                                =    153.898 Ang**3
 Leave Link  301 at Fri Sep 22 16:26:01 2023, MaxMem=  1073741824 cpu:               0.7 elap:               0.1
 (Enter /share/apps/gaussian/g16/l302.exe)
 NPDir=0 NMtPBC=     1 NCelOv=     1 NCel=       1 NClECP=     1 NCelD=      1
         NCelK=      1 NCelE2=     1 NClLst=     1 CellRange=     0.0.
 One-electron integrals computed using PRISM.
 One-electron integral symmetry used in STVInt
 NBasis=   130 RedAO= T EigKep=  4.76D-03  NBF=   130
 NBsUse=   130 1.00D-06 EigRej= -1.00D+00 NBFU=   130
 Precomputing XC quadrature grid using
 IXCGrd= 4 IRadAn=           5 IRanWt=          -1 IRanGd=           0 AccXCQ= 0.00D+00.
 Generated NRdTot=       0 NPtTot=           0 NUsed=           0 NTot=          32
 NSgBfM=   135   135   135   135   135 MxSgAt=    17 MxSgA2=    17.
 Leave Link  302 at Fri Sep 22 16:26:01 2023, MaxMem=  1073741824 cpu:               1.4 elap:               0.2
 (Enter /share/apps/gaussian/g16/l303.exe)
 DipDrv:  MaxL=1.
 Leave Link  303 at Fri Sep 22 16:26:01 2023, MaxMem=  1073741824 cpu:               0.2 elap:               0.0
 (Enter /share/apps/gaussian/g16/l401.exe)
 ExpMin= 1.06D-01 ExpMax= 1.24D+03 ExpMxC= 1.87D+02 IAcc=3 IRadAn=         5 AccDes= 0.00D+00
 Harris functional with IExCor=  402 and IRadAn=       5 diagonalized for initial guess.
 HarFok:  IExCor=  402 AccDes= 0.00D+00 IRadAn=         5 IDoV= 1 UseB2=F ITyADJ=14
 ICtDFT=  3500011 ScaDFX=  1.000000  1.000000  1.000000  1.000000
 FoFCou: FMM=F IPFlag=           0 FMFlag=      100000 FMFlg1=           0
         NFxFlg=           0 DoJE=T BraDBF=F KetDBF=T FulRan=T
         wScrn=  0.000000 ICntrl=       500 IOpCl=  0 I1Cent=   200000004 NGrid=           0
         NMat0=    1 NMatS0=      1 NMatT0=    0 NMatD0=    1 NMtDS0=    0 NMtDT0=    0
 Petite list used in FoFCou.
 Harris En= -197.825647650940    
 JPrj=0 DoOrth=F DoCkMO=F.
 Leave Link  401 at Fri Sep 22 16:26:02 2023, MaxMem=  1073741824 cpu:               6.4 elap:               0.8
 (Enter /share/apps/gaussian/g16/l502.exe)
 Integral symmetry usage will be decided dynamically.
 Closed shell SCF:
 Using DIIS extrapolation, IDIIS=  1040.
 NGot=  1073741824 LenX=  1073702589 LenY=  1073683923
 Requested convergence on RMS density matrix=1.00D-08 within 128 cycles.
 Requested convergence on MAX density matrix=1.00D-06.
 Requested convergence on             energy=1.00D-06.
 No special actions if energy rises.
 Fock matrices will be formed incrementally for  20 cycles.

 Cycle   1  Pass 1  IDiag  1:
 FoFJK:  IHMeth= 1 ICntrl=       0 DoSepK=F KAlg= 0 I1Cent=           0 FoldK=F
 IRaf= 990000000 NMat=       1 IRICut=       1 DoRegI=T DoRafI=F ISym2E= 0 IDoP0=0 IntGTp=1.
 FoFCou: FMM=F IPFlag=           0 FMFlag=      100000 FMFlg1=           0
         NFxFlg=           0 DoJE=F BraDBF=F KetDBF=F FulRan=T
         wScrn=  0.000000 ICntrl=         0 IOpCl=  0 I1Cent=           0 NGrid=           0
         NMat0=    1 NMatS0=      1 NMatT0=    0 NMatD0=    1 NMtDS0=    0 NMtDT0=    0
 Symmetry not used in FoFCou.
 Inv3:  Mode=1 IEnd=     4226907.
 Iteration    1 A*A^-1 deviation from unit magnitude is 5.00D-15 for   1184.
 Iteration    1 A*A^-1 deviation from orthogonality  is 2.90D-15 for   1102    888.
 Iteration    1 A^-1*A deviation from unit magnitude is 4.77D-15 for   1184.
 Iteration    1 A^-1*A deviation from orthogonality  is 2.37D-15 for   1157    185.
 E= -197.507771412008    
 DIIS: error= 4.24D-02 at cycle   1 NSaved=   1.
 NSaved= 1 IEnMin= 1 EnMin= -197.507771412008     IErMin= 1 ErrMin= 4.24D-02
 ErrMax= 4.24D-02  0.00D+00 EMaxC= 1.00D-01 BMatC= 2.18D-01 BMatP= 2.18D-01
 IDIUse=3 WtCom= 5.76D-01 WtEn= 4.24D-01
 Coeff-Com:  0.100D+01
 Coeff-En:   0.100D+01
 Coeff:      0.100D+01
 Gap=     0.263 Goal=   None    Shift=    0.000
 GapD=    0.263 DampG=1.000 DampE=0.500 DampFc=0.5000 IDamp=-1.
 Damping current iteration by 5.00D-01
 RMSDP=8.07D-03 MaxDP=1.37D-01              OVMax= 1.95D-01

 Cycle   2  Pass 1  IDiag  1:
 RMSU=  3.91D-03    CP:  9.59D-01
 E= -197.611745520495     Delta-E=       -0.103974108487 Rises=F Damp=T
 DIIS: error= 6.87D-03 at cycle   2 NSaved=   2.
 NSaved= 2 IEnMin= 2 EnMin= -197.611745520495     IErMin= 2 ErrMin= 6.87D-03
 ErrMax= 6.87D-03  0.00D+00 EMaxC= 1.00D-01 BMatC= 7.80D-03 BMatP= 2.18D-01
 IDIUse=3 WtCom= 9.31D-01 WtEn= 6.87D-02
 Coeff-Com:  0.107D+00 0.893D+00
 Coeff-En:   0.189D+00 0.811D+00
 Coeff:      0.113D+00 0.887D+00
 Gap=     0.362 Goal=   None    Shift=    0.000
 RMSDP=1.73D-03 MaxDP=4.03D-02 DE=-1.04D-01 OVMax= 1.23D-01

 Cycle   3  Pass 1  IDiag  1:
 RMSU=  1.50D-03    CP:  9.66D-01  7.85D-01
 E= -197.756461427911     Delta-E=       -0.144715907416 Rises=F Damp=F
 DIIS: error= 3.88D-03 at cycle   3 NSaved=   3.
 NSaved= 3 IEnMin= 3 EnMin= -197.756461427911     IErMin= 3 ErrMin= 3.88D-03
 ErrMax= 3.88D-03  0.00D+00 EMaxC= 1.00D-01 BMatC= 1.99D-03 BMatP= 7.80D-03
 IDIUse=3 WtCom= 9.61D-01 WtEn= 3.88D-02
 Coeff-Com:  0.287D-01 0.326D+00 0.646D+00
 Coeff-En:   0.000D+00 0.000D+00 0.100D+01
 Coeff:      0.275D-01 0.313D+00 0.660D+00
 Gap=     0.350 Goal=   None    Shift=    0.000
 RMSDP=5.18D-04 MaxDP=1.34D-02 DE=-1.45D-01 OVMax= 1.36D-02

 Cycle   4  Pass 1  IDiag  1:
 RMSU=  3.77D-04    CP:  9.64D-01  8.29D-01  7.95D-01
 E= -197.757904983706     Delta-E=       -0.001443555795 Rises=F Damp=F
 DIIS: error= 2.25D-03 at cycle   4 NSaved=   4.
 NSaved= 4 IEnMin= 4 EnMin= -197.757904983706     IErMin= 4 ErrMin= 2.25D-03
 ErrMax= 2.25D-03  0.00D+00 EMaxC= 1.00D-01 BMatC= 5.20D-04 BMatP= 1.99D-03
 IDIUse=3 WtCom= 9.77D-01 WtEn= 2.25D-02
 Coeff-Com: -0.185D-02 0.321D-01 0.341D+00 0.629D+00
 Coeff-En:   0.000D+00 0.000D+00 0.199D+00 0.801D+00
 Coeff:     -0.181D-02 0.314D-01 0.338D+00 0.633D+00
 Gap=     0.353 Goal=   None    Shift=    0.000
 RMSDP=1.51D-04 MaxDP=5.75D-03 DE=-1.44D-03 OVMax= 5.32D-03

 Cycle   5  Pass 1  IDiag  1:
 RMSU=  7.06D-05    CP:  9.64D-01  8.20D-01  8.38D-01  7.06D-01
 E= -197.758392429217     Delta-E=       -0.000487445511 Rises=F Damp=F
 DIIS: error= 1.88D-04 at cycle   5 NSaved=   5.
 NSaved= 5 IEnMin= 5 EnMin= -197.758392429217     IErMin= 5 ErrMin= 1.88D-04
 ErrMax= 1.88D-04  0.00D+00 EMaxC= 1.00D-01 BMatC= 3.51D-06 BMatP= 5.20D-04
 IDIUse=3 WtCom= 9.98D-01 WtEn= 1.88D-03
 Coeff-Com: -0.876D-03-0.361D-02 0.533D-01 0.150D+00 0.801D+00
 Coeff-En:   0.000D+00 0.000D+00 0.000D+00 0.000D+00 0.100D+01
 Coeff:     -0.875D-03-0.361D-02 0.532D-01 0.150D+00 0.801D+00
 Gap=     0.353 Goal=   None    Shift=    0.000
 RMSDP=1.40D-05 MaxDP=4.73D-04 DE=-4.87D-04 OVMax= 5.04D-04

 Cycle   6  Pass 1  IDiag  1:
 RMSU=  6.37D-06    CP:  9.64D-01  8.20D-01  8.41D-01  7.18D-01  8.48D-01
 E= -197.758395619260     Delta-E=       -0.000003190043 Rises=F Damp=F
 DIIS: error= 2.17D-05 at cycle   6 NSaved=   6.
 NSaved= 6 IEnMin= 6 EnMin= -197.758395619260     IErMin= 6 ErrMin= 2.17D-05
 ErrMax= 2.17D-05  0.00D+00 EMaxC= 1.00D-01 BMatC= 9.45D-08 BMatP= 3.51D-06
 IDIUse=1 WtCom= 1.00D+00 WtEn= 0.00D+00
 Coeff-Com: -0.235D-03-0.159D-02 0.182D-01 0.522D-01 0.303D+00 0.628D+00
 Coeff:     -0.235D-03-0.159D-02 0.182D-01 0.522D-01 0.303D+00 0.628D+00
 Gap=     0.353 Goal=   None    Shift=    0.000
 RMSDP=2.91D-06 MaxDP=8.22D-05 DE=-3.19D-06 OVMax= 9.34D-05

 Cycle   7  Pass 1  IDiag  1:
 RMSU=  2.38D-06    CP:  9.64D-01  8.20D-01  8.41D-01  7.18D-01  8.51D-01
                    CP:  7.61D-01
 E= -197.758395700893     Delta-E=       -0.000000081633 Rises=F Damp=F
 DIIS: error= 8.74D-06 at cycle   7 NSaved=   7.
 NSaved= 7 IEnMin= 7 EnMin= -197.758395700893     IErMin= 7 ErrMin= 8.74D-06
 ErrMax= 8.74D-06  0.00D+00 EMaxC= 1.00D-01 BMatC= 1.64D-08 BMatP= 9.45D-08
 IDIUse=1 WtCom= 1.00D+00 WtEn= 0.00D+00
 Coeff-Com:  0.771D-04-0.106D-03-0.939D-03-0.267D-02-0.147D-02 0.297D+00
 Coeff-Com:  0.708D+00
 Coeff:      0.771D-04-0.106D-03-0.939D-03-0.267D-02-0.147D-02 0.297D+00
 Coeff:      0.708D+00
 Gap=     0.353 Goal=   None    Shift=    0.000
 RMSDP=9.19D-07 MaxDP=2.95D-05 DE=-8.16D-08 OVMax= 3.37D-05

 Cycle   8  Pass 1  IDiag  1:
 RMSU=  2.67D-07    CP:  9.64D-01  8.20D-01  8.41D-01  7.18D-01  8.52D-01
                    CP:  8.43D-01  7.41D-01
 E= -197.758395717859     Delta-E=       -0.000000016966 Rises=F Damp=F
 DIIS: error= 4.65D-07 at cycle   8 NSaved=   8.
 NSaved= 8 IEnMin= 8 EnMin= -197.758395717859     IErMin= 8 ErrMin= 4.65D-07
 ErrMax= 4.65D-07  0.00D+00 EMaxC= 1.00D-01 BMatC= 2.11D-11 BMatP= 1.64D-08
 IDIUse=1 WtCom= 1.00D+00 WtEn= 0.00D+00
 Coeff-Com: -0.340D-05 0.870D-05-0.162D-03-0.387D-03-0.141D-02 0.445D-02
 Coeff-Com:  0.218D-01 0.976D+00
 Coeff:     -0.340D-05 0.870D-05-0.162D-03-0.387D-03-0.141D-02 0.445D-02
 Coeff:      0.218D-01 0.976D+00
 Gap=     0.353 Goal=   None    Shift=    0.000
 RMSDP=5.03D-08 MaxDP=9.22D-07 DE=-1.70D-08 OVMax= 1.09D-06

 Cycle   9  Pass 1  IDiag  1:
 RMSU=  3.66D-08    CP:  9.64D-01  8.20D-01  8.41D-01  7.18D-01  8.52D-01
                    CP:  8.44D-01  7.45D-01  9.93D-01
 E= -197.758395717885     Delta-E=       -0.000000000026 Rises=F Damp=F
 DIIS: error= 7.36D-08 at cycle   9 NSaved=   9.
 NSaved= 9 IEnMin= 9 EnMin= -197.758395717885     IErMin= 9 ErrMin= 7.36D-08
 ErrMax= 7.36D-08  0.00D+00 EMaxC= 1.00D-01 BMatC= 1.13D-12 BMatP= 2.11D-11
 IDIUse=1 WtCom= 1.00D+00 WtEn= 0.00D+00
 Coeff-Com: -0.224D-05 0.425D-05-0.430D-04-0.996D-04-0.457D-03-0.181D-02
 Coeff-Com: -0.575D-03 0.317D+00 0.686D+00
 Coeff:     -0.224D-05 0.425D-05-0.430D-04-0.996D-04-0.457D-03-0.181D-02
 Coeff:     -0.575D-03 0.317D+00 0.686D+00
 Gap=     0.353 Goal=   None    Shift=    0.000
 RMSDP=1.27D-08 MaxDP=1.87D-07 DE=-2.58D-11 OVMax= 2.64D-07

 Cycle  10  Pass 1  IDiag  1:
 RMSU=  5.26D-09    CP:  9.64D-01  8.20D-01  8.41D-01  7.18D-01  8.52D-01
                    CP:  8.44D-01  7.46D-01  1.01D+00  7.05D-01
 E= -197.758395717886     Delta-E=       -0.000000000001 Rises=F Damp=F
 DIIS: error= 8.47D-09 at cycle  10 NSaved=  10.
 NSaved=10 IEnMin=10 EnMin= -197.758395717886     IErMin=10 ErrMin= 8.47D-09
 ErrMax= 8.47D-09  0.00D+00 EMaxC= 1.00D-01 BMatC= 1.77D-14 BMatP= 1.13D-12
 IDIUse=1 WtCom= 1.00D+00 WtEn= 0.00D+00
 Coeff-Com: -0.334D-06 0.675D-06-0.355D-05-0.101D-04-0.648D-04-0.425D-03
 Coeff-Com: -0.589D-03 0.265D-01 0.112D+00 0.863D+00
 Coeff:     -0.334D-06 0.675D-06-0.355D-05-0.101D-04-0.648D-04-0.425D-03
 Coeff:     -0.589D-03 0.265D-01 0.112D+00 0.863D+00
 Gap=     0.353 Goal=   None    Shift=    0.000
 RMSDP=1.56D-09 MaxDP=4.54D-08 DE=-1.02D-12 OVMax= 4.20D-08

 Error on total polarization charges =  0.00727
 SCF Done:  E(RB3LYP) =  -197.758395718     A.U. after   10 cycles
            NFock= 10  Conv=0.16D-08     -V/T= 2.0075
 KE= 1.962940498593D+02 PE=-8.510791192335D+02 EE= 2.597493904182D+02
 Leave Link  502 at Fri Sep 22 16:26:15 2023, MaxMem=  1073741824 cpu:             106.9 elap:              13.5
 (Enter /share/apps/gaussian/g16/l601.exe)
 Copying SCF densities to generalized density rwf, IOpCl= 0 IROHF=0.

 **********************************************************************

            Population analysis using the SCF density.

 **********************************************************************

 Orbital symmetries:
       Occupied  (A) (A) (A) (A) (A) (A) (A) (A) (A) (A) (A) (A)
                 (A) (A) (A) (A) (A) (A) (A) (A) (A)
       Virtual   (A) (A) (A) (A) (A) (A) (A) (A) (A) (A) (A) (A)
                 (A) (A) (A) (A) (A) (A) (A) (A) (A) (A) (A) (A)
                 (A) (A) (A) (A) (A) (A) (A) (A) (A) (A) (A) (A)
                 (A) (A) (A) (A) (A) (A) (A) (A) (A) (A) (A) (A)
                 (A) (A) (A) (A) (A) (A) (A) (A) (A) (A) (A) (A)
                 (A) (A) (A) (A) (A) (A) (A) (A) (A) (A) (A) (A)
                 (A) (A) (A) (A) (A) (A) (A) (A) (A) (A) (A) (A)
                 (A) (A) (A) (A) (A) (A) (A) (A) (A) (A) (A) (A)
                 (A) (A) (A) (A) (A) (A) (A) (A) (A) (A) (A) (A)
                 (A)
 The electronic state is 1-A.
 Alpha  occ. eigenvalues --  -10.18466 -10.16640 -10.16188 -10.16144 -10.16105
 Alpha  occ. eigenvalues --   -0.81932  -0.68515  -0.68269  -0.67779  -0.53191
 Alpha  occ. eigenvalues --   -0.44947  -0.44696  -0.44385  -0.40140  -0.39711
 Alpha  occ. eigenvalues --   -0.36453  -0.36384  -0.36070  -0.32545  -0.32288
 Alpha  occ. eigenvalues --   -0.31663
 Alpha virt. eigenvalues --    0.03669   0.08730   0.08863   0.08937   0.10055
 Alpha virt. eigenvalues --    0.10433   0.10505   0.13647   0.14303   0.16332
 Alpha virt. eigenvalues --    0.16744   0.16982   0.17152   0.20989   0.21509
 Alpha virt. eigenvalues --    0.21673   0.33996   0.34694   0.40267   0.40495
 Alpha virt. eigenvalues --    0.41264   0.49629   0.50742   0.51118   0.54674
 Alpha virt. eigenvalues --    0.60069   0.61076   0.61243   0.63866   0.64422
 Alpha virt. eigenvalues --    0.65465   0.65586   0.65645   0.66153   0.68546
 Alpha virt. eigenvalues --    0.68833   0.69526   0.69929   0.72651   0.72983
 Alpha virt. eigenvalues --    0.73307   0.73437   0.73701   0.83296   1.23886
 Alpha virt. eigenvalues --    1.24194   1.27294   1.31132   1.31989   1.39614
 Alpha virt. eigenvalues --    1.43646   1.44116   1.45441   1.71791   1.72665
 Alpha virt. eigenvalues --    1.73557   1.73898   1.74348   1.74774   1.75635
 Alpha virt. eigenvalues --    1.76348   1.85729   1.86583   1.86714   1.87065
 Alpha virt. eigenvalues --    1.93665   1.96743   1.97583   1.97869   1.98537
 Alpha virt. eigenvalues --    1.99280   1.99726   2.00143   2.01447   2.11795
 Alpha virt. eigenvalues --    2.12346   2.13474   2.19926   2.20759   2.20804
 Alpha virt. eigenvalues --    2.39669   2.41105   2.41310   2.42127   2.43124
 Alpha virt. eigenvalues --    2.53975   2.57702   2.58028   2.58596   2.68046
 Alpha virt. eigenvalues --    2.68634   2.69524   2.78192   2.78731   2.84904
 Alpha virt. eigenvalues --    2.85182   2.86321   2.97922   3.03906   3.05841
 Alpha virt. eigenvalues --    3.06420   3.17120   3.19178   3.19527   3.23564
 Alpha virt. eigenvalues --    3.24672   3.26727   3.33903   3.34502
          Condensed to atoms (all electrons):
               1          2          3          4          5          6
     1  C    4.817577   0.398741   0.363437  -0.084928  -0.006604  -0.007551
     2  H    0.398741   0.604347  -0.030155  -0.008060  -0.001284   0.004498
     3  C    0.363437  -0.030155   5.454677   0.366485  -0.027732  -0.027672
     4  C   -0.084928  -0.008060   0.366485   4.799250   0.397746   0.398346
     5  H   -0.006604  -0.001284  -0.027732   0.397746   0.598620  -0.025815
     6  H   -0.007551   0.004498  -0.027672   0.398346  -0.025815   0.599949
     7  H    0.010423   0.000185  -0.030290   0.397979  -0.026009  -0.025674
     8  C   -0.077771   0.009810   0.365175  -0.083742  -0.006886   0.009975
     9  H   -0.006733   0.000087  -0.026432   0.009908   0.000119  -0.000514
    10  H   -0.006212   0.000002  -0.027953  -0.006781   0.004441   0.000200
    11  H    0.009927  -0.000504  -0.030811  -0.007611  -0.001265   0.000088
    12  C   -0.086432  -0.007926   0.366521  -0.084334   0.010147  -0.006657
    13  H   -0.007830   0.004644  -0.028065  -0.006866   0.000091   0.004206
    14  H   -0.006522  -0.001265  -0.028023   0.010143  -0.000530   0.000154
    15  H    0.010590   0.000166  -0.030693  -0.007584   0.000192  -0.001386
    16  H    0.393201  -0.026161  -0.029480   0.009701   0.000085   0.000164
    17  H    0.395499  -0.024616  -0.028673  -0.005536   0.004049  -0.001090
               7          8          9         10         11         12
     1  C    0.010423  -0.077771  -0.006733  -0.006212   0.009927  -0.086432
     2  H    0.000185   0.009810   0.000087   0.000002  -0.000504  -0.007926
     3  C   -0.030290   0.365175  -0.026432  -0.027953  -0.030811   0.366521
     4  C    0.397979  -0.083742   0.009908  -0.006781  -0.007611  -0.084334
     5  H   -0.026009  -0.006886   0.000119   0.004441  -0.001265   0.010147
     6  H   -0.025674   0.009975  -0.000514   0.000200   0.000088  -0.006657
     7  H    0.604833  -0.006980   0.000127  -0.001401   0.004679  -0.007956
     8  C   -0.006980   4.778443   0.397621   0.398115   0.398876  -0.082063
     9  H    0.000127   0.397621   0.599029  -0.026227  -0.026078  -0.006302
    10  H   -0.001401   0.398115  -0.026227   0.598853  -0.025209   0.009965
    11  H    0.004679   0.398876  -0.026078  -0.025209   0.605405  -0.007944
    12  C   -0.007956  -0.082063  -0.006302   0.009965  -0.007944   4.800218
    13  H   -0.001234   0.009968   0.000091  -0.000520   0.000183   0.398784
    14  H    0.000139  -0.006877   0.004219   0.000157  -0.001444   0.398317
    15  H    0.005003  -0.006925  -0.001143   0.000052   0.004786   0.397377
    16  H   -0.000523  -0.006227   0.003713  -0.000870  -0.000038  -0.006317
    17  H    0.000020  -0.005611  -0.000964   0.003662  -0.000026   0.009715
              13         14         15         16         17
     1  C   -0.007830  -0.006522   0.010590   0.393201   0.395499
     2  H    0.004644  -0.001265   0.000166  -0.026161  -0.024616
     3  C   -0.028065  -0.028023  -0.030693  -0.029480  -0.028673
     4  C   -0.006866   0.010143  -0.007584   0.009701  -0.005536
     5  H    0.000091  -0.000530   0.000192   0.000085   0.004049
     6  H    0.004206   0.000154  -0.001386   0.000164  -0.001090
     7  H   -0.001234   0.000139   0.005003  -0.000523   0.000020
     8  C    0.009968  -0.006877  -0.006925  -0.006227  -0.005611
     9  H    0.000091   0.004219  -0.001143   0.003713  -0.000964
    10  H   -0.000520   0.000157   0.000052  -0.000870   0.003662
    11  H    0.000183  -0.001444   0.004786  -0.000038  -0.000026
    12  C    0.398784   0.398317   0.397377  -0.006317   0.009715
    13  H    0.600459  -0.026014  -0.025433  -0.001423   0.000290
    14  H   -0.026014   0.598859  -0.025769   0.004273   0.000081
    15  H   -0.025433  -0.025769   0.604397   0.000158  -0.000566
    16  H   -0.001423   0.004273   0.000158   0.600470  -0.024958
    17  H    0.000290   0.000081  -0.000566  -0.024958   0.595027
 Mulliken charges:
               1
     1  C   -0.108812
     2  H    0.077492
     3  C   -0.570316
     4  C   -0.094116
     5  H    0.080637
     6  H    0.078779
     7  H    0.076679
     8  C   -0.084900
     9  H    0.079479
    10  H    0.079725
    11  H    0.076985
    12  C   -0.095112
    13  H    0.078671
    14  H    0.080103
    15  H    0.076778
    16  H    0.084230
    17  H    0.083698
 Sum of Mulliken charges =  -0.00000
 Mulliken charges with hydrogens summed into heavy atoms:
               1
     1  C    0.136608
     3  C   -0.570316
     4  C    0.141979
     8  C    0.151289
    12  C    0.140440
 Electronic spatial extent (au):  <R**2>=            490.3996
 Charge=             -0.0000 electrons
 Dipole moment (field-independent basis, Debye):
    X=              0.0369    Y=              0.0122    Z=              0.0399  Tot=              0.0557
 Quadrupole moment (field-independent basis, Debye-Ang):
   XX=            -36.0269   YY=            -35.9109   ZZ=            -36.0540
   XY=              0.0016   XZ=             -0.1760   YZ=             -0.0165
 Traceless Quadrupole moment (field-independent basis, Debye-Ang):
   XX=             -0.0296   YY=              0.0864   ZZ=             -0.0567
   XY=              0.0016   XZ=             -0.1760   YZ=             -0.0165
 Octapole moment (field-independent basis, Debye-Ang**2):
  XXX=              0.2835  YYY=             -1.5328  ZZZ=             -0.3667  XYY=             -0.3038
  XXY=              0.4150  XXZ=              2.5721  XZZ=              0.6425  YZZ=              1.1479
  YYZ=             -2.1513  XYZ=             -0.8914
 Hexadecapole moment (field-independent basis, Debye-Ang**3):
 XXXX=           -245.6198 YYYY=           -231.6878 ZZZZ=           -230.3904 XXXY=             -0.2354
 XXXZ=             -1.1050 YYYX=              0.4563 YYYZ=              0.2600 ZZZX=             -0.6093
 ZZZY=             -0.7359 XXYY=            -79.8760 XXZZ=            -78.0252 YYZZ=            -76.5542
 XXYZ=              0.3285 YYXZ=             -0.4993 ZZXY=             -0.2100
 N-N= 1.972772832381D+02 E-N=-8.510791188541D+02  KE= 1.962940498593D+02
 There are a total of      376626 grid points.
 ElSum from          density=       41.9999949752
 ElSum from atomic densities=       41.9999866801
 Hirshfeld populations at iteration   1 (CA, CB, DipXYZ):
               1          2          3          4          5
     1  C    3.040495   3.040495   0.023398   0.001834   0.008639
     2  H    0.488205   0.488205  -0.100203   0.037491   0.076994
     3  C    2.983712   2.983712   0.004019   0.000044  -0.005558
     4  C    3.041383   3.041383  -0.006026  -0.018382  -0.011227
     5  H    0.487380   0.487380   0.023527   0.092205  -0.090295
     6  H    0.487222   0.487222  -0.101493   0.040257   0.072380
     7  H    0.488010   0.488010   0.103005  -0.000723   0.077999
     8  C    3.041402   3.041402  -0.020300   0.006114   0.007941
     9  H    0.487381   0.487381  -0.009514  -0.117299  -0.058125
    10  H    0.487272   0.487272   0.032843   0.085808  -0.094224
    11  H    0.487456   0.487456   0.100568  -0.010015   0.081216
    12  C    3.041572   3.041572   0.001239   0.012605  -0.016924
    13  H    0.487205   0.487205  -0.108847   0.028733   0.066861
    14  H    0.487479   0.487479  -0.012705  -0.123282  -0.042931
    15  H    0.488165   0.488165   0.098374   0.000320   0.083473
    16  H    0.487950   0.487950  -0.031418  -0.116184  -0.042933
    17  H    0.487709   0.487709   0.013885   0.084581  -0.100316
       Tot  20.999997  20.999997   0.010352   0.004109   0.012971

 Dip from Atomic Chgs              0.004142   0.000659   0.002751
         Total Dipole              0.014494   0.004767   0.015723

 Hirshfeld charges, spin densities, dipoles, and CM5 charges using IRadAn=      5:
              Q-H        S-H        Dx         Dy         Dz        Q-CM5   
     1  C   -0.080989   0.000000   0.023398   0.001834   0.008639  -0.221801
     2  H    0.023591   0.000000  -0.100203   0.037491   0.076994   0.076583
     3  C    0.032575   0.000000   0.004019   0.000044  -0.005558  -0.005075
     4  C   -0.082765   0.000000  -0.006026  -0.018382  -0.011227  -0.228621
     5  H    0.025241   0.000000   0.023527   0.092205  -0.090295   0.076809
     6  H    0.025556   0.000000  -0.101493   0.040257   0.072380   0.077249
     7  H    0.023981   0.000000   0.103005  -0.000723   0.077999   0.075985
     8  C   -0.082803   0.000000  -0.020300   0.006114   0.007941  -0.228410
     9  H    0.025237   0.000000  -0.009514  -0.117299  -0.058125   0.076696
    10  H    0.025456   0.000000   0.032843   0.085808  -0.094224   0.077240
    11  H    0.025088   0.000000   0.100568  -0.010015   0.081216   0.077050
    12  C   -0.083143   0.000000   0.001239   0.012605  -0.016924  -0.229230
    13  H    0.025589   0.000000  -0.108847   0.028733   0.066861   0.077328
    14  H    0.025042   0.000000  -0.012705  -0.123282  -0.042931   0.076901
    15  H    0.023670   0.000000   0.098374   0.000320   0.083473   0.075601
    16  H    0.024100   0.000000  -0.031418  -0.116184  -0.042933   0.071077
    17  H    0.024582   0.000000   0.013885   0.084581  -0.100316   0.074620
       Tot   0.000005   0.000000   0.010352   0.004109   0.012971   0.000005
 Hirshfeld charges with hydrogens summed into heavy atoms:
              Q-H       Q-CM5   
     1  C   -0.008717   0.000480
     3  C    0.032575  -0.005075
     4  C   -0.007989   0.001422
     8  C   -0.007022   0.002577
    12  C   -0.008843   0.000601
 
 EQQ= 0.000000000000E+00 EQD= 0.000000000000E+00 EDD=-0.203851468284E-02
 EQQ+QD+DD=-0.203851468284E-02
 
 No NMR shielding tensors so no spin-rotation constants.
 Leave Link  601 at Fri Sep 22 16:26:16 2023, MaxMem=  1073741824 cpu:               5.2 elap:               0.7
 (Enter /share/apps/gaussian/g16/l9999.exe)
 1\1\GINC-NODE101\SP\RB3LYP\Gen\C5H12\YANZ\22-Sep-2023\0\\#p b3lyp/gen 
 scrf=(cpcm,solvent=toluene) pop=hirshfeld empiricaldispersion=gd3bj\\t
 mpdir/M1_ref_8.gjf\\0,1\C,0,3.487214,-2.442657,-0.040232\H,0,4.214917,
 -2.495019,0.77098101\C,0,3.790623,-3.626523,-1.01730096\C,0,5.238456,-
 3.491989,-1.51444304\H,0,5.391221,-2.568939,-2.08783698\H,0,5.952221,-
 3.503116,-0.68045199\H,0,5.483004,-4.333893,-2.17414808\C,0,2.840468,-
 3.65956,-2.22541094\H,0,1.78695,-3.729023,-1.92864501\H,0,2.956222,-2.
 77266,-2.85727406\H,0,3.066251,-4.544694,-2.83489895\C,0,3.654269,-4.9
 32288,-0.216343\H,0,4.297468,-4.91991,0.673527\H,0,2.622597,-5.099522,
 0.111953\H,0,3.952059,-5.783711,-0.84178501\H,0,2.45790744,-2.54589954
 ,0.42629932\H,0,3.56232079,-1.45941712,-0.54369762\\Version=ES64L-G16R
 evA.03\State=1-A\HF=-197.7583957\RMSD=1.558e-09\Dipole=0.0108938,-0.01
 5165,-0.0114717\Quadrupole=0.0365076,-0.0768797,0.0403722,0.06025,0.04
 79212,-0.1004862\PG=C01 [X(C5H12)]\\@


 NO MATTER HOW THIN YOU SLICE IT, IT'S STILL BALONEY

                                   -- ALFRED E. SMITH
 Job cpu time:       0 days  0 hours  2 minutes  2.3 seconds.
 Elapsed time:       0 days  0 hours  0 minutes 15.6 seconds.
 File lengths (MBytes):  RWF=     27 Int=      0 D2E=      0 Chk=      3 Scr=      1
 Normal termination of Gaussian 16 at Fri Sep 22 16:26:16 2023.
