 Entering Gaussian System, Link 0=g16
 Initial command:
 /share/apps/gaussian/g16/l1.exe "/tmp/55556.mgr/Gau-86054.inp" -scrdir="/tmp/55556.mgr/"
 Entering Link 1 = /share/apps/gaussian/g16/l1.exe PID=     86056.
  
 Copyright (c) 1988,1990,1992,1993,1995,1998,2003,2009,2016,
            Gaussian, Inc.  All Rights Reserved.
  
 This is part of the Gaussian(R) 16 program.  It is based on
 the Gaussian(R) 09 system (copyright 2009, Gaussian, Inc.),
 the Gaussian(R) 03 system (copyright 2003, Gaussian, Inc.),
 the Gaussian(R) 98 system (copyright 1998, Gaussian, Inc.),
 the Gaussian(R) 94 system (copyright 1995, Gaussian, Inc.),
 the Gaussian 92(TM) system (copyright 1992, Gaussian, Inc.),
 the Gaussian 90(TM) system (copyright 1990, Gaussian, Inc.),
 the Gaussian 88(TM) system (copyright 1988, Gaussian, Inc.),
 the Gaussian 86(TM) system (copyright 1986, Carnegie Mellon
 University), and the Gaussian 82(TM) system (copyright 1983,
 Carnegie Mellon University). Gaussian is a federally registered
 trademark of Gaussian, Inc.
  
 This software contains proprietary and confidential information,
 including trade secrets, belonging to Gaussian, Inc.
  
 This software is provided under written license and may be
 used, copied, transmitted, or stored only in accord with that
 written license.
  
 The following legend is applicable only to US Government
 contracts under FAR:
  
                    RESTRICTED RIGHTS LEGEND
  
 Use, reproduction and disclosure by the US Government is
 subject to restrictions as set forth in subparagraphs (a)
 and (c) of the Commercial Computer Software - Restricted
 Rights clause in FAR 52.227-19.
  
 Gaussian, Inc.
 340 Quinnipiac St., Bldg. 40, Wallingford CT 06492
  
  
 ---------------------------------------------------------------
 Warning -- This program may not be used in any manner that
 competes with the business of Gaussian, Inc. or will provide
 assistance to any competitor of Gaussian, Inc.  The licensee
 of this program is prohibited from giving any competitor of
 Gaussian, Inc. access to this program.  By using this program,
 the user acknowledges that Gaussian, Inc. is engaged in the
 business of creating and licensing software in the field of
 computational chemistry and represents and warrants to the
 licensee that it is not a competitor of Gaussian, Inc. and that
 it will not use this program in any manner prohibited above.
 ---------------------------------------------------------------
  

 Cite this work as:
 Gaussian 16, Revision A.03,
 M. J. Frisch, G. W. Trucks, H. B. Schlegel, G. E. Scuseria, 
 M. A. Robb, J. R. Cheeseman, G. Scalmani, V. Barone, 
 G. A. Petersson, H. Nakatsuji, X. Li, M. Caricato, A. V. Marenich, 
 J. Bloino, B. G. Janesko, R. Gomperts, B. Mennucci, H. P. Hratchian, 
 J. V. Ortiz, A. F. Izmaylov, J. L. Sonnenberg, D. Williams-Young, 
 F. Ding, F. Lipparini, F. Egidi, J. Goings, B. Peng, A. Petrone, 
 T. Henderson, D. Ranasinghe, V. G. Zakrzewski, J. Gao, N. Rega, 
 G. Zheng, W. Liang, M. Hada, M. Ehara, K. Toyota, R. Fukuda, 
 J. Hasegawa, M. Ishida, T. Nakajima, Y. Honda, O. Kitao, H. Nakai, 
 T. Vreven, K. Throssell, J. A. Montgomery, Jr., J. E. Peralta, 
 F. Ogliaro, M. J. Bearpark, J. J. Heyd, E. N. Brothers, K. N. Kudin, 
 V. N. Staroverov, T. A. Keith, R. Kobayashi, J. Normand, 
 K. Raghavachari, A. P. Rendell, J. C. Burant, S. S. Iyengar, 
 J. Tomasi, M. Cossi, J. M. Millam, M. Klene, C. Adamo, R. Cammi, 
 J. W. Ochterski, R. L. Martin, K. Morokuma, O. Farkas, 
 J. B. Foresman, and D. J. Fox, Gaussian, Inc., Wallingford CT, 2016.
 
 ******************************************
 Gaussian 16:  ES64L-G16RevA.03 25-Dec-2016
                22-Sep-2023 
 ******************************************
 %nprocshared=2
 Will use up to    2 processors via shared memory.
 %mem=2GB
 ----------------------------------------------------------------------
 #p b3lyp/gen scrf=(cpcm,solvent=toluene) pop=hirshfeld empiricaldisper
 sion=gd3bj
 ----------------------------------------------------------------------
 1/38=1,172=1/1;
 2/12=2,17=6,18=5,40=1/2;
 3/5=7,11=2,25=1,30=1,70=2101,72=13,74=-5,124=41/1,2,3;
 4//1;
 5/5=2,38=5,53=13/2;
 6/7=2,8=2,9=2,10=2,28=1,79=1/1;
 99/5=1,9=1/99;
 Leave Link    1 at Fri Sep 22 16:34:48 2023, MaxMem=   268435456 cpu:               0.1 elap:               0.0
 (Enter /share/apps/gaussian/g16/l101.exe)
 ------------------------
 tmpdir/M2_conf_0_244.gjf
 ------------------------
 Symbolic Z-matrix:
 Charge =  0 Multiplicity = 1
 N                     0.        0.        0. 
 C                     1.4016    0.        0. 
 C                     2.27723   0.        1.20964 
 H                    -0.31991  -0.02201  -0.91377 
 H                    -0.60207   0.24548   0.80142 
 O                     1.76731  -0.03907  -1.15359 
 H                     3.31452   0.12516   0.88127 
 H                     2.05233   0.8122    1.91048 
 H                     2.20598  -0.95075   1.75284 
 
 ITRead=  0  0  0  0  0  0  0  0  0
 MicOpt= -1 -1 -1 -1 -1 -1 -1 -1 -1
 NAtoms=      9 NQM=        9 NQMF=       0 NMMI=      0 NMMIF=      0
                NMic=       0 NMicF=      0.
                    Isotopes and Nuclear Properties:
 (Nuclear quadrupole moments (NQMom) in fm**2, nuclear magnetic moments (NMagM)
  in nuclear magnetons)

  Atom         1           2           3           4           5           6           7           8           9
 IAtWgt=          14          12          12           1           1          16           1           1           1
 AtmWgt=  14.0030740  12.0000000  12.0000000   1.0078250   1.0078250  15.9949146   1.0078250   1.0078250   1.0078250
 NucSpn=           2           0           0           1           1           0           1           1           1
 AtZEff=  -0.0000000  -0.0000000  -0.0000000  -0.0000000  -0.0000000  -0.0000000  -0.0000000  -0.0000000  -0.0000000
 NQMom=    2.0440000   0.0000000   0.0000000   0.0000000   0.0000000   0.0000000   0.0000000   0.0000000   0.0000000
 NMagM=    0.4037610   0.0000000   0.0000000   2.7928460   2.7928460   0.0000000   2.7928460   2.7928460   2.7928460
 AtZNuc=   7.0000000   6.0000000   6.0000000   1.0000000   1.0000000   8.0000000   1.0000000   1.0000000   1.0000000
 Leave Link  101 at Fri Sep 22 16:34:48 2023, MaxMem=   268435456 cpu:               0.2 elap:               0.1
 (Enter /share/apps/gaussian/g16/l202.exe)
                          Input orientation:                          
 ---------------------------------------------------------------------
 Center     Atomic      Atomic             Coordinates (Angstroms)
 Number     Number       Type             X           Y           Z
 ---------------------------------------------------------------------
      1          7           0        0.000000    0.000000    0.000000
      2          6           0        1.401600    0.000000    0.000000
      3          6           0        2.277230    0.000000    1.209640
      4          1           0       -0.319910   -0.022010   -0.913770
      5          1           0       -0.602070    0.245480    0.801420
      6          8           0        1.767310   -0.039070   -1.153590
      7          1           0        3.314520    0.125160    0.881270
      8          1           0        2.052330    0.812200    1.910480
      9          1           0        2.205980   -0.950750    1.752840
 ---------------------------------------------------------------------
                    Distance matrix (angstroms):
                    1          2          3          4          5
     1  N    0.000000
     2  C    1.401600   0.000000
     3  C    2.578567   1.493304   0.000000
     4  H    0.968402   1.949117   3.354771   0.000000
     5  H    1.031999   2.171918   2.918437   1.758705   0.000000
     6  O    2.110848   1.210801   2.417933   2.101022   3.084963
     7  H    3.431959   2.109873   1.095200   4.056219   3.919251
     8  H    2.919188   2.175558   1.096096   3.781510   2.932068
     9  H    2.973671   2.150209   1.097300   3.788600   3.197079
                    6          7          8          9
     6  O    0.000000
     7  H    2.561540   0.000000
     8  H    3.192870   1.767603   0.000000
     9  H    3.077487   1.773719   1.776640   0.000000
 Stoichiometry    C2H5NO
 Framework group  C1[X(C2H5NO)]
 Deg. of freedom    21
 Full point group                 C1      NOp   1
 Largest Abelian subgroup         C1      NOp   1
 Largest concise Abelian subgroup C1      NOp   1
                         Standard orientation:                         
 ---------------------------------------------------------------------
 Center     Atomic      Atomic             Coordinates (Angstroms)
 Number     Number       Type             X           Y           Z
 ---------------------------------------------------------------------
      1          7           0        1.080026   -0.795398    0.030518
      2          6           0        0.001279    0.098677   -0.007126
      3          6           0       -1.444958   -0.273094    0.004842
      4          1           0        1.909607   -0.295814    0.034297
      5          1           0        1.032216   -1.805577   -0.175088
      6          8           0        0.456251    1.220737   -0.011750
      7          1           0       -2.033419    0.636165   -0.157710
      8          1           0       -1.717741   -0.987836   -0.780115
      9          1           0       -1.738778   -0.698549    0.972689
 ---------------------------------------------------------------------
 Rotational constants (GHZ):          12.5040756           8.2570610           5.1386571
 Leave Link  202 at Fri Sep 22 16:34:48 2023, MaxMem=   268435456 cpu:               0.0 elap:               0.0
 (Enter /share/apps/gaussian/g16/l301.exe)
 General basis read from cards:  (5D, 7F)
 Centers:       4      5      7      8      9
 S 3 1.00
     Exponent=  1.2251800000D+01 Coefficients=  2.3337100000D-02
     Exponent=  1.8687100000D+00 Coefficients=  1.5915000000D-01
     Exponent=  4.1820800000D-01 Coefficients=  5.0000000000D-01
 S 1 1.00
     Exponent=  1.0610000000D-01 Coefficients=  1.0000000000D+00
 P 1 1.00
     Exponent=  1.0000000000D+00 Coefficients=  1.0000000000D+00
 ****
 Centers:       2      3
 S 5 1.00
     Exponent=  1.2432000000D+03 Coefficients=  6.0336600000D-03
     Exponent=  1.8714500000D+02 Coefficients=  4.4957600000D-02
     Exponent=  4.2512600000D+01 Coefficients=  1.9790100000D-01
     Exponent=  1.1739300000D+01 Coefficients=  5.0000000000D-01
     Exponent=  3.5054800000D+00 Coefficients=  4.8036400000D-01
 S 2 1.00
     Exponent=  5.3908900000D+00 Coefficients= -7.0398000000D-02
     Exponent=  4.9334100000D-01 Coefficients=  5.0000000000D-01
 S 1 1.00
     Exponent=  1.4974100000D-01 Coefficients=  1.0000000000D+00
 P 3 1.00
     Exponent=  9.1805600000D+00 Coefficients=  4.3170100000D-02
     Exponent=  1.9365800000D+00 Coefficients=  2.2499900000D-01
     Exponent=  5.2629600000D-01 Coefficients=  5.0000000000D-01
 P 1 1.00
     Exponent=  1.3631900000D-01 Coefficients=  1.0000000000D+00
 D 1 1.00
     Exponent=  8.0000000000D-01 Coefficients=  1.0000000000D+00
 ****
 Centers:       1
 S 5 1.00
     Exponent=  1.7263200000D+03 Coefficients=  5.9307700000D-03
     Exponent=  2.5982700000D+02 Coefficients=  4.4253900000D-02
     Exponent=  5.9033500000D+01 Coefficients=  1.9609600000D-01
     Exponent=  1.6350900000D+01 Coefficients=  5.0000000000D-01
     Exponent=  4.9108400000D+00 Coefficients=  4.8298700000D-01
 S 2 1.00
     Exponent=  7.7589400000D+00 Coefficients= -7.0335600000D-02
     Exponent=  7.0557300000D-01 Coefficients=  5.0000000000D-01
 S 1 1.00
     Exponent=  2.0928600000D-01 Coefficients=  1.0000000000D+00
 P 3 1.00
     Exponent=  1.3184400000D+01 Coefficients=  4.4074700000D-02
     Exponent=  2.8186000000D+00 Coefficients=  2.3047800000D-01
     Exponent=  7.6557100000D-01 Coefficients=  5.0000000000D-01
 P 1 1.00
     Exponent=  1.9594900000D-01 Coefficients=  1.0000000000D+00
 D 1 1.00
     Exponent=  9.0000000000D-01 Coefficients=  1.0000000000D+00
 ****
 Centers:       6
 S 5 1.00
     Exponent=  2.2886400000D+03 Coefficients=  5.8546800000D-03
     Exponent=  3.4441600000D+02 Coefficients=  4.3733300000D-02
     Exponent=  7.8253800000D+01 Coefficients=  1.9479600000D-01
     Exponent=  2.1719500000D+01 Coefficients=  5.0000000000D-01
     Exponent=  6.5590700000D+00 Coefficients=  4.8461400000D-01
 S 2 1.00
     Exponent=  1.0465600000D+01 Coefficients= -7.1334300000D-02
     Exponent=  9.6435100000D-01 Coefficients=  5.0000000000D-01
 S 1 1.00
     Exponent=  2.8512700000D-01 Coefficients=  1.0000000000D+00
 P 3 1.00
     Exponent=  1.7059000000D+01 Coefficients=  4.7443900000D-02
     Exponent=  3.6899900000D+00 Coefficients=  2.4268900000D-01
     Exponent=  9.9299600000D-01 Coefficients=  5.0000000000D-01
 P 1 1.00
     Exponent=  2.4492400000D-01 Coefficients=  1.0000000000D+00
 D 1 1.00
     Exponent=  1.0000000000D+00 Coefficients=  1.0000000000D+00
 ****
 Ernie: Thresh=  0.10000D-02 Tol=  0.10000D-05 Strict=F.
 There are    85 symmetry adapted cartesian basis functions of A   symmetry.
 There are    81 symmetry adapted basis functions of A   symmetry.
    81 basis functions,   139 primitive gaussians,    85 cartesian basis functions
    16 alpha electrons       16 beta electrons
       nuclear repulsion energy       121.8486823410 Hartrees.
 IExCor=  402 DFT=T Ex+Corr=B3LYP ExCW=0 ScaHFX=  0.200000
 ScaDFX=  0.800000  0.720000  1.000000  0.810000 ScalE2=  1.000000  1.000000
 IRadAn=      5 IRanWt=     -1 IRanGd=            0 ICorTp=0 IEmpDi=141
 NAtoms=    9 NActive=    9 NUniq=    9 SFac= 1.00D+00 NAtFMM=   60 NAOKFM=F Big=F
 Integral buffers will be    131072 words long.
 Raffenetti 2 integral format.
 Two-electron integral symmetry is turned on.
 R6Disp:  Grimme-D3(BJ) Dispersion energy=       -0.0084767283 Hartrees.
 Nuclear repulsion after empirical dispersion term =      121.8402056127 Hartrees.
 ------------------------------------------------------------------------------
 Polarizable Continuum Model (PCM)
 =================================
 Model                : C-PCM.
 Atomic radii         : UFF (Universal Force Field).
 Polarization charges : Total charges.
 Charge compensation  : None.
 Solution method      : On-the-fly selection.
 Cavity type          : Scaled VdW (van der Waals Surface) (Alpha=1.100).
 Cavity algorithm     : GePol (No added spheres)
                        Default sphere list used, NSphG=    9.
                        Lebedev-Laikov grids with approx.  5.0 points / Ang**2.
                        Smoothing algorithm: York/Karplus (Gamma=1.0000).
                        Polarization charges: spherical gaussians, with
                                              point-specific exponents (IZeta= 3).
                        Self-potential: point-specific (ISelfS= 7).
                        Self-field    : sphere-specific E.n sum rule (ISelfD= 2).
 Solvent              : Toluene, Eps=   2.374100 Eps(inf)=   2.238315
 ------------------------------------------------------------------------------
 Spheres list:
 ISph  on   Nord     Re0    Alpha      Xe            Ye            Ze
    1   N      1    1.8300  1.100      1.080026     -0.795398      0.030518
    2   C      2    1.9255  1.100      0.001279      0.098677     -0.007126
    3   C      3    1.9255  1.100     -1.444958     -0.273094      0.004842
    4   H      4    1.4430  1.100      1.909607     -0.295814      0.034297
    5   H      5    1.4430  1.100      1.032216     -1.805577     -0.175088
    6   O      6    1.7500  1.100      0.456251      1.220737     -0.011750
    7   H      7    1.4430  1.100     -2.033419      0.636165     -0.157710
    8   H      8    1.4430  1.100     -1.717741     -0.987836     -0.780115
    9   H      9    1.4430  1.100     -1.738778     -0.698549      0.972689
 ------------------------------------------------------------------------------
 GePol: Number of generator spheres                  =       9
 GePol: Total number of spheres                      =       9
 GePol: Number of exposed spheres                    =       9 (100.00%)
 GePol: Number of points                             =     883
 GePol: Average weight of points                     =       0.13
 GePol: Minimum weight of points                     =   0.81D-10
 GePol: Maximum weight of points                     =    0.20577
 GePol: Number of points with low weight             =      44
 GePol: Fraction of low-weight points (<1% of avg)   =       4.98%
 GePol: Cavity surface area                          =    117.305 Ang**2
 GePol: Cavity volume                                =    100.059 Ang**3
 Leave Link  301 at Fri Sep 22 16:34:48 2023, MaxMem=   268435456 cpu:               0.2 elap:               0.1
 (Enter /share/apps/gaussian/g16/l302.exe)
 NPDir=0 NMtPBC=     1 NCelOv=     1 NCel=       1 NClECP=     1 NCelD=      1
         NCelK=      1 NCelE2=     1 NClLst=     1 CellRange=     0.0.
 One-electron integrals computed using PRISM.
 One-electron integral symmetry used in STVInt
 NBasis=    81 RedAO= T EigKep=  4.19D-03  NBF=    81
 NBsUse=    81 1.00D-06 EigRej= -1.00D+00 NBFU=    81
 Precomputing XC quadrature grid using
 IXCGrd= 4 IRadAn=           5 IRanWt=          -1 IRanGd=           0 AccXCQ= 0.00D+00.
 Generated NRdTot=       0 NPtTot=           0 NUsed=           0 NTot=          32
 NSgBfM=    85    85    85    85    85 MxSgAt=     9 MxSgA2=     9.
 Leave Link  302 at Fri Sep 22 16:34:49 2023, MaxMem=   268435456 cpu:               0.3 elap:               0.2
 (Enter /share/apps/gaussian/g16/l303.exe)
 DipDrv:  MaxL=1.
 Leave Link  303 at Fri Sep 22 16:34:49 2023, MaxMem=   268435456 cpu:               0.1 elap:               0.0
 (Enter /share/apps/gaussian/g16/l401.exe)
 ExpMin= 1.06D-01 ExpMax= 2.29D+03 ExpMxC= 3.44D+02 IAcc=3 IRadAn=         5 AccDes= 0.00D+00
 Harris functional with IExCor=  402 and IRadAn=       5 diagonalized for initial guess.
 HarFok:  IExCor=  402 AccDes= 0.00D+00 IRadAn=         5 IDoV= 1 UseB2=F ITyADJ=14
 ICtDFT=  3500011 ScaDFX=  1.000000  1.000000  1.000000  1.000000
 FoFCou: FMM=F IPFlag=           0 FMFlag=      100000 FMFlg1=           0
         NFxFlg=           0 DoJE=T BraDBF=F KetDBF=T FulRan=T
         wScrn=  0.000000 ICntrl=       500 IOpCl=  0 I1Cent=   200000004 NGrid=           0
         NMat0=    1 NMatS0=      1 NMatT0=    0 NMatD0=    1 NMtDS0=    0 NMtDT0=    0
 Petite list used in FoFCou.
 Harris En= -209.212016728313    
 JPrj=0 DoOrth=F DoCkMO=F.
 Leave Link  401 at Fri Sep 22 16:34:50 2023, MaxMem=   268435456 cpu:               1.8 elap:               0.9
 (Enter /share/apps/gaussian/g16/l502.exe)
 Keep R1 ints in memory in canonical form, NReq=7334660.
 FoFCou: FMM=F IPFlag=           0 FMFlag=           0 FMFlg1=           0
         NFxFlg=           0 DoJE=F BraDBF=F KetDBF=F FulRan=T
         wScrn=  0.000000 ICntrl=       600 IOpCl=  0 I1Cent=           0 NGrid=           0
         NMat0=    1 NMatS0=   3321 NMatT0=    0 NMatD0=    1 NMtDS0=    0 NMtDT0=    0
 Symmetry not used in FoFCou.
 Two-electron integral symmetry not used.
 Closed shell SCF:
 Using DIIS extrapolation, IDIIS=  1040.
 NGot=   268435456 LenX=   262903234 LenY=   262895568
 Requested convergence on RMS density matrix=1.00D-08 within 128 cycles.
 Requested convergence on MAX density matrix=1.00D-06.
 Requested convergence on             energy=1.00D-06.
 No special actions if energy rises.

 Cycle   1  Pass 1  IDiag  1:
 Inv3:  Mode=1 IEnd=     2339067.
 Iteration    1 A*A^-1 deviation from unit magnitude is 4.00D-15 for    873.
 Iteration    1 A*A^-1 deviation from orthogonality  is 2.12D-15 for    856    681.
 Iteration    1 A^-1*A deviation from unit magnitude is 4.00D-15 for    873.
 Iteration    1 A^-1*A deviation from orthogonality  is 2.29D-15 for    876    554.
 E= -209.017616486822    
 DIIS: error= 3.96D-02 at cycle   1 NSaved=   1.
 NSaved= 1 IEnMin= 1 EnMin= -209.017616486822     IErMin= 1 ErrMin= 3.96D-02
 ErrMax= 3.96D-02  0.00D+00 EMaxC= 1.00D-01 BMatC= 1.91D-01 BMatP= 1.91D-01
 IDIUse=3 WtCom= 6.04D-01 WtEn= 3.96D-01
 Coeff-Com:  0.100D+01
 Coeff-En:   0.100D+01
 Coeff:      0.100D+01
 Gap=     0.209 Goal=   None    Shift=    0.000
 GapD=    0.209 DampG=1.000 DampE=0.500 DampFc=0.5000 IDamp=-1.
 Damping current iteration by 5.00D-01
 RMSDP=1.20D-02 MaxDP=2.17D-01              OVMax= 2.33D-01

 Cycle   2  Pass 1  IDiag  1:
 E= -209.067184835822     Delta-E=       -0.049568348999 Rises=F Damp=T
 DIIS: error= 1.39D-02 at cycle   2 NSaved=   2.
 NSaved= 2 IEnMin= 2 EnMin= -209.067184835822     IErMin= 2 ErrMin= 1.39D-02
 ErrMax= 1.39D-02  0.00D+00 EMaxC= 1.00D-01 BMatC= 2.07D-02 BMatP= 1.91D-01
 IDIUse=3 WtCom= 8.61D-01 WtEn= 1.39D-01
 Coeff-Com:  0.205D+00 0.795D+00
 Coeff-En:   0.323D+00 0.677D+00
 Coeff:      0.221D+00 0.779D+00
 Gap=     0.307 Goal=   None    Shift=    0.000
 RMSDP=3.21D-03 MaxDP=4.76D-02 DE=-4.96D-02 OVMax= 1.66D-01

 Cycle   3  Pass 1  IDiag  1:
 E= -209.163834924178     Delta-E=       -0.096650088356 Rises=F Damp=F
 DIIS: error= 1.11D-02 at cycle   3 NSaved=   3.
 NSaved= 3 IEnMin= 3 EnMin= -209.163834924178     IErMin= 3 ErrMin= 1.11D-02
 ErrMax= 1.11D-02  0.00D+00 EMaxC= 1.00D-01 BMatC= 1.89D-02 BMatP= 2.07D-02
 IDIUse=3 WtCom= 8.89D-01 WtEn= 1.11D-01
 Coeff-Com:  0.986D-01 0.502D+00 0.400D+00
 Coeff-En:   0.000D+00 0.000D+00 0.100D+01
 Coeff:      0.876D-01 0.446D+00 0.466D+00
 Gap=     0.276 Goal=   None    Shift=    0.000
 RMSDP=1.68D-03 MaxDP=3.50D-02 DE=-9.67D-02 OVMax= 5.83D-02

 Cycle   4  Pass 1  IDiag  1:
 E= -209.178708961417     Delta-E=       -0.014874037239 Rises=F Damp=F
 DIIS: error= 3.89D-03 at cycle   4 NSaved=   4.
 NSaved= 4 IEnMin= 4 EnMin= -209.178708961417     IErMin= 4 ErrMin= 3.89D-03
 ErrMax= 3.89D-03  0.00D+00 EMaxC= 1.00D-01 BMatC= 1.67D-03 BMatP= 1.89D-02
 IDIUse=3 WtCom= 9.61D-01 WtEn= 3.89D-02
 Coeff-Com:  0.150D-01 0.766D-01 0.242D+00 0.667D+00
 Coeff-En:   0.000D+00 0.000D+00 0.593D-01 0.941D+00
 Coeff:      0.144D-01 0.737D-01 0.235D+00 0.677D+00
 Gap=     0.268 Goal=   None    Shift=    0.000
 RMSDP=4.56D-04 MaxDP=1.09D-02 DE=-1.49D-02 OVMax= 1.45D-02

 Cycle   5  Pass 1  IDiag  1:
 E= -209.179896127616     Delta-E=       -0.001187166199 Rises=F Damp=F
 DIIS: error= 1.01D-03 at cycle   5 NSaved=   5.
 NSaved= 5 IEnMin= 5 EnMin= -209.179896127616     IErMin= 5 ErrMin= 1.01D-03
 ErrMax= 1.01D-03  0.00D+00 EMaxC= 1.00D-01 BMatC= 1.55D-04 BMatP= 1.67D-03
 IDIUse=3 WtCom= 9.90D-01 WtEn= 1.01D-02
 Coeff-Com:  0.271D-03 0.546D-03 0.101D+00 0.402D+00 0.495D+00
 Coeff-En:   0.000D+00 0.000D+00 0.000D+00 0.298D-01 0.970D+00
 Coeff:      0.268D-03 0.540D-03 0.100D+00 0.399D+00 0.500D+00
 Gap=     0.268 Goal=   None    Shift=    0.000
 RMSDP=1.34D-04 MaxDP=3.07D-03 DE=-1.19D-03 OVMax= 4.06D-03

 Cycle   6  Pass 1  IDiag  1:
 E= -209.180038232201     Delta-E=       -0.000142104586 Rises=F Damp=F
 DIIS: error= 1.12D-04 at cycle   6 NSaved=   6.
 NSaved= 6 IEnMin= 6 EnMin= -209.180038232201     IErMin= 6 ErrMin= 1.12D-04
 ErrMax= 1.12D-04  0.00D+00 EMaxC= 1.00D-01 BMatC= 2.08D-06 BMatP= 1.55D-04
 IDIUse=3 WtCom= 9.99D-01 WtEn= 1.12D-03
 Coeff-Com: -0.325D-03-0.370D-02 0.177D-01 0.699D-01 0.150D+00 0.767D+00
 Coeff-En:   0.000D+00 0.000D+00 0.000D+00 0.000D+00 0.000D+00 0.100D+01
 Coeff:     -0.324D-03-0.369D-02 0.177D-01 0.698D-01 0.150D+00 0.767D+00
 Gap=     0.268 Goal=   None    Shift=    0.000
 RMSDP=1.40D-05 MaxDP=2.69D-04 DE=-1.42D-04 OVMax= 3.15D-04

 Cycle   7  Pass 1  IDiag  1:
 E= -209.180039950420     Delta-E=       -0.000001718218 Rises=F Damp=F
 DIIS: error= 2.26D-05 at cycle   7 NSaved=   7.
 NSaved= 7 IEnMin= 7 EnMin= -209.180039950420     IErMin= 7 ErrMin= 2.26D-05
 ErrMax= 2.26D-05  0.00D+00 EMaxC= 1.00D-01 BMatC= 8.92D-08 BMatP= 2.08D-06
 IDIUse=1 WtCom= 1.00D+00 WtEn= 0.00D+00
 Coeff-Com: -0.416D-04-0.145D-02 0.531D-02 0.184D-01 0.508D-01 0.297D+00
 Coeff-Com:  0.630D+00
 Coeff:     -0.416D-04-0.145D-02 0.531D-02 0.184D-01 0.508D-01 0.297D+00
 Coeff:      0.630D+00
 Gap=     0.268 Goal=   None    Shift=    0.000
 RMSDP=4.28D-06 MaxDP=5.95D-05 DE=-1.72D-06 OVMax= 7.66D-05

 Cycle   8  Pass 1  IDiag  1:
 E= -209.180040025048     Delta-E=       -0.000000074628 Rises=F Damp=F
 DIIS: error= 7.36D-06 at cycle   8 NSaved=   8.
 NSaved= 8 IEnMin= 8 EnMin= -209.180040025048     IErMin= 8 ErrMin= 7.36D-06
 ErrMax= 7.36D-06  0.00D+00 EMaxC= 1.00D-01 BMatC= 7.82D-09 BMatP= 8.92D-08
 IDIUse=1 WtCom= 1.00D+00 WtEn= 0.00D+00
 Coeff-Com:  0.477D-04-0.120D-03 0.398D-05-0.160D-02 0.132D-02 0.572D-02
 Coeff-Com:  0.211D+00 0.783D+00
 Coeff:      0.477D-04-0.120D-03 0.398D-05-0.160D-02 0.132D-02 0.572D-02
 Coeff:      0.211D+00 0.783D+00
 Gap=     0.268 Goal=   None    Shift=    0.000
 RMSDP=1.05D-06 MaxDP=1.46D-05 DE=-7.46D-08 OVMax= 2.10D-05

 Cycle   9  Pass 1  IDiag  1:
 E= -209.180040032000     Delta-E=       -0.000000006952 Rises=F Damp=F
 DIIS: error= 8.56D-07 at cycle   9 NSaved=   9.
 NSaved= 9 IEnMin= 9 EnMin= -209.180040032000     IErMin= 9 ErrMin= 8.56D-07
 ErrMax= 8.56D-07  0.00D+00 EMaxC= 1.00D-01 BMatC= 7.39D-11 BMatP= 7.82D-09
 IDIUse=1 WtCom= 1.00D+00 WtEn= 0.00D+00
 Coeff-Com:  0.742D-05 0.228D-04-0.172D-03-0.894D-03-0.123D-02-0.893D-02
 Coeff-Com:  0.154D-01 0.140D+00 0.856D+00
 Coeff:      0.742D-05 0.228D-04-0.172D-03-0.894D-03-0.123D-02-0.893D-02
 Coeff:      0.154D-01 0.140D+00 0.856D+00
 Gap=     0.268 Goal=   None    Shift=    0.000
 RMSDP=1.66D-07 MaxDP=2.10D-06 DE=-6.95D-09 OVMax= 3.39D-06

 Cycle  10  Pass 1  IDiag  1:
 E= -209.180040032079     Delta-E=       -0.000000000079 Rises=F Damp=F
 DIIS: error= 1.10D-07 at cycle  10 NSaved=  10.
 NSaved=10 IEnMin=10 EnMin= -209.180040032079     IErMin=10 ErrMin= 1.10D-07
 ErrMax= 1.10D-07  0.00D+00 EMaxC= 1.00D-01 BMatC= 2.11D-12 BMatP= 7.39D-11
 IDIUse=1 WtCom= 1.00D+00 WtEn= 0.00D+00
 Coeff-Com: -0.943D-06 0.689D-05-0.241D-04-0.927D-04-0.200D-03-0.157D-02
 Coeff-Com: -0.248D-02-0.165D-02 0.141D+00 0.865D+00
 Coeff:     -0.943D-06 0.689D-05-0.241D-04-0.927D-04-0.200D-03-0.157D-02
 Coeff:     -0.248D-02-0.165D-02 0.141D+00 0.865D+00
 Gap=     0.268 Goal=   None    Shift=    0.000
 RMSDP=2.46D-08 MaxDP=3.45D-07 DE=-7.90D-11 OVMax= 5.98D-07

 Cycle  11  Pass 1  IDiag  1:
 E= -209.180040032079     Delta-E=       -0.000000000001 Rises=F Damp=F
 DIIS: error= 2.19D-08 at cycle  11 NSaved=  11.
 NSaved=11 IEnMin=11 EnMin= -209.180040032079     IErMin=11 ErrMin= 2.19D-08
 ErrMax= 2.19D-08  0.00D+00 EMaxC= 1.00D-01 BMatC= 8.93D-14 BMatP= 2.11D-12
 IDIUse=1 WtCom= 1.00D+00 WtEn= 0.00D+00
 Coeff-Com: -0.285D-06 0.155D-06 0.182D-05 0.806D-05 0.667D-05 0.616D-05
 Coeff-Com: -0.628D-03-0.380D-02-0.848D-02 0.881D-01 0.925D+00
 Coeff:     -0.285D-06 0.155D-06 0.182D-05 0.806D-05 0.667D-05 0.616D-05
 Coeff:     -0.628D-03-0.380D-02-0.848D-02 0.881D-01 0.925D+00
 Gap=     0.268 Goal=   None    Shift=    0.000
 RMSDP=4.14D-09 MaxDP=5.66D-08 DE=-6.25D-13 OVMax= 9.69D-08

 Error on total polarization charges =  0.00371
 SCF Done:  E(RB3LYP) =  -209.180040032     A.U. after   11 cycles
            NFock= 11  Conv=0.41D-08     -V/T= 2.0042
 KE= 2.082967241711D+02 PE=-7.332730896911D+02 EE= 1.939561198753D+02
 Leave Link  502 at Fri Sep 22 16:35:02 2023, MaxMem=   268435456 cpu:              24.8 elap:              12.5
 (Enter /share/apps/gaussian/g16/l601.exe)
 Copying SCF densities to generalized density rwf, IOpCl= 0 IROHF=0.

 **********************************************************************

            Population analysis using the SCF density.

 **********************************************************************

 Orbital symmetries:
       Occupied  (A) (A) (A) (A) (A) (A) (A) (A) (A) (A) (A) (A)
                 (A) (A) (A) (A)
       Virtual   (A) (A) (A) (A) (A) (A) (A) (A) (A) (A) (A) (A)
                 (A) (A) (A) (A) (A) (A) (A) (A) (A) (A) (A) (A)
                 (A) (A) (A) (A) (A) (A) (A) (A) (A) (A) (A) (A)
                 (A) (A) (A) (A) (A) (A) (A) (A) (A) (A) (A) (A)
                 (A) (A) (A) (A) (A) (A) (A) (A) (A) (A) (A) (A)
                 (A) (A) (A) (A) (A)
 The electronic state is 1-A.
 Alpha  occ. eigenvalues --  -19.08567 -14.32268 -10.28473 -10.19179  -1.05665
 Alpha  occ. eigenvalues --   -0.88287  -0.75593  -0.57747  -0.53841  -0.47911
 Alpha  occ. eigenvalues --   -0.45582  -0.42314  -0.40039  -0.37859  -0.26851
 Alpha  occ. eigenvalues --   -0.25693
 Alpha virt. eigenvalues --    0.01107   0.03994   0.07975   0.10386   0.11441
 Alpha virt. eigenvalues --    0.12125   0.18931   0.25621   0.30317   0.41061
 Alpha virt. eigenvalues --    0.41790   0.46331   0.47722   0.49590   0.50941
 Alpha virt. eigenvalues --    0.60804   0.62006   0.62899   0.66089   0.69318
 Alpha virt. eigenvalues --    0.70182   0.74378   0.77265   0.81455   0.93153
 Alpha virt. eigenvalues --    1.00044   1.09970   1.14278   1.27724   1.30794
 Alpha virt. eigenvalues --    1.45108   1.48409   1.53818   1.68256   1.71396
 Alpha virt. eigenvalues --    1.73630   1.84528   1.86214   1.89938   1.90774
 Alpha virt. eigenvalues --    1.92917   2.00045   2.05580   2.10267   2.17778
 Alpha virt. eigenvalues --    2.20018   2.26872   2.30036   2.35520   2.46219
 Alpha virt. eigenvalues --    2.53355   2.54778   2.57805   2.63654   2.65128
 Alpha virt. eigenvalues --    2.74666   2.85915   2.92903   2.98255   3.08776
 Alpha virt. eigenvalues --    3.18925   3.20311   3.24825   3.45073   3.53960
          Condensed to atoms (all electrons):
               1          2          3          4          5          6
     1  N    6.516964   0.385655  -0.098872   0.366961   0.342790  -0.162732
     2  C    0.385655   4.414871   0.376818  -0.007187  -0.009711   0.666685
     3  C   -0.098872   0.376818   4.810260   0.010734  -0.001520  -0.079444
     4  H    0.366961  -0.007187   0.010734   0.472416  -0.020304   0.011228
     5  H    0.342790  -0.009711  -0.001520  -0.020304   0.498548   0.007819
     6  O   -0.162732   0.666685  -0.079444   0.011228   0.007819   7.982060
     7  H    0.007018  -0.021127   0.380497  -0.000371  -0.000390   0.006526
     8  H    0.001522  -0.015503   0.372556  -0.000438   0.000227   0.001785
     9  H    0.001374  -0.017395   0.377468  -0.000374  -0.000407   0.000255
               7          8          9
     1  N    0.007018   0.001522   0.001374
     2  C   -0.021127  -0.015503  -0.017395
     3  C    0.380497   0.372556   0.377468
     4  H   -0.000371  -0.000438  -0.000374
     5  H   -0.000390   0.000227  -0.000407
     6  O    0.006526   0.001785   0.000255
     7  H    0.541833  -0.016497  -0.012418
     8  H   -0.016497   0.552617  -0.016626
     9  H   -0.012418  -0.016626   0.537226
 Mulliken charges:
               1
     1  N   -0.360680
     2  C    0.226894
     3  C   -0.148497
     4  H    0.167336
     5  H    0.182949
     6  O   -0.434182
     7  H    0.114929
     8  H    0.120357
     9  H    0.130895
 Sum of Mulliken charges =  -0.00000
 Mulliken charges with hydrogens summed into heavy atoms:
               1
     1  N   -0.010395
     2  C    0.226894
     3  C    0.217684
     6  O   -0.434182
 Electronic spatial extent (au):  <R**2>=            270.4984
 Charge=             -0.0000 electrons
 Dipole moment (field-independent basis, Debye):
    X=             -1.0003    Y=             -3.8532    Z=             -0.3114  Tot=              3.9931
 Quadrupole moment (field-independent basis, Debye-Ang):
   XX=            -20.4253   YY=            -26.0938   ZZ=            -24.9372
   XY=             -1.9147   XZ=             -0.3665   YZ=              0.7413
 Traceless Quadrupole moment (field-independent basis, Debye-Ang):
   XX=              3.3935   YY=             -2.2750   ZZ=             -1.1185
   XY=             -1.9147   XZ=             -0.3665   YZ=              0.7413
 Octapole moment (field-independent basis, Debye-Ang**2):
  XXX=              7.9309  YYY=            -11.4688  ZZZ=              0.0352  XYY=              1.0471
  XXY=             -1.5397  XXZ=             -0.2946  XZZ=             -0.7607  YZZ=              0.5466
  YYZ=             -1.4893  XYZ=              0.8384
 Hexadecapole moment (field-independent basis, Debye-Ang**3):
 XXXX=           -174.8844 YYYY=           -112.2365 ZZZZ=            -30.4937 XXXY=             -4.0376
 XXXZ=             -0.1794 YYYX=             -9.2430 YYYZ=              2.7939 ZZZX=             -1.1026
 ZZZY=              0.3478 XXYY=            -48.8443 XXZZ=            -37.4754 YYZZ=            -25.0416
 XXYZ=              0.6465 YYXZ=             -0.7757 ZZXY=              2.1437
 N-N= 1.218402056127D+02 E-N=-7.332730891048D+02  KE= 2.082967241711D+02
 There are a total of      200122 grid points.
 ElSum from          density=       31.9999991110
 ElSum from atomic densities=       31.9999986546
 Hirshfeld populations at iteration   1 (CA, CB, DipXYZ):
               1          2          3          4          5
     1  N    3.581181   3.581181   0.006843  -0.019357  -0.053509
     2  C    2.909961   2.909961  -0.057458  -0.084455  -0.005043
     3  C    3.033683   3.033683   0.017252  -0.011166   0.000350
     4  H    0.445091   0.445091   0.178750   0.063793  -0.001427
     5  H    0.438476   0.438476  -0.005628  -0.189831  -0.041595
     6  O    4.167522   4.167522  -0.027524  -0.191849   0.003662
     7  H    0.475486   0.475486  -0.093185   0.113190  -0.022299
     8  H    0.475139   0.475139  -0.042540  -0.094428  -0.104458
     9  H    0.473463   0.473463  -0.046316  -0.056170   0.130719
       Tot  16.000000  16.000000  -0.069806  -0.470274  -0.093600

 Dip from Atomic Chgs             -0.323739  -1.045688  -0.028918
         Total Dipole             -0.393545  -1.515962  -0.122518

 Hirshfeld charges, spin densities, dipoles, and CM5 charges using IRadAn=      5:
              Q-H        S-H        Dx         Dy         Dz        Q-CM5   
     1  N   -0.162362   0.000000   0.006843  -0.019357  -0.053509  -0.616177
     2  C    0.180078   0.000000  -0.057458  -0.084455  -0.005043   0.261228
     3  C   -0.067365   0.000000   0.017252  -0.011166   0.000350  -0.203876
     4  H    0.109819   0.000000   0.178750   0.063793  -0.001427   0.329089
     5  H    0.123049   0.000000  -0.005628  -0.189831  -0.041595   0.301563
     6  O   -0.335043   0.000000  -0.027524  -0.191849   0.003662  -0.383605
     7  H    0.049028   0.000000  -0.093185   0.113190  -0.022299   0.103663
     8  H    0.049723   0.000000  -0.042540  -0.094428  -0.104458   0.102339
     9  H    0.053075   0.000000  -0.046316  -0.056170   0.130719   0.105776
       Tot   0.000001   0.000000  -0.069806  -0.470274  -0.093600   0.000001
 Hirshfeld charges with hydrogens summed into heavy atoms:
              Q-H       Q-CM5   
     1  N    0.070506   0.014474
     2  C    0.180078   0.261228
     3  C    0.084460   0.107903
     6  O   -0.335043  -0.383605
 
 EQQ= 0.000000000000E+00 EQD= 0.000000000000E+00 EDD= 0.140450643193E-02
 EQQ+QD+DD= 0.140450643193E-02
 
 No NMR shielding tensors so no spin-rotation constants.
 Leave Link  601 at Fri Sep 22 16:35:03 2023, MaxMem=   268435456 cpu:               1.4 elap:               0.7
 (Enter /share/apps/gaussian/g16/l9999.exe)
 1\1\GINC-NODE99\SP\RB3LYP\Gen\C2H5N1O1\YANZ\22-Sep-2023\0\\#p b3lyp/ge
 n scrf=(cpcm,solvent=toluene) pop=hirshfeld empiricaldispersion=gd3bj\
 \tmpdir/M2_conf_0_244.gjf\\0,1\N,0,0.,0.,0.\C,0,1.4016,0.,0.\C,0,2.277
 23,0.,1.20964\H,0,-0.31991,-0.02201,-0.91377\H,0,-0.60207,0.24548,0.80
 142\O,0,1.76731,-0.03907,-1.15359\H,0,3.31452,0.12516,0.88127\H,0,2.05
 233,0.8122,1.91048\H,0,2.20598,-0.95075,1.75284\\Version=ES64L-G16RevA
 .03\State=1-A\HF=-209.18004\RMSD=4.140e-09\Dipole=-0.660844,0.1818808,
 1.4135932\Quadrupole=2.1733427,-0.7878676,-1.3854751,-0.5887301,1.8305
 495,0.1846292\PG=C01 [X(C2H5N1O1)]\\@


 MODELS ARE TO BE USED, NOT BELIEVED.

    -- PARAPHRASED BY H. THIEL IN "PRINCIPLES OF ECONOMETRICS"
 Job cpu time:       0 days  0 hours  0 minutes 29.0 seconds.
 Elapsed time:       0 days  0 hours  0 minutes 14.7 seconds.
 File lengths (MBytes):  RWF=     13 Int=      0 D2E=      0 Chk=      2 Scr=      1
 Normal termination of Gaussian 16 at Fri Sep 22 16:35:03 2023.
