 Entering Gaussian System, Link 0=g16
 Initial command:
 /share/apps/gaussian/g16/l1.exe "/tmp/55556.mgr/Gau-84961.inp" -scrdir="/tmp/55556.mgr/"
 Entering Link 1 = /share/apps/gaussian/g16/l1.exe PID=     84962.
  
 Copyright (c) 1988,1990,1992,1993,1995,1998,2003,2009,2016,
            Gaussian, Inc.  All Rights Reserved.
  
 This is part of the Gaussian(R) 16 program.  It is based on
 the Gaussian(R) 09 system (copyright 2009, Gaussian, Inc.),
 the Gaussian(R) 03 system (copyright 2003, Gaussian, Inc.),
 the Gaussian(R) 98 system (copyright 1998, Gaussian, Inc.),
 the Gaussian(R) 94 system (copyright 1995, Gaussian, Inc.),
 the Gaussian 92(TM) system (copyright 1992, Gaussian, Inc.),
 the Gaussian 90(TM) system (copyright 1990, Gaussian, Inc.),
 the Gaussian 88(TM) system (copyright 1988, Gaussian, Inc.),
 the Gaussian 86(TM) system (copyright 1986, Carnegie Mellon
 University), and the Gaussian 82(TM) system (copyright 1983,
 Carnegie Mellon University). Gaussian is a federally registered
 trademark of Gaussian, Inc.
  
 This software contains proprietary and confidential information,
 including trade secrets, belonging to Gaussian, Inc.
  
 This software is provided under written license and may be
 used, copied, transmitted, or stored only in accord with that
 written license.
  
 The following legend is applicable only to US Government
 contracts under FAR:
  
                    RESTRICTED RIGHTS LEGEND
  
 Use, reproduction and disclosure by the US Government is
 subject to restrictions as set forth in subparagraphs (a)
 and (c) of the Commercial Computer Software - Restricted
 Rights clause in FAR 52.227-19.
  
 Gaussian, Inc.
 340 Quinnipiac St., Bldg. 40, Wallingford CT 06492
  
  
 ---------------------------------------------------------------
 Warning -- This program may not be used in any manner that
 competes with the business of Gaussian, Inc. or will provide
 assistance to any competitor of Gaussian, Inc.  The licensee
 of this program is prohibited from giving any competitor of
 Gaussian, Inc. access to this program.  By using this program,
 the user acknowledges that Gaussian, Inc. is engaged in the
 business of creating and licensing software in the field of
 computational chemistry and represents and warrants to the
 licensee that it is not a competitor of Gaussian, Inc. and that
 it will not use this program in any manner prohibited above.
 ---------------------------------------------------------------
  

 Cite this work as:
 Gaussian 16, Revision A.03,
 M. J. Frisch, G. W. Trucks, H. B. Schlegel, G. E. Scuseria, 
 M. A. Robb, J. R. Cheeseman, G. Scalmani, V. Barone, 
 G. A. Petersson, H. Nakatsuji, X. Li, M. Caricato, A. V. Marenich, 
 J. Bloino, B. G. Janesko, R. Gomperts, B. Mennucci, H. P. Hratchian, 
 J. V. Ortiz, A. F. Izmaylov, J. L. Sonnenberg, D. Williams-Young, 
 F. Ding, F. Lipparini, F. Egidi, J. Goings, B. Peng, A. Petrone, 
 T. Henderson, D. Ranasinghe, V. G. Zakrzewski, J. Gao, N. Rega, 
 G. Zheng, W. Liang, M. Hada, M. Ehara, K. Toyota, R. Fukuda, 
 J. Hasegawa, M. Ishida, T. Nakajima, Y. Honda, O. Kitao, H. Nakai, 
 T. Vreven, K. Throssell, J. A. Montgomery, Jr., J. E. Peralta, 
 F. Ogliaro, M. J. Bearpark, J. J. Heyd, E. N. Brothers, K. N. Kudin, 
 V. N. Staroverov, T. A. Keith, R. Kobayashi, J. Normand, 
 K. Raghavachari, A. P. Rendell, J. C. Burant, S. S. Iyengar, 
 J. Tomasi, M. Cossi, J. M. Millam, M. Klene, C. Adamo, R. Cammi, 
 J. W. Ochterski, R. L. Martin, K. Morokuma, O. Farkas, 
 J. B. Foresman, and D. J. Fox, Gaussian, Inc., Wallingford CT, 2016.
 
 ******************************************
 Gaussian 16:  ES64L-G16RevA.03 25-Dec-2016
                22-Sep-2023 
 ******************************************
 %nprocshared=2
 Will use up to    2 processors via shared memory.
 %mem=2GB
 ----------------------------------------------------------------------
 #p b3lyp/gen scrf=(cpcm,solvent=toluene) pop=hirshfeld empiricaldisper
 sion=gd3bj
 ----------------------------------------------------------------------
 1/38=1,172=1/1;
 2/12=2,17=6,18=5,40=1/2;
 3/5=7,11=2,25=1,30=1,70=2101,72=13,74=-5,124=41/1,2,3;
 4//1;
 5/5=2,38=5,53=13/2;
 6/7=2,8=2,9=2,10=2,28=1,79=1/1;
 99/5=1,9=1/99;
 Leave Link    1 at Fri Sep 22 16:33:48 2023, MaxMem=   268435456 cpu:               0.1 elap:               0.0
 (Enter /share/apps/gaussian/g16/l101.exe)
 ------------------------
 tmpdir/M2_conf_0_155.gjf
 ------------------------
 Symbolic Z-matrix:
 Charge =  0 Multiplicity = 1
 C                     0.        0.        0. 
 C                     1.5298    0.        0. 
 H                    -0.3949    0.       -1.05565 
 H                    -0.40759  -1.02458   0.41333 
 H                    -0.44474   0.83482   0.57913 
 H                     2.04523   0.83179   0.19096 
 O                     2.16024  -1.04303  -0.30027 
 
 ITRead=  0  0  0  0  0  0  0
 MicOpt= -1 -1 -1 -1 -1 -1 -1
 NAtoms=      7 NQM=        7 NQMF=       0 NMMI=      0 NMMIF=      0
                NMic=       0 NMicF=      0.
                    Isotopes and Nuclear Properties:
 (Nuclear quadrupole moments (NQMom) in fm**2, nuclear magnetic moments (NMagM)
  in nuclear magnetons)

  Atom         1           2           3           4           5           6           7
 IAtWgt=          12          12           1           1           1           1          16
 AtmWgt=  12.0000000  12.0000000   1.0078250   1.0078250   1.0078250   1.0078250  15.9949146
 NucSpn=           0           0           1           1           1           1           0
 AtZEff=  -0.0000000  -0.0000000  -0.0000000  -0.0000000  -0.0000000  -0.0000000  -0.0000000
 NQMom=    0.0000000   0.0000000   0.0000000   0.0000000   0.0000000   0.0000000   0.0000000
 NMagM=    0.0000000   0.0000000   2.7928460   2.7928460   2.7928460   2.7928460   0.0000000
 AtZNuc=   6.0000000   6.0000000   1.0000000   1.0000000   1.0000000   1.0000000   8.0000000
 Leave Link  101 at Fri Sep 22 16:33:48 2023, MaxMem=   268435456 cpu:               0.2 elap:               0.1
 (Enter /share/apps/gaussian/g16/l202.exe)
                          Input orientation:                          
 ---------------------------------------------------------------------
 Center     Atomic      Atomic             Coordinates (Angstroms)
 Number     Number       Type             X           Y           Z
 ---------------------------------------------------------------------
      1          6           0        0.000000    0.000000    0.000000
      2          6           0        1.529800    0.000000    0.000000
      3          1           0       -0.394900    0.000000   -1.055650
      4          1           0       -0.407590   -1.024580    0.413330
      5          1           0       -0.444740    0.834820    0.579130
      6          1           0        2.045230    0.831790    0.190960
      7          8           0        2.160240   -1.043030   -0.300270
 ---------------------------------------------------------------------
                    Distance matrix (angstroms):
                    1          2          3          4          5
     1  C    0.000000
     2  C    1.529800   0.000000
     3  H    1.127095   2.195192   0.000000
     4  H    1.177597   2.230266   1.791041   0.000000
     5  H    1.109103   2.220613   1.836277   1.867147   0.000000
     6  H    2.216147   0.997000   2.863590   3.084134   2.520047
     7  O    2.417584   1.255200   2.861337   2.665205   3.329502
                    6          7
     6  H    0.000000
     7  O    1.941516   0.000000
 Stoichiometry    C2H4O
 Framework group  C1[X(C2H4O)]
 Deg. of freedom    15
 Full point group                 C1      NOp   1
 Largest Abelian subgroup         C1      NOp   1
 Largest concise Abelian subgroup C1      NOp   1
                         Standard orientation:                         
 ---------------------------------------------------------------------
 Center     Atomic      Atomic             Coordinates (Angstroms)
 Number     Number       Type             X           Y           Z
 ---------------------------------------------------------------------
      1          6           0        1.177736   -0.122098    0.000880
      2          6           0       -0.237298    0.459173   -0.008690
      3          1           0        1.430700   -0.528796    1.021149
      4          1           0        1.224935   -1.090895   -0.666907
      5          1           0        1.955284    0.594774   -0.333221
      6          1           0       -0.390290    1.443800    0.024652
      7          8           0       -1.232907   -0.305166    0.000149
 ---------------------------------------------------------------------
 Rotational constants (GHZ):          52.1288987          10.0111495           8.8738414
 Leave Link  202 at Fri Sep 22 16:33:48 2023, MaxMem=   268435456 cpu:               0.0 elap:               0.0
 (Enter /share/apps/gaussian/g16/l301.exe)
 General basis read from cards:  (5D, 7F)
 Centers:       3      4      5      6
 S 3 1.00
     Exponent=  1.2251800000D+01 Coefficients=  2.3337100000D-02
     Exponent=  1.8687100000D+00 Coefficients=  1.5915000000D-01
     Exponent=  4.1820800000D-01 Coefficients=  5.0000000000D-01
 S 1 1.00
     Exponent=  1.0610000000D-01 Coefficients=  1.0000000000D+00
 P 1 1.00
     Exponent=  1.0000000000D+00 Coefficients=  1.0000000000D+00
 ****
 Centers:       1      2
 S 5 1.00
     Exponent=  1.2432000000D+03 Coefficients=  6.0336600000D-03
     Exponent=  1.8714500000D+02 Coefficients=  4.4957600000D-02
     Exponent=  4.2512600000D+01 Coefficients=  1.9790100000D-01
     Exponent=  1.1739300000D+01 Coefficients=  5.0000000000D-01
     Exponent=  3.5054800000D+00 Coefficients=  4.8036400000D-01
 S 2 1.00
     Exponent=  5.3908900000D+00 Coefficients= -7.0398000000D-02
     Exponent=  4.9334100000D-01 Coefficients=  5.0000000000D-01
 S 1 1.00
     Exponent=  1.4974100000D-01 Coefficients=  1.0000000000D+00
 P 3 1.00
     Exponent=  9.1805600000D+00 Coefficients=  4.3170100000D-02
     Exponent=  1.9365800000D+00 Coefficients=  2.2499900000D-01
     Exponent=  5.2629600000D-01 Coefficients=  5.0000000000D-01
 P 1 1.00
     Exponent=  1.3631900000D-01 Coefficients=  1.0000000000D+00
 D 1 1.00
     Exponent=  8.0000000000D-01 Coefficients=  1.0000000000D+00
 ****
 Centers:       7
 S 5 1.00
     Exponent=  2.2886400000D+03 Coefficients=  5.8546800000D-03
     Exponent=  3.4441600000D+02 Coefficients=  4.3733300000D-02
     Exponent=  7.8253800000D+01 Coefficients=  1.9479600000D-01
     Exponent=  2.1719500000D+01 Coefficients=  5.0000000000D-01
     Exponent=  6.5590700000D+00 Coefficients=  4.8461400000D-01
 S 2 1.00
     Exponent=  1.0465600000D+01 Coefficients= -7.1334300000D-02
     Exponent=  9.6435100000D-01 Coefficients=  5.0000000000D-01
 S 1 1.00
     Exponent=  2.8512700000D-01 Coefficients=  1.0000000000D+00
 P 3 1.00
     Exponent=  1.7059000000D+01 Coefficients=  4.7443900000D-02
     Exponent=  3.6899900000D+00 Coefficients=  2.4268900000D-01
     Exponent=  9.9299600000D-01 Coefficients=  5.0000000000D-01
 P 1 1.00
     Exponent=  2.4492400000D-01 Coefficients=  1.0000000000D+00
 D 1 1.00
     Exponent=  1.0000000000D+00 Coefficients=  1.0000000000D+00
 ****
 Ernie: Thresh=  0.10000D-02 Tol=  0.10000D-05 Strict=F.
 There are    65 symmetry adapted cartesian basis functions of A   symmetry.
 There are    62 symmetry adapted basis functions of A   symmetry.
    62 basis functions,   106 primitive gaussians,    65 cartesian basis functions
    12 alpha electrons       12 beta electrons
       nuclear repulsion energy        68.4420457663 Hartrees.
 IExCor=  402 DFT=T Ex+Corr=B3LYP ExCW=0 ScaHFX=  0.200000
 ScaDFX=  0.800000  0.720000  1.000000  0.810000 ScalE2=  1.000000  1.000000
 IRadAn=      5 IRanWt=     -1 IRanGd=            0 ICorTp=0 IEmpDi=141
 NAtoms=    7 NActive=    7 NUniq=    7 SFac= 1.00D+00 NAtFMM=   60 NAOKFM=F Big=F
 Integral buffers will be    131072 words long.
 Raffenetti 2 integral format.
 Two-electron integral symmetry is turned on.
 R6Disp:  Grimme-D3(BJ) Dispersion energy=       -0.0053466964 Hartrees.
 Nuclear repulsion after empirical dispersion term =       68.4366990700 Hartrees.
 ------------------------------------------------------------------------------
 Polarizable Continuum Model (PCM)
 =================================
 Model                : C-PCM.
 Atomic radii         : UFF (Universal Force Field).
 Polarization charges : Total charges.
 Charge compensation  : None.
 Solution method      : On-the-fly selection.
 Cavity type          : Scaled VdW (van der Waals Surface) (Alpha=1.100).
 Cavity algorithm     : GePol (No added spheres)
                        Default sphere list used, NSphG=    7.
                        Lebedev-Laikov grids with approx.  5.0 points / Ang**2.
                        Smoothing algorithm: York/Karplus (Gamma=1.0000).
                        Polarization charges: spherical gaussians, with
                                              point-specific exponents (IZeta= 3).
                        Self-potential: point-specific (ISelfS= 7).
                        Self-field    : sphere-specific E.n sum rule (ISelfD= 2).
 Solvent              : Toluene, Eps=   2.374100 Eps(inf)=   2.238315
 ------------------------------------------------------------------------------
 Spheres list:
 ISph  on   Nord     Re0    Alpha      Xe            Ye            Ze
    1   C      1    1.9255  1.100      1.177736     -0.122098      0.000880
    2   C      2    1.9255  1.100     -0.237298      0.459173     -0.008690
    3   H      3    1.4430  1.100      1.430700     -0.528796      1.021149
    4   H      4    1.4430  1.100      1.224935     -1.090895     -0.666907
    5   H      5    1.4430  1.100      1.955284      0.594774     -0.333221
    6   H      6    1.4430  1.100     -0.390290      1.443800      0.024652
    7   O      7    1.7500  1.100     -1.232907     -0.305166      0.000149
 ------------------------------------------------------------------------------
 GePol: Number of generator spheres                  =       7
 GePol: Total number of spheres                      =       7
 GePol: Number of exposed spheres                    =       7 (100.00%)
 GePol: Number of points                             =     742
 GePol: Average weight of points                     =       0.14
 GePol: Minimum weight of points                     =   0.62D-07
 GePol: Maximum weight of points                     =    0.20577
 GePol: Number of points with low weight             =      38
 GePol: Fraction of low-weight points (<1% of avg)   =       5.12%
 GePol: Cavity surface area                          =    100.989 Ang**2
 GePol: Cavity volume                                =     83.114 Ang**3
 Leave Link  301 at Fri Sep 22 16:33:48 2023, MaxMem=   268435456 cpu:               0.2 elap:               0.1
 (Enter /share/apps/gaussian/g16/l302.exe)
 NPDir=0 NMtPBC=     1 NCelOv=     1 NCel=       1 NClECP=     1 NCelD=      1
         NCelK=      1 NCelE2=     1 NClLst=     1 CellRange=     0.0.
 One-electron integrals computed using PRISM.
 One-electron integral symmetry used in STVInt
 NBasis=    62 RedAO= T EigKep=  7.42D-03  NBF=    62
 NBsUse=    62 1.00D-06 EigRej= -1.00D+00 NBFU=    62
 Precomputing XC quadrature grid using
 IXCGrd= 4 IRadAn=           5 IRanWt=          -1 IRanGd=           0 AccXCQ= 0.00D+00.
 Generated NRdTot=       0 NPtTot=           0 NUsed=           0 NTot=          32
 NSgBfM=    65    65    65    65    65 MxSgAt=     7 MxSgA2=     7.
 Leave Link  302 at Fri Sep 22 16:33:49 2023, MaxMem=   268435456 cpu:               0.3 elap:               0.1
 (Enter /share/apps/gaussian/g16/l303.exe)
 DipDrv:  MaxL=1.
 Leave Link  303 at Fri Sep 22 16:33:49 2023, MaxMem=   268435456 cpu:               0.1 elap:               0.0
 (Enter /share/apps/gaussian/g16/l401.exe)
 ExpMin= 1.06D-01 ExpMax= 2.29D+03 ExpMxC= 3.44D+02 IAcc=3 IRadAn=         5 AccDes= 0.00D+00
 Harris functional with IExCor=  402 and IRadAn=       5 diagonalized for initial guess.
 HarFok:  IExCor=  402 AccDes= 0.00D+00 IRadAn=         5 IDoV= 1 UseB2=F ITyADJ=14
 ICtDFT=  3500011 ScaDFX=  1.000000  1.000000  1.000000  1.000000
 FoFCou: FMM=F IPFlag=           0 FMFlag=      100000 FMFlg1=           0
         NFxFlg=           0 DoJE=T BraDBF=F KetDBF=T FulRan=T
         wScrn=  0.000000 ICntrl=       500 IOpCl=  0 I1Cent=   200000004 NGrid=           0
         NMat0=    1 NMatS0=      1 NMatT0=    0 NMatD0=    1 NMtDS0=    0 NMtDT0=    0
 Petite list used in FoFCou.
 Harris En= -153.814968101036    
 JPrj=0 DoOrth=F DoCkMO=F.
 Leave Link  401 at Fri Sep 22 16:33:49 2023, MaxMem=   268435456 cpu:               1.2 elap:               0.6
 (Enter /share/apps/gaussian/g16/l502.exe)
 Keep R1 ints in memory in canonical form, NReq=3684788.
 FoFCou: FMM=F IPFlag=           0 FMFlag=           0 FMFlg1=           0
         NFxFlg=           0 DoJE=F BraDBF=F KetDBF=F FulRan=T
         wScrn=  0.000000 ICntrl=       600 IOpCl=  0 I1Cent=           0 NGrid=           0
         NMat0=    1 NMatS0=   1953 NMatT0=    0 NMatD0=    1 NMtDS0=    0 NMtDT0=    0
 Symmetry not used in FoFCou.
 Two-electron integral symmetry not used.
 Closed shell SCF:
 Using DIIS extrapolation, IDIIS=  1040.
 NGot=   268435456 LenX=   266517664 LenY=   266512998
 Requested convergence on RMS density matrix=1.00D-08 within 128 cycles.
 Requested convergence on MAX density matrix=1.00D-06.
 Requested convergence on             energy=1.00D-06.
 No special actions if energy rises.

 Cycle   1  Pass 1  IDiag  1:
 Inv3:  Mode=1 IEnd=     1651692.
 Iteration    1 A*A^-1 deviation from unit magnitude is 3.33D-15 for    729.
 Iteration    1 A*A^-1 deviation from orthogonality  is 1.75D-15 for    454    223.
 Iteration    1 A^-1*A deviation from unit magnitude is 3.33D-15 for    729.
 Iteration    1 A^-1*A deviation from orthogonality  is 9.75D-16 for    653      4.
 E= -153.705954900229    
 DIIS: error= 3.09D-02 at cycle   1 NSaved=   1.
 NSaved= 1 IEnMin= 1 EnMin= -153.705954900229     IErMin= 1 ErrMin= 3.09D-02
 ErrMax= 3.09D-02  0.00D+00 EMaxC= 1.00D-01 BMatC= 9.84D-02 BMatP= 9.84D-02
 IDIUse=3 WtCom= 6.91D-01 WtEn= 3.09D-01
 Coeff-Com:  0.100D+01
 Coeff-En:   0.100D+01
 Coeff:      0.100D+01
 Gap=     0.138 Goal=   None    Shift=    0.000
 GapD=    0.138 DampG=1.000 DampE=0.500 DampFc=0.5000 IDamp=-1.
 Damping current iteration by 5.00D-01
 RMSDP=1.10D-02 MaxDP=1.83D-01              OVMax= 2.56D-01

 Cycle   2  Pass 1  IDiag  1:
 E= -153.729205052426     Delta-E=       -0.023250152198 Rises=F Damp=T
 DIIS: error= 1.21D-02 at cycle   2 NSaved=   2.
 NSaved= 2 IEnMin= 2 EnMin= -153.729205052426     IErMin= 2 ErrMin= 1.21D-02
 ErrMax= 1.21D-02  0.00D+00 EMaxC= 1.00D-01 BMatC= 1.67D-02 BMatP= 9.84D-02
 IDIUse=3 WtCom= 8.79D-01 WtEn= 1.21D-01
 Coeff-Com:  0.250D+00 0.750D+00
 Coeff-En:   0.363D+00 0.637D+00
 Coeff:      0.264D+00 0.736D+00
 Gap=     0.215 Goal=   None    Shift=    0.000
 RMSDP=3.01D-03 MaxDP=4.56D-02 DE=-2.33D-02 OVMax= 1.78D-01

 Cycle   3  Pass 1  IDiag  1:
 E= -153.785976446974     Delta-E=       -0.056771394547 Rises=F Damp=F
 DIIS: error= 1.15D-02 at cycle   3 NSaved=   3.
 NSaved= 3 IEnMin= 3 EnMin= -153.785976446974     IErMin= 3 ErrMin= 1.15D-02
 ErrMax= 1.15D-02  0.00D+00 EMaxC= 1.00D-01 BMatC= 1.17D-02 BMatP= 1.67D-02
 IDIUse=3 WtCom= 8.85D-01 WtEn= 1.15D-01
 Coeff-Com:  0.102D+00 0.463D+00 0.434D+00
 Coeff-En:   0.000D+00 0.000D+00 0.100D+01
 Coeff:      0.907D-01 0.410D+00 0.499D+00
 Gap=     0.213 Goal=   None    Shift=    0.000
 RMSDP=1.73D-03 MaxDP=2.94D-02 DE=-5.68D-02 OVMax= 5.15D-02

 Cycle   4  Pass 1  IDiag  1:
 E= -153.795707204318     Delta-E=       -0.009730757344 Rises=F Damp=F
 DIIS: error= 4.36D-03 at cycle   4 NSaved=   4.
 NSaved= 4 IEnMin= 4 EnMin= -153.795707204318     IErMin= 4 ErrMin= 4.36D-03
 ErrMax= 4.36D-03  0.00D+00 EMaxC= 1.00D-01 BMatC= 1.50D-03 BMatP= 1.17D-02
 IDIUse=3 WtCom= 9.56D-01 WtEn= 4.36D-02
 Coeff-Com:  0.209D-01 0.529D-01 0.267D+00 0.659D+00
 Coeff-En:   0.000D+00 0.000D+00 0.111D+00 0.889D+00
 Coeff:      0.200D-01 0.506D-01 0.260D+00 0.669D+00
 Gap=     0.215 Goal=   None    Shift=    0.000
 RMSDP=4.81D-04 MaxDP=7.74D-03 DE=-9.73D-03 OVMax= 1.19D-02

 Cycle   5  Pass 1  IDiag  1:
 E= -153.796947545905     Delta-E=       -0.001240341587 Rises=F Damp=F
 DIIS: error= 4.04D-04 at cycle   5 NSaved=   5.
 NSaved= 5 IEnMin= 5 EnMin= -153.796947545905     IErMin= 5 ErrMin= 4.04D-04
 ErrMax= 4.04D-04  0.00D+00 EMaxC= 1.00D-01 BMatC= 1.69D-05 BMatP= 1.50D-03
 IDIUse=3 WtCom= 9.96D-01 WtEn= 4.04D-03
 Coeff-Com:  0.425D-02-0.898D-03 0.786D-01 0.250D+00 0.668D+00
 Coeff-En:   0.000D+00 0.000D+00 0.000D+00 0.000D+00 0.100D+01
 Coeff:      0.424D-02-0.894D-03 0.783D-01 0.249D+00 0.669D+00
 Gap=     0.216 Goal=   None    Shift=    0.000
 RMSDP=7.15D-05 MaxDP=1.11D-03 DE=-1.24D-03 OVMax= 1.11D-03

 Cycle   6  Pass 1  IDiag  1:
 E= -153.796962889250     Delta-E=       -0.000015343345 Rises=F Damp=F
 DIIS: error= 1.11D-04 at cycle   6 NSaved=   6.
 NSaved= 6 IEnMin= 6 EnMin= -153.796962889250     IErMin= 6 ErrMin= 1.11D-04
 ErrMax= 1.11D-04  0.00D+00 EMaxC= 1.00D-01 BMatC= 1.53D-06 BMatP= 1.69D-05
 IDIUse=3 WtCom= 9.99D-01 WtEn= 1.11D-03
 Coeff-Com:  0.742D-03-0.457D-02 0.152D-01 0.544D-01 0.274D+00 0.660D+00
 Coeff-En:   0.000D+00 0.000D+00 0.000D+00 0.000D+00 0.000D+00 0.100D+01
 Coeff:      0.741D-03-0.457D-02 0.152D-01 0.544D-01 0.274D+00 0.660D+00
 Gap=     0.216 Goal=   None    Shift=    0.000
 RMSDP=2.07D-05 MaxDP=2.03D-04 DE=-1.53D-05 OVMax= 3.20D-04

 Cycle   7  Pass 1  IDiag  1:
 E= -153.796964286941     Delta-E=       -0.000001397691 Rises=F Damp=F
 DIIS: error= 1.41D-05 at cycle   7 NSaved=   7.
 NSaved= 7 IEnMin= 7 EnMin= -153.796964286941     IErMin= 7 ErrMin= 1.41D-05
 ErrMax= 1.41D-05  0.00D+00 EMaxC= 1.00D-01 BMatC= 2.37D-08 BMatP= 1.53D-06
 IDIUse=1 WtCom= 1.00D+00 WtEn= 0.00D+00
 Coeff-Com:  0.193D-03-0.899D-03 0.154D-02 0.372D-02 0.261D-01 0.811D-01
 Coeff-Com:  0.888D+00
 Coeff:      0.193D-03-0.899D-03 0.154D-02 0.372D-02 0.261D-01 0.811D-01
 Coeff:      0.888D+00
 Gap=     0.216 Goal=   None    Shift=    0.000
 RMSDP=2.20D-06 MaxDP=2.32D-05 DE=-1.40D-06 OVMax= 3.29D-05

 Cycle   8  Pass 1  IDiag  1:
 E= -153.796964305586     Delta-E=       -0.000000018645 Rises=F Damp=F
 DIIS: error= 2.37D-06 at cycle   8 NSaved=   8.
 NSaved= 8 IEnMin= 8 EnMin= -153.796964305586     IErMin= 8 ErrMin= 2.37D-06
 ErrMax= 2.37D-06  0.00D+00 EMaxC= 1.00D-01 BMatC= 5.50D-10 BMatP= 2.37D-08
 IDIUse=1 WtCom= 1.00D+00 WtEn= 0.00D+00
 Coeff-Com:  0.248D-04-0.152D-04-0.159D-03-0.113D-02-0.553D-02-0.122D-01
 Coeff-Com:  0.112D+00 0.907D+00
 Coeff:      0.248D-04-0.152D-04-0.159D-03-0.113D-02-0.553D-02-0.122D-01
 Coeff:      0.112D+00 0.907D+00
 Gap=     0.216 Goal=   None    Shift=    0.000
 RMSDP=5.57D-07 MaxDP=7.82D-06 DE=-1.86D-08 OVMax= 7.89D-06

 Cycle   9  Pass 1  IDiag  1:
 E= -153.796964306049     Delta-E=       -0.000000000463 Rises=F Damp=F
 DIIS: error= 1.68D-07 at cycle   9 NSaved=   9.
 NSaved= 9 IEnMin= 9 EnMin= -153.796964306049     IErMin= 9 ErrMin= 1.68D-07
 ErrMax= 1.68D-07  0.00D+00 EMaxC= 1.00D-01 BMatC= 4.37D-12 BMatP= 5.50D-10
 IDIUse=1 WtCom= 1.00D+00 WtEn= 0.00D+00
 Coeff-Com:  0.108D-05 0.972D-05-0.374D-04-0.192D-03-0.120D-02-0.264D-02
 Coeff-Com: -0.304D-02 0.119D+00 0.889D+00
 Coeff:      0.108D-05 0.972D-05-0.374D-04-0.192D-03-0.120D-02-0.264D-02
 Coeff:     -0.304D-02 0.119D+00 0.889D+00
 Gap=     0.216 Goal=   None    Shift=    0.000
 RMSDP=4.27D-08 MaxDP=5.41D-07 DE=-4.63D-10 OVMax= 6.67D-07

 Cycle  10  Pass 1  IDiag  1:
 E= -153.796964306053     Delta-E=       -0.000000000005 Rises=F Damp=F
 DIIS: error= 5.14D-08 at cycle  10 NSaved=  10.
 NSaved=10 IEnMin=10 EnMin= -153.796964306053     IErMin=10 ErrMin= 5.14D-08
 ErrMax= 5.14D-08  0.00D+00 EMaxC= 1.00D-01 BMatC= 2.68D-13 BMatP= 4.37D-12
 IDIUse=1 WtCom= 1.00D+00 WtEn= 0.00D+00
 Coeff-Com: -0.796D-07 0.947D-06 0.244D-06-0.248D-05-0.669D-04-0.749D-04
 Coeff-Com: -0.328D-02-0.381D-02 0.138D+00 0.869D+00
 Coeff:     -0.796D-07 0.947D-06 0.244D-06-0.248D-05-0.669D-04-0.749D-04
 Coeff:     -0.328D-02-0.381D-02 0.138D+00 0.869D+00
 Gap=     0.216 Goal=   None    Shift=    0.000
 RMSDP=8.32D-09 MaxDP=8.45D-08 DE=-4.72D-12 OVMax= 1.42D-07

 Error on total polarization charges =  0.00392
 SCF Done:  E(RB3LYP) =  -153.796964306     A.U. after   10 cycles
            NFock= 10  Conv=0.83D-08     -V/T= 2.0057
 KE= 1.529211311000D+02 PE=-4.965348845457D+02 EE= 1.213800900696D+02
 Leave Link  502 at Fri Sep 22 16:33:56 2023, MaxMem=   268435456 cpu:              12.8 elap:               6.4
 (Enter /share/apps/gaussian/g16/l601.exe)
 Copying SCF densities to generalized density rwf, IOpCl= 0 IROHF=0.

 **********************************************************************

            Population analysis using the SCF density.

 **********************************************************************

 Orbital symmetries:
       Occupied  (A) (A) (A) (A) (A) (A) (A) (A) (A) (A) (A) (A)
       Virtual   (A) (A) (A) (A) (A) (A) (A) (A) (A) (A) (A) (A)
                 (A) (A) (A) (A) (A) (A) (A) (A) (A) (A) (A) (A)
                 (A) (A) (A) (A) (A) (A) (A) (A) (A) (A) (A) (A)
                 (A) (A) (A) (A) (A) (A) (A) (A) (A) (A) (A) (A)
                 (A) (A)
 The electronic state is 1-A.
 Alpha  occ. eigenvalues --  -19.12696 -10.27316 -10.19915  -1.03677  -0.74594
 Alpha  occ. eigenvalues --   -0.61145  -0.48289  -0.43941  -0.43231  -0.39804
 Alpha  occ. eigenvalues --   -0.35656  -0.26852
 Alpha virt. eigenvalues --   -0.05264   0.05214   0.08043   0.10848   0.11593
 Alpha virt. eigenvalues --    0.19919   0.21601   0.40078   0.41763   0.44864
 Alpha virt. eigenvalues --    0.45810   0.54783   0.57767   0.59103   0.60731
 Alpha virt. eigenvalues --    0.62389   0.68700   0.75116   0.80591   0.90058
 Alpha virt. eigenvalues --    1.00428   1.06687   1.24727   1.44393   1.47976
 Alpha virt. eigenvalues --    1.63994   1.67112   1.71667   1.80779   1.84805
 Alpha virt. eigenvalues --    1.89322   1.90410   1.93148   2.11069   2.11974
 Alpha virt. eigenvalues --    2.15050   2.17303   2.29052   2.41755   2.44777
 Alpha virt. eigenvalues --    2.48773   2.65333   2.70127   2.77545   2.85046
 Alpha virt. eigenvalues --    3.05331   3.12278   3.14652   3.16960   3.50384
          Condensed to atoms (all electrons):
               1          2          3          4          5          6
     1  C    5.003382   0.346445   0.376602   0.367839   0.362844  -0.088567
     2  C    0.346445   4.461462  -0.017586  -0.021292  -0.018653   0.418223
     3  H    0.376602  -0.017586   0.527638  -0.013562  -0.016068   0.003744
     4  H    0.367839  -0.021292  -0.013562   0.541505  -0.017301   0.007278
     5  H    0.362844  -0.018653  -0.016068  -0.017301   0.569959   0.000745
     6  H   -0.088567   0.418223   0.003744   0.007278   0.000745   0.661428
     7  O   -0.091475   0.586111  -0.001364   0.003111   0.004691  -0.047658
               7
     1  C   -0.091475
     2  C    0.586111
     3  H   -0.001364
     4  H    0.003111
     5  H    0.004691
     6  H   -0.047658
     7  O    7.946410
 Mulliken charges:
               1
     1  C   -0.277070
     2  C    0.245290
     3  H    0.140595
     4  H    0.132422
     5  H    0.113783
     6  H    0.044805
     7  O   -0.399825
 Sum of Mulliken charges =  -0.00000
 Mulliken charges with hydrogens summed into heavy atoms:
               1
     1  C    0.109731
     2  C    0.290095
     7  O   -0.399825
 Electronic spatial extent (au):  <R**2>=            170.9120
 Charge=              0.0000 electrons
 Dipole moment (field-independent basis, Debye):
    X=              2.8258    Y=              1.5356    Z=              0.1056  Tot=              3.2178
 Quadrupole moment (field-independent basis, Debye-Ang):
   XX=            -21.5401   YY=            -17.5567   ZZ=            -18.1075
   XY=             -1.5038   XZ=              0.1143   YZ=             -0.1145
 Traceless Quadrupole moment (field-independent basis, Debye-Ang):
   XX=             -2.4720   YY=              1.5114   ZZ=              0.9606
   XY=             -1.5038   XZ=              0.1143   YZ=             -0.1145
 Octapole moment (field-independent basis, Debye-Ang**2):
  XXX=              2.0162  YYY=              1.2164  ZZZ=              0.8550  XYY=             -0.6714
  XXY=              1.1456  XXZ=              0.0725  XZZ=             -1.0408  YZZ=             -0.6237
  YYZ=             -0.3522  XYZ=             -0.3396
 Hexadecapole moment (field-independent basis, Debye-Ang**3):
 XXXX=           -156.7107 YYYY=            -42.3195 ZZZZ=            -24.4188 XXXY=              1.6539
 XXXZ=             -0.1752 YYYX=             -0.6501 YYYZ=              0.5325 ZZZX=              1.2480
 ZZZY=             -0.5619 XXYY=            -31.4645 XXZZ=            -28.4377 YYZZ=            -10.9825
 XXYZ=             -0.9302 YYXZ=             -0.5822 ZZXY=             -0.4905
 N-N= 6.843669906996D+01 E-N=-4.965348845850D+02  KE= 1.529211311000D+02
 There are a total of      155354 grid points.
 ElSum from          density=       24.0000003607
 ElSum from atomic densities=       24.0000007914
 Hirshfeld populations at iteration   1 (CA, CB, DipXYZ):
               1          2          3          4          5
     1  C    3.034922   3.034922  -0.017185   0.036032   0.008671
     2  C    2.923982   2.923982   0.070383   0.072132  -0.007481
     3  H    0.473546   0.473546   0.035955  -0.060754   0.133351
     4  H    0.476132   0.476132   0.015393  -0.121462  -0.073764
     5  H    0.479787   0.479787   0.098471   0.096323  -0.043142
     6  H    0.473964   0.473964  -0.014883   0.146544   0.005445
     7  O    4.137668   4.137668   0.141223   0.092300   0.002259
       Tot  12.000000  12.000000   0.329358   0.261114   0.025339

 Dip from Atomic Chgs              0.782382   0.343055   0.016216
         Total Dipole              1.111740   0.604169   0.041556

 Hirshfeld charges, spin densities, dipoles, and CM5 charges using IRadAn=      5:
              Q-H        S-H        Dx         Dy         Dz        Q-CM5   
     1  C   -0.069843   0.000000  -0.017185   0.036032   0.008671  -0.198574
     2  C    0.152036   0.000000   0.070383   0.072132  -0.007481   0.115701
     3  H    0.052908   0.000000   0.035955  -0.060754   0.133351   0.101112
     4  H    0.047736   0.000000   0.015393  -0.121462  -0.073764   0.091508
     5  H    0.040426   0.000000   0.098471   0.096323  -0.043142   0.089386
     6  H    0.052073   0.000000  -0.014883   0.146544   0.005445   0.129892
     7  O   -0.275336   0.000000   0.141223   0.092300   0.002259  -0.329025
       Tot  -0.000000   0.000000   0.329358   0.261114   0.025339  -0.000000
 Hirshfeld charges with hydrogens summed into heavy atoms:
              Q-H       Q-CM5   
     1  C    0.071227   0.083432
     2  C    0.204109   0.245593
     7  O   -0.275336  -0.329025
 
 EQQ= 0.000000000000E+00 EQD= 0.000000000000E+00 EDD= 0.217492406863E-02
 EQQ+QD+DD= 0.217492406863E-02
 
 No NMR shielding tensors so no spin-rotation constants.
 Leave Link  601 at Fri Sep 22 16:33:56 2023, MaxMem=   268435456 cpu:               0.9 elap:               0.5
 (Enter /share/apps/gaussian/g16/l9999.exe)
 1\1\GINC-NODE99\SP\RB3LYP\Gen\C2H4O1\YANZ\22-Sep-2023\0\\#p b3lyp/gen 
 scrf=(cpcm,solvent=toluene) pop=hirshfeld empiricaldispersion=gd3bj\\t
 mpdir/M2_conf_0_155.gjf\\0,1\C,0,0.,0.,0.\C,0,1.5298,0.,0.\H,0,-0.3949
 ,0.,-1.05565\H,0,-0.40759,-1.02458,0.41333\H,0,-0.44474,0.83482,0.5791
 3\H,0,2.04523,0.83179,0.19096\O,0,2.16024,-1.04303,-0.30027\\Version=E
 S64L-G16RevA.03\State=1-A\HF=-153.7969643\RMSD=8.323e-09\Dipole=-0.799
 0334,0.955819,0.2250963\Quadrupole=-0.622925,-0.0512322,0.6741573,1.73
 88663,0.6022296,-0.1752462\PG=C01 [X(C2H4O1)]\\@


 TERENCE, THIS IS STUPID STUFF:
 YOU EAT YOUR VICTUALS FAST ENOUGH;
 THERE CAN'T BE MUCH AMISS, 'TIS CLEAR
 TO SEE THE RATE YOU DRINK YOUR BEER.
 BUT OH, GOOD LORD, THE VERSE YOU MAKE,
 IT GIVES A CHAP THE BELLY-ACHE.
 THE COW, THE OLD COW, SHE IS DEAD;
 IT SLEEPS WELL, THE HORNED HEAD:
 WE POOR LADS, 'TIS OUR TURN NOW
 TO HEAR SUCH TUNES AS KILLED THE COW.
 PRETTY FRIENDSHIP 'TIS TO RHYME
 YOUR FRIENDS TO DEATH BEFORE THEIR TIME.
 MOPING, MELANCHOLY MAD:
 COME PIPE A TUNE TO DANCE TO, LAD.

     -- A. E. HOUSMAN
 Job cpu time:       0 days  0 hours  0 minutes 15.9 seconds.
 Elapsed time:       0 days  0 hours  0 minutes  8.1 seconds.
 File lengths (MBytes):  RWF=     11 Int=      0 D2E=      0 Chk=      2 Scr=      1
 Normal termination of Gaussian 16 at Fri Sep 22 16:33:56 2023.
