 Entering Gaussian System, Link 0=g16
 Initial command:
 /share/apps/gaussian/g16/l1.exe "/tmp/55556.mgr/Gau-86593.inp" -scrdir="/tmp/55556.mgr/"
 Entering Link 1 = /share/apps/gaussian/g16/l1.exe PID=     86594.
  
 Copyright (c) 1988,1990,1992,1993,1995,1998,2003,2009,2016,
            Gaussian, Inc.  All Rights Reserved.
  
 This is part of the Gaussian(R) 16 program.  It is based on
 the Gaussian(R) 09 system (copyright 2009, Gaussian, Inc.),
 the Gaussian(R) 03 system (copyright 2003, Gaussian, Inc.),
 the Gaussian(R) 98 system (copyright 1998, Gaussian, Inc.),
 the Gaussian(R) 94 system (copyright 1995, Gaussian, Inc.),
 the Gaussian 92(TM) system (copyright 1992, Gaussian, Inc.),
 the Gaussian 90(TM) system (copyright 1990, Gaussian, Inc.),
 the Gaussian 88(TM) system (copyright 1988, Gaussian, Inc.),
 the Gaussian 86(TM) system (copyright 1986, Carnegie Mellon
 University), and the Gaussian 82(TM) system (copyright 1983,
 Carnegie Mellon University). Gaussian is a federally registered
 trademark of Gaussian, Inc.
  
 This software contains proprietary and confidential information,
 including trade secrets, belonging to Gaussian, Inc.
  
 This software is provided under written license and may be
 used, copied, transmitted, or stored only in accord with that
 written license.
  
 The following legend is applicable only to US Government
 contracts under FAR:
  
                    RESTRICTED RIGHTS LEGEND
  
 Use, reproduction and disclosure by the US Government is
 subject to restrictions as set forth in subparagraphs (a)
 and (c) of the Commercial Computer Software - Restricted
 Rights clause in FAR 52.227-19.
  
 Gaussian, Inc.
 340 Quinnipiac St., Bldg. 40, Wallingford CT 06492
  
  
 ---------------------------------------------------------------
 Warning -- This program may not be used in any manner that
 competes with the business of Gaussian, Inc. or will provide
 assistance to any competitor of Gaussian, Inc.  The licensee
 of this program is prohibited from giving any competitor of
 Gaussian, Inc. access to this program.  By using this program,
 the user acknowledges that Gaussian, Inc. is engaged in the
 business of creating and licensing software in the field of
 computational chemistry and represents and warrants to the
 licensee that it is not a competitor of Gaussian, Inc. and that
 it will not use this program in any manner prohibited above.
 ---------------------------------------------------------------
  

 Cite this work as:
 Gaussian 16, Revision A.03,
 M. J. Frisch, G. W. Trucks, H. B. Schlegel, G. E. Scuseria, 
 M. A. Robb, J. R. Cheeseman, G. Scalmani, V. Barone, 
 G. A. Petersson, H. Nakatsuji, X. Li, M. Caricato, A. V. Marenich, 
 J. Bloino, B. G. Janesko, R. Gomperts, B. Mennucci, H. P. Hratchian, 
 J. V. Ortiz, A. F. Izmaylov, J. L. Sonnenberg, D. Williams-Young, 
 F. Ding, F. Lipparini, F. Egidi, J. Goings, B. Peng, A. Petrone, 
 T. Henderson, D. Ranasinghe, V. G. Zakrzewski, J. Gao, N. Rega, 
 G. Zheng, W. Liang, M. Hada, M. Ehara, K. Toyota, R. Fukuda, 
 J. Hasegawa, M. Ishida, T. Nakajima, Y. Honda, O. Kitao, H. Nakai, 
 T. Vreven, K. Throssell, J. A. Montgomery, Jr., J. E. Peralta, 
 F. Ogliaro, M. J. Bearpark, J. J. Heyd, E. N. Brothers, K. N. Kudin, 
 V. N. Staroverov, T. A. Keith, R. Kobayashi, J. Normand, 
 K. Raghavachari, A. P. Rendell, J. C. Burant, S. S. Iyengar, 
 J. Tomasi, M. Cossi, J. M. Millam, M. Klene, C. Adamo, R. Cammi, 
 J. W. Ochterski, R. L. Martin, K. Morokuma, O. Farkas, 
 J. B. Foresman, and D. J. Fox, Gaussian, Inc., Wallingford CT, 2016.
 
 ******************************************
 Gaussian 16:  ES64L-G16RevA.03 25-Dec-2016
                22-Sep-2023 
 ******************************************
 %nprocshared=2
 Will use up to    2 processors via shared memory.
 %mem=2GB
 ----------------------------------------------------------------------
 #p b3lyp/gen scrf=(cpcm,solvent=toluene) pop=hirshfeld empiricaldisper
 sion=gd3bj
 ----------------------------------------------------------------------
 1/38=1,172=1/1;
 2/12=2,17=6,18=5,40=1/2;
 3/5=7,11=2,25=1,30=1,70=2101,72=13,74=-5,124=41/1,2,3;
 4//1;
 5/5=2,38=5,53=13/2;
 6/7=2,8=2,9=2,10=2,28=1,79=1/1;
 99/5=1,9=1/99;
 Leave Link    1 at Fri Sep 22 16:35:17 2023, MaxMem=   268435456 cpu:               0.1 elap:               0.0
 (Enter /share/apps/gaussian/g16/l101.exe)
 ------------------------
 tmpdir/M2_conf_0_283.gjf
 ------------------------
 Symbolic Z-matrix:
 Charge =  0 Multiplicity = 1
 C                     0.        0.        0. 
 C                     1.5122    0.        0. 
 H                     1.88681   0.        1.03148 
 H                    -0.34612   0.04289  -1.13199 
 H                    -0.4138    0.87595   0.5168 
 H                    -0.4192   -0.8936    0.47294 
 H                     1.89879  -0.88618  -0.51556 
 H                     1.90147   0.88784  -0.5128 
 
 ITRead=  0  0  0  0  0  0  0  0
 MicOpt= -1 -1 -1 -1 -1 -1 -1 -1
 NAtoms=      8 NQM=        8 NQMF=       0 NMMI=      0 NMMIF=      0
                NMic=       0 NMicF=      0.
                    Isotopes and Nuclear Properties:
 (Nuclear quadrupole moments (NQMom) in fm**2, nuclear magnetic moments (NMagM)
  in nuclear magnetons)

  Atom         1           2           3           4           5           6           7           8
 IAtWgt=          12          12           1           1           1           1           1           1
 AtmWgt=  12.0000000  12.0000000   1.0078250   1.0078250   1.0078250   1.0078250   1.0078250   1.0078250
 NucSpn=           0           0           1           1           1           1           1           1
 AtZEff=  -0.0000000  -0.0000000  -0.0000000  -0.0000000  -0.0000000  -0.0000000  -0.0000000  -0.0000000
 NQMom=    0.0000000   0.0000000   0.0000000   0.0000000   0.0000000   0.0000000   0.0000000   0.0000000
 NMagM=    0.0000000   0.0000000   2.7928460   2.7928460   2.7928460   2.7928460   2.7928460   2.7928460
 AtZNuc=   6.0000000   6.0000000   1.0000000   1.0000000   1.0000000   1.0000000   1.0000000   1.0000000
 Leave Link  101 at Fri Sep 22 16:35:17 2023, MaxMem=   268435456 cpu:               0.2 elap:               0.1
 (Enter /share/apps/gaussian/g16/l202.exe)
                          Input orientation:                          
 ---------------------------------------------------------------------
 Center     Atomic      Atomic             Coordinates (Angstroms)
 Number     Number       Type             X           Y           Z
 ---------------------------------------------------------------------
      1          6           0        0.000000    0.000000    0.000000
      2          6           0        1.512200    0.000000    0.000000
      3          1           0        1.886810    0.000000    1.031480
      4          1           0       -0.346120    0.042890   -1.131990
      5          1           0       -0.413800    0.875950    0.516800
      6          1           0       -0.419200   -0.893600    0.472940
      7          1           0        1.898790   -0.886180   -0.515560
      8          1           0        1.901470    0.887840   -0.512800
 ---------------------------------------------------------------------
                    Distance matrix (angstroms):
                    1          2          3          4          5
     1  C    0.000000
     2  C    1.512200   0.000000
     3  H    2.150349   1.097399   0.000000
     4  H    1.184500   2.176372   3.109408   0.000000
     5  H    1.097999   2.178037   2.514953   1.848534   0.000000
     6  H    1.094496   2.180023   2.535384   1.859611   1.770102
     7  H    2.157897   1.095705   1.782917   2.506547   3.085278
     8  H    2.160281   1.096702   1.781369   2.479717   2.533909
                    6          7          8
     6  H    0.000000
     7  H    2.519973   0.000000
     8  H    3.087187   1.774024   0.000000
 Stoichiometry    C2H6
 Framework group  C1[X(C2H6)]
 Deg. of freedom    18
 Full point group                 C1      NOp   1
 Largest Abelian subgroup         C1      NOp   1
 Largest concise Abelian subgroup C1      NOp   1
                         Standard orientation:                         
 ---------------------------------------------------------------------
 Center     Atomic      Atomic             Coordinates (Angstroms)
 Number     Number       Type             X           Y           Z
 ---------------------------------------------------------------------
      1          6           0        0.754436   -0.012997    0.001684
      2          6           0       -0.757728   -0.002618    0.000150
      3          1           0       -1.139312   -1.028680   -0.076499
      4          1           0        1.108275    1.116664    0.042964
      5          1           0        1.166058   -0.466449   -0.909660
      6          1           0        1.169066   -0.553575    0.858293
      7          1           0       -1.142165    0.448654    0.921633
      8          1           0       -1.142168    0.577078   -0.847737
 ---------------------------------------------------------------------
 Rotational constants (GHZ):          77.0867021          20.3717480          20.1870605
 Leave Link  202 at Fri Sep 22 16:35:17 2023, MaxMem=   268435456 cpu:               0.1 elap:               0.0
 (Enter /share/apps/gaussian/g16/l301.exe)
 General basis read from cards:  (5D, 7F)
 Centers:       3      4      5      6      7      8
 S 3 1.00
     Exponent=  1.2251800000D+01 Coefficients=  2.3337100000D-02
     Exponent=  1.8687100000D+00 Coefficients=  1.5915000000D-01
     Exponent=  4.1820800000D-01 Coefficients=  5.0000000000D-01
 S 1 1.00
     Exponent=  1.0610000000D-01 Coefficients=  1.0000000000D+00
 P 1 1.00
     Exponent=  1.0000000000D+00 Coefficients=  1.0000000000D+00
 ****
 Centers:       1      2
 S 5 1.00
     Exponent=  1.2432000000D+03 Coefficients=  6.0336600000D-03
     Exponent=  1.8714500000D+02 Coefficients=  4.4957600000D-02
     Exponent=  4.2512600000D+01 Coefficients=  1.9790100000D-01
     Exponent=  1.1739300000D+01 Coefficients=  5.0000000000D-01
     Exponent=  3.5054800000D+00 Coefficients=  4.8036400000D-01
 S 2 1.00
     Exponent=  5.3908900000D+00 Coefficients= -7.0398000000D-02
     Exponent=  4.9334100000D-01 Coefficients=  5.0000000000D-01
 S 1 1.00
     Exponent=  1.4974100000D-01 Coefficients=  1.0000000000D+00
 P 3 1.00
     Exponent=  9.1805600000D+00 Coefficients=  4.3170100000D-02
     Exponent=  1.9365800000D+00 Coefficients=  2.2499900000D-01
     Exponent=  5.2629600000D-01 Coefficients=  5.0000000000D-01
 P 1 1.00
     Exponent=  1.3631900000D-01 Coefficients=  1.0000000000D+00
 D 1 1.00
     Exponent=  8.0000000000D-01 Coefficients=  1.0000000000D+00
 ****
 Ernie: Thresh=  0.10000D-02 Tol=  0.10000D-05 Strict=F.
 There are    60 symmetry adapted cartesian basis functions of A   symmetry.
 There are    58 symmetry adapted basis functions of A   symmetry.
    58 basis functions,    94 primitive gaussians,    60 cartesian basis functions
     9 alpha electrons        9 beta electrons
       nuclear repulsion energy        42.0852847145 Hartrees.
 IExCor=  402 DFT=T Ex+Corr=B3LYP ExCW=0 ScaHFX=  0.200000
 ScaDFX=  0.800000  0.720000  1.000000  0.810000 ScalE2=  1.000000  1.000000
 IRadAn=      5 IRanWt=     -1 IRanGd=            0 ICorTp=0 IEmpDi=141
 NAtoms=    8 NActive=    8 NUniq=    8 SFac= 1.00D+00 NAtFMM=   60 NAOKFM=F Big=F
 Integral buffers will be    131072 words long.
 Raffenetti 2 integral format.
 Two-electron integral symmetry is turned on.
 R6Disp:  Grimme-D3(BJ) Dispersion energy=       -0.0054231335 Hartrees.
 Nuclear repulsion after empirical dispersion term =       42.0798615811 Hartrees.
 ------------------------------------------------------------------------------
 Polarizable Continuum Model (PCM)
 =================================
 Model                : C-PCM.
 Atomic radii         : UFF (Universal Force Field).
 Polarization charges : Total charges.
 Charge compensation  : None.
 Solution method      : On-the-fly selection.
 Cavity type          : Scaled VdW (van der Waals Surface) (Alpha=1.100).
 Cavity algorithm     : GePol (No added spheres)
                        Default sphere list used, NSphG=    8.
                        Lebedev-Laikov grids with approx.  5.0 points / Ang**2.
                        Smoothing algorithm: York/Karplus (Gamma=1.0000).
                        Polarization charges: spherical gaussians, with
                                              point-specific exponents (IZeta= 3).
                        Self-potential: point-specific (ISelfS= 7).
                        Self-field    : sphere-specific E.n sum rule (ISelfD= 2).
 Solvent              : Toluene, Eps=   2.374100 Eps(inf)=   2.238315
 ------------------------------------------------------------------------------
 Spheres list:
 ISph  on   Nord     Re0    Alpha      Xe            Ye            Ze
    1   C      1    1.9255  1.100      0.754436     -0.012997      0.001684
    2   C      2    1.9255  1.100     -0.757728     -0.002618      0.000150
    3   H      3    1.4430  1.100     -1.139312     -1.028680     -0.076499
    4   H      4    1.4430  1.100      1.108275      1.116664      0.042964
    5   H      5    1.4430  1.100      1.166058     -0.466449     -0.909660
    6   H      6    1.4430  1.100      1.169066     -0.553575      0.858293
    7   H      7    1.4430  1.100     -1.142165      0.448654      0.921633
    8   H      8    1.4430  1.100     -1.142168      0.577078     -0.847737
 ------------------------------------------------------------------------------
 GePol: Number of generator spheres                  =       8
 GePol: Total number of spheres                      =       8
 GePol: Number of exposed spheres                    =       8 (100.00%)
 GePol: Number of points                             =     718
 GePol: Average weight of points                     =       0.13
 GePol: Minimum weight of points                     =   0.42D-11
 GePol: Maximum weight of points                     =    0.20577
 GePol: Number of points with low weight             =      38
 GePol: Fraction of low-weight points (<1% of avg)   =       5.29%
 GePol: Cavity surface area                          =     96.686 Ang**2
 GePol: Cavity volume                                =     78.238 Ang**3
 Leave Link  301 at Fri Sep 22 16:35:17 2023, MaxMem=   268435456 cpu:               0.2 elap:               0.1
 (Enter /share/apps/gaussian/g16/l302.exe)
 NPDir=0 NMtPBC=     1 NCelOv=     1 NCel=       1 NClECP=     1 NCelD=      1
         NCelK=      1 NCelE2=     1 NClLst=     1 CellRange=     0.0.
 One-electron integrals computed using PRISM.
 One-electron integral symmetry used in STVInt
 NBasis=    58 RedAO= T EigKep=  8.57D-03  NBF=    58
 NBsUse=    58 1.00D-06 EigRej= -1.00D+00 NBFU=    58
 Precomputing XC quadrature grid using
 IXCGrd= 4 IRadAn=           5 IRanWt=          -1 IRanGd=           0 AccXCQ= 0.00D+00.
 Generated NRdTot=       0 NPtTot=           0 NUsed=           0 NTot=          32
 NSgBfM=    60    60    60    60    60 MxSgAt=     8 MxSgA2=     8.
 Leave Link  302 at Fri Sep 22 16:35:18 2023, MaxMem=   268435456 cpu:               0.3 elap:               0.2
 (Enter /share/apps/gaussian/g16/l303.exe)
 DipDrv:  MaxL=1.
 Leave Link  303 at Fri Sep 22 16:35:18 2023, MaxMem=   268435456 cpu:               0.1 elap:               0.1
 (Enter /share/apps/gaussian/g16/l401.exe)
 ExpMin= 1.06D-01 ExpMax= 1.24D+03 ExpMxC= 1.87D+02 IAcc=3 IRadAn=         5 AccDes= 0.00D+00
 Harris functional with IExCor=  402 and IRadAn=       5 diagonalized for initial guess.
 HarFok:  IExCor=  402 AccDes= 0.00D+00 IRadAn=         5 IDoV= 1 UseB2=F ITyADJ=14
 ICtDFT=  3500011 ScaDFX=  1.000000  1.000000  1.000000  1.000000
 FoFCou: FMM=F IPFlag=           0 FMFlag=      100000 FMFlg1=           0
         NFxFlg=           0 DoJE=T BraDBF=F KetDBF=T FulRan=T
         wScrn=  0.000000 ICntrl=       500 IOpCl=  0 I1Cent=   200000004 NGrid=           0
         NMat0=    1 NMatS0=      1 NMatT0=    0 NMatD0=    1 NMtDS0=    0 NMtDT0=    0
 Petite list used in FoFCou.
 Harris En= -79.8599284668294    
 JPrj=0 DoOrth=F DoCkMO=F.
 Leave Link  401 at Fri Sep 22 16:35:18 2023, MaxMem=   268435456 cpu:               1.3 elap:               0.7
 (Enter /share/apps/gaussian/g16/l502.exe)
 Keep R1 ints in memory in canonical form, NReq=3233002.
 FoFCou: FMM=F IPFlag=           0 FMFlag=           0 FMFlg1=           0
         NFxFlg=           0 DoJE=F BraDBF=F KetDBF=F FulRan=T
         wScrn=  0.000000 ICntrl=       600 IOpCl=  0 I1Cent=           0 NGrid=           0
         NMat0=    1 NMatS0=   1711 NMatT0=    0 NMatD0=    1 NMtDS0=    0 NMtDT0=    0
 Symmetry not used in FoFCou.
 Two-electron integral symmetry not used.
 Closed shell SCF:
 Using DIIS extrapolation, IDIIS=  1040.
 NGot=   268435456 LenX=   266962412 LenY=   266958371
 Requested convergence on RMS density matrix=1.00D-08 within 128 cycles.
 Requested convergence on MAX density matrix=1.00D-06.
 Requested convergence on             energy=1.00D-06.
 No special actions if energy rises.

 Cycle   1  Pass 1  IDiag  1:
 Inv3:  Mode=1 IEnd=     1546572.
 Iteration    1 A*A^-1 deviation from unit magnitude is 2.33D-15 for    711.
 Iteration    1 A*A^-1 deviation from orthogonality  is 1.03D-15 for    565    412.
 Iteration    1 A^-1*A deviation from unit magnitude is 2.33D-15 for    711.
 Iteration    1 A^-1*A deviation from orthogonality  is 7.98D-16 for    678    362.
 E= -79.6954901630213    
 DIIS: error= 4.33D-02 at cycle   1 NSaved=   1.
 NSaved= 1 IEnMin= 1 EnMin= -79.6954901630213     IErMin= 1 ErrMin= 4.33D-02
 ErrMax= 4.33D-02  0.00D+00 EMaxC= 1.00D-01 BMatC= 1.05D-01 BMatP= 1.05D-01
 IDIUse=3 WtCom= 5.67D-01 WtEn= 4.33D-01
 Coeff-Com:  0.100D+01
 Coeff-En:   0.100D+01
 Coeff:      0.100D+01
 Gap=     0.318 Goal=   None    Shift=    0.000
 GapD=    0.318 DampG=1.000 DampE=0.500 DampFc=0.5000 IDamp=-1.
 Damping current iteration by 5.00D-01
 RMSDP=1.13D-02 MaxDP=1.40D-01              OVMax= 1.93D-01

 Cycle   2  Pass 1  IDiag  1:
 E= -79.7467196173530     Delta-E=       -0.051229454332 Rises=F Damp=T
 DIIS: error= 1.07D-02 at cycle   2 NSaved=   2.
 NSaved= 2 IEnMin= 2 EnMin= -79.7467196173530     IErMin= 2 ErrMin= 1.07D-02
 ErrMax= 1.07D-02  0.00D+00 EMaxC= 1.00D-01 BMatC= 3.53D-03 BMatP= 1.05D-01
 IDIUse=3 WtCom= 8.93D-01 WtEn= 1.07D-01
 Coeff-Com:  0.114D+00 0.886D+00
 Coeff-En:   0.187D+00 0.813D+00
 Coeff:      0.122D+00 0.878D+00
 Gap=     0.412 Goal=   None    Shift=    0.000
 RMSDP=1.43D-03 MaxDP=1.24D-02 DE=-5.12D-02 OVMax= 1.05D-01

 Cycle   3  Pass 1  IDiag  1:
 E= -79.8177208141000     Delta-E=       -0.071001196747 Rises=F Damp=F
 DIIS: error= 1.89D-03 at cycle   3 NSaved=   3.
 NSaved= 3 IEnMin= 3 EnMin= -79.8177208141000     IErMin= 3 ErrMin= 1.89D-03
 ErrMax= 1.89D-03  0.00D+00 EMaxC= 1.00D-01 BMatC= 1.26D-04 BMatP= 3.53D-03
 IDIUse=3 WtCom= 9.81D-01 WtEn= 1.89D-02
 Coeff-Com:  0.178D-01 0.130D+00 0.852D+00
 Coeff-En:   0.000D+00 0.000D+00 0.100D+01
 Coeff:      0.175D-01 0.128D+00 0.855D+00
 Gap=     0.383 Goal=   None    Shift=    0.000
 RMSDP=2.00D-04 MaxDP=2.19D-03 DE=-7.10D-02 OVMax= 4.31D-03

 Cycle   4  Pass 1  IDiag  1:
 E= -79.8178245670397     Delta-E=       -0.000103752940 Rises=F Damp=F
 DIIS: error= 4.58D-04 at cycle   4 NSaved=   4.
 NSaved= 4 IEnMin= 4 EnMin= -79.8178245670397     IErMin= 4 ErrMin= 4.58D-04
 ErrMax= 4.58D-04  0.00D+00 EMaxC= 1.00D-01 BMatC= 1.30D-05 BMatP= 1.26D-04
 IDIUse=3 WtCom= 9.95D-01 WtEn= 4.58D-03
 Coeff-Com:  0.123D-02 0.141D-03 0.218D+00 0.780D+00
 Coeff-En:   0.000D+00 0.000D+00 0.000D+00 0.100D+01
 Coeff:      0.122D-02 0.140D-03 0.217D+00 0.781D+00
 Gap=     0.384 Goal=   None    Shift=    0.000
 RMSDP=6.72D-05 MaxDP=1.17D-03 DE=-1.04D-04 OVMax= 1.62D-03

 Cycle   5  Pass 1  IDiag  1:
 E= -79.8178335818488     Delta-E=       -0.000009014809 Rises=F Damp=F
 DIIS: error= 2.11D-04 at cycle   5 NSaved=   5.
 NSaved= 5 IEnMin= 5 EnMin= -79.8178335818488     IErMin= 5 ErrMin= 2.11D-04
 ErrMax= 2.11D-04  0.00D+00 EMaxC= 1.00D-01 BMatC= 3.67D-06 BMatP= 1.30D-05
 IDIUse=3 WtCom= 9.98D-01 WtEn= 2.11D-03
 Coeff-Com: -0.599D-06-0.568D-02 0.763D-01 0.417D+00 0.513D+00
 Coeff-En:   0.000D+00 0.000D+00 0.000D+00 0.168D+00 0.832D+00
 Coeff:     -0.597D-06-0.567D-02 0.761D-01 0.416D+00 0.513D+00
 Gap=     0.384 Goal=   None    Shift=    0.000
 RMSDP=2.52D-05 MaxDP=4.39D-04 DE=-9.01D-06 OVMax= 5.83D-04

 Cycle   6  Pass 1  IDiag  1:
 E= -79.8178372227730     Delta-E=       -0.000003640924 Rises=F Damp=F
 DIIS: error= 7.40D-06 at cycle   6 NSaved=   6.
 NSaved= 6 IEnMin= 6 EnMin= -79.8178372227730     IErMin= 6 ErrMin= 7.40D-06
 ErrMax= 7.40D-06  0.00D+00 EMaxC= 1.00D-01 BMatC= 2.60D-09 BMatP= 3.67D-06
 IDIUse=1 WtCom= 1.00D+00 WtEn= 0.00D+00
 Coeff-Com:  0.937D-04-0.201D-04-0.270D-02-0.994D-02 0.422D-02 0.101D+01
 Coeff:      0.937D-04-0.201D-04-0.270D-02-0.994D-02 0.422D-02 0.101D+01
 Gap=     0.384 Goal=   None    Shift=    0.000
 RMSDP=1.03D-06 MaxDP=1.75D-05 DE=-3.64D-06 OVMax= 2.19D-05

 Cycle   7  Pass 1  IDiag  1:
 E= -79.8178372257632     Delta-E=       -0.000000002990 Rises=F Damp=F
 DIIS: error= 1.21D-06 at cycle   7 NSaved=   7.
 NSaved= 7 IEnMin= 7 EnMin= -79.8178372257632     IErMin= 7 ErrMin= 1.21D-06
 ErrMax= 1.21D-06  0.00D+00 EMaxC= 1.00D-01 BMatC= 6.40D-11 BMatP= 2.60D-09
 IDIUse=1 WtCom= 1.00D+00 WtEn= 0.00D+00
 Coeff-Com:  0.191D-04 0.350D-04-0.127D-02-0.570D-02-0.274D-02 0.249D+00
 Coeff-Com:  0.761D+00
 Coeff:      0.191D-04 0.350D-04-0.127D-02-0.570D-02-0.274D-02 0.249D+00
 Coeff:      0.761D+00
 Gap=     0.384 Goal=   None    Shift=    0.000
 RMSDP=1.81D-07 MaxDP=2.80D-06 DE=-2.99D-09 OVMax= 3.94D-06

 Cycle   8  Pass 1  IDiag  1:
 E= -79.8178372258400     Delta-E=       -0.000000000077 Rises=F Damp=F
 DIIS: error= 1.59D-07 at cycle   8 NSaved=   8.
 NSaved= 8 IEnMin= 8 EnMin= -79.8178372258400     IErMin= 8 ErrMin= 1.59D-07
 ErrMax= 1.59D-07  0.00D+00 EMaxC= 1.00D-01 BMatC= 1.51D-12 BMatP= 6.40D-11
 IDIUse=1 WtCom= 1.00D+00 WtEn= 0.00D+00
 Coeff-Com: -0.229D-05 0.342D-05-0.602D-04-0.318D-03-0.345D-03-0.220D-02
 Coeff-Com:  0.117D+00 0.886D+00
 Coeff:     -0.229D-05 0.342D-05-0.602D-04-0.318D-03-0.345D-03-0.220D-02
 Coeff:      0.117D+00 0.886D+00
 Gap=     0.384 Goal=   None    Shift=    0.000
 RMSDP=2.53D-08 MaxDP=2.21D-07 DE=-7.68D-11 OVMax= 4.44D-07

 Cycle   9  Pass 1  IDiag  1:
 E= -79.8178372258412     Delta-E=       -0.000000000001 Rises=F Damp=F
 DIIS: error= 6.69D-09 at cycle   9 NSaved=   9.
 NSaved= 9 IEnMin= 9 EnMin= -79.8178372258412     IErMin= 9 ErrMin= 6.69D-09
 ErrMax= 6.69D-09  0.00D+00 EMaxC= 1.00D-01 BMatC= 3.56D-15 BMatP= 1.51D-12
 IDIUse=1 WtCom= 1.00D+00 WtEn= 0.00D+00
 Coeff-Com: -0.294D-06 0.106D-06 0.313D-05 0.463D-05-0.254D-04-0.210D-02
 Coeff-Com:  0.543D-02 0.647D-01 0.932D+00
 Coeff:     -0.294D-06 0.106D-06 0.313D-05 0.463D-05-0.254D-04-0.210D-02
 Coeff:      0.543D-02 0.647D-01 0.932D+00
 Gap=     0.384 Goal=   None    Shift=    0.000
 RMSDP=1.80D-09 MaxDP=3.62D-08 DE=-1.17D-12 OVMax= 3.44D-08

 Error on total polarization charges =  0.00545
 SCF Done:  E(RB3LYP) =  -79.8178372258     A.U. after    9 cycles
            NFock=  9  Conv=0.18D-08     -V/T= 2.0084
 KE= 7.915028606529D+01 PE=-2.680756636775D+02 EE= 6.702767880531D+01
 Leave Link  502 at Fri Sep 22 16:35:25 2023, MaxMem=   268435456 cpu:              12.9 elap:               6.5
 (Enter /share/apps/gaussian/g16/l601.exe)
 Copying SCF densities to generalized density rwf, IOpCl= 0 IROHF=0.

 **********************************************************************

            Population analysis using the SCF density.

 **********************************************************************

 Orbital symmetries:
       Occupied  (A) (A) (A) (A) (A) (A) (A) (A) (A)
       Virtual   (A) (A) (A) (A) (A) (A) (A) (A) (A) (A) (A) (A)
                 (A) (A) (A) (A) (A) (A) (A) (A) (A) (A) (A) (A)
                 (A) (A) (A) (A) (A) (A) (A) (A) (A) (A) (A) (A)
                 (A) (A) (A) (A) (A) (A) (A) (A) (A) (A) (A) (A)
                 (A)
 The electronic state is 1-A.
 Alpha  occ. eigenvalues --  -10.17220 -10.16455  -0.75584  -0.60917  -0.43842
 Alpha  occ. eigenvalues --   -0.43524  -0.37135  -0.34466  -0.33584
 Alpha virt. eigenvalues --    0.04769   0.09162   0.10009   0.10546   0.13342
 Alpha virt. eigenvalues --    0.13920   0.21869   0.36876   0.39028   0.39904
 Alpha virt. eigenvalues --    0.46179   0.47071   0.59334   0.60670   0.64219
 Alpha virt. eigenvalues --    0.64682   0.65038   0.66184   0.68796   0.93900
 Alpha virt. eigenvalues --    1.21477   1.27054   1.27391   1.57819   1.59592
 Alpha virt. eigenvalues --    1.76602   1.84094   1.85829   1.86750   1.90021
 Alpha virt. eigenvalues --    1.90425   1.91031   2.08421   2.08877   2.09353
 Alpha virt. eigenvalues --    2.27417   2.29795   2.47061   2.57698   2.58756
 Alpha virt. eigenvalues --    2.63284   2.75598   2.77997   2.91870   3.05313
 Alpha virt. eigenvalues --    3.14707   3.20344   3.28302   3.30732
          Condensed to atoms (all electrons):
               1          2          3          4          5          6
     1  C    4.785428   0.406673  -0.036063   0.388179   0.399500   0.400091
     2  C    0.406673   4.743555   0.398422  -0.040893  -0.031717  -0.031416
     3  H   -0.036063   0.398422   0.608624   0.010719  -0.007489  -0.006440
     4  H    0.388179  -0.040893   0.010719   0.621501  -0.025844  -0.024666
     5  H    0.399500  -0.031717  -0.007489  -0.025844   0.603749  -0.029485
     6  H    0.400091  -0.031416  -0.006440  -0.024666  -0.029485   0.600437
     7  H   -0.032756   0.400960  -0.026359  -0.007782   0.009914  -0.008094
     8  H   -0.032149   0.401045  -0.026547  -0.008725  -0.007390   0.009765
               7          8
     1  C   -0.032756  -0.032149
     2  C    0.400960   0.401045
     3  H   -0.026359  -0.026547
     4  H   -0.007782  -0.008725
     5  H    0.009914  -0.007390
     6  H   -0.008094   0.009765
     7  H    0.604398  -0.027472
     8  H   -0.027472   0.604342
 Mulliken charges:
               1
     1  C   -0.278904
     2  C   -0.246629
     3  H    0.085132
     4  H    0.087511
     5  H    0.088763
     6  H    0.089808
     7  H    0.087189
     8  H    0.087130
 Sum of Mulliken charges =  -0.00000
 Mulliken charges with hydrogens summed into heavy atoms:
               1
     1  C   -0.012823
     2  C    0.012823
 Electronic spatial extent (au):  <R**2>=            110.1312
 Charge=             -0.0000 electrons
 Dipole moment (field-independent basis, Debye):
    X=             -0.0528    Y=             -0.0647    Z=             -0.0070  Tot=              0.0838
 Quadrupole moment (field-independent basis, Debye-Ang):
   XX=            -16.1202   YY=            -15.0067   ZZ=            -15.0498
   XY=             -0.2241   XZ=             -0.0083   YZ=             -0.0176
 Traceless Quadrupole moment (field-independent basis, Debye-Ang):
   XX=             -0.7280   YY=              0.3855   ZZ=              0.3424
   XY=             -0.2241   XZ=             -0.0083   YZ=             -0.0176
 Octapole moment (field-independent basis, Debye-Ang**2):
  XXX=             -0.4045  YYY=             -0.1570  ZZZ=              0.0244  XYY=             -0.1163
  XXY=             -0.3109  XXZ=             -0.0183  XZZ=             -0.0945  YZZ=             -0.1207
  YYZ=             -0.0395  XYZ=             -0.0304
 Hexadecapole moment (field-independent basis, Debye-Ang**3):
 XXXX=            -96.5293 YYYY=            -31.7255 ZZZZ=            -30.3616 XXXY=             -1.0204
 XXXZ=             -0.0237 YYYX=              0.7304 YYYZ=             -0.0338 ZZZX=             -0.2312
 ZZZY=             -0.0371 XXYY=            -20.4581 XXZZ=            -20.0392 YYZZ=            -10.4241
 XXYZ=             -0.0466 YYXZ=              0.2122 ZZXY=             -1.3888
 N-N= 4.207986158105D+01 E-N=-2.680756638022D+02  KE= 7.915028606529D+01
 There are a total of      177360 grid points.
 ElSum from          density=       17.9999996415
 ElSum from atomic densities=       17.9999995683
 Hirshfeld populations at iteration   1 (CA, CB, DipXYZ):
               1          2          3          4          5
     1  C    3.036370   3.036370  -0.042094  -0.017067   0.001068
     2  C    3.039847   3.039847   0.032026  -0.000687  -0.000037
     3  H    0.487522   0.487522  -0.036829  -0.126323  -0.009759
     4  H    0.488810   0.488810   0.020658   0.121055   0.002899
     5  H    0.487390   0.487390   0.043220  -0.061603  -0.112198
     6  H    0.487001   0.487001   0.043994  -0.073970   0.105721
     7  H    0.486586   0.486586  -0.040858   0.056806   0.114359
     8  H    0.486473   0.486473  -0.041154   0.072598  -0.104972
       Tot   9.000000   9.000000  -0.021037  -0.029191  -0.002919

 Dip from Atomic Chgs              0.000262   0.003717   0.000152
         Total Dipole             -0.020775  -0.025474  -0.002767

 Hirshfeld charges, spin densities, dipoles, and CM5 charges using IRadAn=      5:
              Q-H        S-H        Dx         Dy         Dz        Q-CM5   
     1  C   -0.072741   0.000000  -0.042094  -0.017067   0.001068  -0.214898
     2  C   -0.079694   0.000000   0.032026  -0.000687  -0.000037  -0.230411
     3  H    0.024955   0.000000  -0.036829  -0.126323  -0.009759   0.075332
     4  H    0.022380   0.000000   0.020658   0.121055   0.002899   0.063447
     5  H    0.025221   0.000000   0.043220  -0.061603  -0.112198   0.075299
     6  H    0.025997   0.000000   0.043994  -0.073970   0.105721   0.076467
     7  H    0.026828   0.000000  -0.040858   0.056806   0.114359   0.077338
     8  H    0.027054   0.000000  -0.041154   0.072598  -0.104972   0.077428
       Tot   0.000000   0.000000  -0.021037  -0.029191  -0.002919   0.000000
 Hirshfeld charges with hydrogens summed into heavy atoms:
              Q-H       Q-CM5   
     1  C    0.000857   0.000314
     2  C   -0.000857  -0.000314
 
 EQQ= 0.000000000000E+00 EQD= 0.000000000000E+00 EDD=-0.167002174801E-02
 EQQ+QD+DD=-0.167002174801E-02
 
 No NMR shielding tensors so no spin-rotation constants.
 Leave Link  601 at Fri Sep 22 16:35:25 2023, MaxMem=   268435456 cpu:               1.1 elap:               0.6
 (Enter /share/apps/gaussian/g16/l9999.exe)
 1\1\GINC-NODE99\SP\RB3LYP\Gen\C2H6\YANZ\22-Sep-2023\0\\#p b3lyp/gen sc
 rf=(cpcm,solvent=toluene) pop=hirshfeld empiricaldispersion=gd3bj\\tmp
 dir/M2_conf_0_283.gjf\\0,1\C,0,0.,0.,0.\C,0,1.5122,0.,0.\H,0,1.88681,0
 .,1.03148\H,0,-0.34612,0.04289,-1.13199\H,0,-0.4138,0.87595,0.5168\H,0
 ,-0.4192,-0.8936,0.47294\H,0,1.89879,-0.88618,-0.51556\H,0,1.90147,0.8
 8784,-0.5128\\Version=ES64L-G16RevA.03\State=1-A\HF=-79.8178372\RMSD=1
 .803e-09\Dipole=0.0206028,0.0008444,0.025749\Quadrupole=-0.5389095,0.2
 566753,0.2822343,0.0074967,-0.1721872,-0.0150148\PG=C01 [X(C2H6)]\\@


 OF ALL THE WONDERS OF THE UNIVERSE, THE GREATEST IS MAN.

                                    -- ARISTOTLE
 Job cpu time:       0 days  0 hours  0 minutes 16.4 seconds.
 Elapsed time:       0 days  0 hours  0 minutes  8.3 seconds.
 File lengths (MBytes):  RWF=     11 Int=      0 D2E=      0 Chk=      2 Scr=      1
 Normal termination of Gaussian 16 at Fri Sep 22 16:35:25 2023.
