 Entering Gaussian System, Link 0=g16
 Initial command:
 /share/apps/gaussian/g16/l1.exe "/tmp/55556.mgr/Gau-84237.inp" -scrdir="/tmp/55556.mgr/"
 Entering Link 1 = /share/apps/gaussian/g16/l1.exe PID=     84239.
  
 Copyright (c) 1988,1990,1992,1993,1995,1998,2003,2009,2016,
            Gaussian, Inc.  All Rights Reserved.
  
 This is part of the Gaussian(R) 16 program.  It is based on
 the Gaussian(R) 09 system (copyright 2009, Gaussian, Inc.),
 the Gaussian(R) 03 system (copyright 2003, Gaussian, Inc.),
 the Gaussian(R) 98 system (copyright 1998, Gaussian, Inc.),
 the Gaussian(R) 94 system (copyright 1995, Gaussian, Inc.),
 the Gaussian 92(TM) system (copyright 1992, Gaussian, Inc.),
 the Gaussian 90(TM) system (copyright 1990, Gaussian, Inc.),
 the Gaussian 88(TM) system (copyright 1988, Gaussian, Inc.),
 the Gaussian 86(TM) system (copyright 1986, Carnegie Mellon
 University), and the Gaussian 82(TM) system (copyright 1983,
 Carnegie Mellon University). Gaussian is a federally registered
 trademark of Gaussian, Inc.
  
 This software contains proprietary and confidential information,
 including trade secrets, belonging to Gaussian, Inc.
  
 This software is provided under written license and may be
 used, copied, transmitted, or stored only in accord with that
 written license.
  
 The following legend is applicable only to US Government
 contracts under FAR:
  
                    RESTRICTED RIGHTS LEGEND
  
 Use, reproduction and disclosure by the US Government is
 subject to restrictions as set forth in subparagraphs (a)
 and (c) of the Commercial Computer Software - Restricted
 Rights clause in FAR 52.227-19.
  
 Gaussian, Inc.
 340 Quinnipiac St., Bldg. 40, Wallingford CT 06492
  
  
 ---------------------------------------------------------------
 Warning -- This program may not be used in any manner that
 competes with the business of Gaussian, Inc. or will provide
 assistance to any competitor of Gaussian, Inc.  The licensee
 of this program is prohibited from giving any competitor of
 Gaussian, Inc. access to this program.  By using this program,
 the user acknowledges that Gaussian, Inc. is engaged in the
 business of creating and licensing software in the field of
 computational chemistry and represents and warrants to the
 licensee that it is not a competitor of Gaussian, Inc. and that
 it will not use this program in any manner prohibited above.
 ---------------------------------------------------------------
  

 Cite this work as:
 Gaussian 16, Revision A.03,
 M. J. Frisch, G. W. Trucks, H. B. Schlegel, G. E. Scuseria, 
 M. A. Robb, J. R. Cheeseman, G. Scalmani, V. Barone, 
 G. A. Petersson, H. Nakatsuji, X. Li, M. Caricato, A. V. Marenich, 
 J. Bloino, B. G. Janesko, R. Gomperts, B. Mennucci, H. P. Hratchian, 
 J. V. Ortiz, A. F. Izmaylov, J. L. Sonnenberg, D. Williams-Young, 
 F. Ding, F. Lipparini, F. Egidi, J. Goings, B. Peng, A. Petrone, 
 T. Henderson, D. Ranasinghe, V. G. Zakrzewski, J. Gao, N. Rega, 
 G. Zheng, W. Liang, M. Hada, M. Ehara, K. Toyota, R. Fukuda, 
 J. Hasegawa, M. Ishida, T. Nakajima, Y. Honda, O. Kitao, H. Nakai, 
 T. Vreven, K. Throssell, J. A. Montgomery, Jr., J. E. Peralta, 
 F. Ogliaro, M. J. Bearpark, J. J. Heyd, E. N. Brothers, K. N. Kudin, 
 V. N. Staroverov, T. A. Keith, R. Kobayashi, J. Normand, 
 K. Raghavachari, A. P. Rendell, J. C. Burant, S. S. Iyengar, 
 J. Tomasi, M. Cossi, J. M. Millam, M. Klene, C. Adamo, R. Cammi, 
 J. W. Ochterski, R. L. Martin, K. Morokuma, O. Farkas, 
 J. B. Foresman, and D. J. Fox, Gaussian, Inc., Wallingford CT, 2016.
 
 ******************************************
 Gaussian 16:  ES64L-G16RevA.03 25-Dec-2016
                22-Sep-2023 
 ******************************************
 %nprocshared=2
 Will use up to    2 processors via shared memory.
 %mem=2GB
 ----------------------------------------------------------------------
 #p b3lyp/gen scrf=(cpcm,solvent=toluene) pop=hirshfeld empiricaldisper
 sion=gd3bj
 ----------------------------------------------------------------------
 1/38=1,172=1/1;
 2/12=2,17=6,18=5,40=1/2;
 3/5=7,11=2,25=1,30=1,70=2101,72=13,74=-5,124=41/1,2,3;
 4//1;
 5/5=2,38=5,53=13/2;
 6/7=2,8=2,9=2,10=2,28=1,79=1/1;
 99/5=1,9=1/99;
 Leave Link    1 at Fri Sep 22 16:33:12 2023, MaxMem=   268435456 cpu:               0.1 elap:               0.0
 (Enter /share/apps/gaussian/g16/l101.exe)
 -----------------------
 tmpdir/M2_conf_0_24.gjf
 -----------------------
 Symbolic Z-matrix:
 Charge =  0 Multiplicity = 1
 C                     0.        0.        0. 
 C                     1.4078    0.        0. 
 H                     1.93735   0.        0.94791 
 O                    -0.61707   0.01753  -1.09141 
 H                    -0.55885   0.03146   0.87463 
 O                     2.02872   0.01192  -1.05068 
 
 ITRead=  0  0  0  0  0  0
 MicOpt= -1 -1 -1 -1 -1 -1
 NAtoms=      6 NQM=        6 NQMF=       0 NMMI=      0 NMMIF=      0
                NMic=       0 NMicF=      0.
                    Isotopes and Nuclear Properties:
 (Nuclear quadrupole moments (NQMom) in fm**2, nuclear magnetic moments (NMagM)
  in nuclear magnetons)

  Atom         1           2           3           4           5           6
 IAtWgt=          12          12           1          16           1          16
 AtmWgt=  12.0000000  12.0000000   1.0078250  15.9949146   1.0078250  15.9949146
 NucSpn=           0           0           1           0           1           0
 AtZEff=  -0.0000000  -0.0000000  -0.0000000  -0.0000000  -0.0000000  -0.0000000
 NQMom=    0.0000000   0.0000000   0.0000000   0.0000000   0.0000000   0.0000000
 NMagM=    0.0000000   0.0000000   2.7928460   0.0000000   2.7928460   0.0000000
 AtZNuc=   6.0000000   6.0000000   1.0000000   8.0000000   1.0000000   8.0000000
 Leave Link  101 at Fri Sep 22 16:33:12 2023, MaxMem=   268435456 cpu:               0.2 elap:               0.1
 (Enter /share/apps/gaussian/g16/l202.exe)
                          Input orientation:                          
 ---------------------------------------------------------------------
 Center     Atomic      Atomic             Coordinates (Angstroms)
 Number     Number       Type             X           Y           Z
 ---------------------------------------------------------------------
      1          6           0        0.000000    0.000000    0.000000
      2          6           0        1.407800    0.000000    0.000000
      3          1           0        1.937350    0.000000    0.947910
      4          8           0       -0.617070    0.017530   -1.091410
      5          1           0       -0.558850    0.031460    0.874630
      6          8           0        2.028720    0.011920   -1.050680
 ---------------------------------------------------------------------
                    Distance matrix (angstroms):
                    1          2          3          4          5
     1  C    0.000000
     2  C    1.407800   0.000000
     3  H    2.156817   1.085798   0.000000
     4  O    1.253897   2.300344   3.268669   0.000000
     5  H    1.038403   2.152598   2.497474   1.966951   0.000000
     6  O    2.284683   1.220497   2.000713   2.646109   3.225325
                    6
     6  O    0.000000
 Stoichiometry    C2H2O2
 Framework group  C1[X(C2H2O2)]
 Deg. of freedom    12
 Full point group                 C1      NOp   1
 Largest Abelian subgroup         C1      NOp   1
 Largest concise Abelian subgroup C1      NOp   1
                         Standard orientation:                         
 ---------------------------------------------------------------------
 Center     Atomic      Atomic             Coordinates (Angstroms)
 Number     Number       Type             X           Y           Z
 ---------------------------------------------------------------------
      1          6           0        0.694280    0.523577   -0.007023
      2          6           0       -0.713270    0.497294   -0.003402
      3          1           0       -1.260405    1.435127    0.004810
      4          8           0        1.331644   -0.556220    0.001032
      5          1           0        1.236803    1.408240    0.029321
      6          8           0       -1.314451   -0.564854    0.002520
 ---------------------------------------------------------------------
 Rotational constants (GHZ):          24.9589702           7.1147237           5.5366977
 Leave Link  202 at Fri Sep 22 16:33:12 2023, MaxMem=   268435456 cpu:               0.0 elap:               0.0
 (Enter /share/apps/gaussian/g16/l301.exe)
 General basis read from cards:  (5D, 7F)
 Centers:       3      5
 S 3 1.00
     Exponent=  1.2251800000D+01 Coefficients=  2.3337100000D-02
     Exponent=  1.8687100000D+00 Coefficients=  1.5915000000D-01
     Exponent=  4.1820800000D-01 Coefficients=  5.0000000000D-01
 S 1 1.00
     Exponent=  1.0610000000D-01 Coefficients=  1.0000000000D+00
 P 1 1.00
     Exponent=  1.0000000000D+00 Coefficients=  1.0000000000D+00
 ****
 Centers:       1      2
 S 5 1.00
     Exponent=  1.2432000000D+03 Coefficients=  6.0336600000D-03
     Exponent=  1.8714500000D+02 Coefficients=  4.4957600000D-02
     Exponent=  4.2512600000D+01 Coefficients=  1.9790100000D-01
     Exponent=  1.1739300000D+01 Coefficients=  5.0000000000D-01
     Exponent=  3.5054800000D+00 Coefficients=  4.8036400000D-01
 S 2 1.00
     Exponent=  5.3908900000D+00 Coefficients= -7.0398000000D-02
     Exponent=  4.9334100000D-01 Coefficients=  5.0000000000D-01
 S 1 1.00
     Exponent=  1.4974100000D-01 Coefficients=  1.0000000000D+00
 P 3 1.00
     Exponent=  9.1805600000D+00 Coefficients=  4.3170100000D-02
     Exponent=  1.9365800000D+00 Coefficients=  2.2499900000D-01
     Exponent=  5.2629600000D-01 Coefficients=  5.0000000000D-01
 P 1 1.00
     Exponent=  1.3631900000D-01 Coefficients=  1.0000000000D+00
 D 1 1.00
     Exponent=  8.0000000000D-01 Coefficients=  1.0000000000D+00
 ****
 Centers:       4      6
 S 5 1.00
     Exponent=  2.2886400000D+03 Coefficients=  5.8546800000D-03
     Exponent=  3.4441600000D+02 Coefficients=  4.3733300000D-02
     Exponent=  7.8253800000D+01 Coefficients=  1.9479600000D-01
     Exponent=  2.1719500000D+01 Coefficients=  5.0000000000D-01
     Exponent=  6.5590700000D+00 Coefficients=  4.8461400000D-01
 S 2 1.00
     Exponent=  1.0465600000D+01 Coefficients= -7.1334300000D-02
     Exponent=  9.6435100000D-01 Coefficients=  5.0000000000D-01
 S 1 1.00
     Exponent=  2.8512700000D-01 Coefficients=  1.0000000000D+00
 P 3 1.00
     Exponent=  1.7059000000D+01 Coefficients=  4.7443900000D-02
     Exponent=  3.6899900000D+00 Coefficients=  2.4268900000D-01
     Exponent=  9.9299600000D-01 Coefficients=  5.0000000000D-01
 P 1 1.00
     Exponent=  2.4492400000D-01 Coefficients=  1.0000000000D+00
 D 1 1.00
     Exponent=  1.0000000000D+00 Coefficients=  1.0000000000D+00
 ****
 Ernie: Thresh=  0.10000D-02 Tol=  0.10000D-05 Strict=F.
 There are    70 symmetry adapted cartesian basis functions of A   symmetry.
 There are    66 symmetry adapted basis functions of A   symmetry.
    66 basis functions,   118 primitive gaussians,    70 cartesian basis functions
    15 alpha electrons       15 beta electrons
       nuclear repulsion energy       105.5763202532 Hartrees.
 IExCor=  402 DFT=T Ex+Corr=B3LYP ExCW=0 ScaHFX=  0.200000
 ScaDFX=  0.800000  0.720000  1.000000  0.810000 ScalE2=  1.000000  1.000000
 IRadAn=      5 IRanWt=     -1 IRanGd=            0 ICorTp=0 IEmpDi=141
 NAtoms=    6 NActive=    6 NUniq=    6 SFac= 1.00D+00 NAtFMM=   60 NAOKFM=F Big=F
 Integral buffers will be    131072 words long.
 Raffenetti 2 integral format.
 Two-electron integral symmetry is turned on.
 R6Disp:  Grimme-D3(BJ) Dispersion energy=       -0.0054186209 Hartrees.
 Nuclear repulsion after empirical dispersion term =      105.5709016324 Hartrees.
 ------------------------------------------------------------------------------
 Polarizable Continuum Model (PCM)
 =================================
 Model                : C-PCM.
 Atomic radii         : UFF (Universal Force Field).
 Polarization charges : Total charges.
 Charge compensation  : None.
 Solution method      : On-the-fly selection.
 Cavity type          : Scaled VdW (van der Waals Surface) (Alpha=1.100).
 Cavity algorithm     : GePol (No added spheres)
                        Default sphere list used, NSphG=    6.
                        Lebedev-Laikov grids with approx.  5.0 points / Ang**2.
                        Smoothing algorithm: York/Karplus (Gamma=1.0000).
                        Polarization charges: spherical gaussians, with
                                              point-specific exponents (IZeta= 3).
                        Self-potential: point-specific (ISelfS= 7).
                        Self-field    : sphere-specific E.n sum rule (ISelfD= 2).
 Solvent              : Toluene, Eps=   2.374100 Eps(inf)=   2.238315
 ------------------------------------------------------------------------------
 Spheres list:
 ISph  on   Nord     Re0    Alpha      Xe            Ye            Ze
    1   C      1    1.9255  1.100      0.694280      0.523577     -0.007023
    2   C      2    1.9255  1.100     -0.713270      0.497294     -0.003402
    3   H      3    1.4430  1.100     -1.260405      1.435127      0.004810
    4   O      4    1.7500  1.100      1.331644     -0.556220      0.001032
    5   H      5    1.4430  1.100      1.236803      1.408240      0.029321
    6   O      6    1.7500  1.100     -1.314451     -0.564854      0.002520
 ------------------------------------------------------------------------------
 GePol: Number of generator spheres                  =       6
 GePol: Total number of spheres                      =       6
 GePol: Number of exposed spheres                    =       6 (100.00%)
 GePol: Number of points                             =     753
 GePol: Average weight of points                     =       0.14
 GePol: Minimum weight of points                     =   0.14D-05
 GePol: Maximum weight of points                     =    0.20577
 GePol: Number of points with low weight             =      24
 GePol: Fraction of low-weight points (<1% of avg)   =       3.19%
 GePol: Cavity surface area                          =    101.912 Ang**2
 GePol: Cavity volume                                =     85.359 Ang**3
 Leave Link  301 at Fri Sep 22 16:33:12 2023, MaxMem=   268435456 cpu:               0.2 elap:               0.1
 (Enter /share/apps/gaussian/g16/l302.exe)
 NPDir=0 NMtPBC=     1 NCelOv=     1 NCel=       1 NClECP=     1 NCelD=      1
         NCelK=      1 NCelE2=     1 NClLst=     1 CellRange=     0.0.
 One-electron integrals computed using PRISM.
 One-electron integral symmetry used in STVInt
 NBasis=    66 RedAO= T EigKep=  3.88D-03  NBF=    66
 NBsUse=    66 1.00D-06 EigRej= -1.00D+00 NBFU=    66
 Precomputing XC quadrature grid using
 IXCGrd= 4 IRadAn=           5 IRanWt=          -1 IRanGd=           0 AccXCQ= 0.00D+00.
 Generated NRdTot=       0 NPtTot=           0 NUsed=           0 NTot=          32
 NSgBfM=    70    70    70    70    70 MxSgAt=     6 MxSgA2=     6.
 Leave Link  302 at Fri Sep 22 16:33:12 2023, MaxMem=   268435456 cpu:               0.3 elap:               0.1
 (Enter /share/apps/gaussian/g16/l303.exe)
 DipDrv:  MaxL=1.
 Leave Link  303 at Fri Sep 22 16:33:12 2023, MaxMem=   268435456 cpu:               0.1 elap:               0.0
 (Enter /share/apps/gaussian/g16/l401.exe)
 ExpMin= 1.06D-01 ExpMax= 2.29D+03 ExpMxC= 3.44D+02 IAcc=3 IRadAn=         5 AccDes= 0.00D+00
 Harris functional with IExCor=  402 and IRadAn=       5 diagonalized for initial guess.
 HarFok:  IExCor=  402 AccDes= 0.00D+00 IRadAn=         5 IDoV= 1 UseB2=F ITyADJ=14
 ICtDFT=  3500011 ScaDFX=  1.000000  1.000000  1.000000  1.000000
 FoFCou: FMM=F IPFlag=           0 FMFlag=      100000 FMFlg1=           0
         NFxFlg=           0 DoJE=T BraDBF=F KetDBF=T FulRan=T
         wScrn=  0.000000 ICntrl=       500 IOpCl=  0 I1Cent=   200000004 NGrid=           0
         NMat0=    1 NMatS0=      1 NMatT0=    0 NMatD0=    1 NMtDS0=    0 NMtDT0=    0
 Petite list used in FoFCou.
 Harris En= -227.779057973771    
 JPrj=0 DoOrth=F DoCkMO=F.
 Leave Link  401 at Fri Sep 22 16:33:13 2023, MaxMem=   268435456 cpu:               1.1 elap:               0.5
 (Enter /share/apps/gaussian/g16/l502.exe)
 Keep R1 ints in memory in canonical form, NReq=4230386.
 FoFCou: FMM=F IPFlag=           0 FMFlag=           0 FMFlg1=           0
         NFxFlg=           0 DoJE=F BraDBF=F KetDBF=F FulRan=T
         wScrn=  0.000000 ICntrl=       600 IOpCl=  0 I1Cent=           0 NGrid=           0
         NMat0=    1 NMatS0=   2211 NMatT0=    0 NMatD0=    1 NMtDS0=    0 NMtDT0=    0
 Symmetry not used in FoFCou.
 Two-electron integral symmetry not used.
 Closed shell SCF:
 Using DIIS extrapolation, IDIIS=  1040.
 NGot=   268435456 LenX=   265979008 LenY=   265973667
 Requested convergence on RMS density matrix=1.00D-08 within 128 cycles.
 Requested convergence on MAX density matrix=1.00D-06.
 Requested convergence on             energy=1.00D-06.
 No special actions if energy rises.

 Cycle   1  Pass 1  IDiag  1:
 Inv3:  Mode=1 IEnd=     1701027.
 Iteration    1 A*A^-1 deviation from unit magnitude is 4.44D-15 for    729.
 Iteration    1 A*A^-1 deviation from orthogonality  is 1.41D-15 for    730    613.
 Iteration    1 A^-1*A deviation from unit magnitude is 4.22D-15 for    729.
 Iteration    1 A^-1*A deviation from orthogonality  is 1.45D-15 for    369    192.
 E= -227.699393214341    
 DIIS: error= 3.34D-02 at cycle   1 NSaved=   1.
 NSaved= 1 IEnMin= 1 EnMin= -227.699393214341     IErMin= 1 ErrMin= 3.34D-02
 ErrMax= 3.34D-02  0.00D+00 EMaxC= 1.00D-01 BMatC= 9.10D-02 BMatP= 9.10D-02
 IDIUse=3 WtCom= 6.66D-01 WtEn= 3.34D-01
 Coeff-Com:  0.100D+01
 Coeff-En:   0.100D+01
 Coeff:      0.100D+01
 Gap=     0.112 Goal=   None    Shift=    0.000
 GapD=    0.112 DampG=1.000 DampE=0.500 DampFc=0.5000 IDamp=-1.
 Damping current iteration by 5.00D-01
 RMSDP=1.28D-02 MaxDP=1.66D-01              OVMax= 2.56D-01

 Cycle   2  Pass 1  IDiag  1:
 E= -227.699161012863     Delta-E=        0.000232201478 Rises=F Damp=T
 DIIS: error= 2.06D-02 at cycle   2 NSaved=   2.
 NSaved= 2 IEnMin= 1 EnMin= -227.699393214341     IErMin= 2 ErrMin= 2.06D-02
 ErrMax= 2.06D-02  0.00D+00 EMaxC= 1.00D-01 BMatC= 2.94D-02 BMatP= 9.10D-02
 IDIUse=3 WtCom= 7.94D-01 WtEn= 2.06D-01
 Coeff-Com:  0.342D+00 0.658D+00
 Coeff-En:   0.501D+00 0.499D+00
 Coeff:      0.374D+00 0.626D+00
 Gap=     0.144 Goal=   None    Shift=    0.000
 RMSDP=2.88D-03 MaxDP=3.73D-02 DE= 2.32D-04 OVMax= 1.83D-01

 Cycle   3  Pass 1  IDiag  1:
 E= -227.769014087419     Delta-E=       -0.069853074556 Rises=F Damp=F
 DIIS: error= 4.67D-03 at cycle   3 NSaved=   3.
 NSaved= 3 IEnMin= 3 EnMin= -227.769014087419     IErMin= 3 ErrMin= 4.67D-03
 ErrMax= 4.67D-03  0.00D+00 EMaxC= 1.00D-01 BMatC= 3.00D-03 BMatP= 2.94D-02
 IDIUse=3 WtCom= 9.53D-01 WtEn= 4.67D-02
 Coeff-Com:  0.120D+00 0.261D+00 0.620D+00
 Coeff-En:   0.000D+00 0.000D+00 0.100D+01
 Coeff:      0.114D+00 0.249D+00 0.637D+00
 Gap=     0.146 Goal=   None    Shift=    0.000
 RMSDP=1.00D-03 MaxDP=1.55D-02 DE=-6.99D-02 OVMax= 2.25D-02

 Cycle   4  Pass 1  IDiag  1:
 E= -227.771916801550     Delta-E=       -0.002902714131 Rises=F Damp=F
 DIIS: error= 2.39D-03 at cycle   4 NSaved=   4.
 NSaved= 4 IEnMin= 4 EnMin= -227.771916801550     IErMin= 4 ErrMin= 2.39D-03
 ErrMax= 2.39D-03  0.00D+00 EMaxC= 1.00D-01 BMatC= 3.85D-04 BMatP= 3.00D-03
 IDIUse=3 WtCom= 9.76D-01 WtEn= 2.39D-02
 Coeff-Com:  0.270D-01 0.270D-01 0.259D+00 0.687D+00
 Coeff-En:   0.000D+00 0.000D+00 0.000D+00 0.100D+01
 Coeff:      0.263D-01 0.263D-01 0.253D+00 0.694D+00
 Gap=     0.148 Goal=   None    Shift=    0.000
 RMSDP=3.28D-04 MaxDP=5.78D-03 DE=-2.90D-03 OVMax= 1.15D-02

 Cycle   5  Pass 1  IDiag  1:
 E= -227.772121512753     Delta-E=       -0.000204711202 Rises=F Damp=F
 DIIS: error= 1.53D-03 at cycle   5 NSaved=   5.
 NSaved= 5 IEnMin= 5 EnMin= -227.772121512753     IErMin= 5 ErrMin= 1.53D-03
 ErrMax= 1.53D-03  0.00D+00 EMaxC= 1.00D-01 BMatC= 1.75D-04 BMatP= 3.85D-04
 IDIUse=3 WtCom= 9.85D-01 WtEn= 1.53D-02
 Coeff-Com:  0.114D-01-0.152D-02 0.138D+00 0.491D+00 0.361D+00
 Coeff-En:   0.000D+00 0.000D+00 0.000D+00 0.264D+00 0.736D+00
 Coeff:      0.113D-01-0.150D-02 0.136D+00 0.487D+00 0.367D+00
 Gap=     0.148 Goal=   None    Shift=    0.000
 RMSDP=1.69D-04 MaxDP=3.09D-03 DE=-2.05D-04 OVMax= 6.75D-03

 Cycle   6  Pass 1  IDiag  1:
 E= -227.772255710862     Delta-E=       -0.000134198109 Rises=F Damp=F
 DIIS: error= 1.91D-04 at cycle   6 NSaved=   6.
 NSaved= 6 IEnMin= 6 EnMin= -227.772255710862     IErMin= 6 ErrMin= 1.91D-04
 ErrMax= 1.91D-04  0.00D+00 EMaxC= 1.00D-01 BMatC= 4.42D-06 BMatP= 1.75D-04
 IDIUse=3 WtCom= 9.98D-01 WtEn= 1.91D-03
 Coeff-Com:  0.208D-02-0.631D-02 0.250D-01 0.112D+00 0.166D+00 0.701D+00
 Coeff-En:   0.000D+00 0.000D+00 0.000D+00 0.000D+00 0.000D+00 0.100D+01
 Coeff:      0.208D-02-0.629D-02 0.249D-01 0.112D+00 0.165D+00 0.702D+00
 Gap=     0.148 Goal=   None    Shift=    0.000
 RMSDP=3.07D-05 MaxDP=4.40D-04 DE=-1.34D-04 OVMax= 8.18D-04

 Cycle   7  Pass 1  IDiag  1:
 E= -227.772259257680     Delta-E=       -0.000003546819 Rises=F Damp=F
 DIIS: error= 1.45D-05 at cycle   7 NSaved=   7.
 NSaved= 7 IEnMin= 7 EnMin= -227.772259257680     IErMin= 7 ErrMin= 1.45D-05
 ErrMax= 1.45D-05  0.00D+00 EMaxC= 1.00D-01 BMatC= 2.18D-08 BMatP= 4.42D-06
 IDIUse=1 WtCom= 1.00D+00 WtEn= 0.00D+00
 Coeff-Com:  0.267D-03-0.113D-02 0.201D-02 0.835D-02 0.157D-01 0.903D-01
 Coeff-Com:  0.885D+00
 Coeff:      0.267D-03-0.113D-02 0.201D-02 0.835D-02 0.157D-01 0.903D-01
 Coeff:      0.885D+00
 Gap=     0.148 Goal=   None    Shift=    0.000
 RMSDP=2.33D-06 MaxDP=2.82D-05 DE=-3.55D-06 OVMax= 2.91D-05

 Cycle   8  Pass 1  IDiag  1:
 E= -227.772259273420     Delta-E=       -0.000000015740 Rises=F Damp=F
 DIIS: error= 3.89D-06 at cycle   8 NSaved=   8.
 NSaved= 8 IEnMin= 8 EnMin= -227.772259273420     IErMin= 8 ErrMin= 3.89D-06
 ErrMax= 3.89D-06  0.00D+00 EMaxC= 1.00D-01 BMatC= 1.95D-09 BMatP= 2.18D-08
 IDIUse=1 WtCom= 1.00D+00 WtEn= 0.00D+00
 Coeff-Com:  0.498D-04-0.237D-03 0.154D-04-0.669D-03 0.679D-05 0.844D-02
 Coeff-Com:  0.307D+00 0.686D+00
 Coeff:      0.498D-04-0.237D-03 0.154D-04-0.669D-03 0.679D-05 0.844D-02
 Coeff:      0.307D+00 0.686D+00
 Gap=     0.148 Goal=   None    Shift=    0.000
 RMSDP=7.90D-07 MaxDP=1.20D-05 DE=-1.57D-08 OVMax= 1.23D-05

 Cycle   9  Pass 1  IDiag  1:
 E= -227.772259275042     Delta-E=       -0.000000001622 Rises=F Damp=F
 DIIS: error= 1.07D-06 at cycle   9 NSaved=   9.
 NSaved= 9 IEnMin= 9 EnMin= -227.772259275042     IErMin= 9 ErrMin= 1.07D-06
 ErrMax= 1.07D-06  0.00D+00 EMaxC= 1.00D-01 BMatC= 1.69D-10 BMatP= 1.95D-09
 IDIUse=1 WtCom= 1.00D+00 WtEn= 0.00D+00
 Coeff-Com: -0.331D-06 0.137D-04-0.140D-03-0.100D-02-0.145D-02-0.584D-02
 Coeff-Com:  0.156D-01 0.238D+00 0.755D+00
 Coeff:     -0.331D-06 0.137D-04-0.140D-03-0.100D-02-0.145D-02-0.584D-02
 Coeff:      0.156D-01 0.238D+00 0.755D+00
 Gap=     0.148 Goal=   None    Shift=    0.000
 RMSDP=2.29D-07 MaxDP=2.82D-06 DE=-1.62D-09 OVMax= 2.85D-06

 Cycle  10  Pass 1  IDiag  1:
 E= -227.772259275193     Delta-E=       -0.000000000151 Rises=F Damp=F
 DIIS: error= 1.19D-07 at cycle  10 NSaved=  10.
 NSaved=10 IEnMin=10 EnMin= -227.772259275193     IErMin=10 ErrMin= 1.19D-07
 ErrMax= 1.19D-07  0.00D+00 EMaxC= 1.00D-01 BMatC= 1.83D-12 BMatP= 1.69D-10
 IDIUse=1 WtCom= 1.00D+00 WtEn= 0.00D+00
 Coeff-Com:  0.691D-06 0.223D-05-0.925D-05-0.102D-03-0.144D-03-0.677D-03
 Coeff-Com: -0.339D-02 0.127D-01 0.761D-01 0.916D+00
 Coeff:      0.691D-06 0.223D-05-0.925D-05-0.102D-03-0.144D-03-0.677D-03
 Coeff:     -0.339D-02 0.127D-01 0.761D-01 0.916D+00
 Gap=     0.148 Goal=   None    Shift=    0.000
 RMSDP=2.10D-08 MaxDP=1.95D-07 DE=-1.51D-10 OVMax= 5.82D-07

 Cycle  11  Pass 1  IDiag  1:
 E= -227.772259275196     Delta-E=       -0.000000000003 Rises=F Damp=F
 DIIS: error= 1.75D-08 at cycle  11 NSaved=  11.
 NSaved=11 IEnMin=11 EnMin= -227.772259275196     IErMin=11 ErrMin= 1.75D-08
 ErrMax= 1.75D-08  0.00D+00 EMaxC= 1.00D-01 BMatC= 3.29D-14 BMatP= 1.83D-12
 IDIUse=1 WtCom= 1.00D+00 WtEn= 0.00D+00
 Coeff-Com:  0.279D-06-0.451D-06 0.279D-05 0.112D-04 0.193D-04 0.781D-04
 Coeff-Com: -0.643D-03-0.420D-02-0.101D-01 0.854D-01 0.929D+00
 Coeff:      0.279D-06-0.451D-06 0.279D-05 0.112D-04 0.193D-04 0.781D-04
 Coeff:     -0.643D-03-0.420D-02-0.101D-01 0.854D-01 0.929D+00
 Gap=     0.148 Goal=   None    Shift=    0.000
 RMSDP=5.41D-09 MaxDP=6.03D-08 DE=-3.47D-12 OVMax= 2.51D-07

 Error on total polarization charges =  0.00291
 SCF Done:  E(RB3LYP) =  -227.772259275     A.U. after   11 cycles
            NFock= 11  Conv=0.54D-08     -V/T= 2.0030
 KE= 2.270981452287D+02 PE=-7.463776796709D+02 EE= 1.859363735346D+02
 Leave Link  502 at Fri Sep 22 16:33:20 2023, MaxMem=   268435456 cpu:              14.6 elap:               7.4
 (Enter /share/apps/gaussian/g16/l601.exe)
 Copying SCF densities to generalized density rwf, IOpCl= 0 IROHF=0.

 **********************************************************************

            Population analysis using the SCF density.

 **********************************************************************

 Orbital symmetries:
       Occupied  (A) (A) (A) (A) (A) (A) (A) (A) (A) (A) (A) (A)
                 (A) (A) (A)
       Virtual   (A) (A) (A) (A) (A) (A) (A) (A) (A) (A) (A) (A)
                 (A) (A) (A) (A) (A) (A) (A) (A) (A) (A) (A) (A)
                 (A) (A) (A) (A) (A) (A) (A) (A) (A) (A) (A) (A)
                 (A) (A) (A) (A) (A) (A) (A) (A) (A) (A) (A) (A)
                 (A) (A) (A)
 The electronic state is 1-A.
 Alpha  occ. eigenvalues --  -19.16218 -19.16163 -10.28951 -10.28691  -1.09766
 Alpha  occ. eigenvalues --   -1.05646  -0.75901  -0.58844  -0.56147  -0.48180
 Alpha  occ. eigenvalues --   -0.45808  -0.45427  -0.38498  -0.31494  -0.28932
 Alpha virt. eigenvalues --   -0.14139   0.02226   0.05923   0.09469   0.14652
 Alpha virt. eigenvalues --    0.26033   0.32098   0.38014   0.38894   0.44805
 Alpha virt. eigenvalues --    0.49475   0.57255   0.57787   0.61914   0.66808
 Alpha virt. eigenvalues --    0.69311   0.75326   0.83641   0.84003   0.91128
 Alpha virt. eigenvalues --    0.92482   0.99115   1.07638   1.24560   1.41415
 Alpha virt. eigenvalues --    1.50306   1.54456   1.67287   1.75744   1.76751
 Alpha virt. eigenvalues --    1.89051   1.90395   1.93685   1.97309   2.09177
 Alpha virt. eigenvalues --    2.12359   2.19304   2.21489   2.26393   2.30521
 Alpha virt. eigenvalues --    2.35583   2.56639   2.67039   2.72908   2.84903
 Alpha virt. eigenvalues --    2.85369   3.02642   3.07956   3.14815   3.24756
 Alpha virt. eigenvalues --    3.61665
          Condensed to atoms (all electrons):
               1          2          3          4          5          6
     1  C    4.724008   0.202275  -0.099325   0.579256   0.416341  -0.085327
     2  C    0.202275   4.711227   0.409561  -0.081498  -0.089618   0.608062
     3  H   -0.099325   0.409561   0.661028   0.005020   0.004539  -0.051668
     4  O    0.579256  -0.081498   0.005020   7.877397  -0.049466   0.000500
     5  H    0.416341  -0.089618   0.004539  -0.049466   0.651151   0.004832
     6  O   -0.085327   0.608062  -0.051668   0.000500   0.004832   7.828224
 Mulliken charges:
               1
     1  C    0.262773
     2  C    0.239991
     3  H    0.070846
     4  O   -0.331209
     5  H    0.062221
     6  O   -0.304623
 Sum of Mulliken charges =  -0.00000
 Mulliken charges with hydrogens summed into heavy atoms:
               1
     1  C    0.324995
     2  C    0.310837
     4  O   -0.331209
     6  O   -0.304623
 Electronic spatial extent (au):  <R**2>=            227.4977
 Charge=             -0.0000 electrons
 Dipole moment (field-independent basis, Debye):
    X=             -0.0650    Y=              4.3516    Z=             -0.0065  Tot=              4.3521
 Quadrupole moment (field-independent basis, Debye-Ang):
   XX=            -26.5801   YY=            -21.5333   ZZ=            -21.2173
   XY=              0.1335   XZ=              0.0194   YZ=              0.0120
 Traceless Quadrupole moment (field-independent basis, Debye-Ang):
   XX=             -3.4699   YY=              1.5770   ZZ=              1.8930
   XY=              0.1335   XZ=              0.0194   YZ=              0.0120
 Octapole moment (field-independent basis, Debye-Ang**2):
  XXX=             -0.2050  YYY=              1.1557  ZZZ=              0.0201  XYY=              0.2023
  XXY=              5.6447  XXZ=             -0.0148  XZZ=             -0.0038  YZZ=             -0.8962
  YYZ=              0.0535  XYZ=              0.0198
 Hexadecapole moment (field-independent basis, Debye-Ang**3):
 XXXX=           -193.8419 YYYY=            -70.5634 ZZZZ=            -18.4546 XXXY=              0.5527
 XXXZ=              0.0490 YYYX=              0.4976 YYYZ=              0.0539 ZZZX=              0.0137
 ZZZY=             -0.0128 XXYY=            -40.2966 XXZZ=            -32.1782 YYZZ=            -15.1043
 XXYZ=              0.0767 YYXZ=              0.0604 ZZXY=              0.1318
 N-N= 1.055709016324D+02 E-N=-7.463776797367D+02  KE= 2.270981452287D+02
 There are a total of      133348 grid points.
 ElSum from          density=       29.9999999867
 ElSum from atomic densities=       29.9999984569
 Hirshfeld populations at iteration   1 (CA, CB, DipXYZ):
               1          2          3          4          5
     1  C    2.927001   2.927001  -0.039725   0.098758  -0.008240
     2  C    2.925827   2.925827   0.036937   0.088919  -0.001434
     3  H    0.471775   0.471775  -0.061410   0.121025   0.001038
     4  O    4.104862   4.104862  -0.083384   0.122793   0.001071
     5  H    0.469338   0.469338   0.070140   0.128216   0.006000
     6  O    4.101196   4.101196   0.076407   0.115706  -0.000647
       Tot  15.000000  15.000000  -0.001035   0.675417  -0.002211

 Dip from Atomic Chgs             -0.024558   1.036625  -0.000353
         Total Dipole             -0.025593   1.712042  -0.002565

 Hirshfeld charges, spin densities, dipoles, and CM5 charges using IRadAn=      5:
              Q-H        S-H        Dx         Dy         Dz        Q-CM5   
     1  C    0.145997   0.000000  -0.039725   0.098758  -0.008240   0.123630
     2  C    0.148346   0.000000   0.036937   0.088919  -0.001434   0.134675
     3  H    0.056449   0.000000  -0.061410   0.121025   0.001038   0.121418
     4  O   -0.209725   0.000000  -0.083384   0.122793   0.001071  -0.259344
     5  H    0.061324   0.000000   0.070140   0.128216   0.006000   0.133506
     6  O   -0.202392   0.000000   0.076407   0.115706  -0.000647  -0.253885
       Tot   0.000000   0.000000  -0.001035   0.675417  -0.002211   0.000000
 Hirshfeld charges with hydrogens summed into heavy atoms:
              Q-H       Q-CM5   
     1  C    0.207321   0.257136
     2  C    0.204796   0.256093
     4  O   -0.209725  -0.259344
     6  O   -0.202392  -0.253885
 
 EQQ= 0.000000000000E+00 EQD= 0.000000000000E+00 EDD= 0.622941550491E-02
 EQQ+QD+DD= 0.622941550491E-02
 
 No NMR shielding tensors so no spin-rotation constants.
 Leave Link  601 at Fri Sep 22 16:33:21 2023, MaxMem=   268435456 cpu:               0.8 elap:               0.4
 (Enter /share/apps/gaussian/g16/l9999.exe)
 1\1\GINC-NODE99\SP\RB3LYP\Gen\C2H2O2\YANZ\22-Sep-2023\0\\#p b3lyp/gen 
 scrf=(cpcm,solvent=toluene) pop=hirshfeld empiricaldispersion=gd3bj\\t
 mpdir/M2_conf_0_24.gjf\\0,1\C,0,0.,0.,0.\C,0,1.4078,0.,0.\H,0,1.93735,
 0.,0.94791\O,0,-0.61707,0.01753,-1.09141\H,0,-0.55885,0.03146,0.87463\
 O,0,2.02872,0.01192,-1.05068\\Version=ES64L-G16RevA.03\State=1-A\HF=-2
 27.7722593\RMSD=5.415e-09\Dipole=-0.0063825,-0.0149231,1.7121564\Quadr
 upole=-2.5748281,1.4072682,1.1675599,-0.0031376,-0.1692109,0.0107976\P
 G=C01 [X(C2H2O2)]\\@


 IT IS DOUBTED WHETHER A MAN EVER BRINGS HIS FACULTIES TO BEAR WITH THEIR FULL FORCE
 ON A SUBJECT UNTIL HE WRITES UPON IT.

                          -- CICERO
 Job cpu time:       0 days  0 hours  0 minutes 17.4 seconds.
 Elapsed time:       0 days  0 hours  0 minutes  8.9 seconds.
 File lengths (MBytes):  RWF=     12 Int=      0 D2E=      0 Chk=      2 Scr=      1
 Normal termination of Gaussian 16 at Fri Sep 22 16:33:21 2023.
