 Entering Gaussian System, Link 0=g16
 Initial command:
 /share/apps/gaussian/g16/l1.exe "/tmp/55556.mgr/Gau-84055.inp" -scrdir="/tmp/55556.mgr/"
 Entering Link 1 = /share/apps/gaussian/g16/l1.exe PID=     84056.
  
 Copyright (c) 1988,1990,1992,1993,1995,1998,2003,2009,2016,
            Gaussian, Inc.  All Rights Reserved.
  
 This is part of the Gaussian(R) 16 program.  It is based on
 the Gaussian(R) 09 system (copyright 2009, Gaussian, Inc.),
 the Gaussian(R) 03 system (copyright 2003, Gaussian, Inc.),
 the Gaussian(R) 98 system (copyright 1998, Gaussian, Inc.),
 the Gaussian(R) 94 system (copyright 1995, Gaussian, Inc.),
 the Gaussian 92(TM) system (copyright 1992, Gaussian, Inc.),
 the Gaussian 90(TM) system (copyright 1990, Gaussian, Inc.),
 the Gaussian 88(TM) system (copyright 1988, Gaussian, Inc.),
 the Gaussian 86(TM) system (copyright 1986, Carnegie Mellon
 University), and the Gaussian 82(TM) system (copyright 1983,
 Carnegie Mellon University). Gaussian is a federally registered
 trademark of Gaussian, Inc.
  
 This software contains proprietary and confidential information,
 including trade secrets, belonging to Gaussian, Inc.
  
 This software is provided under written license and may be
 used, copied, transmitted, or stored only in accord with that
 written license.
  
 The following legend is applicable only to US Government
 contracts under FAR:
  
                    RESTRICTED RIGHTS LEGEND
  
 Use, reproduction and disclosure by the US Government is
 subject to restrictions as set forth in subparagraphs (a)
 and (c) of the Commercial Computer Software - Restricted
 Rights clause in FAR 52.227-19.
  
 Gaussian, Inc.
 340 Quinnipiac St., Bldg. 40, Wallingford CT 06492
  
  
 ---------------------------------------------------------------
 Warning -- This program may not be used in any manner that
 competes with the business of Gaussian, Inc. or will provide
 assistance to any competitor of Gaussian, Inc.  The licensee
 of this program is prohibited from giving any competitor of
 Gaussian, Inc. access to this program.  By using this program,
 the user acknowledges that Gaussian, Inc. is engaged in the
 business of creating and licensing software in the field of
 computational chemistry and represents and warrants to the
 licensee that it is not a competitor of Gaussian, Inc. and that
 it will not use this program in any manner prohibited above.
 ---------------------------------------------------------------
  

 Cite this work as:
 Gaussian 16, Revision A.03,
 M. J. Frisch, G. W. Trucks, H. B. Schlegel, G. E. Scuseria, 
 M. A. Robb, J. R. Cheeseman, G. Scalmani, V. Barone, 
 G. A. Petersson, H. Nakatsuji, X. Li, M. Caricato, A. V. Marenich, 
 J. Bloino, B. G. Janesko, R. Gomperts, B. Mennucci, H. P. Hratchian, 
 J. V. Ortiz, A. F. Izmaylov, J. L. Sonnenberg, D. Williams-Young, 
 F. Ding, F. Lipparini, F. Egidi, J. Goings, B. Peng, A. Petrone, 
 T. Henderson, D. Ranasinghe, V. G. Zakrzewski, J. Gao, N. Rega, 
 G. Zheng, W. Liang, M. Hada, M. Ehara, K. Toyota, R. Fukuda, 
 J. Hasegawa, M. Ishida, T. Nakajima, Y. Honda, O. Kitao, H. Nakai, 
 T. Vreven, K. Throssell, J. A. Montgomery, Jr., J. E. Peralta, 
 F. Ogliaro, M. J. Bearpark, J. J. Heyd, E. N. Brothers, K. N. Kudin, 
 V. N. Staroverov, T. A. Keith, R. Kobayashi, J. Normand, 
 K. Raghavachari, A. P. Rendell, J. C. Burant, S. S. Iyengar, 
 J. Tomasi, M. Cossi, J. M. Millam, M. Klene, C. Adamo, R. Cammi, 
 J. W. Ochterski, R. L. Martin, K. Morokuma, O. Farkas, 
 J. B. Foresman, and D. J. Fox, Gaussian, Inc., Wallingford CT, 2016.
 
 ******************************************
 Gaussian 16:  ES64L-G16RevA.03 25-Dec-2016
                22-Sep-2023 
 ******************************************
 %nprocshared=2
 Will use up to    2 processors via shared memory.
 %mem=2GB
 ----------------------------------------------------------------------
 #p b3lyp/gen scrf=(cpcm,solvent=toluene) pop=hirshfeld empiricaldisper
 sion=gd3bj
 ----------------------------------------------------------------------
 1/38=1,172=1/1;
 2/12=2,17=6,18=5,40=1/2;
 3/5=7,11=2,25=1,30=1,70=2101,72=13,74=-5,124=41/1,2,3;
 4//1;
 5/5=2,38=5,53=13/2;
 6/7=2,8=2,9=2,10=2,28=1,79=1/1;
 99/5=1,9=1/99;
 Leave Link    1 at Fri Sep 22 16:33:03 2023, MaxMem=   268435456 cpu:               0.1 elap:               0.1
 (Enter /share/apps/gaussian/g16/l101.exe)
 -----------------------
 tmpdir/M2_conf_0_67.gjf
 -----------------------
 Symbolic Z-matrix:
 Charge =  0 Multiplicity = 1
 C                     0.        0.        0. 
 H                     1.0999    0.        0. 
 H                    -0.34863   0.       -1.06036 
 H                    -0.35555  -0.86295   0.59043 
 H                    -0.30803   0.95117   0.45266 
 
 ITRead=  0  0  0  0  0
 MicOpt= -1 -1 -1 -1 -1
 NAtoms=      5 NQM=        5 NQMF=       0 NMMI=      0 NMMIF=      0
                NMic=       0 NMicF=      0.
                    Isotopes and Nuclear Properties:
 (Nuclear quadrupole moments (NQMom) in fm**2, nuclear magnetic moments (NMagM)
  in nuclear magnetons)

  Atom         1           2           3           4           5
 IAtWgt=          12           1           1           1           1
 AtmWgt=  12.0000000   1.0078250   1.0078250   1.0078250   1.0078250
 NucSpn=           0           1           1           1           1
 AtZEff=  -0.0000000  -0.0000000  -0.0000000  -0.0000000  -0.0000000
 NQMom=    0.0000000   0.0000000   0.0000000   0.0000000   0.0000000
 NMagM=    0.0000000   2.7928460   2.7928460   2.7928460   2.7928460
 AtZNuc=   6.0000000   1.0000000   1.0000000   1.0000000   1.0000000
 Leave Link  101 at Fri Sep 22 16:33:03 2023, MaxMem=   268435456 cpu:               0.2 elap:               0.1
 (Enter /share/apps/gaussian/g16/l202.exe)
                          Input orientation:                          
 ---------------------------------------------------------------------
 Center     Atomic      Atomic             Coordinates (Angstroms)
 Number     Number       Type             X           Y           Z
 ---------------------------------------------------------------------
      1          6           0        0.000000    0.000000    0.000000
      2          1           0        1.099900    0.000000    0.000000
      3          1           0       -0.348630    0.000000   -1.060360
      4          1           0       -0.355550   -0.862950    0.590430
      5          1           0       -0.308030    0.951170    0.452660
 ---------------------------------------------------------------------
                    Distance matrix (angstroms):
                    1          2          3          4          5
     1  C    0.000000
     2  H    1.099900   0.000000
     3  H    1.116202   1.795161   0.000000
     4  H    1.104403   1.792101   1.862750   0.000000
     5  H    1.097501   1.758378   1.787625   1.819964   0.000000
 Stoichiometry    CH4
 Framework group  C1[X(CH4)]
 Deg. of freedom     9
 Full point group                 C1      NOp   1
 Largest Abelian subgroup         C1      NOp   1
 Largest concise Abelian subgroup C1      NOp   1
                         Standard orientation:                         
 ---------------------------------------------------------------------
 Center     Atomic      Atomic             Coordinates (Angstroms)
 Number     Number       Type             X           Y           Z
 ---------------------------------------------------------------------
      1          6           0       -0.006588   -0.009275   -0.005318
      2          1           0       -0.049640    0.504019    0.966514
      3          1           0        0.825498   -0.752462    0.029501
      4          1           0       -0.996021   -0.451407   -0.218033
      5          1           0        0.259693    0.755499   -0.746076
 ---------------------------------------------------------------------
 Rotational constants (GHZ):         159.9498231         152.7293837         150.1610577
 Leave Link  202 at Fri Sep 22 16:33:03 2023, MaxMem=   268435456 cpu:               0.0 elap:               0.0
 (Enter /share/apps/gaussian/g16/l301.exe)
 General basis read from cards:  (5D, 7F)
 Centers:       2      3      4      5
 S 3 1.00
     Exponent=  1.2251800000D+01 Coefficients=  2.3337100000D-02
     Exponent=  1.8687100000D+00 Coefficients=  1.5915000000D-01
     Exponent=  4.1820800000D-01 Coefficients=  5.0000000000D-01
 S 1 1.00
     Exponent=  1.0610000000D-01 Coefficients=  1.0000000000D+00
 P 1 1.00
     Exponent=  1.0000000000D+00 Coefficients=  1.0000000000D+00
 ****
 Centers:       1
 S 5 1.00
     Exponent=  1.2432000000D+03 Coefficients=  6.0336600000D-03
     Exponent=  1.8714500000D+02 Coefficients=  4.4957600000D-02
     Exponent=  4.2512600000D+01 Coefficients=  1.9790100000D-01
     Exponent=  1.1739300000D+01 Coefficients=  5.0000000000D-01
     Exponent=  3.5054800000D+00 Coefficients=  4.8036400000D-01
 S 2 1.00
     Exponent=  5.3908900000D+00 Coefficients= -7.0398000000D-02
     Exponent=  4.9334100000D-01 Coefficients=  5.0000000000D-01
 S 1 1.00
     Exponent=  1.4974100000D-01 Coefficients=  1.0000000000D+00
 P 3 1.00
     Exponent=  9.1805600000D+00 Coefficients=  4.3170100000D-02
     Exponent=  1.9365800000D+00 Coefficients=  2.2499900000D-01
     Exponent=  5.2629600000D-01 Coefficients=  5.0000000000D-01
 P 1 1.00
     Exponent=  1.3631900000D-01 Coefficients=  1.0000000000D+00
 D 1 1.00
     Exponent=  8.0000000000D-01 Coefficients=  1.0000000000D+00
 ****
 Ernie: Thresh=  0.10000D-02 Tol=  0.10000D-05 Strict=F.
 There are    35 symmetry adapted cartesian basis functions of A   symmetry.
 There are    34 symmetry adapted basis functions of A   symmetry.
    34 basis functions,    54 primitive gaussians,    35 cartesian basis functions
     5 alpha electrons        5 beta electrons
       nuclear repulsion energy        13.2609939928 Hartrees.
 IExCor=  402 DFT=T Ex+Corr=B3LYP ExCW=0 ScaHFX=  0.200000
 ScaDFX=  0.800000  0.720000  1.000000  0.810000 ScalE2=  1.000000  1.000000
 IRadAn=      5 IRanWt=     -1 IRanGd=            0 ICorTp=0 IEmpDi=141
 NAtoms=    5 NActive=    5 NUniq=    5 SFac= 1.00D+00 NAtFMM=   60 NAOKFM=F Big=F
 Integral buffers will be    131072 words long.
 Raffenetti 2 integral format.
 Two-electron integral symmetry is turned on.
 R6Disp:  Grimme-D3(BJ) Dispersion energy=       -0.0019123037 Hartrees.
 Nuclear repulsion after empirical dispersion term =       13.2590816891 Hartrees.
 ------------------------------------------------------------------------------
 Polarizable Continuum Model (PCM)
 =================================
 Model                : C-PCM.
 Atomic radii         : UFF (Universal Force Field).
 Polarization charges : Total charges.
 Charge compensation  : None.
 Solution method      : On-the-fly selection.
 Cavity type          : Scaled VdW (van der Waals Surface) (Alpha=1.100).
 Cavity algorithm     : GePol (No added spheres)
                        Default sphere list used, NSphG=    5.
                        Lebedev-Laikov grids with approx.  5.0 points / Ang**2.
                        Smoothing algorithm: York/Karplus (Gamma=1.0000).
                        Polarization charges: spherical gaussians, with
                                              point-specific exponents (IZeta= 3).
                        Self-potential: point-specific (ISelfS= 7).
                        Self-field    : sphere-specific E.n sum rule (ISelfD= 2).
 Solvent              : Toluene, Eps=   2.374100 Eps(inf)=   2.238315
 ------------------------------------------------------------------------------
 Spheres list:
 ISph  on   Nord     Re0    Alpha      Xe            Ye            Ze
    1   C      1    1.9255  1.100     -0.006588     -0.009275     -0.005318
    2   H      2    1.4430  1.100     -0.049640      0.504019      0.966514
    3   H      3    1.4430  1.100      0.825498     -0.752462      0.029501
    4   H      4    1.4430  1.100     -0.996021     -0.451407     -0.218033
    5   H      5    1.4430  1.100      0.259693      0.755499     -0.746076
 ------------------------------------------------------------------------------
 GePol: Number of generator spheres                  =       5
 GePol: Total number of spheres                      =       5
 GePol: Number of exposed spheres                    =       5 (100.00%)
 GePol: Number of points                             =     499
 GePol: Average weight of points                     =       0.14
 GePol: Minimum weight of points                     =   0.89D-09
 GePol: Maximum weight of points                     =    0.20577
 GePol: Number of points with low weight             =      18
 GePol: Fraction of low-weight points (<1% of avg)   =       3.61%
 GePol: Cavity surface area                          =     70.132 Ang**2
 GePol: Cavity volume                                =     51.768 Ang**3
 Leave Link  301 at Fri Sep 22 16:33:03 2023, MaxMem=   268435456 cpu:               0.2 elap:               0.1
 (Enter /share/apps/gaussian/g16/l302.exe)
 NPDir=0 NMtPBC=     1 NCelOv=     1 NCel=       1 NClECP=     1 NCelD=      1
         NCelK=      1 NCelE2=     1 NClLst=     1 CellRange=     0.0.
 One-electron integrals computed using PRISM.
 One-electron integral symmetry used in STVInt
 NBasis=    34 RedAO= T EigKep=  2.86D-02  NBF=    34
 NBsUse=    34 1.00D-06 EigRej= -1.00D+00 NBFU=    34
 Precomputing XC quadrature grid using
 IXCGrd= 4 IRadAn=           5 IRanWt=          -1 IRanGd=           0 AccXCQ= 0.00D+00.
 Generated NRdTot=       0 NPtTot=           0 NUsed=           0 NTot=          32
 NSgBfM=    35    35    35    35    35 MxSgAt=     5 MxSgA2=     5.
 Leave Link  302 at Fri Sep 22 16:33:03 2023, MaxMem=   268435456 cpu:               0.2 elap:               0.1
 (Enter /share/apps/gaussian/g16/l303.exe)
 DipDrv:  MaxL=1.
 Leave Link  303 at Fri Sep 22 16:33:03 2023, MaxMem=   268435456 cpu:               0.1 elap:               0.0
 (Enter /share/apps/gaussian/g16/l401.exe)
 ExpMin= 1.06D-01 ExpMax= 1.24D+03 ExpMxC= 1.87D+02 IAcc=3 IRadAn=         5 AccDes= 0.00D+00
 Harris functional with IExCor=  402 and IRadAn=       5 diagonalized for initial guess.
 HarFok:  IExCor=  402 AccDes= 0.00D+00 IRadAn=         5 IDoV= 1 UseB2=F ITyADJ=14
 ICtDFT=  3500011 ScaDFX=  1.000000  1.000000  1.000000  1.000000
 FoFCou: FMM=F IPFlag=           0 FMFlag=      100000 FMFlg1=           0
         NFxFlg=           0 DoJE=T BraDBF=F KetDBF=T FulRan=T
         wScrn=  0.000000 ICntrl=       500 IOpCl=  0 I1Cent=   200000004 NGrid=           0
         NMat0=    1 NMatS0=      1 NMatT0=    0 NMatD0=    1 NMtDS0=    0 NMtDT0=    0
 Petite list used in FoFCou.
 Harris En= -40.5487629118634    
 JPrj=0 DoOrth=F DoCkMO=F.
 Leave Link  401 at Fri Sep 22 16:33:04 2023, MaxMem=   268435456 cpu:               0.6 elap:               0.3
 (Enter /share/apps/gaussian/g16/l502.exe)
 Keep R1 ints in memory in canonical form, NReq=1903191.
 FoFCou: FMM=F IPFlag=           0 FMFlag=           0 FMFlg1=           0
         NFxFlg=           0 DoJE=F BraDBF=F KetDBF=F FulRan=T
         wScrn=  0.000000 ICntrl=       600 IOpCl=  0 I1Cent=           0 NGrid=           0
         NMat0=    1 NMatS0=    595 NMatT0=    0 NMatD0=    1 NMtDS0=    0 NMtDT0=    0
 Symmetry not used in FoFCou.
 Two-electron integral symmetry not used.
 Closed shell SCF:
 Using DIIS extrapolation, IDIIS=  1040.
 NGot=   268435456 LenX=   268254897 LenY=   268253231
 Requested convergence on RMS density matrix=1.00D-08 within 128 cycles.
 Requested convergence on MAX density matrix=1.00D-06.
 Requested convergence on             energy=1.00D-06.
 No special actions if energy rises.

 Cycle   1  Pass 1  IDiag  1:
 Inv3:  Mode=1 IEnd=      747003.
 Iteration    1 A*A^-1 deviation from unit magnitude is 2.66D-15 for    480.
 Iteration    1 A*A^-1 deviation from orthogonality  is 2.36D-15 for    479    211.
 Iteration    1 A^-1*A deviation from unit magnitude is 2.66D-15 for    480.
 Iteration    1 A^-1*A deviation from orthogonality  is 1.14D-15 for    476    299.
 E= -40.4278729887589    
 DIIS: error= 4.63D-02 at cycle   1 NSaved=   1.
 NSaved= 1 IEnMin= 1 EnMin= -40.4278729887589     IErMin= 1 ErrMin= 4.63D-02
 ErrMax= 4.63D-02  0.00D+00 EMaxC= 1.00D-01 BMatC= 7.57D-02 BMatP= 7.57D-02
 IDIUse=3 WtCom= 5.37D-01 WtEn= 4.63D-01
 Coeff-Com:  0.100D+01
 Coeff-En:   0.100D+01
 Coeff:      0.100D+01
 Gap=     0.358 Goal=   None    Shift=    0.000
 GapD=    0.358 DampG=1.000 DampE=0.500 DampFc=0.5000 IDamp=-1.
 Damping current iteration by 5.00D-01
 RMSDP=1.45D-02 MaxDP=1.48D-01              OVMax= 1.97D-01

 Cycle   2  Pass 1  IDiag  1:
 E= -40.4661586196722     Delta-E=       -0.038285630913 Rises=F Damp=T
 DIIS: error= 8.13D-03 at cycle   2 NSaved=   2.
 NSaved= 2 IEnMin= 2 EnMin= -40.4661586196722     IErMin= 2 ErrMin= 8.13D-03
 ErrMax= 8.13D-03  0.00D+00 EMaxC= 1.00D-01 BMatC= 1.31D-03 BMatP= 7.57D-02
 IDIUse=3 WtCom= 9.19D-01 WtEn= 8.13D-02
 Coeff-Com:  0.868D-01 0.913D+00
 Coeff-En:   0.142D+00 0.858D+00
 Coeff:      0.914D-01 0.909D+00
 Gap=     0.434 Goal=   None    Shift=    0.000
 RMSDP=1.35D-03 MaxDP=1.14D-02 DE=-3.83D-02 OVMax= 1.04D-01

 Cycle   3  Pass 1  IDiag  1:
 E= -40.5131389211033     Delta-E=       -0.046980301431 Rises=F Damp=F
 DIIS: error= 5.61D-04 at cycle   3 NSaved=   3.
 NSaved= 3 IEnMin= 3 EnMin= -40.5131389211033     IErMin= 3 ErrMin= 5.61D-04
 ErrMax= 5.61D-04  0.00D+00 EMaxC= 1.00D-01 BMatC= 1.12D-05 BMatP= 1.31D-03
 IDIUse=3 WtCom= 9.94D-01 WtEn= 5.61D-03
 Coeff-Com:  0.691D-02-0.448D-01 0.104D+01
 Coeff-En:   0.000D+00 0.000D+00 0.100D+01
 Coeff:      0.687D-02-0.446D-01 0.104D+01
 Gap=     0.442 Goal=   None    Shift=    0.000
 RMSDP=8.73D-05 MaxDP=8.51D-04 DE=-4.70D-02 OVMax= 1.14D-03

 Cycle   4  Pass 1  IDiag  1:
 E= -40.5131489449760     Delta-E=       -0.000010023873 Rises=F Damp=F
 DIIS: error= 1.12D-04 at cycle   4 NSaved=   4.
 NSaved= 4 IEnMin= 4 EnMin= -40.5131489449760     IErMin= 4 ErrMin= 1.12D-04
 ErrMax= 1.12D-04  0.00D+00 EMaxC= 1.00D-01 BMatC= 2.34D-07 BMatP= 1.12D-05
 IDIUse=3 WtCom= 9.99D-01 WtEn= 1.12D-03
 Coeff-Com:  0.207D-02-0.123D-01 0.255D+00 0.755D+00
 Coeff-En:   0.000D+00 0.000D+00 0.000D+00 0.100D+01
 Coeff:      0.207D-02-0.122D-01 0.255D+00 0.755D+00
 Gap=     0.442 Goal=   None    Shift=    0.000
 RMSDP=1.34D-05 MaxDP=1.26D-04 DE=-1.00D-05 OVMax= 1.94D-04

 Cycle   5  Pass 1  IDiag  1:
 E= -40.5131492016547     Delta-E=       -0.000000256679 Rises=F Damp=F
 DIIS: error= 8.85D-06 at cycle   5 NSaved=   5.
 NSaved= 5 IEnMin= 5 EnMin= -40.5131492016547     IErMin= 5 ErrMin= 8.85D-06
 ErrMax= 8.85D-06  0.00D+00 EMaxC= 1.00D-01 BMatC= 2.04D-09 BMatP= 2.34D-07
 IDIUse=1 WtCom= 1.00D+00 WtEn= 0.00D+00
 Coeff-Com:  0.181D-03 0.978D-04 0.258D-02 0.563D-01 0.941D+00
 Coeff:      0.181D-03 0.978D-04 0.258D-02 0.563D-01 0.941D+00
 Gap=     0.442 Goal=   None    Shift=    0.000
 RMSDP=1.61D-06 MaxDP=1.53D-05 DE=-2.57D-07 OVMax= 2.12D-05

 Cycle   6  Pass 1  IDiag  1:
 E= -40.5131492042367     Delta-E=       -0.000000002582 Rises=F Damp=F
 DIIS: error= 7.76D-07 at cycle   6 NSaved=   6.
 NSaved= 6 IEnMin= 6 EnMin= -40.5131492042367     IErMin= 6 ErrMin= 7.76D-07
 ErrMax= 7.76D-07  0.00D+00 EMaxC= 1.00D-01 BMatC= 1.20D-11 BMatP= 2.04D-09
 IDIUse=1 WtCom= 1.00D+00 WtEn= 0.00D+00
 Coeff-Com: -0.105D-04 0.503D-04-0.125D-02-0.180D-02 0.689D-01 0.934D+00
 Coeff:     -0.105D-04 0.503D-04-0.125D-02-0.180D-02 0.689D-01 0.934D+00
 Gap=     0.442 Goal=   None    Shift=    0.000
 RMSDP=1.23D-07 MaxDP=1.34D-06 DE=-2.58D-09 OVMax= 1.58D-06

 Cycle   7  Pass 1  IDiag  1:
 E= -40.5131492042540     Delta-E=       -0.000000000017 Rises=F Damp=F
 DIIS: error= 1.95D-08 at cycle   7 NSaved=   7.
 NSaved= 7 IEnMin= 7 EnMin= -40.5131492042540     IErMin= 7 ErrMin= 1.95D-08
 ErrMax= 1.95D-08  0.00D+00 EMaxC= 1.00D-01 BMatC= 1.45D-14 BMatP= 1.20D-11
 IDIUse=1 WtCom= 1.00D+00 WtEn= 0.00D+00
 Coeff-Com: -0.550D-06 0.787D-06-0.659D-04 0.647D-05 0.333D-02 0.385D-01
 Coeff-Com:  0.958D+00
 Coeff:     -0.550D-06 0.787D-06-0.659D-04 0.647D-05 0.333D-02 0.385D-01
 Coeff:      0.958D+00
 Gap=     0.442 Goal=   None    Shift=    0.000
 RMSDP=5.40D-09 MaxDP=8.48D-08 DE=-1.72D-11 OVMax= 6.64D-08

 Error on total polarization charges =  0.00450
 SCF Done:  E(RB3LYP) =  -40.5131492043     A.U. after    7 cycles
            NFock=  7  Conv=0.54D-08     -V/T= 2.0102
 KE= 4.010490558999D+01 PE=-1.195760123859D+02 EE= 2.569887590256D+01
 Leave Link  502 at Fri Sep 22 16:33:06 2023, MaxMem=   268435456 cpu:               3.9 elap:               2.0
 (Enter /share/apps/gaussian/g16/l601.exe)
 Copying SCF densities to generalized density rwf, IOpCl= 0 IROHF=0.

 **********************************************************************

            Population analysis using the SCF density.

 **********************************************************************

 Orbital symmetries:
       Occupied  (A) (A) (A) (A) (A)
       Virtual   (A) (A) (A) (A) (A) (A) (A) (A) (A) (A) (A) (A)
                 (A) (A) (A) (A) (A) (A) (A) (A) (A) (A) (A) (A)
                 (A) (A) (A) (A) (A)
 The electronic state is 1-A.
 Alpha  occ. eigenvalues --  -10.16597  -0.69149  -0.39922  -0.38833  -0.38677
 Alpha virt. eigenvalues --    0.05558   0.12278   0.12423   0.12542   0.36984
 Alpha virt. eigenvalues --    0.37250   0.38830   0.62808   0.63358   0.63695
 Alpha virt. eigenvalues --    0.66991   0.96084   1.28676   1.29368   1.82350
 Alpha virt. eigenvalues --    1.84851   1.86713   1.87833   1.88574   1.90975
 Alpha virt. eigenvalues --    2.36332   2.40197   2.45149   2.72788   2.74581
 Alpha virt. eigenvalues --    2.90611   3.16225   3.20001   3.21146
          Condensed to atoms (all electrons):
               1          2          3          4          5
     1  C    4.752707   0.401525   0.400223   0.402599   0.402359
     2  H    0.401525   0.581132  -0.021736  -0.022183  -0.023094
     3  H    0.400223  -0.021736   0.569584  -0.017840  -0.022824
     4  H    0.402599  -0.022183  -0.017840   0.561046  -0.019708
     5  H    0.402359  -0.023094  -0.022824  -0.019708   0.576887
 Mulliken charges:
               1
     1  C   -0.359414
     2  H    0.084356
     3  H    0.092593
     4  H    0.096086
     5  H    0.086379
 Sum of Mulliken charges =  -0.00000
 Mulliken charges with hydrogens summed into heavy atoms:
               1
     1  C   -0.000000
 Electronic spatial extent (au):  <R**2>=             36.3269
 Charge=             -0.0000 electrons
 Dipole moment (field-independent basis, Debye):
    X=              0.0185    Y=              0.0550    Z=              0.0217  Tot=              0.0619
 Quadrupole moment (field-independent basis, Debye-Ang):
   XX=             -8.2867   YY=             -8.5282   ZZ=             -8.6144
   XY=              0.0244   XZ=              0.0039   YZ=             -0.0043
 Traceless Quadrupole moment (field-independent basis, Debye-Ang):
   XX=              0.1897   YY=             -0.0518   ZZ=             -0.1379
   XY=              0.0244   XZ=              0.0039   YZ=             -0.0043
 Octapole moment (field-independent basis, Debye-Ang**2):
  XXX=             -0.2842  YYY=              0.1854  ZZZ=              0.3191  XYY=              0.2644
  XXY=             -0.5754  XXZ=             -0.1515  XZZ=              0.0434  YZZ=              0.5665
  YYZ=             -0.1141  XYZ=             -0.1861
 Hexadecapole moment (field-independent basis, Debye-Ang**3):
 XXXX=            -16.4534 YYYY=            -16.9521 ZZZZ=            -16.3316 XXXY=              0.0891
 XXXZ=              0.2443 YYYX=             -0.1066 YYYZ=             -0.2181 ZZZX=             -0.1490
 ZZZY=              0.1532 XXYY=             -5.2894 XXZZ=             -5.8543 YYZZ=             -5.2817
 XXYZ=              0.0420 YYXZ=             -0.0717 ZZXY=              0.1356
 N-N= 1.325908168907D+01 E-N=-1.195760121999D+02  KE= 4.010490558999D+01
 There are a total of      109428 grid points.
 ElSum from          density=        9.9999999426
 ElSum from atomic densities=        9.9999999071
 Hirshfeld populations at iteration   1 (CA, CB, DipXYZ):
               1          2          3          4          5
     1  C    3.060483   3.060483  -0.004534  -0.004350  -0.002933
     2  H    0.486147   0.486147  -0.004302   0.067273   0.119152
     3  H    0.484304   0.484304   0.109222  -0.085645   0.005587
     4  H    0.483429   0.483429  -0.130309  -0.051652  -0.023857
     5  H    0.485637   0.485637   0.037594   0.099397  -0.088828
       Tot   5.000000   5.000000   0.007671   0.025023   0.009121

 Dip from Atomic Chgs             -0.000405  -0.003388  -0.000584
         Total Dipole              0.007266   0.021635   0.008538

 Hirshfeld charges, spin densities, dipoles, and CM5 charges using IRadAn=      5:
              Q-H        S-H        Dx         Dy         Dz        Q-CM5   
     1  C   -0.120967   0.000000  -0.004534  -0.004350  -0.002933  -0.305367
     2  H    0.027707   0.000000  -0.004302   0.067273   0.119152   0.074328
     3  H    0.031392   0.000000   0.109222  -0.085645   0.005587   0.076170
     4  H    0.033142   0.000000  -0.130309  -0.051652  -0.023857   0.079246
     5  H    0.028726   0.000000   0.037594   0.099397  -0.088828   0.075624
       Tot   0.000000   0.000000   0.007671   0.025023   0.009121   0.000000
 Hirshfeld charges with hydrogens summed into heavy atoms:
              Q-H       Q-CM5   
     1  C    0.000000   0.000000
 
 EQQ= 0.000000000000E+00 EQD= 0.000000000000E+00 EDD=-0.976186212365E-03
 EQQ+QD+DD=-0.976186212365E-03
 
 No NMR shielding tensors so no spin-rotation constants.
 Leave Link  601 at Fri Sep 22 16:33:06 2023, MaxMem=   268435456 cpu:               0.5 elap:               0.2
 (Enter /share/apps/gaussian/g16/l9999.exe)
 1\1\GINC-NODE99\SP\RB3LYP\Gen\C1H4\YANZ\22-Sep-2023\0\\#p b3lyp/gen sc
 rf=(cpcm,solvent=toluene) pop=hirshfeld empiricaldispersion=gd3bj\\tmp
 dir/M2_conf_0_67.gjf\\0,1\C,0,0.,0.,0.\H,0,1.0999,0.,0.\H,0,-0.34863,0
 .,-1.06036\H,0,-0.35555,-0.86295,0.59043\H,0,-0.30803,0.95117,0.45266\
 \Version=ES64L-G16RevA.03\State=1-A\HF=-40.5131492\RMSD=5.396e-09\Dipo
 le=0.0173554,0.0167474,0.0034752\Quadrupole=-0.0917491,0.0427122,0.049
 0369,0.0197941,0.0137633,-0.0968973\PG=C01 [X(C1H4)]\\@


 TRUTH, IN SCIENCE, CAN BE DEFINED AS THE WORKING HYPOTHESIS 
 BEST FITTED TO OPEN THE WAY TO THE NEXT BETTER ONE.

                              -- KONRAD LORENZ
 Job cpu time:       0 days  0 hours  0 minutes  5.9 seconds.
 Elapsed time:       0 days  0 hours  0 minutes  3.0 seconds.
 File lengths (MBytes):  RWF=      6 Int=      0 D2E=      0 Chk=      1 Scr=      1
 Normal termination of Gaussian 16 at Fri Sep 22 16:33:06 2023.
