 Entering Gaussian System, Link 0=g16
 Initial command:
 /share/apps/gaussian/g16/l1.exe "/tmp/55556.mgr/Gau-85966.inp" -scrdir="/tmp/55556.mgr/"
 Entering Link 1 = /share/apps/gaussian/g16/l1.exe PID=     85967.
  
 Copyright (c) 1988,1990,1992,1993,1995,1998,2003,2009,2016,
            Gaussian, Inc.  All Rights Reserved.
  
 This is part of the Gaussian(R) 16 program.  It is based on
 the Gaussian(R) 09 system (copyright 2009, Gaussian, Inc.),
 the Gaussian(R) 03 system (copyright 2003, Gaussian, Inc.),
 the Gaussian(R) 98 system (copyright 1998, Gaussian, Inc.),
 the Gaussian(R) 94 system (copyright 1995, Gaussian, Inc.),
 the Gaussian 92(TM) system (copyright 1992, Gaussian, Inc.),
 the Gaussian 90(TM) system (copyright 1990, Gaussian, Inc.),
 the Gaussian 88(TM) system (copyright 1988, Gaussian, Inc.),
 the Gaussian 86(TM) system (copyright 1986, Carnegie Mellon
 University), and the Gaussian 82(TM) system (copyright 1983,
 Carnegie Mellon University). Gaussian is a federally registered
 trademark of Gaussian, Inc.
  
 This software contains proprietary and confidential information,
 including trade secrets, belonging to Gaussian, Inc.
  
 This software is provided under written license and may be
 used, copied, transmitted, or stored only in accord with that
 written license.
  
 The following legend is applicable only to US Government
 contracts under FAR:
  
                    RESTRICTED RIGHTS LEGEND
  
 Use, reproduction and disclosure by the US Government is
 subject to restrictions as set forth in subparagraphs (a)
 and (c) of the Commercial Computer Software - Restricted
 Rights clause in FAR 52.227-19.
  
 Gaussian, Inc.
 340 Quinnipiac St., Bldg. 40, Wallingford CT 06492
  
  
 ---------------------------------------------------------------
 Warning -- This program may not be used in any manner that
 competes with the business of Gaussian, Inc. or will provide
 assistance to any competitor of Gaussian, Inc.  The licensee
 of this program is prohibited from giving any competitor of
 Gaussian, Inc. access to this program.  By using this program,
 the user acknowledges that Gaussian, Inc. is engaged in the
 business of creating and licensing software in the field of
 computational chemistry and represents and warrants to the
 licensee that it is not a competitor of Gaussian, Inc. and that
 it will not use this program in any manner prohibited above.
 ---------------------------------------------------------------
  

 Cite this work as:
 Gaussian 16, Revision A.03,
 M. J. Frisch, G. W. Trucks, H. B. Schlegel, G. E. Scuseria, 
 M. A. Robb, J. R. Cheeseman, G. Scalmani, V. Barone, 
 G. A. Petersson, H. Nakatsuji, X. Li, M. Caricato, A. V. Marenich, 
 J. Bloino, B. G. Janesko, R. Gomperts, B. Mennucci, H. P. Hratchian, 
 J. V. Ortiz, A. F. Izmaylov, J. L. Sonnenberg, D. Williams-Young, 
 F. Ding, F. Lipparini, F. Egidi, J. Goings, B. Peng, A. Petrone, 
 T. Henderson, D. Ranasinghe, V. G. Zakrzewski, J. Gao, N. Rega, 
 G. Zheng, W. Liang, M. Hada, M. Ehara, K. Toyota, R. Fukuda, 
 J. Hasegawa, M. Ishida, T. Nakajima, Y. Honda, O. Kitao, H. Nakai, 
 T. Vreven, K. Throssell, J. A. Montgomery, Jr., J. E. Peralta, 
 F. Ogliaro, M. J. Bearpark, J. J. Heyd, E. N. Brothers, K. N. Kudin, 
 V. N. Staroverov, T. A. Keith, R. Kobayashi, J. Normand, 
 K. Raghavachari, A. P. Rendell, J. C. Burant, S. S. Iyengar, 
 J. Tomasi, M. Cossi, J. M. Millam, M. Klene, C. Adamo, R. Cammi, 
 J. W. Ochterski, R. L. Martin, K. Morokuma, O. Farkas, 
 J. B. Foresman, and D. J. Fox, Gaussian, Inc., Wallingford CT, 2016.
 
 ******************************************
 Gaussian 16:  ES64L-G16RevA.03 25-Dec-2016
                22-Sep-2023 
 ******************************************
 %nprocshared=2
 Will use up to    2 processors via shared memory.
 %mem=2GB
 ----------------------------------------------------------------------
 #p b3lyp/gen scrf=(cpcm,solvent=toluene) pop=hirshfeld empiricaldisper
 sion=gd3bj
 ----------------------------------------------------------------------
 1/38=1,172=1/1;
 2/12=2,17=6,18=5,40=1/2;
 3/5=7,11=2,25=1,30=1,70=2101,72=13,74=-5,124=41/1,2,3;
 4//1;
 5/5=2,38=5,53=13/2;
 6/7=2,8=2,9=2,10=2,28=1,79=1/1;
 99/5=1,9=1/99;
 Leave Link    1 at Fri Sep 22 16:34:43 2023, MaxMem=   268435456 cpu:               0.1 elap:               0.0
 (Enter /share/apps/gaussian/g16/l101.exe)
 ------------------------
 tmpdir/M2_conf_0_261.gjf
 ------------------------
 Symbolic Z-matrix:
 Charge =  0 Multiplicity = 1
 H                     0.        0.        0. 
 C                     1.0952    0.        0. 
 H                     1.42499   0.        1.04531 
 H                     1.43301  -0.86227  -0.55761 
 H                     1.4341    0.93368  -0.46633 
 
 ITRead=  0  0  0  0  0
 MicOpt= -1 -1 -1 -1 -1
 NAtoms=      5 NQM=        5 NQMF=       0 NMMI=      0 NMMIF=      0
                NMic=       0 NMicF=      0.
                    Isotopes and Nuclear Properties:
 (Nuclear quadrupole moments (NQMom) in fm**2, nuclear magnetic moments (NMagM)
  in nuclear magnetons)

  Atom         1           2           3           4           5
 IAtWgt=           1          12           1           1           1
 AtmWgt=   1.0078250  12.0000000   1.0078250   1.0078250   1.0078250
 NucSpn=           1           0           1           1           1
 AtZEff=  -0.0000000  -0.0000000  -0.0000000  -0.0000000  -0.0000000
 NQMom=    0.0000000   0.0000000   0.0000000   0.0000000   0.0000000
 NMagM=    2.7928460   0.0000000   2.7928460   2.7928460   2.7928460
 AtZNuc=   1.0000000   6.0000000   1.0000000   1.0000000   1.0000000
 Leave Link  101 at Fri Sep 22 16:34:43 2023, MaxMem=   268435456 cpu:               0.2 elap:               0.1
 (Enter /share/apps/gaussian/g16/l202.exe)
                          Input orientation:                          
 ---------------------------------------------------------------------
 Center     Atomic      Atomic             Coordinates (Angstroms)
 Number     Number       Type             X           Y           Z
 ---------------------------------------------------------------------
      1          1           0        0.000000    0.000000    0.000000
      2          6           0        1.095200    0.000000    0.000000
      3          1           0        1.424990    0.000000    1.045310
      4          1           0        1.433010   -0.862270   -0.557610
      5          1           0        1.434100    0.933680   -0.466330
 ---------------------------------------------------------------------
                    Distance matrix (angstroms):
                    1          2          3          4          5
     1  H    0.000000
     2  C    1.095200   0.000000
     3  H    1.767277   1.096100   0.000000
     4  H    1.762940   1.080997   1.820145   0.000000
     5  H    1.773659   1.097304   1.776766   1.798269   0.000000
 Stoichiometry    CH4
 Framework group  C1[X(CH4)]
 Deg. of freedom     9
 Full point group                 C1      NOp   1
 Largest Abelian subgroup         C1      NOp   1
 Largest concise Abelian subgroup C1      NOp   1
                         Standard orientation:                         
 ---------------------------------------------------------------------
 Center     Atomic      Atomic             Coordinates (Angstroms)
 Number     Number       Type             X           Y           Z
 ---------------------------------------------------------------------
      1          1           0       -0.148835   -0.419296    0.991064
      2          6           0       -0.005319    0.000429   -0.010284
      3          1           0        0.775260   -0.588244   -0.505858
      4          1           0       -0.955040   -0.023814   -0.526033
      5          1           0        0.360532    1.028778    0.102530
 ---------------------------------------------------------------------
 Rotational constants (GHZ):         161.3878067         157.1029156         154.4681749
 Leave Link  202 at Fri Sep 22 16:34:43 2023, MaxMem=   268435456 cpu:               0.0 elap:               0.0
 (Enter /share/apps/gaussian/g16/l301.exe)
 General basis read from cards:  (5D, 7F)
 Centers:       1      3      4      5
 S 3 1.00
     Exponent=  1.2251800000D+01 Coefficients=  2.3337100000D-02
     Exponent=  1.8687100000D+00 Coefficients=  1.5915000000D-01
     Exponent=  4.1820800000D-01 Coefficients=  5.0000000000D-01
 S 1 1.00
     Exponent=  1.0610000000D-01 Coefficients=  1.0000000000D+00
 P 1 1.00
     Exponent=  1.0000000000D+00 Coefficients=  1.0000000000D+00
 ****
 Centers:       2
 S 5 1.00
     Exponent=  1.2432000000D+03 Coefficients=  6.0336600000D-03
     Exponent=  1.8714500000D+02 Coefficients=  4.4957600000D-02
     Exponent=  4.2512600000D+01 Coefficients=  1.9790100000D-01
     Exponent=  1.1739300000D+01 Coefficients=  5.0000000000D-01
     Exponent=  3.5054800000D+00 Coefficients=  4.8036400000D-01
 S 2 1.00
     Exponent=  5.3908900000D+00 Coefficients= -7.0398000000D-02
     Exponent=  4.9334100000D-01 Coefficients=  5.0000000000D-01
 S 1 1.00
     Exponent=  1.4974100000D-01 Coefficients=  1.0000000000D+00
 P 3 1.00
     Exponent=  9.1805600000D+00 Coefficients=  4.3170100000D-02
     Exponent=  1.9365800000D+00 Coefficients=  2.2499900000D-01
     Exponent=  5.2629600000D-01 Coefficients=  5.0000000000D-01
 P 1 1.00
     Exponent=  1.3631900000D-01 Coefficients=  1.0000000000D+00
 D 1 1.00
     Exponent=  8.0000000000D-01 Coefficients=  1.0000000000D+00
 ****
 Ernie: Thresh=  0.10000D-02 Tol=  0.10000D-05 Strict=F.
 There are    35 symmetry adapted cartesian basis functions of A   symmetry.
 There are    34 symmetry adapted basis functions of A   symmetry.
    34 basis functions,    54 primitive gaussians,    35 cartesian basis functions
     5 alpha electrons        5 beta electrons
       nuclear repulsion energy        13.4072277233 Hartrees.
 IExCor=  402 DFT=T Ex+Corr=B3LYP ExCW=0 ScaHFX=  0.200000
 ScaDFX=  0.800000  0.720000  1.000000  0.810000 ScalE2=  1.000000  1.000000
 IRadAn=      5 IRanWt=     -1 IRanGd=            0 ICorTp=0 IEmpDi=141
 NAtoms=    5 NActive=    5 NUniq=    5 SFac= 1.00D+00 NAtFMM=   60 NAOKFM=F Big=F
 Integral buffers will be    131072 words long.
 Raffenetti 2 integral format.
 Two-electron integral symmetry is turned on.
 R6Disp:  Grimme-D3(BJ) Dispersion energy=       -0.0019132856 Hartrees.
 Nuclear repulsion after empirical dispersion term =       13.4053144377 Hartrees.
 ------------------------------------------------------------------------------
 Polarizable Continuum Model (PCM)
 =================================
 Model                : C-PCM.
 Atomic radii         : UFF (Universal Force Field).
 Polarization charges : Total charges.
 Charge compensation  : None.
 Solution method      : On-the-fly selection.
 Cavity type          : Scaled VdW (van der Waals Surface) (Alpha=1.100).
 Cavity algorithm     : GePol (No added spheres)
                        Default sphere list used, NSphG=    5.
                        Lebedev-Laikov grids with approx.  5.0 points / Ang**2.
                        Smoothing algorithm: York/Karplus (Gamma=1.0000).
                        Polarization charges: spherical gaussians, with
                                              point-specific exponents (IZeta= 3).
                        Self-potential: point-specific (ISelfS= 7).
                        Self-field    : sphere-specific E.n sum rule (ISelfD= 2).
 Solvent              : Toluene, Eps=   2.374100 Eps(inf)=   2.238315
 ------------------------------------------------------------------------------
 Spheres list:
 ISph  on   Nord     Re0    Alpha      Xe            Ye            Ze
    1   H      1    1.4430  1.100     -0.148835     -0.419296      0.991064
    2   C      2    1.9255  1.100     -0.005319      0.000429     -0.010284
    3   H      3    1.4430  1.100      0.775260     -0.588244     -0.505858
    4   H      4    1.4430  1.100     -0.955040     -0.023814     -0.526033
    5   H      5    1.4430  1.100      0.360532      1.028778      0.102530
 ------------------------------------------------------------------------------
 GePol: Number of generator spheres                  =       5
 GePol: Total number of spheres                      =       5
 GePol: Number of exposed spheres                    =       5 (100.00%)
 GePol: Number of points                             =     493
 GePol: Average weight of points                     =       0.14
 GePol: Minimum weight of points                     =   0.33D-06
 GePol: Maximum weight of points                     =    0.20577
 GePol: Number of points with low weight             =      21
 GePol: Fraction of low-weight points (<1% of avg)   =       4.26%
 GePol: Cavity surface area                          =     69.729 Ang**2
 GePol: Cavity volume                                =     51.433 Ang**3
 Leave Link  301 at Fri Sep 22 16:34:43 2023, MaxMem=   268435456 cpu:               0.2 elap:               0.1
 (Enter /share/apps/gaussian/g16/l302.exe)
 NPDir=0 NMtPBC=     1 NCelOv=     1 NCel=       1 NClECP=     1 NCelD=      1
         NCelK=      1 NCelE2=     1 NClLst=     1 CellRange=     0.0.
 One-electron integrals computed using PRISM.
 One-electron integral symmetry used in STVInt
 NBasis=    34 RedAO= T EigKep=  2.81D-02  NBF=    34
 NBsUse=    34 1.00D-06 EigRej= -1.00D+00 NBFU=    34
 Precomputing XC quadrature grid using
 IXCGrd= 4 IRadAn=           5 IRanWt=          -1 IRanGd=           0 AccXCQ= 0.00D+00.
 Generated NRdTot=       0 NPtTot=           0 NUsed=           0 NTot=          32
 NSgBfM=    35    35    35    35    35 MxSgAt=     5 MxSgA2=     5.
 Leave Link  302 at Fri Sep 22 16:34:43 2023, MaxMem=   268435456 cpu:               0.2 elap:               0.1
 (Enter /share/apps/gaussian/g16/l303.exe)
 DipDrv:  MaxL=1.
 Leave Link  303 at Fri Sep 22 16:34:43 2023, MaxMem=   268435456 cpu:               0.1 elap:               0.0
 (Enter /share/apps/gaussian/g16/l401.exe)
 ExpMin= 1.06D-01 ExpMax= 1.24D+03 ExpMxC= 1.87D+02 IAcc=3 IRadAn=         5 AccDes= 0.00D+00
 Harris functional with IExCor=  402 and IRadAn=       5 diagonalized for initial guess.
 HarFok:  IExCor=  402 AccDes= 0.00D+00 IRadAn=         5 IDoV= 1 UseB2=F ITyADJ=14
 ICtDFT=  3500011 ScaDFX=  1.000000  1.000000  1.000000  1.000000
 FoFCou: FMM=F IPFlag=           0 FMFlag=      100000 FMFlg1=           0
         NFxFlg=           0 DoJE=T BraDBF=F KetDBF=T FulRan=T
         wScrn=  0.000000 ICntrl=       500 IOpCl=  0 I1Cent=   200000004 NGrid=           0
         NMat0=    1 NMatS0=      1 NMatT0=    0 NMatD0=    1 NMtDS0=    0 NMtDT0=    0
 Petite list used in FoFCou.
 Harris En= -40.5532328675680    
 JPrj=0 DoOrth=F DoCkMO=F.
 Leave Link  401 at Fri Sep 22 16:34:43 2023, MaxMem=   268435456 cpu:               0.6 elap:               0.3
 (Enter /share/apps/gaussian/g16/l502.exe)
 Keep R1 ints in memory in canonical form, NReq=1903191.
 FoFCou: FMM=F IPFlag=           0 FMFlag=           0 FMFlg1=           0
         NFxFlg=           0 DoJE=F BraDBF=F KetDBF=F FulRan=T
         wScrn=  0.000000 ICntrl=       600 IOpCl=  0 I1Cent=           0 NGrid=           0
         NMat0=    1 NMatS0=    595 NMatT0=    0 NMatD0=    1 NMtDS0=    0 NMtDT0=    0
 Symmetry not used in FoFCou.
 Two-electron integral symmetry not used.
 Closed shell SCF:
 Using DIIS extrapolation, IDIIS=  1040.
 NGot=   268435456 LenX=   268254897 LenY=   268253231
 Requested convergence on RMS density matrix=1.00D-08 within 128 cycles.
 Requested convergence on MAX density matrix=1.00D-06.
 Requested convergence on             energy=1.00D-06.
 No special actions if energy rises.

 Cycle   1  Pass 1  IDiag  1:
 Inv3:  Mode=1 IEnd=      729147.
 Iteration    1 A*A^-1 deviation from unit magnitude is 2.22D-15 for     62.
 Iteration    1 A*A^-1 deviation from orthogonality  is 1.03D-15 for    469    296.
 Iteration    1 A^-1*A deviation from unit magnitude is 2.22D-15 for    473.
 Iteration    1 A^-1*A deviation from orthogonality  is 8.31D-16 for    367    209.
 E= -40.4244056509813    
 DIIS: error= 4.74D-02 at cycle   1 NSaved=   1.
 NSaved= 1 IEnMin= 1 EnMin= -40.4244056509813     IErMin= 1 ErrMin= 4.74D-02
 ErrMax= 4.74D-02  0.00D+00 EMaxC= 1.00D-01 BMatC= 7.96D-02 BMatP= 7.96D-02
 IDIUse=3 WtCom= 5.26D-01 WtEn= 4.74D-01
 Coeff-Com:  0.100D+01
 Coeff-En:   0.100D+01
 Coeff:      0.100D+01
 Gap=     0.357 Goal=   None    Shift=    0.000
 GapD=    0.357 DampG=1.000 DampE=0.500 DampFc=0.5000 IDamp=-1.
 Damping current iteration by 5.00D-01
 RMSDP=1.47D-02 MaxDP=1.52D-01              OVMax= 2.01D-01

 Cycle   2  Pass 1  IDiag  1:
 E= -40.4648402770004     Delta-E=       -0.040434626019 Rises=F Damp=T
 DIIS: error= 8.10D-03 at cycle   2 NSaved=   2.
 NSaved= 2 IEnMin= 2 EnMin= -40.4648402770004     IErMin= 2 ErrMin= 8.10D-03
 ErrMax= 8.10D-03  0.00D+00 EMaxC= 1.00D-01 BMatC= 1.23D-03 BMatP= 7.96D-02
 IDIUse=3 WtCom= 9.19D-01 WtEn= 8.10D-02
 Coeff-Com:  0.802D-01 0.920D+00
 Coeff-En:   0.132D+00 0.868D+00
 Coeff:      0.843D-01 0.916D+00
 Gap=     0.437 Goal=   None    Shift=    0.000
 RMSDP=1.38D-03 MaxDP=1.18D-02 DE=-4.04D-02 OVMax= 1.06D-01

 Cycle   3  Pass 1  IDiag  1:
 E= -40.5135701189818     Delta-E=       -0.048729841981 Rises=F Damp=F
 DIIS: error= 4.79D-04 at cycle   3 NSaved=   3.
 NSaved= 3 IEnMin= 3 EnMin= -40.5135701189818     IErMin= 3 ErrMin= 4.79D-04
 ErrMax= 4.79D-04  0.00D+00 EMaxC= 1.00D-01 BMatC= 9.20D-06 BMatP= 1.23D-03
 IDIUse=3 WtCom= 9.95D-01 WtEn= 4.79D-03
 Coeff-Com:  0.560D-02-0.500D-01 0.104D+01
 Coeff-En:   0.000D+00 0.000D+00 0.100D+01
 Coeff:      0.558D-02-0.498D-01 0.104D+01
 Gap=     0.445 Goal=   None    Shift=    0.000
 RMSDP=8.00D-05 MaxDP=7.46D-04 DE=-4.87D-02 OVMax= 9.06D-04

 Cycle   4  Pass 1  IDiag  1:
 E= -40.5135781025045     Delta-E=       -0.000007983523 Rises=F Damp=F
 DIIS: error= 5.97D-05 at cycle   4 NSaved=   4.
 NSaved= 4 IEnMin= 4 EnMin= -40.5135781025045     IErMin= 4 ErrMin= 5.97D-05
 ErrMax= 5.97D-05  0.00D+00 EMaxC= 1.00D-01 BMatC= 1.10D-07 BMatP= 9.20D-06
 IDIUse=1 WtCom= 1.00D+00 WtEn= 0.00D+00
 Coeff-Com:  0.167D-02-0.930D-02 0.201D+00 0.807D+00
 Coeff:      0.167D-02-0.930D-02 0.201D+00 0.807D+00
 Gap=     0.445 Goal=   None    Shift=    0.000
 RMSDP=9.96D-06 MaxDP=8.08D-05 DE=-7.98D-06 OVMax= 1.34D-04

 Cycle   5  Pass 1  IDiag  1:
 E= -40.5135782296413     Delta-E=       -0.000000127137 Rises=F Damp=F
 DIIS: error= 8.02D-06 at cycle   5 NSaved=   5.
 NSaved= 5 IEnMin= 5 EnMin= -40.5135782296413     IErMin= 5 ErrMin= 8.02D-06
 ErrMax= 8.02D-06  0.00D+00 EMaxC= 1.00D-01 BMatC= 1.91D-09 BMatP= 1.10D-07
 IDIUse=1 WtCom= 1.00D+00 WtEn= 0.00D+00
 Coeff-Com:  0.211D-03-0.645D-04 0.663D-02 0.115D+00 0.878D+00
 Coeff:      0.211D-03-0.645D-04 0.663D-02 0.115D+00 0.878D+00
 Gap=     0.445 Goal=   None    Shift=    0.000
 RMSDP=1.48D-06 MaxDP=1.84D-05 DE=-1.27D-07 OVMax= 2.03D-05

 Cycle   6  Pass 1  IDiag  1:
 E= -40.5135782319102     Delta-E=       -0.000000002269 Rises=F Damp=F
 DIIS: error= 7.43D-07 at cycle   6 NSaved=   6.
 NSaved= 6 IEnMin= 6 EnMin= -40.5135782319102     IErMin= 6 ErrMin= 7.43D-07
 ErrMax= 7.43D-07  0.00D+00 EMaxC= 1.00D-01 BMatC= 1.48D-11 BMatP= 1.91D-09
 IDIUse=1 WtCom= 1.00D+00 WtEn= 0.00D+00
 Coeff-Com: -0.119D-04 0.480D-04-0.122D-02-0.218D-02 0.682D-01 0.935D+00
 Coeff:     -0.119D-04 0.480D-04-0.122D-02-0.218D-02 0.682D-01 0.935D+00
 Gap=     0.445 Goal=   None    Shift=    0.000
 RMSDP=1.21D-07 MaxDP=1.67D-06 DE=-2.27D-09 OVMax= 1.85D-06

 Cycle   7  Pass 1  IDiag  1:
 E= -40.5135782319301     Delta-E=       -0.000000000020 Rises=F Damp=F
 DIIS: error= 1.80D-08 at cycle   7 NSaved=   7.
 NSaved= 7 IEnMin= 7 EnMin= -40.5135782319301     IErMin= 7 ErrMin= 1.80D-08
 ErrMax= 1.80D-08  0.00D+00 EMaxC= 1.00D-01 BMatC= 1.29D-14 BMatP= 1.48D-11
 IDIUse=1 WtCom= 1.00D+00 WtEn= 0.00D+00
 Coeff-Com: -0.432D-06 0.990D-06-0.581D-04 0.105D-03 0.245D-02 0.236D-01
 Coeff-Com:  0.974D+00
 Coeff:     -0.432D-06 0.990D-06-0.581D-04 0.105D-03 0.245D-02 0.236D-01
 Coeff:      0.974D+00
 Gap=     0.445 Goal=   None    Shift=    0.000
 RMSDP=4.87D-09 MaxDP=6.17D-08 DE=-2.00D-11 OVMax= 6.69D-08

 Error on total polarization charges =  0.00444
 SCF Done:  E(RB3LYP) =  -40.5135782319     A.U. after    7 cycles
            NFock=  7  Conv=0.49D-08     -V/T= 2.0087
 KE= 4.016561786578D+01 PE=-1.199107146992D+02 EE= 2.582620416376D+01
 Leave Link  502 at Fri Sep 22 16:34:45 2023, MaxMem=   268435456 cpu:               4.0 elap:               2.0
 (Enter /share/apps/gaussian/g16/l601.exe)
 Copying SCF densities to generalized density rwf, IOpCl= 0 IROHF=0.

 **********************************************************************

            Population analysis using the SCF density.

 **********************************************************************

 Orbital symmetries:
       Occupied  (A) (A) (A) (A) (A)
       Virtual   (A) (A) (A) (A) (A) (A) (A) (A) (A) (A) (A) (A)
                 (A) (A) (A) (A) (A) (A) (A) (A) (A) (A) (A) (A)
                 (A) (A) (A) (A) (A)
 The electronic state is 1-A.
 Alpha  occ. eigenvalues --  -10.16117  -0.69494  -0.40193  -0.39075  -0.38766
 Alpha virt. eigenvalues --    0.05755   0.12550   0.12598   0.12781   0.36944
 Alpha virt. eigenvalues --    0.37465   0.38606   0.63686   0.63766   0.64790
 Alpha virt. eigenvalues --    0.68295   0.96221   1.28408   1.29381   1.83945
 Alpha virt. eigenvalues --    1.85739   1.87036   1.89457   1.90191   1.90363
 Alpha virt. eigenvalues --    2.38868   2.42806   2.45608   2.75195   2.77497
 Alpha virt. eigenvalues --    2.94450   3.20230   3.21070   3.23242
          Condensed to atoms (all electrons):
               1          2          3          4          5
     1  H    0.581094   0.402815  -0.022360  -0.022500  -0.021340
     2  C    0.402815   4.730493   0.403686   0.406582   0.403316
     3  H   -0.022360   0.403686   0.571037  -0.018096  -0.022364
     4  H   -0.022500   0.406582  -0.018096   0.563893  -0.019957
     5  H   -0.021340   0.403316  -0.022364  -0.019957   0.573921
 Mulliken charges:
               1
     1  H    0.082292
     2  C   -0.346891
     3  H    0.088097
     4  H    0.090078
     5  H    0.086424
 Sum of Mulliken charges =  -0.00000
 Mulliken charges with hydrogens summed into heavy atoms:
               1
     2  C   -0.000000
 Electronic spatial extent (au):  <R**2>=             35.8661
 Charge=             -0.0000 electrons
 Dipole moment (field-independent basis, Debye):
    X=              0.0086    Y=             -0.0044    Z=              0.0378  Tot=              0.0391
 Quadrupole moment (field-independent basis, Debye-Ang):
   XX=             -8.2905   YY=             -8.4759   ZZ=             -8.5529
   XY=             -0.0033   XZ=              0.0270   YZ=              0.0077
 Traceless Quadrupole moment (field-independent basis, Debye-Ang):
   XX=              0.1493   YY=             -0.0361   ZZ=             -0.1131
   XY=             -0.0033   XZ=              0.0270   YZ=              0.0077
 Octapole moment (field-independent basis, Debye-Ang**2):
  XXX=             -0.2758  YYY=              0.4865  ZZZ=              0.4661  XYY=              0.3976
  XXY=             -0.1717  XXZ=             -0.4742  XZZ=             -0.1352  YZZ=             -0.3297
  YYZ=              0.0889  XYZ=              0.1986
 Hexadecapole moment (field-independent basis, Debye-Ang**3):
 XXXX=            -16.1462 YYYY=            -16.1564 ZZZZ=            -16.1662 XXXY=             -0.2328
 XXXZ=              0.2998 YYYX=              0.2641 YYYZ=              0.1685 ZZZX=             -0.0559
 ZZZY=             -0.3449 XXYY=             -5.4504 XXZZ=             -5.3499 YYZZ=             -5.5210
 XXYZ=              0.2174 YYXZ=             -0.1096 ZZXY=             -0.0487
 N-N= 1.340531443771D+01 E-N=-1.199107144674D+02  KE= 4.016561786578D+01
 There are a total of      109428 grid points.
 ElSum from          density=        9.9999999155
 ElSum from atomic densities=        9.9999998065
 Hirshfeld populations at iteration   1 (CA, CB, DipXYZ):
               1          2          3          4          5
     1  H    0.485700   0.485700  -0.017799  -0.052806   0.124402
     2  C    3.061239   3.061239  -0.004059   0.000037  -0.006238
     3  H    0.484404   0.484404   0.103350  -0.073840  -0.057158
     4  H    0.483829   0.483829  -0.128161  -0.003336  -0.062475
     5  H    0.484827   0.484827   0.048871   0.128096   0.016500
       Tot   5.000000   5.000000   0.002201  -0.001849   0.015031

 Dip from Atomic Chgs              0.001190   0.000105  -0.000145
         Total Dipole              0.003391  -0.001744   0.014886

 Hirshfeld charges, spin densities, dipoles, and CM5 charges using IRadAn=      5:
              Q-H        S-H        Dx         Dy         Dz        Q-CM5   
     1  H    0.028599   0.000000  -0.017799  -0.052806   0.124402   0.075765
     2  C   -0.122478   0.000000  -0.004059   0.000037  -0.006238  -0.312479
     3  H    0.031192   0.000000   0.103350  -0.073840  -0.057158   0.078253
     4  H    0.032342   0.000000  -0.128161  -0.003336  -0.062475   0.081194
     5  H    0.030345   0.000000   0.048871   0.128096   0.016500   0.077266
       Tot   0.000000   0.000000   0.002201  -0.001849   0.015031   0.000000
 Hirshfeld charges with hydrogens summed into heavy atoms:
              Q-H       Q-CM5   
     2  C    0.000000   0.000000
 
 EQQ= 0.000000000000E+00 EQD= 0.000000000000E+00 EDD=-0.101092174298E-02
 EQQ+QD+DD=-0.101092174298E-02
 
 No NMR shielding tensors so no spin-rotation constants.
 Leave Link  601 at Fri Sep 22 16:34:46 2023, MaxMem=   268435456 cpu:               0.5 elap:               0.2
 (Enter /share/apps/gaussian/g16/l9999.exe)
 1\1\GINC-NODE99\SP\RB3LYP\Gen\C1H4\YANZ\22-Sep-2023\0\\#p b3lyp/gen sc
 rf=(cpcm,solvent=toluene) pop=hirshfeld empiricaldispersion=gd3bj\\tmp
 dir/M2_conf_0_261.gjf\\0,1\H,0,0.,0.,0.\C,0,1.0952,0.,0.\H,0,1.42499,0
 .,1.04531\H,0,1.43301,-0.86227,-0.55761\H,0,1.4341,0.93368,-0.46633\\V
 ersion=ES64L-G16RevA.03\State=1-A\HF=-40.5135782\RMSD=4.867e-09\Dipole
 =-0.0138346,0.0066388,0.0008214\Quadrupole=-0.0814032,0.0430902,0.0383
 13,0.0162861,-0.007675,0.0720819\PG=C01 [X(C1H4)]\\@


 YOU ARE IN A MAZE OF TWISTY LITTLE PASSAGES.
 Job cpu time:       0 days  0 hours  0 minutes  6.0 seconds.
 Elapsed time:       0 days  0 hours  0 minutes  3.1 seconds.
 File lengths (MBytes):  RWF=      6 Int=      0 D2E=      0 Chk=      1 Scr=      1
 Normal termination of Gaussian 16 at Fri Sep 22 16:34:46 2023.
