 Entering Gaussian System, Link 0=g16
 Initial command:
 /share/apps/gaussian/g16/l1.exe "/tmp/55556.mgr/Gau-88331.inp" -scrdir="/tmp/55556.mgr/"
 Entering Link 1 = /share/apps/gaussian/g16/l1.exe PID=     88332.
  
 Copyright (c) 1988,1990,1992,1993,1995,1998,2003,2009,2016,
            Gaussian, Inc.  All Rights Reserved.
  
 This is part of the Gaussian(R) 16 program.  It is based on
 the Gaussian(R) 09 system (copyright 2009, Gaussian, Inc.),
 the Gaussian(R) 03 system (copyright 2003, Gaussian, Inc.),
 the Gaussian(R) 98 system (copyright 1998, Gaussian, Inc.),
 the Gaussian(R) 94 system (copyright 1995, Gaussian, Inc.),
 the Gaussian 92(TM) system (copyright 1992, Gaussian, Inc.),
 the Gaussian 90(TM) system (copyright 1990, Gaussian, Inc.),
 the Gaussian 88(TM) system (copyright 1988, Gaussian, Inc.),
 the Gaussian 86(TM) system (copyright 1986, Carnegie Mellon
 University), and the Gaussian 82(TM) system (copyright 1983,
 Carnegie Mellon University). Gaussian is a federally registered
 trademark of Gaussian, Inc.
  
 This software contains proprietary and confidential information,
 including trade secrets, belonging to Gaussian, Inc.
  
 This software is provided under written license and may be
 used, copied, transmitted, or stored only in accord with that
 written license.
  
 The following legend is applicable only to US Government
 contracts under FAR:
  
                    RESTRICTED RIGHTS LEGEND
  
 Use, reproduction and disclosure by the US Government is
 subject to restrictions as set forth in subparagraphs (a)
 and (c) of the Commercial Computer Software - Restricted
 Rights clause in FAR 52.227-19.
  
 Gaussian, Inc.
 340 Quinnipiac St., Bldg. 40, Wallingford CT 06492
  
  
 ---------------------------------------------------------------
 Warning -- This program may not be used in any manner that
 competes with the business of Gaussian, Inc. or will provide
 assistance to any competitor of Gaussian, Inc.  The licensee
 of this program is prohibited from giving any competitor of
 Gaussian, Inc. access to this program.  By using this program,
 the user acknowledges that Gaussian, Inc. is engaged in the
 business of creating and licensing software in the field of
 computational chemistry and represents and warrants to the
 licensee that it is not a competitor of Gaussian, Inc. and that
 it will not use this program in any manner prohibited above.
 ---------------------------------------------------------------
  

 Cite this work as:
 Gaussian 16, Revision A.03,
 M. J. Frisch, G. W. Trucks, H. B. Schlegel, G. E. Scuseria, 
 M. A. Robb, J. R. Cheeseman, G. Scalmani, V. Barone, 
 G. A. Petersson, H. Nakatsuji, X. Li, M. Caricato, A. V. Marenich, 
 J. Bloino, B. G. Janesko, R. Gomperts, B. Mennucci, H. P. Hratchian, 
 J. V. Ortiz, A. F. Izmaylov, J. L. Sonnenberg, D. Williams-Young, 
 F. Ding, F. Lipparini, F. Egidi, J. Goings, B. Peng, A. Petrone, 
 T. Henderson, D. Ranasinghe, V. G. Zakrzewski, J. Gao, N. Rega, 
 G. Zheng, W. Liang, M. Hada, M. Ehara, K. Toyota, R. Fukuda, 
 J. Hasegawa, M. Ishida, T. Nakajima, Y. Honda, O. Kitao, H. Nakai, 
 T. Vreven, K. Throssell, J. A. Montgomery, Jr., J. E. Peralta, 
 F. Ogliaro, M. J. Bearpark, J. J. Heyd, E. N. Brothers, K. N. Kudin, 
 V. N. Staroverov, T. A. Keith, R. Kobayashi, J. Normand, 
 K. Raghavachari, A. P. Rendell, J. C. Burant, S. S. Iyengar, 
 J. Tomasi, M. Cossi, J. M. Millam, M. Klene, C. Adamo, R. Cammi, 
 J. W. Ochterski, R. L. Martin, K. Morokuma, O. Farkas, 
 J. B. Foresman, and D. J. Fox, Gaussian, Inc., Wallingford CT, 2016.
 
 ******************************************
 Gaussian 16:  ES64L-G16RevA.03 25-Dec-2016
                22-Sep-2023 
 ******************************************
 %nprocshared=2
 Will use up to    2 processors via shared memory.
 %mem=2GB
 ----------------------------------------------------------------------
 #p b3lyp/gen scrf=(cpcm,solvent=toluene) pop=hirshfeld empiricaldisper
 sion=gd3bj
 ----------------------------------------------------------------------
 1/38=1,172=1/1;
 2/12=2,17=6,18=5,40=1/2;
 3/5=7,11=2,25=1,30=1,70=2101,72=13,74=-5,124=41/1,2,3;
 4//1;
 5/5=2,38=5,53=13/2;
 6/7=2,8=2,9=2,10=2,28=1,79=1/1;
 99/5=1,9=1/99;
 Leave Link    1 at Fri Sep 22 16:36:56 2023, MaxMem=   268435456 cpu:               0.1 elap:               0.0
 (Enter /share/apps/gaussian/g16/l101.exe)
 ------------------------
 tmpdir/M2_conf_0_341.gjf
 ------------------------
 Symbolic Z-matrix:
 Charge =  0 Multiplicity = 1
 C                     0.        0.        0. 
 C                     1.5403    0.        0. 
 N                     2.00383   0.        1.39912 
 H                    -0.43355  -0.06308  -1.014 
 H                    -0.33711   0.90515   0.52217 
 H                    -0.36428  -0.84674   0.59421 
 H                     2.00289  -0.79686  -0.63408 
 H                     1.87979   0.94967  -0.42521 
 H                     2.27209   0.80454   1.86661 
 H                     1.86053  -0.72062   2.04974 
 
 ITRead=  0  0  0  0  0  0  0  0  0  0
 MicOpt= -1 -1 -1 -1 -1 -1 -1 -1 -1 -1
 NAtoms=     10 NQM=       10 NQMF=       0 NMMI=      0 NMMIF=      0
                NMic=       0 NMicF=      0.
                    Isotopes and Nuclear Properties:
 (Nuclear quadrupole moments (NQMom) in fm**2, nuclear magnetic moments (NMagM)
  in nuclear magnetons)

  Atom         1           2           3           4           5           6           7           8           9          10
 IAtWgt=          12          12          14           1           1           1           1           1           1           1
 AtmWgt=  12.0000000  12.0000000  14.0030740   1.0078250   1.0078250   1.0078250   1.0078250   1.0078250   1.0078250   1.0078250
 NucSpn=           0           0           2           1           1           1           1           1           1           1
 AtZEff=  -0.0000000  -0.0000000  -0.0000000  -0.0000000  -0.0000000  -0.0000000  -0.0000000  -0.0000000  -0.0000000  -0.0000000
 NQMom=    0.0000000   0.0000000   2.0440000   0.0000000   0.0000000   0.0000000   0.0000000   0.0000000   0.0000000   0.0000000
 NMagM=    0.0000000   0.0000000   0.4037610   2.7928460   2.7928460   2.7928460   2.7928460   2.7928460   2.7928460   2.7928460
 AtZNuc=   6.0000000   6.0000000   7.0000000   1.0000000   1.0000000   1.0000000   1.0000000   1.0000000   1.0000000   1.0000000
 Leave Link  101 at Fri Sep 22 16:36:56 2023, MaxMem=   268435456 cpu:               0.2 elap:               0.1
 (Enter /share/apps/gaussian/g16/l202.exe)
                          Input orientation:                          
 ---------------------------------------------------------------------
 Center     Atomic      Atomic             Coordinates (Angstroms)
 Number     Number       Type             X           Y           Z
 ---------------------------------------------------------------------
      1          6           0        0.000000    0.000000    0.000000
      2          6           0        1.540300    0.000000    0.000000
      3          7           0        2.003830    0.000000    1.399120
      4          1           0       -0.433550   -0.063080   -1.014000
      5          1           0       -0.337110    0.905150    0.522170
      6          1           0       -0.364280   -0.846740    0.594210
      7          1           0        2.002890   -0.796860   -0.634080
      8          1           0        1.879790    0.949670   -0.425210
      9          1           0        2.272090    0.804540    1.866610
     10          1           0        1.860530   -0.720620    2.049740
 ---------------------------------------------------------------------
                    Distance matrix (angstroms):
                    1          2          3          4          5
     1  C    0.000000
     2  C    1.540300   0.000000
     3  N    2.443946   1.473905   0.000000
     4  H    1.104600   2.219968   3.430444   0.000000
     5  H    1.097999   2.148634   2.658635   1.818403   0.000000
     6  H    1.096701   2.167367   2.640605   1.790324   1.753581
     7  H    2.246912   1.118496   2.183779   2.572744   3.115983
     8  H    2.148555   1.094500   2.060446   2.593044   2.411256
     9  H    3.048592   2.160332   0.968398   4.046130   2.936931
    10  H    2.860472   2.196195   0.981394   3.883512   3.131488
                    6          7          8          9         10
     6  H    0.000000
     7  H    2.667335   0.000000
     8  H    3.049944   1.763277   0.000000
     9  H    3.360978   2.981678   2.329678   0.000000
    10  H    2.661626   2.688674   2.985903   1.590293   0.000000
 Stoichiometry    C2H7N
 Framework group  C1[X(C2H7N)]
 Deg. of freedom    24
 Full point group                 C1      NOp   1
 Largest Abelian subgroup         C1      NOp   1
 Largest concise Abelian subgroup C1      NOp   1
                         Standard orientation:                         
 ---------------------------------------------------------------------
 Center     Atomic      Atomic             Coordinates (Angstroms)
 Number     Number       Type             X           Y           Z
 ---------------------------------------------------------------------
      1          6           0       -1.223762   -0.295419    0.020770
      2          6           0        0.013851    0.619770   -0.036393
      3          7           0        1.218999   -0.228511   -0.015522
      4          1           0       -2.176471    0.258596   -0.053747
      5          1           0       -1.171505   -0.875312    0.951680
      6          1           0       -1.174351   -1.026311   -0.795385
      7          1           0       -0.002712    1.368858   -0.866830
      8          1           0        0.046508    1.204726    0.888102
      9          1           0        1.723748   -0.409222    0.790931
     10          1           0        1.481257   -0.867868   -0.712357
 ---------------------------------------------------------------------
 Rotational constants (GHZ):          30.0233229           9.0616694           7.8878667
 Leave Link  202 at Fri Sep 22 16:36:56 2023, MaxMem=   268435456 cpu:               0.0 elap:               0.0
 (Enter /share/apps/gaussian/g16/l301.exe)
 General basis read from cards:  (5D, 7F)
 Centers:       4      5      6      7      8      9     10
 S 3 1.00
     Exponent=  1.2251800000D+01 Coefficients=  2.3337100000D-02
     Exponent=  1.8687100000D+00 Coefficients=  1.5915000000D-01
     Exponent=  4.1820800000D-01 Coefficients=  5.0000000000D-01
 S 1 1.00
     Exponent=  1.0610000000D-01 Coefficients=  1.0000000000D+00
 P 1 1.00
     Exponent=  1.0000000000D+00 Coefficients=  1.0000000000D+00
 ****
 Centers:       1      2
 S 5 1.00
     Exponent=  1.2432000000D+03 Coefficients=  6.0336600000D-03
     Exponent=  1.8714500000D+02 Coefficients=  4.4957600000D-02
     Exponent=  4.2512600000D+01 Coefficients=  1.9790100000D-01
     Exponent=  1.1739300000D+01 Coefficients=  5.0000000000D-01
     Exponent=  3.5054800000D+00 Coefficients=  4.8036400000D-01
 S 2 1.00
     Exponent=  5.3908900000D+00 Coefficients= -7.0398000000D-02
     Exponent=  4.9334100000D-01 Coefficients=  5.0000000000D-01
 S 1 1.00
     Exponent=  1.4974100000D-01 Coefficients=  1.0000000000D+00
 P 3 1.00
     Exponent=  9.1805600000D+00 Coefficients=  4.3170100000D-02
     Exponent=  1.9365800000D+00 Coefficients=  2.2499900000D-01
     Exponent=  5.2629600000D-01 Coefficients=  5.0000000000D-01
 P 1 1.00
     Exponent=  1.3631900000D-01 Coefficients=  1.0000000000D+00
 D 1 1.00
     Exponent=  8.0000000000D-01 Coefficients=  1.0000000000D+00
 ****
 Centers:       3
 S 5 1.00
     Exponent=  1.7263200000D+03 Coefficients=  5.9307700000D-03
     Exponent=  2.5982700000D+02 Coefficients=  4.4253900000D-02
     Exponent=  5.9033500000D+01 Coefficients=  1.9609600000D-01
     Exponent=  1.6350900000D+01 Coefficients=  5.0000000000D-01
     Exponent=  4.9108400000D+00 Coefficients=  4.8298700000D-01
 S 2 1.00
     Exponent=  7.7589400000D+00 Coefficients= -7.0335600000D-02
     Exponent=  7.0557300000D-01 Coefficients=  5.0000000000D-01
 S 1 1.00
     Exponent=  2.0928600000D-01 Coefficients=  1.0000000000D+00
 P 3 1.00
     Exponent=  1.3184400000D+01 Coefficients=  4.4074700000D-02
     Exponent=  2.8186000000D+00 Coefficients=  2.3047800000D-01
     Exponent=  7.6557100000D-01 Coefficients=  5.0000000000D-01
 P 1 1.00
     Exponent=  1.9594900000D-01 Coefficients=  1.0000000000D+00
 D 1 1.00
     Exponent=  9.0000000000D-01 Coefficients=  1.0000000000D+00
 ****
 Ernie: Thresh=  0.10000D-02 Tol=  0.10000D-05 Strict=F.
 There are    80 symmetry adapted cartesian basis functions of A   symmetry.
 There are    77 symmetry adapted basis functions of A   symmetry.
    77 basis functions,   127 primitive gaussians,    80 cartesian basis functions
    13 alpha electrons       13 beta electrons
       nuclear repulsion energy        82.6855926122 Hartrees.
 IExCor=  402 DFT=T Ex+Corr=B3LYP ExCW=0 ScaHFX=  0.200000
 ScaDFX=  0.800000  0.720000  1.000000  0.810000 ScalE2=  1.000000  1.000000
 IRadAn=      5 IRanWt=     -1 IRanGd=            0 ICorTp=0 IEmpDi=141
 NAtoms=   10 NActive=   10 NUniq=   10 SFac= 1.00D+00 NAtFMM=   60 NAOKFM=F Big=F
 Integral buffers will be    131072 words long.
 Raffenetti 2 integral format.
 Two-electron integral symmetry is turned on.
 R6Disp:  Grimme-D3(BJ) Dispersion energy=       -0.0086245942 Hartrees.
 Nuclear repulsion after empirical dispersion term =       82.6769680180 Hartrees.
 ------------------------------------------------------------------------------
 Polarizable Continuum Model (PCM)
 =================================
 Model                : C-PCM.
 Atomic radii         : UFF (Universal Force Field).
 Polarization charges : Total charges.
 Charge compensation  : None.
 Solution method      : On-the-fly selection.
 Cavity type          : Scaled VdW (van der Waals Surface) (Alpha=1.100).
 Cavity algorithm     : GePol (No added spheres)
                        Default sphere list used, NSphG=   10.
                        Lebedev-Laikov grids with approx.  5.0 points / Ang**2.
                        Smoothing algorithm: York/Karplus (Gamma=1.0000).
                        Polarization charges: spherical gaussians, with
                                              point-specific exponents (IZeta= 3).
                        Self-potential: point-specific (ISelfS= 7).
                        Self-field    : sphere-specific E.n sum rule (ISelfD= 2).
 Solvent              : Toluene, Eps=   2.374100 Eps(inf)=   2.238315
 ------------------------------------------------------------------------------
 Spheres list:
 ISph  on   Nord     Re0    Alpha      Xe            Ye            Ze
    1   C      1    1.9255  1.100     -1.223762     -0.295419      0.020770
    2   C      2    1.9255  1.100      0.013851      0.619770     -0.036393
    3   N      3    1.8300  1.100      1.218999     -0.228511     -0.015522
    4   H      4    1.4430  1.100     -2.176471      0.258596     -0.053747
    5   H      5    1.4430  1.100     -1.171505     -0.875312      0.951680
    6   H      6    1.4430  1.100     -1.174351     -1.026311     -0.795385
    7   H      7    1.4430  1.100     -0.002712      1.368858     -0.866830
    8   H      8    1.4430  1.100      0.046508      1.204726      0.888102
    9   H      9    1.4430  1.100      1.723748     -0.409222      0.790931
   10   H     10    1.4430  1.100      1.481257     -0.867868     -0.712357
 ------------------------------------------------------------------------------
 GePol: Number of generator spheres                  =      10
 GePol: Total number of spheres                      =      10
 GePol: Number of exposed spheres                    =      10 (100.00%)
 GePol: Number of points                             =     857
 GePol: Average weight of points                     =       0.13
 GePol: Minimum weight of points                     =   0.43D-08
 GePol: Maximum weight of points                     =    0.20577
 GePol: Number of points with low weight             =      55
 GePol: Fraction of low-weight points (<1% of avg)   =       6.42%
 GePol: Cavity surface area                          =    115.143 Ang**2
 GePol: Cavity volume                                =     97.026 Ang**3
 Leave Link  301 at Fri Sep 22 16:36:56 2023, MaxMem=   268435456 cpu:               0.2 elap:               0.1
 (Enter /share/apps/gaussian/g16/l302.exe)
 NPDir=0 NMtPBC=     1 NCelOv=     1 NCel=       1 NClECP=     1 NCelD=      1
         NCelK=      1 NCelE2=     1 NClLst=     1 CellRange=     0.0.
 One-electron integrals computed using PRISM.
 One-electron integral symmetry used in STVInt
 NBasis=    77 RedAO= T EigKep=  6.63D-03  NBF=    77
 NBsUse=    77 1.00D-06 EigRej= -1.00D+00 NBFU=    77
 Precomputing XC quadrature grid using
 IXCGrd= 4 IRadAn=           5 IRanWt=          -1 IRanGd=           0 AccXCQ= 0.00D+00.
 Generated NRdTot=       0 NPtTot=           0 NUsed=           0 NTot=          32
 NSgBfM=    80    80    80    80    80 MxSgAt=    10 MxSgA2=    10.
 Leave Link  302 at Fri Sep 22 16:36:56 2023, MaxMem=   268435456 cpu:               0.4 elap:               0.2
 (Enter /share/apps/gaussian/g16/l303.exe)
 DipDrv:  MaxL=1.
 Leave Link  303 at Fri Sep 22 16:36:56 2023, MaxMem=   268435456 cpu:               0.1 elap:               0.0
 (Enter /share/apps/gaussian/g16/l401.exe)
 ExpMin= 1.06D-01 ExpMax= 1.73D+03 ExpMxC= 2.60D+02 IAcc=3 IRadAn=         5 AccDes= 0.00D+00
 Harris functional with IExCor=  402 and IRadAn=       5 diagonalized for initial guess.
 HarFok:  IExCor=  402 AccDes= 0.00D+00 IRadAn=         5 IDoV= 1 UseB2=F ITyADJ=14
 ICtDFT=  3500011 ScaDFX=  1.000000  1.000000  1.000000  1.000000
 FoFCou: FMM=F IPFlag=           0 FMFlag=      100000 FMFlg1=           0
         NFxFlg=           0 DoJE=T BraDBF=F KetDBF=T FulRan=T
         wScrn=  0.000000 ICntrl=       500 IOpCl=  0 I1Cent=   200000004 NGrid=           0
         NMat0=    1 NMatS0=      1 NMatT0=    0 NMatD0=    1 NMtDS0=    0 NMtDT0=    0
 Petite list used in FoFCou.
 Harris En= -135.184924390543    
 JPrj=0 DoOrth=F DoCkMO=F.
 Leave Link  401 at Fri Sep 22 16:36:57 2023, MaxMem=   268435456 cpu:               1.8 elap:               0.9
 (Enter /share/apps/gaussian/g16/l502.exe)
 Keep R1 ints in memory in canonical form, NReq=6320672.
 FoFCou: FMM=F IPFlag=           0 FMFlag=           0 FMFlg1=           0
         NFxFlg=           0 DoJE=F BraDBF=F KetDBF=F FulRan=T
         wScrn=  0.000000 ICntrl=       600 IOpCl=  0 I1Cent=           0 NGrid=           0
         NMat0=    1 NMatS0=   3003 NMatT0=    0 NMatD0=    1 NMtDS0=    0 NMtDT0=    0
 Symmetry not used in FoFCou.
 Two-electron integral symmetry not used.
 Closed shell SCF:
 Using DIIS extrapolation, IDIIS=  1040.
 NGot=   268435456 LenX=   263910592 LenY=   263903751
 Requested convergence on RMS density matrix=1.00D-08 within 128 cycles.
 Requested convergence on MAX density matrix=1.00D-06.
 Requested convergence on             energy=1.00D-06.
 No special actions if energy rises.

 Cycle   1  Pass 1  IDiag  1:
 Inv3:  Mode=1 IEnd=     2203347.
 Iteration    1 A*A^-1 deviation from unit magnitude is 3.55D-15 for    847.
 Iteration    1 A*A^-1 deviation from orthogonality  is 1.53D-15 for    696    468.
 Iteration    1 A^-1*A deviation from unit magnitude is 3.55D-15 for    847.
 Iteration    1 A^-1*A deviation from orthogonality  is 1.47D-15 for    730    186.
 E= -134.997475893027    
 DIIS: error= 2.88D-02 at cycle   1 NSaved=   1.
 NSaved= 1 IEnMin= 1 EnMin= -134.997475893027     IErMin= 1 ErrMin= 2.88D-02
 ErrMax= 2.88D-02  0.00D+00 EMaxC= 1.00D-01 BMatC= 1.47D-01 BMatP= 1.47D-01
 IDIUse=3 WtCom= 7.12D-01 WtEn= 2.88D-01
 Coeff-Com:  0.100D+01
 Coeff-En:   0.100D+01
 Coeff:      0.100D+01
 Gap=     0.148 Goal=   None    Shift=    0.000
 GapD=    0.148 DampG=1.000 DampE=0.500 DampFc=0.5000 IDamp=-1.
 Damping current iteration by 5.00D-01
 RMSDP=1.05D-02 MaxDP=1.57D-01              OVMax= 2.00D-01

 Cycle   2  Pass 1  IDiag  1:
 E= -135.058335634902     Delta-E=       -0.060859741876 Rises=F Damp=T
 DIIS: error= 5.94D-03 at cycle   2 NSaved=   2.
 NSaved= 2 IEnMin= 2 EnMin= -135.058335634902     IErMin= 2 ErrMin= 5.94D-03
 ErrMax= 5.94D-03  0.00D+00 EMaxC= 1.00D-01 BMatC= 5.97D-03 BMatP= 1.47D-01
 IDIUse=3 WtCom= 9.41D-01 WtEn= 5.94D-02
 Coeff-Com:  0.122D+00 0.878D+00
 Coeff-En:   0.202D+00 0.798D+00
 Coeff:      0.126D+00 0.874D+00
 Gap=     0.265 Goal=   None    Shift=    0.000
 RMSDP=1.82D-03 MaxDP=2.42D-02 DE=-6.09D-02 OVMax= 1.24D-01

 Cycle   3  Pass 1  IDiag  1:
 E= -135.146148859215     Delta-E=       -0.087813224313 Rises=F Damp=F
 DIIS: error= 2.24D-03 at cycle   3 NSaved=   3.
 NSaved= 3 IEnMin= 3 EnMin= -135.146148859215     IErMin= 3 ErrMin= 2.24D-03
 ErrMax= 2.24D-03  0.00D+00 EMaxC= 1.00D-01 BMatC= 8.44D-04 BMatP= 5.97D-03
 IDIUse=3 WtCom= 9.78D-01 WtEn= 2.24D-02
 Coeff-Com:  0.220D-01 0.265D+00 0.713D+00
 Coeff-En:   0.000D+00 0.000D+00 0.100D+01
 Coeff:      0.215D-01 0.259D+00 0.720D+00
 Gap=     0.263 Goal=   None    Shift=    0.000
 RMSDP=4.60D-04 MaxDP=7.02D-03 DE=-8.78D-02 OVMax= 8.85D-03

 Cycle   4  Pass 1  IDiag  1:
 E= -135.146664671494     Delta-E=       -0.000515812279 Rises=F Damp=F
 DIIS: error= 1.15D-03 at cycle   4 NSaved=   4.
 NSaved= 4 IEnMin= 4 EnMin= -135.146664671494     IErMin= 4 ErrMin= 1.15D-03
 ErrMax= 1.15D-03  0.00D+00 EMaxC= 1.00D-01 BMatC= 2.61D-04 BMatP= 8.44D-04
 IDIUse=3 WtCom= 9.88D-01 WtEn= 1.15D-02
 Coeff-Com:  0.180D-02 0.642D-01 0.370D+00 0.564D+00
 Coeff-En:   0.000D+00 0.000D+00 0.218D+00 0.782D+00
 Coeff:      0.178D-02 0.634D-01 0.368D+00 0.566D+00
 Gap=     0.266 Goal=   None    Shift=    0.000
 RMSDP=1.91D-04 MaxDP=3.43D-03 DE=-5.16D-04 OVMax= 4.08D-03

 Cycle   5  Pass 1  IDiag  1:
 E= -135.146902673863     Delta-E=       -0.000238002369 Rises=F Damp=F
 DIIS: error= 2.10D-04 at cycle   5 NSaved=   5.
 NSaved= 5 IEnMin= 5 EnMin= -135.146902673863     IErMin= 5 ErrMin= 2.10D-04
 ErrMax= 2.10D-04  0.00D+00 EMaxC= 1.00D-01 BMatC= 7.99D-06 BMatP= 2.61D-04
 IDIUse=3 WtCom= 9.98D-01 WtEn= 2.10D-03
 Coeff-Com: -0.130D-02-0.181D-02 0.616D-01 0.198D+00 0.744D+00
 Coeff-En:   0.000D+00 0.000D+00 0.000D+00 0.000D+00 0.100D+01
 Coeff:     -0.129D-02-0.181D-02 0.615D-01 0.197D+00 0.744D+00
 Gap=     0.265 Goal=   None    Shift=    0.000
 RMSDP=3.14D-05 MaxDP=4.32D-04 DE=-2.38D-04 OVMax= 6.71D-04

 Cycle   6  Pass 1  IDiag  1:
 E= -135.146909811167     Delta-E=       -0.000007137304 Rises=F Damp=F
 DIIS: error= 2.51D-05 at cycle   6 NSaved=   6.
 NSaved= 6 IEnMin= 6 EnMin= -135.146909811167     IErMin= 6 ErrMin= 2.51D-05
 ErrMax= 2.51D-05  0.00D+00 EMaxC= 1.00D-01 BMatC= 1.48D-07 BMatP= 7.99D-06
 IDIUse=1 WtCom= 1.00D+00 WtEn= 0.00D+00
 Coeff-Com: -0.391D-03-0.141D-02 0.184D-01 0.659D-01 0.280D+00 0.638D+00
 Coeff:     -0.391D-03-0.141D-02 0.184D-01 0.659D-01 0.280D+00 0.638D+00
 Gap=     0.265 Goal=   None    Shift=    0.000
 RMSDP=5.26D-06 MaxDP=1.10D-04 DE=-7.14D-06 OVMax= 1.06D-04

 Cycle   7  Pass 1  IDiag  1:
 E= -135.146909934543     Delta-E=       -0.000000123377 Rises=F Damp=F
 DIIS: error= 1.03D-05 at cycle   7 NSaved=   7.
 NSaved= 7 IEnMin= 7 EnMin= -135.146909934543     IErMin= 7 ErrMin= 1.03D-05
 ErrMax= 1.03D-05  0.00D+00 EMaxC= 1.00D-01 BMatC= 1.91D-08 BMatP= 1.48D-07
 IDIUse=1 WtCom= 1.00D+00 WtEn= 0.00D+00
 Coeff-Com: -0.485D-04-0.524D-03 0.334D-02 0.133D-01 0.652D-01 0.304D+00
 Coeff-Com:  0.615D+00
 Coeff:     -0.485D-04-0.524D-03 0.334D-02 0.133D-01 0.652D-01 0.304D+00
 Coeff:      0.615D+00
 Gap=     0.265 Goal=   None    Shift=    0.000
 RMSDP=1.58D-06 MaxDP=3.54D-05 DE=-1.23D-07 OVMax= 3.57D-05

 Cycle   8  Pass 1  IDiag  1:
 E= -135.146909953221     Delta-E=       -0.000000018678 Rises=F Damp=F
 DIIS: error= 1.51D-06 at cycle   8 NSaved=   8.
 NSaved= 8 IEnMin= 8 EnMin= -135.146909953221     IErMin= 8 ErrMin= 1.51D-06
 ErrMax= 1.51D-06  0.00D+00 EMaxC= 1.00D-01 BMatC= 2.07D-10 BMatP= 1.91D-08
 IDIUse=1 WtCom= 1.00D+00 WtEn= 0.00D+00
 Coeff-Com:  0.211D-04-0.272D-04-0.405D-03-0.115D-02-0.317D-02 0.327D-01
 Coeff-Com:  0.129D+00 0.843D+00
 Coeff:      0.211D-04-0.272D-04-0.405D-03-0.115D-02-0.317D-02 0.327D-01
 Coeff:      0.129D+00 0.843D+00
 Gap=     0.265 Goal=   None    Shift=    0.000
 RMSDP=3.07D-07 MaxDP=4.55D-06 DE=-1.87D-08 OVMax= 5.87D-06

 Cycle   9  Pass 1  IDiag  1:
 E= -135.146909953440     Delta-E=       -0.000000000219 Rises=F Damp=F
 DIIS: error= 1.44D-07 at cycle   9 NSaved=   9.
 NSaved= 9 IEnMin= 9 EnMin= -135.146909953440     IErMin= 9 ErrMin= 1.44D-07
 ErrMax= 1.44D-07  0.00D+00 EMaxC= 1.00D-01 BMatC= 3.10D-12 BMatP= 2.07D-10
 IDIUse=1 WtCom= 1.00D+00 WtEn= 0.00D+00
 Coeff-Com:  0.309D-06 0.640D-05-0.811D-04-0.229D-03-0.116D-02-0.801D-03
 Coeff-Com:  0.919D-03 0.700D-01 0.931D+00
 Coeff:      0.309D-06 0.640D-05-0.811D-04-0.229D-03-0.116D-02-0.801D-03
 Coeff:      0.919D-03 0.700D-01 0.931D+00
 Gap=     0.265 Goal=   None    Shift=    0.000
 RMSDP=2.94D-08 MaxDP=3.78D-07 DE=-2.19D-10 OVMax= 5.65D-07

 Cycle  10  Pass 1  IDiag  1:
 E= -135.146909953445     Delta-E=       -0.000000000005 Rises=F Damp=F
 DIIS: error= 1.64D-08 at cycle  10 NSaved=  10.
 NSaved=10 IEnMin=10 EnMin= -135.146909953445     IErMin=10 ErrMin= 1.64D-08
 ErrMax= 1.64D-08  0.00D+00 EMaxC= 1.00D-01 BMatC= 3.77D-14 BMatP= 3.10D-12
 IDIUse=1 WtCom= 1.00D+00 WtEn= 0.00D+00
 Coeff-Com: -0.510D-06 0.134D-05-0.341D-05-0.118D-04-0.100D-03-0.503D-03
 Coeff-Com: -0.152D-02-0.428D-02 0.121D+00 0.886D+00
 Coeff:     -0.510D-06 0.134D-05-0.341D-05-0.118D-04-0.100D-03-0.503D-03
 Coeff:     -0.152D-02-0.428D-02 0.121D+00 0.886D+00
 Gap=     0.265 Goal=   None    Shift=    0.000
 RMSDP=4.44D-09 MaxDP=5.04D-08 DE=-4.60D-12 OVMax= 8.83D-08

 Error on total polarization charges =  0.00513
 SCF Done:  E(RB3LYP) =  -135.146909953     A.U. after   10 cycles
            NFock= 10  Conv=0.44D-08     -V/T= 2.0061
 KE= 1.343299931853D+02 PE=-4.790784573900D+02 EE= 1.269245862333D+02
 Leave Link  502 at Fri Sep 22 16:37:08 2023, MaxMem=   268435456 cpu:              20.7 elap:              10.4
 (Enter /share/apps/gaussian/g16/l601.exe)
 Copying SCF densities to generalized density rwf, IOpCl= 0 IROHF=0.

 **********************************************************************

            Population analysis using the SCF density.

 **********************************************************************

 Orbital symmetries:
       Occupied  (A) (A) (A) (A) (A) (A) (A) (A) (A) (A) (A) (A)
                 (A)
       Virtual   (A) (A) (A) (A) (A) (A) (A) (A) (A) (A) (A) (A)
                 (A) (A) (A) (A) (A) (A) (A) (A) (A) (A) (A) (A)
                 (A) (A) (A) (A) (A) (A) (A) (A) (A) (A) (A) (A)
                 (A) (A) (A) (A) (A) (A) (A) (A) (A) (A) (A) (A)
                 (A) (A) (A) (A) (A) (A) (A) (A) (A) (A) (A) (A)
                 (A) (A) (A) (A)
 The electronic state is 1-A.
 Alpha  occ. eigenvalues --  -14.27378 -10.20348 -10.16025  -0.86837  -0.72686
 Alpha  occ. eigenvalues --   -0.61132  -0.49523  -0.45811  -0.41711  -0.38706
 Alpha  occ. eigenvalues --   -0.36870  -0.33863  -0.21493
 Alpha virt. eigenvalues --    0.05040   0.08076   0.08794   0.09451   0.12440
 Alpha virt. eigenvalues --    0.13972   0.15760   0.20707   0.21720   0.38365
 Alpha virt. eigenvalues --    0.40746   0.45620   0.46496   0.48103   0.57112
 Alpha virt. eigenvalues --    0.61310   0.63345   0.64345   0.65309   0.66610
 Alpha virt. eigenvalues --    0.67773   0.73049   0.78328   0.80828   0.88646
 Alpha virt. eigenvalues --    0.91489   1.21603   1.27073   1.31402   1.43165
 Alpha virt. eigenvalues --    1.55058   1.58285   1.60319   1.75667   1.80064
 Alpha virt. eigenvalues --    1.86026   1.89934   1.92075   1.92359   1.99624
 Alpha virt. eigenvalues --    2.05861   2.07357   2.12128   2.13139   2.13675
 Alpha virt. eigenvalues --    2.22988   2.30602   2.36758   2.45717   2.54654
 Alpha virt. eigenvalues --    2.57922   2.58977   2.67393   2.71272   2.77673
 Alpha virt. eigenvalues --    2.80499   2.96434   3.05473   3.17492   3.18726
 Alpha virt. eigenvalues --    3.22472   3.30332   3.37104   3.52448
          Condensed to atoms (all electrons):
               1          2          3          4          5          6
     1  C    4.830455   0.421715  -0.113590   0.365320   0.383161   0.396584
     2  C    0.421715   4.637949   0.303673  -0.026253  -0.033298  -0.036470
     3  N   -0.113590   0.303673   6.538711   0.010115   0.010883  -0.001986
     4  H    0.365320  -0.026253   0.010115   0.617656  -0.016779  -0.022586
     5  H    0.383161  -0.033298   0.010883  -0.016779   0.613259  -0.029924
     6  H    0.396584  -0.036470  -0.001986  -0.022586  -0.029924   0.609338
     7  H   -0.046567   0.400596  -0.030381   0.000017   0.010613  -0.006252
     8  H   -0.035646   0.394015  -0.026275  -0.002226  -0.013864   0.010463
     9  H    0.003004  -0.023782   0.396252  -0.000282   0.003273  -0.001181
    10  H   -0.000989  -0.035959   0.397263   0.000094  -0.001659   0.005747
               7          8          9         10
     1  C   -0.046567  -0.035646   0.003004  -0.000989
     2  C    0.400596   0.394015  -0.023782  -0.035959
     3  N   -0.030381  -0.026275   0.396252   0.397263
     4  H    0.000017  -0.002226  -0.000282   0.000094
     5  H    0.010613  -0.013864   0.003273  -0.001659
     6  H   -0.006252   0.010463  -0.001181   0.005747
     7  H    0.617274  -0.039259   0.006810  -0.005661
     8  H   -0.039259   0.633393  -0.015455   0.008839
     9  H    0.006810  -0.015455   0.529069  -0.039190
    10  H   -0.005661   0.008839  -0.039190   0.527061
 Mulliken charges:
               1
     1  C   -0.203446
     2  C   -0.002186
     3  N   -0.484663
     4  H    0.074926
     5  H    0.074336
     6  H    0.076268
     7  H    0.092811
     8  H    0.086016
     9  H    0.141483
    10  H    0.144455
 Sum of Mulliken charges =  -0.00000
 Mulliken charges with hydrogens summed into heavy atoms:
               1
     1  C    0.022084
     2  C    0.176642
     3  N   -0.198725
 Electronic spatial extent (au):  <R**2>=            208.8618
 Charge=             -0.0000 electrons
 Dipole moment (field-independent basis, Debye):
    X=              0.0890    Y=             -0.3571    Z=              0.2526  Tot=              0.4463
 Quadrupole moment (field-independent basis, Debye-Ang):
   XX=            -21.6099   YY=            -20.6470   ZZ=            -19.6570
   XY=             -2.2204   XZ=              0.8337   YZ=              0.6315
 Traceless Quadrupole moment (field-independent basis, Debye-Ang):
   XX=             -0.9719   YY=             -0.0090   ZZ=              0.9810
   XY=             -2.2204   XZ=              0.8337   YZ=              0.6315
 Octapole moment (field-independent basis, Debye-Ang**2):
  XXX=              5.4129  YYY=             -0.7410  ZZZ=              0.7476  XYY=              2.2882
  XXY=             -3.5398  XXZ=              1.7979  XZZ=              3.5179  YZZ=             -0.9812
  YYZ=             -0.7790  XYZ=              0.7599
 Hexadecapole moment (field-independent basis, Debye-Ang**3):
 XXXX=           -176.2094 YYYY=            -66.9878 ZZZZ=            -38.1713 XXXY=            -12.5342
 XXXZ=              5.0622 YYYX=             -3.7726 YYYZ=              1.0058 ZZZX=              1.0702
 ZZZY=              0.7608 XXYY=            -38.9484 XXZZ=            -33.4625 YYZZ=            -15.8134
 XXYZ=              0.9530 YYXZ=             -0.6283 ZZXY=             -1.8779
 N-N= 8.267696801798D+01 E-N=-4.790784563224D+02  KE= 1.343299931853D+02
 There are a total of      222128 grid points.
 ElSum from          density=       26.0000022518
 ElSum from atomic densities=       26.0000038425
 Hirshfeld populations at iteration   1 (CA, CB, DipXYZ):
               1          2          3          4          5
     1  C    3.045859   3.045859   0.004283   0.034524  -0.002496
     2  C    2.994841   2.994841   0.007694  -0.044186  -0.015916
     3  N    3.611059   3.611059  -0.101763  -0.036205   0.024219
     4  H    0.488891   0.488891  -0.107069   0.070259  -0.011160
     5  H    0.489137   0.489137   0.006837  -0.065754   0.113003
     6  H    0.489618   0.489618   0.007725  -0.085237  -0.099193
     7  H    0.487636   0.487636  -0.013124   0.091784  -0.093152
     8  H    0.484557   0.484557  -0.001188   0.069002   0.119148
     9  H    0.454404   0.454404   0.101592  -0.049120   0.156788
    10  H    0.453999   0.453999   0.057703  -0.132289  -0.123466
       Tot  13.000001  13.000001  -0.037309  -0.147223   0.067776

 Dip from Atomic Chgs              0.072311   0.006730   0.031590
         Total Dipole              0.035002  -0.140492   0.099366

 Hirshfeld charges, spin densities, dipoles, and CM5 charges using IRadAn=      5:
              Q-H        S-H        Dx         Dy         Dz        Q-CM5   
     1  C   -0.091718   0.000000   0.004283   0.034524  -0.002496  -0.233944
     2  C    0.010318   0.000000   0.007694  -0.044186  -0.015916  -0.043935
     3  N   -0.222119   0.000000  -0.101763  -0.036205   0.024219  -0.711724
     4  H    0.022218   0.000000  -0.107069   0.070259  -0.011160   0.071679
     5  H    0.021725   0.000000   0.006837  -0.065754   0.113003   0.075155
     6  H    0.020765   0.000000   0.007725  -0.085237  -0.099193   0.074329
     7  H    0.024728   0.000000  -0.013124   0.091784  -0.093152   0.082043
     8  H    0.030887   0.000000  -0.001188   0.069002   0.119148   0.095267
     9  H    0.091192   0.000000   0.101592  -0.049120   0.156788   0.298411
    10  H    0.092001   0.000000   0.057703  -0.132289  -0.123466   0.292718
       Tot  -0.000002   0.000000  -0.037309  -0.147223   0.067776  -0.000002
 Hirshfeld charges with hydrogens summed into heavy atoms:
              Q-H       Q-CM5   
     1  C   -0.027009  -0.012781
     2  C    0.065933   0.133375
     3  N   -0.038926  -0.120596
 
 EQQ= 0.000000000000E+00 EQD= 0.000000000000E+00 EDD=-0.316950545990E-02
 EQQ+QD+DD=-0.316950545990E-02
 
 No NMR shielding tensors so no spin-rotation constants.
 Leave Link  601 at Fri Sep 22 16:37:09 2023, MaxMem=   268435456 cpu:               1.8 elap:               0.9
 (Enter /share/apps/gaussian/g16/l9999.exe)
 1\1\GINC-NODE99\SP\RB3LYP\Gen\C2H7N1\YANZ\22-Sep-2023\0\\#p b3lyp/gen 
 scrf=(cpcm,solvent=toluene) pop=hirshfeld empiricaldispersion=gd3bj\\t
 mpdir/M2_conf_0_341.gjf\\0,1\C,0,0.,0.,0.\C,0,1.5403,0.,0.\N,0,2.00383
 ,0.,1.39912\H,0,-0.43355,-0.06308,-1.014\H,0,-0.33711,0.90515,0.52217\
 H,0,-0.36428,-0.84674,0.59421\H,0,2.00289,-0.79686,-0.63408\H,0,1.8797
 9,0.94967,-0.42521\H,0,2.27209,0.80454,1.86661\H,0,1.86053,-0.72062,2.
 04974\\Version=ES64L-G16RevA.03\State=1-A\HF=-135.14691\RMSD=4.438e-09
 \Dipole=-0.0590367,0.0935601,0.1363683\Quadrupole=-2.1017449,0.7837879
 ,1.317957,0.6682993,0.1598833,-0.0182822\PG=C01 [X(C2H7N1)]\\@


 A people that values its privileges above its principles soon loses both.
 -- Dwight D. Eisenhower
 Job cpu time:       0 days  0 hours  0 minutes 25.5 seconds.
 Elapsed time:       0 days  0 hours  0 minutes 12.9 seconds.
 File lengths (MBytes):  RWF=     13 Int=      0 D2E=      0 Chk=      2 Scr=      1
 Normal termination of Gaussian 16 at Fri Sep 22 16:37:09 2023.
