 Entering Gaussian System, Link 0=g16
 Initial command:
 /share/apps/gaussian/g16/l1.exe "/tmp/55556.mgr/Gau-86082.inp" -scrdir="/tmp/55556.mgr/"
 Entering Link 1 = /share/apps/gaussian/g16/l1.exe PID=     86084.
  
 Copyright (c) 1988,1990,1992,1993,1995,1998,2003,2009,2016,
            Gaussian, Inc.  All Rights Reserved.
  
 This is part of the Gaussian(R) 16 program.  It is based on
 the Gaussian(R) 09 system (copyright 2009, Gaussian, Inc.),
 the Gaussian(R) 03 system (copyright 2003, Gaussian, Inc.),
 the Gaussian(R) 98 system (copyright 1998, Gaussian, Inc.),
 the Gaussian(R) 94 system (copyright 1995, Gaussian, Inc.),
 the Gaussian 92(TM) system (copyright 1992, Gaussian, Inc.),
 the Gaussian 90(TM) system (copyright 1990, Gaussian, Inc.),
 the Gaussian 88(TM) system (copyright 1988, Gaussian, Inc.),
 the Gaussian 86(TM) system (copyright 1986, Carnegie Mellon
 University), and the Gaussian 82(TM) system (copyright 1983,
 Carnegie Mellon University). Gaussian is a federally registered
 trademark of Gaussian, Inc.
  
 This software contains proprietary and confidential information,
 including trade secrets, belonging to Gaussian, Inc.
  
 This software is provided under written license and may be
 used, copied, transmitted, or stored only in accord with that
 written license.
  
 The following legend is applicable only to US Government
 contracts under FAR:
  
                    RESTRICTED RIGHTS LEGEND
  
 Use, reproduction and disclosure by the US Government is
 subject to restrictions as set forth in subparagraphs (a)
 and (c) of the Commercial Computer Software - Restricted
 Rights clause in FAR 52.227-19.
  
 Gaussian, Inc.
 340 Quinnipiac St., Bldg. 40, Wallingford CT 06492
  
  
 ---------------------------------------------------------------
 Warning -- This program may not be used in any manner that
 competes with the business of Gaussian, Inc. or will provide
 assistance to any competitor of Gaussian, Inc.  The licensee
 of this program is prohibited from giving any competitor of
 Gaussian, Inc. access to this program.  By using this program,
 the user acknowledges that Gaussian, Inc. is engaged in the
 business of creating and licensing software in the field of
 computational chemistry and represents and warrants to the
 licensee that it is not a competitor of Gaussian, Inc. and that
 it will not use this program in any manner prohibited above.
 ---------------------------------------------------------------
  

 Cite this work as:
 Gaussian 16, Revision A.03,
 M. J. Frisch, G. W. Trucks, H. B. Schlegel, G. E. Scuseria, 
 M. A. Robb, J. R. Cheeseman, G. Scalmani, V. Barone, 
 G. A. Petersson, H. Nakatsuji, X. Li, M. Caricato, A. V. Marenich, 
 J. Bloino, B. G. Janesko, R. Gomperts, B. Mennucci, H. P. Hratchian, 
 J. V. Ortiz, A. F. Izmaylov, J. L. Sonnenberg, D. Williams-Young, 
 F. Ding, F. Lipparini, F. Egidi, J. Goings, B. Peng, A. Petrone, 
 T. Henderson, D. Ranasinghe, V. G. Zakrzewski, J. Gao, N. Rega, 
 G. Zheng, W. Liang, M. Hada, M. Ehara, K. Toyota, R. Fukuda, 
 J. Hasegawa, M. Ishida, T. Nakajima, Y. Honda, O. Kitao, H. Nakai, 
 T. Vreven, K. Throssell, J. A. Montgomery, Jr., J. E. Peralta, 
 F. Ogliaro, M. J. Bearpark, J. J. Heyd, E. N. Brothers, K. N. Kudin, 
 V. N. Staroverov, T. A. Keith, R. Kobayashi, J. Normand, 
 K. Raghavachari, A. P. Rendell, J. C. Burant, S. S. Iyengar, 
 J. Tomasi, M. Cossi, J. M. Millam, M. Klene, C. Adamo, R. Cammi, 
 J. W. Ochterski, R. L. Martin, K. Morokuma, O. Farkas, 
 J. B. Foresman, and D. J. Fox, Gaussian, Inc., Wallingford CT, 2016.
 
 ******************************************
 Gaussian 16:  ES64L-G16RevA.03 25-Dec-2016
                22-Sep-2023 
 ******************************************
 %nprocshared=2
 Will use up to    2 processors via shared memory.
 %mem=2GB
 ----------------------------------------------------------------------
 #p b3lyp/gen scrf=(cpcm,solvent=toluene) pop=hirshfeld empiricaldisper
 sion=gd3bj
 ----------------------------------------------------------------------
 1/38=1,172=1/1;
 2/12=2,17=6,18=5,40=1/2;
 3/5=7,11=2,25=1,30=1,70=2101,72=13,74=-5,124=41/1,2,3;
 4//1;
 5/5=2,38=5,53=13/2;
 6/7=2,8=2,9=2,10=2,28=1,79=1/1;
 99/5=1,9=1/99;
 Leave Link    1 at Fri Sep 22 16:34:49 2023, MaxMem=   268435456 cpu:               0.1 elap:               0.0
 (Enter /share/apps/gaussian/g16/l101.exe)
 ------------------------
 tmpdir/M2_conf_0_123.gjf
 ------------------------
 Symbolic Z-matrix:
 Charge =  0 Multiplicity = 1
 C                     0.        0.        0. 
 C                     1.5367    0.        0. 
 C                     2.03815   0.        1.45385 
 H                    -0.41017  -0.00764  -1.01773 
 H                    -0.40163  -0.86654   0.54126 
 H                    -0.37004   0.90515   0.49761 
 H                     1.89742  -0.95848  -0.48395 
 H                     1.90398   0.91136  -0.52257 
 H                     1.71877  -0.90779   1.98274 
 H                     3.131     0.05665   1.50482 
 H                     1.62955   0.8681    1.98693 
 
 ITRead=  0  0  0  0  0  0  0  0  0  0  0
 MicOpt= -1 -1 -1 -1 -1 -1 -1 -1 -1 -1 -1
 NAtoms=     11 NQM=       11 NQMF=       0 NMMI=      0 NMMIF=      0
                NMic=       0 NMicF=      0.
                    Isotopes and Nuclear Properties:
 (Nuclear quadrupole moments (NQMom) in fm**2, nuclear magnetic moments (NMagM)
  in nuclear magnetons)

  Atom         1           2           3           4           5           6           7           8           9          10
 IAtWgt=          12          12          12           1           1           1           1           1           1           1
 AtmWgt=  12.0000000  12.0000000  12.0000000   1.0078250   1.0078250   1.0078250   1.0078250   1.0078250   1.0078250   1.0078250
 NucSpn=           0           0           0           1           1           1           1           1           1           1
 AtZEff=  -0.0000000  -0.0000000  -0.0000000  -0.0000000  -0.0000000  -0.0000000  -0.0000000  -0.0000000  -0.0000000  -0.0000000
 NQMom=    0.0000000   0.0000000   0.0000000   0.0000000   0.0000000   0.0000000   0.0000000   0.0000000   0.0000000   0.0000000
 NMagM=    0.0000000   0.0000000   0.0000000   2.7928460   2.7928460   2.7928460   2.7928460   2.7928460   2.7928460   2.7928460
 AtZNuc=   6.0000000   6.0000000   6.0000000   1.0000000   1.0000000   1.0000000   1.0000000   1.0000000   1.0000000   1.0000000

  Atom        11
 IAtWgt=           1
 AtmWgt=   1.0078250
 NucSpn=           1
 AtZEff=  -0.0000000
 NQMom=    0.0000000
 NMagM=    2.7928460
 AtZNuc=   1.0000000
 Leave Link  101 at Fri Sep 22 16:34:49 2023, MaxMem=   268435456 cpu:               0.2 elap:               0.1
 (Enter /share/apps/gaussian/g16/l202.exe)
                          Input orientation:                          
 ---------------------------------------------------------------------
 Center     Atomic      Atomic             Coordinates (Angstroms)
 Number     Number       Type             X           Y           Z
 ---------------------------------------------------------------------
      1          6           0        0.000000    0.000000    0.000000
      2          6           0        1.536700    0.000000    0.000000
      3          6           0        2.038150    0.000000    1.453850
      4          1           0       -0.410170   -0.007640   -1.017730
      5          1           0       -0.401630   -0.866540    0.541260
      6          1           0       -0.370040    0.905150    0.497610
      7          1           0        1.897420   -0.958480   -0.483950
      8          1           0        1.903980    0.911360   -0.522570
      9          1           0        1.718770   -0.907790    1.982740
     10          1           0        3.131000    0.056650    1.504820
     11          1           0        1.629550    0.868100    1.986930
 ---------------------------------------------------------------------
                    Distance matrix (angstroms):
                    1          2          3          4          5
     1  C    0.000000
     2  C    1.536700   0.000000
     3  C    2.503545   1.537899   0.000000
     4  H    1.097302   2.196847   3.478942   0.000000
     5  H    1.097798   2.191113   2.745221   1.779953   0.000000
     6  H    1.097197   2.168541   2.744644   1.769478   1.772509
     7  H    2.180159   1.132701   2.166462   2.552252   2.518956
     8  H    2.174580   1.112902   2.180554   2.538707   3.099758
     9  H    2.776601   2.188262   1.098094   3.787542   2.564305
    10  H    3.474313   2.193054   1.095504   4.348250   3.776268
    11  H    2.712365   2.170279   1.097600   3.735687   3.037208
                    6          7          8          9         10
     6  H    0.000000
     7  H    3.094827   0.000000
     8  H    2.492383   1.870250   0.000000
     9  H    3.139345   2.473670   3.101643   0.000000
    10  H    3.740549   2.550963   2.519210   1.775654   0.000000
    11  H    2.493553   3.084379   2.524831   1.778135   1.773481
                   11
    11  H    0.000000
 Stoichiometry    C3H8
 Framework group  C1[X(C3H8)]
 Deg. of freedom    27
 Full point group                 C1      NOp   1
 Largest Abelian subgroup         C1      NOp   1
 Largest concise Abelian subgroup C1      NOp   1
                         Standard orientation:                         
 ---------------------------------------------------------------------
 Center     Atomic      Atomic             Coordinates (Angstroms)
 Number     Number       Type             X           Y           Z
 ---------------------------------------------------------------------
      1          6           0        1.251831   -0.267556    0.002160
      2          6           0        0.000055    0.623787   -0.001252
      3          6           0       -1.251711   -0.269642   -0.000992
      4          1           0        2.176264    0.323576    0.009749
      5          1           0        1.263949   -0.939637    0.870100
      6          1           0        1.265768   -0.889402   -0.901696
      7          1           0       -0.014281    1.229210    0.955967
      8          1           0        0.005133    1.260627   -0.913919
      9          1           0       -1.299470   -0.883853    0.908004
     10          1           0       -2.171426    0.322616   -0.060020
     11          1           0       -1.226984   -0.942671   -0.867679
 ---------------------------------------------------------------------
 Rotational constants (GHZ):          28.0170609           8.6368424           7.5797167
 Leave Link  202 at Fri Sep 22 16:34:49 2023, MaxMem=   268435456 cpu:               0.0 elap:               0.0
 (Enter /share/apps/gaussian/g16/l301.exe)
 General basis read from cards:  (5D, 7F)
 Centers:       4      5      6      7      8      9     10     11
 S 3 1.00
     Exponent=  1.2251800000D+01 Coefficients=  2.3337100000D-02
     Exponent=  1.8687100000D+00 Coefficients=  1.5915000000D-01
     Exponent=  4.1820800000D-01 Coefficients=  5.0000000000D-01
 S 1 1.00
     Exponent=  1.0610000000D-01 Coefficients=  1.0000000000D+00
 P 1 1.00
     Exponent=  1.0000000000D+00 Coefficients=  1.0000000000D+00
 ****
 Centers:       1      2      3
 S 5 1.00
     Exponent=  1.2432000000D+03 Coefficients=  6.0336600000D-03
     Exponent=  1.8714500000D+02 Coefficients=  4.4957600000D-02
     Exponent=  4.2512600000D+01 Coefficients=  1.9790100000D-01
     Exponent=  1.1739300000D+01 Coefficients=  5.0000000000D-01
     Exponent=  3.5054800000D+00 Coefficients=  4.8036400000D-01
 S 2 1.00
     Exponent=  5.3908900000D+00 Coefficients= -7.0398000000D-02
     Exponent=  4.9334100000D-01 Coefficients=  5.0000000000D-01
 S 1 1.00
     Exponent=  1.4974100000D-01 Coefficients=  1.0000000000D+00
 P 3 1.00
     Exponent=  9.1805600000D+00 Coefficients=  4.3170100000D-02
     Exponent=  1.9365800000D+00 Coefficients=  2.2499900000D-01
     Exponent=  5.2629600000D-01 Coefficients=  5.0000000000D-01
 P 1 1.00
     Exponent=  1.3631900000D-01 Coefficients=  1.0000000000D+00
 D 1 1.00
     Exponent=  8.0000000000D-01 Coefficients=  1.0000000000D+00
 ****
 Ernie: Thresh=  0.10000D-02 Tol=  0.10000D-05 Strict=F.
 There are    85 symmetry adapted cartesian basis functions of A   symmetry.
 There are    82 symmetry adapted basis functions of A   symmetry.
    82 basis functions,   134 primitive gaussians,    85 cartesian basis functions
    13 alpha electrons       13 beta electrons
       nuclear repulsion energy        82.3048355078 Hartrees.
 IExCor=  402 DFT=T Ex+Corr=B3LYP ExCW=0 ScaHFX=  0.200000
 ScaDFX=  0.800000  0.720000  1.000000  0.810000 ScalE2=  1.000000  1.000000
 IRadAn=      5 IRanWt=     -1 IRanGd=            0 ICorTp=0 IEmpDi=141
 NAtoms=   11 NActive=   11 NUniq=   11 SFac= 1.00D+00 NAtFMM=   60 NAOKFM=F Big=F
 Integral buffers will be    131072 words long.
 Raffenetti 2 integral format.
 Two-electron integral symmetry is turned on.
 R6Disp:  Grimme-D3(BJ) Dispersion energy=       -0.0099757376 Hartrees.
 Nuclear repulsion after empirical dispersion term =       82.2948597702 Hartrees.
 ------------------------------------------------------------------------------
 Polarizable Continuum Model (PCM)
 =================================
 Model                : C-PCM.
 Atomic radii         : UFF (Universal Force Field).
 Polarization charges : Total charges.
 Charge compensation  : None.
 Solution method      : On-the-fly selection.
 Cavity type          : Scaled VdW (van der Waals Surface) (Alpha=1.100).
 Cavity algorithm     : GePol (No added spheres)
                        Default sphere list used, NSphG=   11.
                        Lebedev-Laikov grids with approx.  5.0 points / Ang**2.
                        Smoothing algorithm: York/Karplus (Gamma=1.0000).
                        Polarization charges: spherical gaussians, with
                                              point-specific exponents (IZeta= 3).
                        Self-potential: point-specific (ISelfS= 7).
                        Self-field    : sphere-specific E.n sum rule (ISelfD= 2).
 Solvent              : Toluene, Eps=   2.374100 Eps(inf)=   2.238315
 ------------------------------------------------------------------------------
 Spheres list:
 ISph  on   Nord     Re0    Alpha      Xe            Ye            Ze
    1   C      1    1.9255  1.100      1.251831     -0.267556      0.002160
    2   C      2    1.9255  1.100      0.000055      0.623787     -0.001252
    3   C      3    1.9255  1.100     -1.251711     -0.269642     -0.000992
    4   H      4    1.4430  1.100      2.176264      0.323576      0.009749
    5   H      5    1.4430  1.100      1.263949     -0.939637      0.870100
    6   H      6    1.4430  1.100      1.265768     -0.889402     -0.901696
    7   H      7    1.4430  1.100     -0.014281      1.229210      0.955967
    8   H      8    1.4430  1.100      0.005133      1.260627     -0.913919
    9   H      9    1.4430  1.100     -1.299470     -0.883853      0.908004
   10   H     10    1.4430  1.100     -2.171426      0.322616     -0.060020
   11   H     11    1.4430  1.100     -1.226984     -0.942671     -0.867679
 ------------------------------------------------------------------------------
 GePol: Number of generator spheres                  =      11
 GePol: Total number of spheres                      =      11
 GePol: Number of exposed spheres                    =      11 (100.00%)
 GePol: Number of points                             =     886
 GePol: Average weight of points                     =       0.14
 GePol: Minimum weight of points                     =   0.80D-08
 GePol: Maximum weight of points                     =    0.20577
 GePol: Number of points with low weight             =      43
 GePol: Fraction of low-weight points (<1% of avg)   =       4.85%
 GePol: Cavity surface area                          =    120.797 Ang**2
 GePol: Cavity volume                                =    104.065 Ang**3
 Leave Link  301 at Fri Sep 22 16:34:49 2023, MaxMem=   268435456 cpu:               0.2 elap:               0.1
 (Enter /share/apps/gaussian/g16/l302.exe)
 NPDir=0 NMtPBC=     1 NCelOv=     1 NCel=       1 NClECP=     1 NCelD=      1
         NCelK=      1 NCelE2=     1 NClLst=     1 CellRange=     0.0.
 One-electron integrals computed using PRISM.
 One-electron integral symmetry used in STVInt
 NBasis=    82 RedAO= T EigKep=  6.41D-03  NBF=    82
 NBsUse=    82 1.00D-06 EigRej= -1.00D+00 NBFU=    82
 Precomputing XC quadrature grid using
 IXCGrd= 4 IRadAn=           5 IRanWt=          -1 IRanGd=           0 AccXCQ= 0.00D+00.
 Generated NRdTot=       0 NPtTot=           0 NUsed=           0 NTot=          32
 NSgBfM=    85    85    85    85    85 MxSgAt=    11 MxSgA2=    11.
 Leave Link  302 at Fri Sep 22 16:34:49 2023, MaxMem=   268435456 cpu:               0.4 elap:               0.2
 (Enter /share/apps/gaussian/g16/l303.exe)
 DipDrv:  MaxL=1.
 Leave Link  303 at Fri Sep 22 16:34:49 2023, MaxMem=   268435456 cpu:               0.1 elap:               0.0
 (Enter /share/apps/gaussian/g16/l401.exe)
 ExpMin= 1.06D-01 ExpMax= 1.24D+03 ExpMxC= 1.87D+02 IAcc=3 IRadAn=         5 AccDes= 0.00D+00
 Harris functional with IExCor=  402 and IRadAn=       5 diagonalized for initial guess.
 HarFok:  IExCor=  402 AccDes= 0.00D+00 IRadAn=         5 IDoV= 1 UseB2=F ITyADJ=14
 ICtDFT=  3500011 ScaDFX=  1.000000  1.000000  1.000000  1.000000
 FoFCou: FMM=F IPFlag=           0 FMFlag=      100000 FMFlg1=           0
         NFxFlg=           0 DoJE=T BraDBF=F KetDBF=T FulRan=T
         wScrn=  0.000000 ICntrl=       500 IOpCl=  0 I1Cent=   200000004 NGrid=           0
         NMat0=    1 NMatS0=      1 NMatT0=    0 NMatD0=    1 NMtDS0=    0 NMtDT0=    0
 Petite list used in FoFCou.
 Harris En= -119.181592742375    
 JPrj=0 DoOrth=F DoCkMO=F.
 Leave Link  401 at Fri Sep 22 16:34:50 2023, MaxMem=   268435456 cpu:               2.2 elap:               1.1
 (Enter /share/apps/gaussian/g16/l502.exe)
 Keep R1 ints in memory in canonical form, NReq=7610633.
 FoFCou: FMM=F IPFlag=           0 FMFlag=           0 FMFlg1=           0
         NFxFlg=           0 DoJE=F BraDBF=F KetDBF=F FulRan=T
         wScrn=  0.000000 ICntrl=       600 IOpCl=  0 I1Cent=           0 NGrid=           0
         NMat0=    1 NMatS0=   3403 NMatT0=    0 NMatD0=    1 NMtDS0=    0 NMtDT0=    0
 Symmetry not used in FoFCou.
 Two-electron integral symmetry not used.
 Closed shell SCF:
 Using DIIS extrapolation, IDIIS=  1040.
 NGot=   268435456 LenX=   262627443 LenY=   262619777
 Requested convergence on RMS density matrix=1.00D-08 within 128 cycles.
 Requested convergence on MAX density matrix=1.00D-06.
 Requested convergence on             energy=1.00D-06.
 No special actions if energy rises.

 Cycle   1  Pass 1  IDiag  1:
 Inv3:  Mode=1 IEnd=     2354988.
 Iteration    1 A*A^-1 deviation from unit magnitude is 2.89D-15 for    866.
 Iteration    1 A*A^-1 deviation from orthogonality  is 1.52D-15 for    759    392.
 Iteration    1 A^-1*A deviation from unit magnitude is 2.66D-15 for    866.
 Iteration    1 A^-1*A deviation from orthogonality  is 1.11D-15 for    661     23.
 E= -118.970230502973    
 DIIS: error= 3.89D-02 at cycle   1 NSaved=   1.
 NSaved= 1 IEnMin= 1 EnMin= -118.970230502973     IErMin= 1 ErrMin= 3.89D-02
 ErrMax= 3.89D-02  0.00D+00 EMaxC= 1.00D-01 BMatC= 1.37D-01 BMatP= 1.37D-01
 IDIUse=3 WtCom= 6.11D-01 WtEn= 3.89D-01
 Coeff-Com:  0.100D+01
 Coeff-En:   0.100D+01
 Coeff:      0.100D+01
 Gap=     0.320 Goal=   None    Shift=    0.000
 GapD=    0.320 DampG=1.000 DampE=0.500 DampFc=0.5000 IDamp=-1.
 Damping current iteration by 5.00D-01
 RMSDP=9.50D-03 MaxDP=1.37D-01              OVMax= 1.92D-01

 Cycle   2  Pass 1  IDiag  1:
 E= -119.037597777191     Delta-E=       -0.067367274218 Rises=F Damp=T
 DIIS: error= 8.69D-03 at cycle   2 NSaved=   2.
 NSaved= 2 IEnMin= 2 EnMin= -119.037597777191     IErMin= 2 ErrMin= 8.69D-03
 ErrMax= 8.69D-03  0.00D+00 EMaxC= 1.00D-01 BMatC= 4.94D-03 BMatP= 1.37D-01
 IDIUse=3 WtCom= 9.13D-01 WtEn= 8.69D-02
 Coeff-Com:  0.110D+00 0.890D+00
 Coeff-En:   0.182D+00 0.818D+00
 Coeff:      0.117D+00 0.883D+00
 Gap=     0.386 Goal=   None    Shift=    0.000
 RMSDP=1.47D-03 MaxDP=1.67D-02 DE=-6.74D-02 OVMax= 1.10D-01

 Cycle   3  Pass 1  IDiag  1:
 E= -119.130628234347     Delta-E=       -0.093030457156 Rises=F Damp=F
 DIIS: error= 2.50D-03 at cycle   3 NSaved=   3.
 NSaved= 3 IEnMin= 3 EnMin= -119.130628234347     IErMin= 3 ErrMin= 2.50D-03
 ErrMax= 2.50D-03  0.00D+00 EMaxC= 1.00D-01 BMatC= 4.30D-04 BMatP= 4.94D-03
 IDIUse=3 WtCom= 9.75D-01 WtEn= 2.50D-02
 Coeff-Com:  0.190D-01 0.204D+00 0.777D+00
 Coeff-En:   0.000D+00 0.000D+00 0.100D+01
 Coeff:      0.185D-01 0.199D+00 0.782D+00
 Gap=     0.378 Goal=   None    Shift=    0.000
 RMSDP=3.10D-04 MaxDP=5.14D-03 DE=-9.30D-02 OVMax= 6.16D-03

 Cycle   4  Pass 1  IDiag  1:
 E= -119.130929456092     Delta-E=       -0.000301221745 Rises=F Damp=F
 DIIS: error= 8.85D-04 at cycle   4 NSaved=   4.
 NSaved= 4 IEnMin= 4 EnMin= -119.130929456092     IErMin= 4 ErrMin= 8.85D-04
 ErrMax= 8.85D-04  0.00D+00 EMaxC= 1.00D-01 BMatC= 1.08D-04 BMatP= 4.30D-04
 IDIUse=3 WtCom= 9.91D-01 WtEn= 8.85D-03
 Coeff-Com:  0.190D-02 0.334D-01 0.338D+00 0.627D+00
 Coeff-En:   0.000D+00 0.000D+00 0.124D+00 0.876D+00
 Coeff:      0.189D-02 0.331D-01 0.336D+00 0.629D+00
 Gap=     0.379 Goal=   None    Shift=    0.000
 RMSDP=1.20D-04 MaxDP=3.20D-03 DE=-3.01D-04 OVMax= 2.85D-03

 Cycle   5  Pass 1  IDiag  1:
 E= -119.131026087641     Delta-E=       -0.000096631548 Rises=F Damp=F
 DIIS: error= 2.79D-04 at cycle   5 NSaved=   5.
 NSaved= 5 IEnMin= 5 EnMin= -119.131026087641     IErMin= 5 ErrMin= 2.79D-04
 ErrMax= 2.79D-04  0.00D+00 EMaxC= 1.00D-01 BMatC= 8.95D-06 BMatP= 1.08D-04
 IDIUse=3 WtCom= 9.97D-01 WtEn= 2.79D-03
 Coeff-Com: -0.600D-03-0.381D-02 0.730D-01 0.277D+00 0.654D+00
 Coeff-En:   0.000D+00 0.000D+00 0.000D+00 0.000D+00 0.100D+01
 Coeff:     -0.598D-03-0.379D-02 0.728D-01 0.277D+00 0.655D+00
 Gap=     0.378 Goal=   None    Shift=    0.000
 RMSDP=3.14D-05 MaxDP=7.54D-04 DE=-9.66D-05 OVMax= 8.50D-04

 Cycle   6  Pass 1  IDiag  1:
 E= -119.131034908013     Delta-E=       -0.000008820372 Rises=F Damp=F
 DIIS: error= 2.16D-05 at cycle   6 NSaved=   6.
 NSaved= 6 IEnMin= 6 EnMin= -119.131034908013     IErMin= 6 ErrMin= 2.16D-05
 ErrMax= 2.16D-05  0.00D+00 EMaxC= 1.00D-01 BMatC= 2.83D-08 BMatP= 8.95D-06
 IDIUse=1 WtCom= 1.00D+00 WtEn= 0.00D+00
 Coeff-Com: -0.732D-04-0.127D-02 0.127D-01 0.554D-01 0.153D+00 0.780D+00
 Coeff:     -0.732D-04-0.127D-02 0.127D-01 0.554D-01 0.153D+00 0.780D+00
 Gap=     0.378 Goal=   None    Shift=    0.000
 RMSDP=2.74D-06 MaxDP=3.04D-05 DE=-8.82D-06 OVMax= 5.40D-05

 Cycle   7  Pass 1  IDiag  1:
 E= -119.131034938981     Delta-E=       -0.000000030968 Rises=F Damp=F
 DIIS: error= 2.67D-06 at cycle   7 NSaved=   7.
 NSaved= 7 IEnMin= 7 EnMin= -119.131034938981     IErMin= 7 ErrMin= 2.67D-06
 ErrMax= 2.67D-06  0.00D+00 EMaxC= 1.00D-01 BMatC= 4.13D-10 BMatP= 2.83D-08
 IDIUse=1 WtCom= 1.00D+00 WtEn= 0.00D+00
 Coeff-Com:  0.346D-04-0.136D-04-0.114D-02-0.371D-02-0.561D-02 0.836D-01
 Coeff-Com:  0.927D+00
 Coeff:      0.346D-04-0.136D-04-0.114D-02-0.371D-02-0.561D-02 0.836D-01
 Coeff:      0.927D+00
 Gap=     0.378 Goal=   None    Shift=    0.000
 RMSDP=3.57D-07 MaxDP=4.51D-06 DE=-3.10D-08 OVMax= 7.39D-06

 Cycle   8  Pass 1  IDiag  1:
 E= -119.131034939460     Delta-E=       -0.000000000479 Rises=F Damp=F
 DIIS: error= 3.65D-07 at cycle   8 NSaved=   8.
 NSaved= 8 IEnMin= 8 EnMin= -119.131034939460     IErMin= 8 ErrMin= 3.65D-07
 ErrMax= 3.65D-07  0.00D+00 EMaxC= 1.00D-01 BMatC= 1.35D-11 BMatP= 4.13D-10
 IDIUse=1 WtCom= 1.00D+00 WtEn= 0.00D+00
 Coeff-Com:  0.958D-05 0.168D-05-0.410D-03-0.138D-02-0.232D-02 0.215D-01
 Coeff-Com:  0.284D+00 0.699D+00
 Coeff:      0.958D-05 0.168D-05-0.410D-03-0.138D-02-0.232D-02 0.215D-01
 Coeff:      0.284D+00 0.699D+00
 Gap=     0.378 Goal=   None    Shift=    0.000
 RMSDP=5.49D-08 MaxDP=1.04D-06 DE=-4.79D-10 OVMax= 1.29D-06

 Cycle   9  Pass 1  IDiag  1:
 E= -119.131034939469     Delta-E=       -0.000000000009 Rises=F Damp=F
 DIIS: error= 2.04D-07 at cycle   9 NSaved=   9.
 NSaved= 9 IEnMin= 9 EnMin= -119.131034939469     IErMin= 9 ErrMin= 2.04D-07
 ErrMax= 2.04D-07  0.00D+00 EMaxC= 1.00D-01 BMatC= 4.04D-12 BMatP= 1.35D-11
 IDIUse=1 WtCom= 1.00D+00 WtEn= 0.00D+00
 Coeff-Com: -0.925D-06 0.253D-05-0.295D-04-0.108D-03-0.236D-03-0.183D-02
 Coeff-Com:  0.158D-02 0.360D+00 0.641D+00
 Coeff:     -0.925D-06 0.253D-05-0.295D-04-0.108D-03-0.236D-03-0.183D-02
 Coeff:      0.158D-02 0.360D+00 0.641D+00
 Gap=     0.378 Goal=   None    Shift=    0.000
 RMSDP=2.02D-08 MaxDP=3.89D-07 DE=-9.41D-12 OVMax= 4.72D-07

 Cycle  10  Pass 1  IDiag  1:
 E= -119.131034939473     Delta-E=       -0.000000000003 Rises=F Damp=F
 DIIS: error= 4.76D-09 at cycle  10 NSaved=  10.
 NSaved=10 IEnMin=10 EnMin= -119.131034939473     IErMin=10 ErrMin= 4.76D-09
 ErrMax= 4.76D-09  0.00D+00 EMaxC= 1.00D-01 BMatC= 2.26D-15 BMatP= 4.04D-12
 IDIUse=1 WtCom= 1.00D+00 WtEn= 0.00D+00
 Coeff-Com: -0.207D-06 0.270D-06 0.425D-06-0.457D-06-0.104D-04-0.339D-03
 Coeff-Com: -0.218D-02 0.328D-01 0.691D-01 0.901D+00
 Coeff:     -0.207D-06 0.270D-06 0.425D-06-0.457D-06-0.104D-04-0.339D-03
 Coeff:     -0.218D-02 0.328D-01 0.691D-01 0.901D+00
 Gap=     0.378 Goal=   None    Shift=    0.000
 RMSDP=1.04D-09 MaxDP=1.98D-08 DE=-3.27D-12 OVMax= 2.06D-08

 Error on total polarization charges =  0.00618
 SCF Done:  E(RB3LYP) =  -119.131034939     A.U. after   10 cycles
            NFock= 10  Conv=0.10D-08     -V/T= 2.0078
 KE= 1.182058374760D+02 PE=-4.393895537398D+02 EE= 1.197578215541D+02
 Leave Link  502 at Fri Sep 22 16:35:04 2023, MaxMem=   268435456 cpu:              27.0 elap:              13.6
 (Enter /share/apps/gaussian/g16/l601.exe)
 Copying SCF densities to generalized density rwf, IOpCl= 0 IROHF=0.

 **********************************************************************

            Population analysis using the SCF density.

 **********************************************************************

 Orbital symmetries:
       Occupied  (A) (A) (A) (A) (A) (A) (A) (A) (A) (A) (A) (A)
                 (A)
       Virtual   (A) (A) (A) (A) (A) (A) (A) (A) (A) (A) (A) (A)
                 (A) (A) (A) (A) (A) (A) (A) (A) (A) (A) (A) (A)
                 (A) (A) (A) (A) (A) (A) (A) (A) (A) (A) (A) (A)
                 (A) (A) (A) (A) (A) (A) (A) (A) (A) (A) (A) (A)
                 (A) (A) (A) (A) (A) (A) (A) (A) (A) (A) (A) (A)
                 (A) (A) (A) (A) (A) (A) (A) (A) (A)
 The electronic state is 1-A.
 Alpha  occ. eigenvalues --  -10.17573 -10.16311 -10.16296  -0.78101  -0.67821
 Alpha  occ. eigenvalues --   -0.58053  -0.46117  -0.43624  -0.39681  -0.38053
 Alpha  occ. eigenvalues --   -0.33844  -0.33595  -0.33176
 Alpha virt. eigenvalues --    0.04668   0.08689   0.08759   0.08892   0.11562
 Alpha virt. eigenvalues --    0.13465   0.14441   0.15525   0.18729   0.23259
 Alpha virt. eigenvalues --    0.37802   0.38712   0.39802   0.40080   0.41135
 Alpha virt. eigenvalues --    0.57591   0.58274   0.59275   0.62299   0.63708
 Alpha virt. eigenvalues --    0.64262   0.64911   0.65371   0.66582   0.69048
 Alpha virt. eigenvalues --    0.70186   0.71587   0.91319   1.22609   1.22975
 Alpha virt. eigenvalues --    1.25768   1.33841   1.46362   1.56640   1.58635
 Alpha virt. eigenvalues --    1.72813   1.73611   1.78894   1.86438   1.86962
 Alpha virt. eigenvalues --    1.88741   1.90397   1.92291   1.95691   1.97951
 Alpha virt. eigenvalues --    2.05977   2.07336   2.10723   2.12156   2.19425
 Alpha virt. eigenvalues --    2.24667   2.31995   2.45296   2.48128   2.56281
 Alpha virt. eigenvalues --    2.59190   2.60622   2.71489   2.75705   2.78299
 Alpha virt. eigenvalues --    2.78764   2.98529   3.05233   3.09867   3.13485
 Alpha virt. eigenvalues --    3.19778   3.27650   3.30751   3.31733
          Condensed to atoms (all electrons):
               1          2          3          4          5          6
     1  C    4.783171   0.399588  -0.086827   0.394782   0.399962   0.398756
     2  C    0.399588   4.866265   0.399332  -0.024178  -0.034795  -0.036589
     3  C   -0.086827   0.399332   4.783891   0.009517  -0.005936  -0.007311
     4  H    0.394782  -0.024178   0.009517   0.598089  -0.026057  -0.026486
     5  H    0.399962  -0.034795  -0.005936  -0.026057   0.605343  -0.027366
     6  H    0.398756  -0.036589  -0.007311  -0.026486  -0.027366   0.610690
     7  H   -0.036734   0.389293  -0.037697  -0.005675  -0.008414   0.010275
     8  H   -0.034441   0.392484  -0.034065  -0.005418   0.009741  -0.008536
     9  H   -0.006104  -0.033391   0.399347   0.000066   0.006979  -0.001906
    10  H    0.009520  -0.024119   0.394859  -0.000535   0.000142   0.000116
    11  H   -0.006993  -0.038487   0.399431   0.000180  -0.002184   0.007990
               7          8          9         10         11
     1  C   -0.036734  -0.034441  -0.006104   0.009520  -0.006993
     2  C    0.389293   0.392484  -0.033391  -0.024119  -0.038487
     3  C   -0.037697  -0.034065   0.399347   0.394859   0.399431
     4  H   -0.005675  -0.005418   0.000066  -0.000535   0.000180
     5  H   -0.008414   0.009741   0.006979   0.000142  -0.002184
     6  H    0.010275  -0.008536  -0.001906   0.000116   0.007990
     7  H    0.628288  -0.028917  -0.009477  -0.004946   0.010459
     8  H   -0.028917   0.619485   0.009677  -0.006263  -0.007558
     9  H   -0.009477   0.009677   0.604656  -0.026253  -0.026991
    10  H   -0.004946  -0.006263  -0.026253   0.598465  -0.026221
    11  H    0.010459  -0.007558  -0.026991  -0.026221   0.610396
 Mulliken charges:
               1
     1  C   -0.214681
     2  C   -0.255405
     3  C   -0.214542
     4  H    0.085714
     5  H    0.082585
     6  H    0.080365
     7  H    0.093545
     8  H    0.093810
     9  H    0.083397
    10  H    0.085234
    11  H    0.079978
 Sum of Mulliken charges =   0.00000
 Mulliken charges with hydrogens summed into heavy atoms:
               1
     1  C    0.033983
     2  C   -0.068049
     3  C    0.034066
 Electronic spatial extent (au):  <R**2>=            226.0429
 Charge=              0.0000 electrons
 Dipole moment (field-independent basis, Debye):
    X=             -0.0017    Y=              0.0149    Z=             -0.0183  Tot=              0.0237
 Quadrupole moment (field-independent basis, Debye-Ang):
   XX=            -22.7611   YY=            -22.4720   ZZ=            -21.5149
   XY=             -0.0236   XZ=             -0.0345   YZ=             -0.1122
 Traceless Quadrupole moment (field-independent basis, Debye-Ang):
   XX=             -0.5117   YY=             -0.2227   ZZ=              0.7344
   XY=             -0.0236   XZ=             -0.0345   YZ=             -0.1122
 Octapole moment (field-independent basis, Debye-Ang**2):
  XXX=              0.0329  YYY=             -0.3890  ZZZ=              0.0131  XYY=              0.0102
  XXY=              1.4583  XXZ=              0.0041  XZZ=             -0.0320  YZZ=             -0.2318
  YYZ=             -0.0835  XYZ=              0.0218
 Hexadecapole moment (field-independent basis, Debye-Ang**3):
 XXXX=           -201.9928 YYYY=            -76.4849 ZZZZ=            -45.6896 XXXY=             -0.0548
 XXXZ=              0.0641 YYYX=             -0.0717 YYYZ=             -0.4030 ZZZX=             -0.2221
 ZZZY=             -0.1842 XXYY=            -46.1187 XXZZ=            -42.1724 YYZZ=            -18.2736
 XXYZ=             -0.2864 YYXZ=              0.0274 ZZXY=             -0.0168
 N-N= 8.229485977019D+01 E-N=-4.393895535393D+02  KE= 1.182058374760D+02
 There are a total of      243782 grid points.
 ElSum from          density=       26.0000031406
 ElSum from atomic densities=       26.0000045316
 Hirshfeld populations at iteration   1 (CA, CB, DipXYZ):
               1          2          3          4          5
     1  C    3.040929   3.040929  -0.024889   0.019723   0.003017
     2  C    3.016987   3.016987   0.000557  -0.027369  -0.007194
     3  C    3.040983   3.040983   0.024398   0.019453   0.002300
     4  H    0.487853   0.487853   0.109903   0.074927  -0.000249
     5  H    0.487216   0.487216   0.001131  -0.078564   0.105357
     6  H    0.488022   0.488022   0.000745  -0.069853  -0.109531
     7  H    0.488202   0.488202  -0.002813   0.054590   0.116402
     8  H    0.486754   0.486754   0.000859   0.064022  -0.116585
     9  H    0.487144   0.487144  -0.005474  -0.070572   0.111234
    10  H    0.487843   0.487843  -0.109375   0.075715  -0.007644
    11  H    0.488068   0.488068   0.004370  -0.075776  -0.104969
       Tot  13.000002  13.000002  -0.000587  -0.013705  -0.007864

 Dip from Atomic Chgs             -0.000096   0.019585   0.000676
         Total Dipole             -0.000683   0.005880  -0.007188

 Hirshfeld charges, spin densities, dipoles, and CM5 charges using IRadAn=      5:
              Q-H        S-H        Dx         Dy         Dz        Q-CM5   
     1  C   -0.081858   0.000000  -0.024889   0.019723   0.003017  -0.230792
     2  C   -0.033973   0.000000   0.000557  -0.027369  -0.007194  -0.141219
     3  C   -0.081967   0.000000   0.024398   0.019453   0.002300  -0.231084
     4  H    0.024295   0.000000   0.109903   0.074927  -0.000249   0.074436
     5  H    0.025569   0.000000   0.001131  -0.078564   0.105357   0.076362
     6  H    0.023956   0.000000   0.000745  -0.069853  -0.109531   0.075000
     7  H    0.023596   0.000000  -0.002813   0.054590   0.116402   0.073134
     8  H    0.026491   0.000000   0.000859   0.064022  -0.116585   0.078119
     9  H    0.025712   0.000000  -0.005474  -0.070572   0.111234   0.076434
    10  H    0.024313   0.000000  -0.109375   0.075715  -0.007644   0.074694
    11  H    0.023863   0.000000   0.004370  -0.075776  -0.104969   0.074913
       Tot  -0.000003   0.000000  -0.000587  -0.013705  -0.007864  -0.000003
 Hirshfeld charges with hydrogens summed into heavy atoms:
              Q-H       Q-CM5   
     1  C   -0.008039  -0.004994
     2  C    0.016114   0.010034
     3  C   -0.008078  -0.005043
 
 EQQ= 0.000000000000E+00 EQD= 0.000000000000E+00 EDD=-0.202953675136E-02
 EQQ+QD+DD=-0.202953675136E-02
 
 No NMR shielding tensors so no spin-rotation constants.
 Leave Link  601 at Fri Sep 22 16:35:05 2023, MaxMem=   268435456 cpu:               1.9 elap:               0.9
 (Enter /share/apps/gaussian/g16/l9999.exe)
 1\1\GINC-NODE99\SP\RB3LYP\Gen\C3H8\YANZ\22-Sep-2023\0\\#p b3lyp/gen sc
 rf=(cpcm,solvent=toluene) pop=hirshfeld empiricaldispersion=gd3bj\\tmp
 dir/M2_conf_0_123.gjf\\0,1\C,0,0.,0.,0.\C,0,1.5367,0.,0.\C,0,2.03815,0
 .,1.45385\H,0,-0.41017,-0.00764,-1.01773\H,0,-0.40163,-0.86654,0.54126
 \H,0,-0.37004,0.90515,0.49761\H,0,1.89742,-0.95848,-0.48395\H,0,1.9039
 8,0.91136,-0.52257\H,0,1.71877,-0.90779,1.98274\H,0,3.131,0.05665,1.50
 482\H,0,1.62955,0.8681,1.98693\\Version=ES64L-G16RevA.03\State=1-A\HF=
 -119.1310349\RMSD=1.040e-09\Dipole=0.0039837,0.0071766,-0.0044013\Quad
 rupole=-0.2914666,0.5457482,-0.2542816,0.0292505,-0.107478,-0.0833546\
 PG=C01 [X(C3H8)]\\@


 Happiness is a conscious choice, not an automatic response.
 -- Mildred Barthel
 Job cpu time:       0 days  0 hours  0 minutes 32.1 seconds.
 Elapsed time:       0 days  0 hours  0 minutes 16.2 seconds.
 File lengths (MBytes):  RWF=     13 Int=      0 D2E=      0 Chk=      2 Scr=      1
 Normal termination of Gaussian 16 at Fri Sep 22 16:35:05 2023.
