 Entering Gaussian System, Link 0=g16
 Initial command:
 /share/apps/gaussian/g16/l1.exe "/tmp/55556.mgr/Gau-87114.inp" -scrdir="/tmp/55556.mgr/"
 Entering Link 1 = /share/apps/gaussian/g16/l1.exe PID=     87115.
  
 Copyright (c) 1988,1990,1992,1993,1995,1998,2003,2009,2016,
            Gaussian, Inc.  All Rights Reserved.
  
 This is part of the Gaussian(R) 16 program.  It is based on
 the Gaussian(R) 09 system (copyright 2009, Gaussian, Inc.),
 the Gaussian(R) 03 system (copyright 2003, Gaussian, Inc.),
 the Gaussian(R) 98 system (copyright 1998, Gaussian, Inc.),
 the Gaussian(R) 94 system (copyright 1995, Gaussian, Inc.),
 the Gaussian 92(TM) system (copyright 1992, Gaussian, Inc.),
 the Gaussian 90(TM) system (copyright 1990, Gaussian, Inc.),
 the Gaussian 88(TM) system (copyright 1988, Gaussian, Inc.),
 the Gaussian 86(TM) system (copyright 1986, Carnegie Mellon
 University), and the Gaussian 82(TM) system (copyright 1983,
 Carnegie Mellon University). Gaussian is a federally registered
 trademark of Gaussian, Inc.
  
 This software contains proprietary and confidential information,
 including trade secrets, belonging to Gaussian, Inc.
  
 This software is provided under written license and may be
 used, copied, transmitted, or stored only in accord with that
 written license.
  
 The following legend is applicable only to US Government
 contracts under FAR:
  
                    RESTRICTED RIGHTS LEGEND
  
 Use, reproduction and disclosure by the US Government is
 subject to restrictions as set forth in subparagraphs (a)
 and (c) of the Commercial Computer Software - Restricted
 Rights clause in FAR 52.227-19.
  
 Gaussian, Inc.
 340 Quinnipiac St., Bldg. 40, Wallingford CT 06492
  
  
 ---------------------------------------------------------------
 Warning -- This program may not be used in any manner that
 competes with the business of Gaussian, Inc. or will provide
 assistance to any competitor of Gaussian, Inc.  The licensee
 of this program is prohibited from giving any competitor of
 Gaussian, Inc. access to this program.  By using this program,
 the user acknowledges that Gaussian, Inc. is engaged in the
 business of creating and licensing software in the field of
 computational chemistry and represents and warrants to the
 licensee that it is not a competitor of Gaussian, Inc. and that
 it will not use this program in any manner prohibited above.
 ---------------------------------------------------------------
  

 Cite this work as:
 Gaussian 16, Revision A.03,
 M. J. Frisch, G. W. Trucks, H. B. Schlegel, G. E. Scuseria, 
 M. A. Robb, J. R. Cheeseman, G. Scalmani, V. Barone, 
 G. A. Petersson, H. Nakatsuji, X. Li, M. Caricato, A. V. Marenich, 
 J. Bloino, B. G. Janesko, R. Gomperts, B. Mennucci, H. P. Hratchian, 
 J. V. Ortiz, A. F. Izmaylov, J. L. Sonnenberg, D. Williams-Young, 
 F. Ding, F. Lipparini, F. Egidi, J. Goings, B. Peng, A. Petrone, 
 T. Henderson, D. Ranasinghe, V. G. Zakrzewski, J. Gao, N. Rega, 
 G. Zheng, W. Liang, M. Hada, M. Ehara, K. Toyota, R. Fukuda, 
 J. Hasegawa, M. Ishida, T. Nakajima, Y. Honda, O. Kitao, H. Nakai, 
 T. Vreven, K. Throssell, J. A. Montgomery, Jr., J. E. Peralta, 
 F. Ogliaro, M. J. Bearpark, J. J. Heyd, E. N. Brothers, K. N. Kudin, 
 V. N. Staroverov, T. A. Keith, R. Kobayashi, J. Normand, 
 K. Raghavachari, A. P. Rendell, J. C. Burant, S. S. Iyengar, 
 J. Tomasi, M. Cossi, J. M. Millam, M. Klene, C. Adamo, R. Cammi, 
 J. W. Ochterski, R. L. Martin, K. Morokuma, O. Farkas, 
 J. B. Foresman, and D. J. Fox, Gaussian, Inc., Wallingford CT, 2016.
 
 ******************************************
 Gaussian 16:  ES64L-G16RevA.03 25-Dec-2016
                22-Sep-2023 
 ******************************************
 %nprocshared=2
 Will use up to    2 processors via shared memory.
 %mem=2GB
 ----------------------------------------------------------------------
 #p b3lyp/gen scrf=(cpcm,solvent=toluene) pop=hirshfeld empiricaldisper
 sion=gd3bj
 ----------------------------------------------------------------------
 1/38=1,172=1/1;
 2/12=2,17=6,18=5,40=1/2;
 3/5=7,11=2,25=1,30=1,70=2101,72=13,74=-5,124=41/1,2,3;
 4//1;
 5/5=2,38=5,53=13/2;
 6/7=2,8=2,9=2,10=2,28=1,79=1/1;
 99/5=1,9=1/99;
 Leave Link    1 at Fri Sep 22 16:35:47 2023, MaxMem=   268435456 cpu:               0.1 elap:               0.0
 (Enter /share/apps/gaussian/g16/l101.exe)
 ------------------------
 tmpdir/M2_conf_0_342.gjf
 ------------------------
 Symbolic Z-matrix:
 Charge =  0 Multiplicity = 1
 C                     0.        0.        0. 
 C                     1.5403    0.        0. 
 H                     1.88233   0.        1.03968 
 H                    -0.43355   0.95125   0.35679 
 H                    -0.33711  -0.84647   0.61274 
 H                    -0.36428  -0.19632  -1.01563 
 H                     2.00289   0.90436  -0.46817 
 H                     1.90905  -1.00236  -0.4488 
 
 ITRead=  0  0  0  0  0  0  0  0
 MicOpt= -1 -1 -1 -1 -1 -1 -1 -1
 NAtoms=      8 NQM=        8 NQMF=       0 NMMI=      0 NMMIF=      0
                NMic=       0 NMicF=      0.
                    Isotopes and Nuclear Properties:
 (Nuclear quadrupole moments (NQMom) in fm**2, nuclear magnetic moments (NMagM)
  in nuclear magnetons)

  Atom         1           2           3           4           5           6           7           8
 IAtWgt=          12          12           1           1           1           1           1           1
 AtmWgt=  12.0000000  12.0000000   1.0078250   1.0078250   1.0078250   1.0078250   1.0078250   1.0078250
 NucSpn=           0           0           1           1           1           1           1           1
 AtZEff=  -0.0000000  -0.0000000  -0.0000000  -0.0000000  -0.0000000  -0.0000000  -0.0000000  -0.0000000
 NQMom=    0.0000000   0.0000000   0.0000000   0.0000000   0.0000000   0.0000000   0.0000000   0.0000000
 NMagM=    0.0000000   0.0000000   2.7928460   2.7928460   2.7928460   2.7928460   2.7928460   2.7928460
 AtZNuc=   6.0000000   6.0000000   1.0000000   1.0000000   1.0000000   1.0000000   1.0000000   1.0000000
 Leave Link  101 at Fri Sep 22 16:35:47 2023, MaxMem=   268435456 cpu:               0.2 elap:               0.1
 (Enter /share/apps/gaussian/g16/l202.exe)
                          Input orientation:                          
 ---------------------------------------------------------------------
 Center     Atomic      Atomic             Coordinates (Angstroms)
 Number     Number       Type             X           Y           Z
 ---------------------------------------------------------------------
      1          6           0        0.000000    0.000000    0.000000
      2          6           0        1.540300    0.000000    0.000000
      3          1           0        1.882330    0.000000    1.039680
      4          1           0       -0.433550    0.951250    0.356790
      5          1           0       -0.337110   -0.846470    0.612740
      6          1           0       -0.364280   -0.196320   -1.015630
      7          1           0        2.002890    0.904360   -0.468170
      8          1           0        1.909050   -1.002360   -0.448800
 ---------------------------------------------------------------------
                    Distance matrix (angstroms):
                    1          2          3          4          5
     1  C    0.000000
     2  C    1.540300   0.000000
     3  H    2.150372   1.094495   0.000000
     4  H    1.104600   2.219968   2.595095   0.000000
     5  H    1.098000   2.148634   2.413442   1.818408   0.000000
     6  H    1.096698   2.167365   3.051245   1.790322   1.753574
     7  H    2.246913   1.118499   1.762389   2.572741   3.115987
     8  H    2.202412   1.158501   1.794718   3.154892   2.489258
                    6          7          8
     6  H    0.000000
     7  H    2.667340   0.000000
     8  H    2.477706   1.909126   0.000000
 Stoichiometry    C2H6
 Framework group  C1[X(C2H6)]
 Deg. of freedom    18
 Full point group                 C1      NOp   1
 Largest Abelian subgroup         C1      NOp   1
 Largest concise Abelian subgroup C1      NOp   1
                         Standard orientation:                         
 ---------------------------------------------------------------------
 Center     Atomic      Atomic             Coordinates (Angstroms)
 Number     Number       Type             X           Y           Z
 ---------------------------------------------------------------------
      1          6           0       -0.772301    0.010054    0.001855
      2          6           0        0.767932    0.009999   -0.012485
      3          1           0        1.119577    0.118855    1.018250
      4          1           0       -1.203421    0.993450    0.261100
      5          1           0       -1.102926   -0.767589    0.702971
      6          1           0       -1.145787   -0.291524   -0.984200
      7          1           0        1.225316    0.860348   -0.577062
      8          1           0        1.133451   -1.033859   -0.357275
 ---------------------------------------------------------------------
 Rotational constants (GHZ):          76.9545802          19.9221092          19.5674495
 Leave Link  202 at Fri Sep 22 16:35:47 2023, MaxMem=   268435456 cpu:               0.0 elap:               0.0
 (Enter /share/apps/gaussian/g16/l301.exe)
 General basis read from cards:  (5D, 7F)
 Centers:       3      4      5      6      7      8
 S 3 1.00
     Exponent=  1.2251800000D+01 Coefficients=  2.3337100000D-02
     Exponent=  1.8687100000D+00 Coefficients=  1.5915000000D-01
     Exponent=  4.1820800000D-01 Coefficients=  5.0000000000D-01
 S 1 1.00
     Exponent=  1.0610000000D-01 Coefficients=  1.0000000000D+00
 P 1 1.00
     Exponent=  1.0000000000D+00 Coefficients=  1.0000000000D+00
 ****
 Centers:       1      2
 S 5 1.00
     Exponent=  1.2432000000D+03 Coefficients=  6.0336600000D-03
     Exponent=  1.8714500000D+02 Coefficients=  4.4957600000D-02
     Exponent=  4.2512600000D+01 Coefficients=  1.9790100000D-01
     Exponent=  1.1739300000D+01 Coefficients=  5.0000000000D-01
     Exponent=  3.5054800000D+00 Coefficients=  4.8036400000D-01
 S 2 1.00
     Exponent=  5.3908900000D+00 Coefficients= -7.0398000000D-02
     Exponent=  4.9334100000D-01 Coefficients=  5.0000000000D-01
 S 1 1.00
     Exponent=  1.4974100000D-01 Coefficients=  1.0000000000D+00
 P 3 1.00
     Exponent=  9.1805600000D+00 Coefficients=  4.3170100000D-02
     Exponent=  1.9365800000D+00 Coefficients=  2.2499900000D-01
     Exponent=  5.2629600000D-01 Coefficients=  5.0000000000D-01
 P 1 1.00
     Exponent=  1.3631900000D-01 Coefficients=  1.0000000000D+00
 D 1 1.00
     Exponent=  8.0000000000D-01 Coefficients=  1.0000000000D+00
 ****
 Ernie: Thresh=  0.10000D-02 Tol=  0.10000D-05 Strict=F.
 There are    60 symmetry adapted cartesian basis functions of A   symmetry.
 There are    58 symmetry adapted basis functions of A   symmetry.
    58 basis functions,    94 primitive gaussians,    60 cartesian basis functions
     9 alpha electrons        9 beta electrons
       nuclear repulsion energy        41.7386133873 Hartrees.
 IExCor=  402 DFT=T Ex+Corr=B3LYP ExCW=0 ScaHFX=  0.200000
 ScaDFX=  0.800000  0.720000  1.000000  0.810000 ScalE2=  1.000000  1.000000
 IRadAn=      5 IRanWt=     -1 IRanGd=            0 ICorTp=0 IEmpDi=141
 NAtoms=    8 NActive=    8 NUniq=    8 SFac= 1.00D+00 NAtFMM=   60 NAOKFM=F Big=F
 Integral buffers will be    131072 words long.
 Raffenetti 2 integral format.
 Two-electron integral symmetry is turned on.
 R6Disp:  Grimme-D3(BJ) Dispersion energy=       -0.0054031234 Hartrees.
 Nuclear repulsion after empirical dispersion term =       41.7332102639 Hartrees.
 ------------------------------------------------------------------------------
 Polarizable Continuum Model (PCM)
 =================================
 Model                : C-PCM.
 Atomic radii         : UFF (Universal Force Field).
 Polarization charges : Total charges.
 Charge compensation  : None.
 Solution method      : On-the-fly selection.
 Cavity type          : Scaled VdW (van der Waals Surface) (Alpha=1.100).
 Cavity algorithm     : GePol (No added spheres)
                        Default sphere list used, NSphG=    8.
                        Lebedev-Laikov grids with approx.  5.0 points / Ang**2.
                        Smoothing algorithm: York/Karplus (Gamma=1.0000).
                        Polarization charges: spherical gaussians, with
                                              point-specific exponents (IZeta= 3).
                        Self-potential: point-specific (ISelfS= 7).
                        Self-field    : sphere-specific E.n sum rule (ISelfD= 2).
 Solvent              : Toluene, Eps=   2.374100 Eps(inf)=   2.238315
 ------------------------------------------------------------------------------
 Spheres list:
 ISph  on   Nord     Re0    Alpha      Xe            Ye            Ze
    1   C      1    1.9255  1.100     -0.772301      0.010054      0.001855
    2   C      2    1.9255  1.100      0.767932      0.009999     -0.012485
    3   H      3    1.4430  1.100      1.119577      0.118855      1.018250
    4   H      4    1.4430  1.100     -1.203421      0.993450      0.261100
    5   H      5    1.4430  1.100     -1.102926     -0.767589      0.702971
    6   H      6    1.4430  1.100     -1.145787     -0.291524     -0.984200
    7   H      7    1.4430  1.100      1.225316      0.860348     -0.577062
    8   H      8    1.4430  1.100      1.133451     -1.033859     -0.357275
 ------------------------------------------------------------------------------
 GePol: Number of generator spheres                  =       8
 GePol: Total number of spheres                      =       8
 GePol: Number of exposed spheres                    =       8 (100.00%)
 GePol: Number of points                             =     710
 GePol: Average weight of points                     =       0.14
 GePol: Minimum weight of points                     =   0.51D-07
 GePol: Maximum weight of points                     =    0.20577
 GePol: Number of points with low weight             =      35
 GePol: Fraction of low-weight points (<1% of avg)   =       4.93%
 GePol: Cavity surface area                          =     97.396 Ang**2
 GePol: Cavity volume                                =     78.788 Ang**3
 Leave Link  301 at Fri Sep 22 16:35:47 2023, MaxMem=   268435456 cpu:               0.3 elap:               0.1
 (Enter /share/apps/gaussian/g16/l302.exe)
 NPDir=0 NMtPBC=     1 NCelOv=     1 NCel=       1 NClECP=     1 NCelD=      1
         NCelK=      1 NCelE2=     1 NClLst=     1 CellRange=     0.0.
 One-electron integrals computed using PRISM.
 One-electron integral symmetry used in STVInt
 NBasis=    58 RedAO= T EigKep=  9.13D-03  NBF=    58
 NBsUse=    58 1.00D-06 EigRej= -1.00D+00 NBFU=    58
 Precomputing XC quadrature grid using
 IXCGrd= 4 IRadAn=           5 IRanWt=          -1 IRanGd=           0 AccXCQ= 0.00D+00.
 Generated NRdTot=       0 NPtTot=           0 NUsed=           0 NTot=          32
 NSgBfM=    60    60    60    60    60 MxSgAt=     8 MxSgA2=     8.
 Leave Link  302 at Fri Sep 22 16:35:47 2023, MaxMem=   268435456 cpu:               0.3 elap:               0.2
 (Enter /share/apps/gaussian/g16/l303.exe)
 DipDrv:  MaxL=1.
 Leave Link  303 at Fri Sep 22 16:35:47 2023, MaxMem=   268435456 cpu:               0.1 elap:               0.1
 (Enter /share/apps/gaussian/g16/l401.exe)
 ExpMin= 1.06D-01 ExpMax= 1.24D+03 ExpMxC= 1.87D+02 IAcc=3 IRadAn=         5 AccDes= 0.00D+00
 Harris functional with IExCor=  402 and IRadAn=       5 diagonalized for initial guess.
 HarFok:  IExCor=  402 AccDes= 0.00D+00 IRadAn=         5 IDoV= 1 UseB2=F ITyADJ=14
 ICtDFT=  3500011 ScaDFX=  1.000000  1.000000  1.000000  1.000000
 FoFCou: FMM=F IPFlag=           0 FMFlag=      100000 FMFlg1=           0
         NFxFlg=           0 DoJE=T BraDBF=F KetDBF=T FulRan=T
         wScrn=  0.000000 ICntrl=       500 IOpCl=  0 I1Cent=   200000004 NGrid=           0
         NMat0=    1 NMatS0=      1 NMatT0=    0 NMatD0=    1 NMtDS0=    0 NMtDT0=    0
 Petite list used in FoFCou.
 Harris En= -79.8572394214047    
 JPrj=0 DoOrth=F DoCkMO=F.
 Leave Link  401 at Fri Sep 22 16:35:48 2023, MaxMem=   268435456 cpu:               1.3 elap:               0.6
 (Enter /share/apps/gaussian/g16/l502.exe)
 Keep R1 ints in memory in canonical form, NReq=3233002.
 FoFCou: FMM=F IPFlag=           0 FMFlag=           0 FMFlg1=           0
         NFxFlg=           0 DoJE=F BraDBF=F KetDBF=F FulRan=T
         wScrn=  0.000000 ICntrl=       600 IOpCl=  0 I1Cent=           0 NGrid=           0
         NMat0=    1 NMatS0=   1711 NMatT0=    0 NMatD0=    1 NMtDS0=    0 NMtDT0=    0
 Symmetry not used in FoFCou.
 Two-electron integral symmetry not used.
 Closed shell SCF:
 Using DIIS extrapolation, IDIIS=  1040.
 NGot=   268435456 LenX=   266962412 LenY=   266958371
 Requested convergence on RMS density matrix=1.00D-08 within 128 cycles.
 Requested convergence on MAX density matrix=1.00D-06.
 Requested convergence on             energy=1.00D-06.
 No special actions if energy rises.

 Cycle   1  Pass 1  IDiag  1:
 Inv3:  Mode=1 IEnd=     1512300.
 Iteration    1 A*A^-1 deviation from unit magnitude is 2.89D-15 for    710.
 Iteration    1 A*A^-1 deviation from orthogonality  is 1.25D-15 for    355     29.
 Iteration    1 A^-1*A deviation from unit magnitude is 2.66D-15 for    710.
 Iteration    1 A^-1*A deviation from orthogonality  is 7.60D-16 for    668    381.
 E= -79.7000355586455    
 DIIS: error= 3.97D-02 at cycle   1 NSaved=   1.
 NSaved= 1 IEnMin= 1 EnMin= -79.7000355586455     IErMin= 1 ErrMin= 3.97D-02
 ErrMax= 3.97D-02  0.00D+00 EMaxC= 1.00D-01 BMatC= 1.00D-01 BMatP= 1.00D-01
 IDIUse=3 WtCom= 6.03D-01 WtEn= 3.97D-01
 Coeff-Com:  0.100D+01
 Coeff-En:   0.100D+01
 Coeff:      0.100D+01
 Gap=     0.318 Goal=   None    Shift=    0.000
 GapD=    0.318 DampG=1.000 DampE=0.500 DampFc=0.5000 IDamp=-1.
 Damping current iteration by 5.00D-01
 RMSDP=1.10D-02 MaxDP=1.37D-01              OVMax= 1.89D-01

 Cycle   2  Pass 1  IDiag  1:
 E= -79.7496067013709     Delta-E=       -0.049571142725 Rises=F Damp=T
 DIIS: error= 9.78D-03 at cycle   2 NSaved=   2.
 NSaved= 2 IEnMin= 2 EnMin= -79.7496067013709     IErMin= 2 ErrMin= 9.78D-03
 ErrMax= 9.78D-03  0.00D+00 EMaxC= 1.00D-01 BMatC= 3.35D-03 BMatP= 1.00D-01
 IDIUse=3 WtCom= 9.02D-01 WtEn= 9.78D-02
 Coeff-Com:  0.111D+00 0.889D+00
 Coeff-En:   0.180D+00 0.820D+00
 Coeff:      0.118D+00 0.882D+00
 Gap=     0.411 Goal=   None    Shift=    0.000
 RMSDP=1.38D-03 MaxDP=1.14D-02 DE=-4.96D-02 OVMax= 1.03D-01

 Cycle   3  Pass 1  IDiag  1:
 E= -79.8174038146547     Delta-E=       -0.067797113284 Rises=F Damp=F
 DIIS: error= 1.76D-03 at cycle   3 NSaved=   3.
 NSaved= 3 IEnMin= 3 EnMin= -79.8174038146547     IErMin= 3 ErrMin= 1.76D-03
 ErrMax= 1.76D-03  0.00D+00 EMaxC= 1.00D-01 BMatC= 1.27D-04 BMatP= 3.35D-03
 IDIUse=3 WtCom= 9.82D-01 WtEn= 1.76D-02
 Coeff-Com:  0.165D-01 0.136D+00 0.847D+00
 Coeff-En:   0.000D+00 0.000D+00 0.100D+01
 Coeff:      0.162D-01 0.134D+00 0.850D+00
 Gap=     0.385 Goal=   None    Shift=    0.000
 RMSDP=1.98D-04 MaxDP=1.84D-03 DE=-6.78D-02 OVMax= 4.30D-03

 Cycle   4  Pass 1  IDiag  1:
 E= -79.8175116257409     Delta-E=       -0.000107811086 Rises=F Damp=F
 DIIS: error= 4.48D-04 at cycle   4 NSaved=   4.
 NSaved= 4 IEnMin= 4 EnMin= -79.8175116257409     IErMin= 4 ErrMin= 4.48D-04
 ErrMax= 4.48D-04  0.00D+00 EMaxC= 1.00D-01 BMatC= 1.03D-05 BMatP= 1.27D-04
 IDIUse=3 WtCom= 9.96D-01 WtEn= 4.48D-03
 Coeff-Com:  0.857D-03-0.957D-03 0.197D+00 0.803D+00
 Coeff-En:   0.000D+00 0.000D+00 0.000D+00 0.100D+01
 Coeff:      0.853D-03-0.952D-03 0.196D+00 0.804D+00
 Gap=     0.385 Goal=   None    Shift=    0.000
 RMSDP=6.06D-05 MaxDP=1.02D-03 DE=-1.08D-04 OVMax= 1.51D-03

 Cycle   5  Pass 1  IDiag  1:
 E= -79.8175186261151     Delta-E=       -0.000007000374 Rises=F Damp=F
 DIIS: error= 2.34D-04 at cycle   5 NSaved=   5.
 NSaved= 5 IEnMin= 5 EnMin= -79.8175186261151     IErMin= 5 ErrMin= 2.34D-04
 ErrMax= 2.34D-04  0.00D+00 EMaxC= 1.00D-01 BMatC= 3.13D-06 BMatP= 1.03D-05
 IDIUse=3 WtCom= 9.98D-01 WtEn= 2.34D-03
 Coeff-Com: -0.542D-05-0.534D-02 0.752D-01 0.436D+00 0.494D+00
 Coeff-En:   0.000D+00 0.000D+00 0.000D+00 0.174D+00 0.826D+00
 Coeff:     -0.541D-05-0.533D-02 0.751D-01 0.435D+00 0.495D+00
 Gap=     0.385 Goal=   None    Shift=    0.000
 RMSDP=2.33D-05 MaxDP=4.12D-04 DE=-7.00D-06 OVMax= 5.68D-04

 Cycle   6  Pass 1  IDiag  1:
 E= -79.8175217525668     Delta-E=       -0.000003126452 Rises=F Damp=F
 DIIS: error= 6.36D-06 at cycle   6 NSaved=   6.
 NSaved= 6 IEnMin= 6 EnMin= -79.8175217525668     IErMin= 6 ErrMin= 6.36D-06
 ErrMax= 6.36D-06  0.00D+00 EMaxC= 1.00D-01 BMatC= 2.39D-09 BMatP= 3.13D-06
 IDIUse=1 WtCom= 1.00D+00 WtEn= 0.00D+00
 Coeff-Com:  0.793D-04-0.775D-04-0.227D-02-0.728D-02 0.108D-01 0.999D+00
 Coeff:      0.793D-04-0.775D-04-0.227D-02-0.728D-02 0.108D-01 0.999D+00
 Gap=     0.385 Goal=   None    Shift=    0.000
 RMSDP=9.16D-07 MaxDP=1.77D-05 DE=-3.13D-06 OVMax= 2.13D-05

 Cycle   7  Pass 1  IDiag  1:
 E= -79.8175217552241     Delta-E=       -0.000000002657 Rises=F Damp=F
 DIIS: error= 9.49D-07 at cycle   7 NSaved=   7.
 NSaved= 7 IEnMin= 7 EnMin= -79.8175217552241     IErMin= 7 ErrMin= 9.49D-07
 ErrMax= 9.49D-07  0.00D+00 EMaxC= 1.00D-01 BMatC= 4.06D-11 BMatP= 2.39D-09
 IDIUse=1 WtCom= 1.00D+00 WtEn= 0.00D+00
 Coeff-Com:  0.143D-04 0.230D-04-0.105D-02-0.482D-02-0.131D-02 0.206D+00
 Coeff-Com:  0.801D+00
 Coeff:      0.143D-04 0.230D-04-0.105D-02-0.482D-02-0.131D-02 0.206D+00
 Coeff:      0.801D+00
 Gap=     0.385 Goal=   None    Shift=    0.000
 RMSDP=1.43D-07 MaxDP=2.19D-06 DE=-2.66D-09 OVMax= 2.31D-06

 Cycle   8  Pass 1  IDiag  1:
 E= -79.8175217552695     Delta-E=       -0.000000000045 Rises=F Damp=F
 DIIS: error= 1.58D-07 at cycle   8 NSaved=   8.
 NSaved= 8 IEnMin= 8 EnMin= -79.8175217552695     IErMin= 8 ErrMin= 1.58D-07
 ErrMax= 1.58D-07  0.00D+00 EMaxC= 1.00D-01 BMatC= 1.22D-12 BMatP= 4.06D-11
 IDIUse=1 WtCom= 1.00D+00 WtEn= 0.00D+00
 Coeff-Com: -0.989D-06 0.501D-05-0.985D-04-0.519D-03-0.442D-03 0.396D-02
 Coeff-Com:  0.142D+00 0.855D+00
 Coeff:     -0.989D-06 0.501D-05-0.985D-04-0.519D-03-0.442D-03 0.396D-02
 Coeff:      0.142D+00 0.855D+00
 Gap=     0.385 Goal=   None    Shift=    0.000
 RMSDP=2.33D-08 MaxDP=2.72D-07 DE=-4.55D-11 OVMax= 3.88D-07

 Cycle   9  Pass 1  IDiag  1:
 E= -79.8175217552712     Delta-E=       -0.000000000002 Rises=F Damp=F
 DIIS: error= 1.65D-08 at cycle   9 NSaved=   9.
 NSaved= 9 IEnMin= 9 EnMin= -79.8175217552712     IErMin= 9 ErrMin= 1.65D-08
 ErrMax= 1.65D-08  0.00D+00 EMaxC= 1.00D-01 BMatC= 1.45D-14 BMatP= 1.22D-12
 IDIUse=1 WtCom= 1.00D+00 WtEn= 0.00D+00
 Coeff-Com: -0.466D-06 0.433D-06-0.432D-06-0.155D-04-0.616D-04-0.274D-02
 Coeff-Com:  0.126D-01 0.148D+00 0.842D+00
 Coeff:     -0.466D-06 0.433D-06-0.432D-06-0.155D-04-0.616D-04-0.274D-02
 Coeff:      0.126D-01 0.148D+00 0.842D+00
 Gap=     0.385 Goal=   None    Shift=    0.000
 RMSDP=2.55D-09 MaxDP=3.22D-08 DE=-1.71D-12 OVMax= 4.19D-08

 Error on total polarization charges =  0.00546
 SCF Done:  E(RB3LYP) =  -79.8175217553     A.U. after    9 cycles
            NFock=  9  Conv=0.26D-08     -V/T= 2.0091
 KE= 7.909563110752D+01 PE=-2.673478996953D+02 EE= 6.670153656860D+01
 Leave Link  502 at Fri Sep 22 16:35:55 2023, MaxMem=   268435456 cpu:              13.2 elap:               6.7
 (Enter /share/apps/gaussian/g16/l601.exe)
 Copying SCF densities to generalized density rwf, IOpCl= 0 IROHF=0.

 **********************************************************************

            Population analysis using the SCF density.

 **********************************************************************

 Orbital symmetries:
       Occupied  (A) (A) (A) (A) (A) (A) (A) (A) (A)
       Virtual   (A) (A) (A) (A) (A) (A) (A) (A) (A) (A) (A) (A)
                 (A) (A) (A) (A) (A) (A) (A) (A) (A) (A) (A) (A)
                 (A) (A) (A) (A) (A) (A) (A) (A) (A) (A) (A) (A)
                 (A) (A) (A) (A) (A) (A) (A) (A) (A) (A) (A) (A)
                 (A)
 The electronic state is 1-A.
 Alpha  occ. eigenvalues --  -10.17347 -10.16733  -0.75065  -0.61035  -0.43868
 Alpha  occ. eigenvalues --   -0.42995  -0.36460  -0.34899  -0.33731
 Alpha virt. eigenvalues --    0.04777   0.08996   0.10007   0.10588   0.13448
 Alpha virt. eigenvalues --    0.13940   0.20995   0.37427   0.38254   0.39946
 Alpha virt. eigenvalues --    0.44815   0.49460   0.57819   0.61402   0.63489
 Alpha virt. eigenvalues --    0.64249   0.64825   0.66251   0.68533   0.94039
 Alpha virt. eigenvalues --    1.21589   1.26794   1.27174   1.57141   1.59568
 Alpha virt. eigenvalues --    1.74691   1.81218   1.85427   1.88611   1.89020
 Alpha virt. eigenvalues --    1.91110   1.92255   2.07181   2.08854   2.10353
 Alpha virt. eigenvalues --    2.24903   2.31112   2.46579   2.55017   2.57831
 Alpha virt. eigenvalues --    2.63158   2.75123   2.76654   2.93125   3.05684
 Alpha virt. eigenvalues --    3.14716   3.17344   3.24232   3.32108
          Condensed to atoms (all electrons):
               1          2          3          4          5          6
     1  C    4.757108   0.399224  -0.035754   0.398617   0.399222   0.400796
     2  C    0.399224   4.796416   0.398490  -0.030644  -0.032902  -0.036160
     3  H   -0.035754   0.398490   0.619618  -0.005075  -0.011026   0.010547
     4  H    0.398617  -0.030644  -0.005075   0.592338  -0.023489  -0.026753
     5  H    0.399222  -0.032902  -0.011026  -0.023489   0.606491  -0.028944
     6  H    0.400796  -0.036160   0.010547  -0.026753  -0.028944   0.609859
     7  H   -0.030675   0.397170  -0.030812  -0.006644   0.009039  -0.004992
     8  H   -0.034734   0.391252  -0.028758   0.008771  -0.004838  -0.009789
               7          8
     1  C   -0.030675  -0.034734
     2  C    0.397170   0.391252
     3  H   -0.030812  -0.028758
     4  H   -0.006644   0.008771
     5  H    0.009039  -0.004838
     6  H   -0.004992  -0.009789
     7  H    0.591728  -0.020607
     8  H   -0.020607   0.605374
 Mulliken charges:
               1
     1  C   -0.253805
     2  C   -0.282848
     3  H    0.082771
     4  H    0.092879
     5  H    0.086448
     6  H    0.085435
     7  H    0.095793
     8  H    0.093327
 Sum of Mulliken charges =  -0.00000
 Mulliken charges with hydrogens summed into heavy atoms:
               1
     1  C    0.010956
     2  C   -0.010956
 Electronic spatial extent (au):  <R**2>=            111.6386
 Charge=             -0.0000 electrons
 Dipole moment (field-independent basis, Debye):
    X=             -0.0359    Y=             -0.0098    Z=              0.0715  Tot=              0.0806
 Quadrupole moment (field-independent basis, Debye-Ang):
   XX=            -16.0896   YY=            -14.7596   ZZ=            -15.3239
   XY=              0.0705   XZ=              0.0546   YZ=             -0.0375
 Traceless Quadrupole moment (field-independent basis, Debye-Ang):
   XX=             -0.6985   YY=              0.6314   ZZ=              0.0671
   XY=              0.0705   XZ=              0.0546   YZ=             -0.0375
 Octapole moment (field-independent basis, Debye-Ang**2):
  XXX=             -0.2946  YYY=              0.1177  ZZZ=              0.3144  XYY=              0.0138
  XXY=              0.3345  XXZ=              0.0457  XZZ=             -0.1764  YZZ=             -0.1649
  YYZ=             -0.0648  XYZ=             -0.1225
 Hexadecapole moment (field-independent basis, Debye-Ang**3):
 XXXX=            -98.7408 YYYY=            -31.5348 ZZZZ=            -30.5701 XXXY=              0.3302
 XXXZ=              0.1347 YYYX=             -0.5049 YYYZ=             -0.0983 ZZZX=              1.1790
 ZZZY=             -0.0473 XXYY=            -20.1946 XXZZ=            -20.8862 YYZZ=            -10.4279
 XXYZ=             -0.1041 YYXZ=             -0.9993 ZZXY=              0.7248
 N-N= 4.173321026386D+01 E-N=-2.673478995276D+02  KE= 7.909563110752D+01
 There are a total of      177360 grid points.
 ElSum from          density=       17.9999999966
 ElSum from atomic densities=       17.9999998625
 Hirshfeld populations at iteration   1 (CA, CB, DipXYZ):
               1          2          3          4          5
     1  C    3.039426   3.039426   0.033174   0.010594   0.007038
     2  C    3.037134   3.037134  -0.042378   0.007607  -0.011065
     3  H    0.489788   0.489788   0.034455   0.014793   0.126850
     4  H    0.485847   0.485847  -0.047403   0.123263   0.029535
     5  H    0.486426   0.486426  -0.031660  -0.101091   0.083910
     6  H    0.488541   0.488541  -0.039150  -0.040856  -0.119599
     7  H    0.486408   0.486408   0.049767   0.111980  -0.058844
     8  H    0.486431   0.486431   0.028069  -0.124147  -0.029904
       Tot   9.000000   9.000000  -0.015124   0.002144   0.027920

 Dip from Atomic Chgs              0.001010  -0.006000   0.000211
         Total Dipole             -0.014114  -0.003856   0.028131

 Hirshfeld charges, spin densities, dipoles, and CM5 charges using IRadAn=      5:
              Q-H        S-H        Dx         Dy         Dz        Q-CM5   
     1  C   -0.078852   0.000000   0.033174   0.010594   0.007038  -0.228010
     2  C   -0.074267   0.000000  -0.042378   0.007607  -0.011065  -0.216092
     3  H    0.020423   0.000000   0.034455   0.014793   0.126850   0.071138
     4  H    0.028306   0.000000  -0.047403   0.123263   0.029535   0.077306
     5  H    0.027147   0.000000  -0.031660  -0.101091   0.083910   0.077469
     6  H    0.022919   0.000000  -0.039150  -0.040856  -0.119599   0.073234
     7  H    0.027185   0.000000   0.049767   0.111980  -0.058844   0.074439
     8  H    0.027138   0.000000   0.028069  -0.124147  -0.029904   0.070515
       Tot   0.000000   0.000000  -0.015124   0.002144   0.027920   0.000000
 Hirshfeld charges with hydrogens summed into heavy atoms:
              Q-H       Q-CM5   
     1  C   -0.000479  -0.000000
     2  C    0.000479   0.000000
 
 EQQ= 0.000000000000E+00 EQD= 0.000000000000E+00 EDD=-0.180645360303E-02
 EQQ+QD+DD=-0.180645360303E-02
 
 No NMR shielding tensors so no spin-rotation constants.
 Leave Link  601 at Fri Sep 22 16:35:55 2023, MaxMem=   268435456 cpu:               1.0 elap:               0.5
 (Enter /share/apps/gaussian/g16/l9999.exe)
 1\1\GINC-NODE99\SP\RB3LYP\Gen\C2H6\YANZ\22-Sep-2023\0\\#p b3lyp/gen sc
 rf=(cpcm,solvent=toluene) pop=hirshfeld empiricaldispersion=gd3bj\\tmp
 dir/M2_conf_0_342.gjf\\0,1\C,0,0.,0.,0.\C,0,1.5403,0.,0.\H,0,1.88233,0
 .,1.03968\H,0,-0.43355,0.95125,0.35679\H,0,-0.33711,-0.84647,0.61274\H
 ,0,-0.36428,-0.19632,-1.01563\H,0,2.00289,0.90436,-0.46817\H,0,1.90905
 ,-1.00236,-0.4488\\Version=ES64L-G16RevA.03\State=1-A\HF=-79.8175218\R
 MSD=2.553e-09\Dipole=-0.0143754,-0.0067668,0.0274404\Quadrupole=-0.520
 0569,0.4705367,0.0495202,0.0486197,0.0406103,0.016853\PG=C01 [X(C2H6)]
 \\@


 THE MOST INCOMPREHENSIBLE THING ABOUT THE WORLD
 IS THAT IT IS COMPREHENSIBLE. -- A. EINSTEIN
 Job cpu time:       0 days  0 hours  0 minutes 16.7 seconds.
 Elapsed time:       0 days  0 hours  0 minutes  8.5 seconds.
 File lengths (MBytes):  RWF=     11 Int=      0 D2E=      0 Chk=      2 Scr=      1
 Normal termination of Gaussian 16 at Fri Sep 22 16:35:55 2023.
