 Entering Gaussian System, Link 0=g16
 Initial command:
 /share/apps/gaussian/g16/l1.exe "/tmp/55556.mgr/Gau-88350.inp" -scrdir="/tmp/55556.mgr/"
 Entering Link 1 = /share/apps/gaussian/g16/l1.exe PID=     88351.
  
 Copyright (c) 1988,1990,1992,1993,1995,1998,2003,2009,2016,
            Gaussian, Inc.  All Rights Reserved.
  
 This is part of the Gaussian(R) 16 program.  It is based on
 the Gaussian(R) 09 system (copyright 2009, Gaussian, Inc.),
 the Gaussian(R) 03 system (copyright 2003, Gaussian, Inc.),
 the Gaussian(R) 98 system (copyright 1998, Gaussian, Inc.),
 the Gaussian(R) 94 system (copyright 1995, Gaussian, Inc.),
 the Gaussian 92(TM) system (copyright 1992, Gaussian, Inc.),
 the Gaussian 90(TM) system (copyright 1990, Gaussian, Inc.),
 the Gaussian 88(TM) system (copyright 1988, Gaussian, Inc.),
 the Gaussian 86(TM) system (copyright 1986, Carnegie Mellon
 University), and the Gaussian 82(TM) system (copyright 1983,
 Carnegie Mellon University). Gaussian is a federally registered
 trademark of Gaussian, Inc.
  
 This software contains proprietary and confidential information,
 including trade secrets, belonging to Gaussian, Inc.
  
 This software is provided under written license and may be
 used, copied, transmitted, or stored only in accord with that
 written license.
  
 The following legend is applicable only to US Government
 contracts under FAR:
  
                    RESTRICTED RIGHTS LEGEND
  
 Use, reproduction and disclosure by the US Government is
 subject to restrictions as set forth in subparagraphs (a)
 and (c) of the Commercial Computer Software - Restricted
 Rights clause in FAR 52.227-19.
  
 Gaussian, Inc.
 340 Quinnipiac St., Bldg. 40, Wallingford CT 06492
  
  
 ---------------------------------------------------------------
 Warning -- This program may not be used in any manner that
 competes with the business of Gaussian, Inc. or will provide
 assistance to any competitor of Gaussian, Inc.  The licensee
 of this program is prohibited from giving any competitor of
 Gaussian, Inc. access to this program.  By using this program,
 the user acknowledges that Gaussian, Inc. is engaged in the
 business of creating and licensing software in the field of
 computational chemistry and represents and warrants to the
 licensee that it is not a competitor of Gaussian, Inc. and that
 it will not use this program in any manner prohibited above.
 ---------------------------------------------------------------
  

 Cite this work as:
 Gaussian 16, Revision A.03,
 M. J. Frisch, G. W. Trucks, H. B. Schlegel, G. E. Scuseria, 
 M. A. Robb, J. R. Cheeseman, G. Scalmani, V. Barone, 
 G. A. Petersson, H. Nakatsuji, X. Li, M. Caricato, A. V. Marenich, 
 J. Bloino, B. G. Janesko, R. Gomperts, B. Mennucci, H. P. Hratchian, 
 J. V. Ortiz, A. F. Izmaylov, J. L. Sonnenberg, D. Williams-Young, 
 F. Ding, F. Lipparini, F. Egidi, J. Goings, B. Peng, A. Petrone, 
 T. Henderson, D. Ranasinghe, V. G. Zakrzewski, J. Gao, N. Rega, 
 G. Zheng, W. Liang, M. Hada, M. Ehara, K. Toyota, R. Fukuda, 
 J. Hasegawa, M. Ishida, T. Nakajima, Y. Honda, O. Kitao, H. Nakai, 
 T. Vreven, K. Throssell, J. A. Montgomery, Jr., J. E. Peralta, 
 F. Ogliaro, M. J. Bearpark, J. J. Heyd, E. N. Brothers, K. N. Kudin, 
 V. N. Staroverov, T. A. Keith, R. Kobayashi, J. Normand, 
 K. Raghavachari, A. P. Rendell, J. C. Burant, S. S. Iyengar, 
 J. Tomasi, M. Cossi, J. M. Millam, M. Klene, C. Adamo, R. Cammi, 
 J. W. Ochterski, R. L. Martin, K. Morokuma, O. Farkas, 
 J. B. Foresman, and D. J. Fox, Gaussian, Inc., Wallingford CT, 2016.
 
 ******************************************
 Gaussian 16:  ES64L-G16RevA.03 25-Dec-2016
                22-Sep-2023 
 ******************************************
 %nprocshared=2
 Will use up to    2 processors via shared memory.
 %mem=2GB
 ----------------------------------------------------------------------
 #p b3lyp/gen scrf=(cpcm,solvent=toluene) pop=hirshfeld empiricaldisper
 sion=gd3bj
 ----------------------------------------------------------------------
 1/38=1,172=1/1;
 2/12=2,17=6,18=5,40=1/2;
 3/5=7,11=2,25=1,30=1,70=2101,72=13,74=-5,124=41/1,2,3;
 4//1;
 5/5=2,38=5,53=13/2;
 6/7=2,8=2,9=2,10=2,28=1,79=1/1;
 99/5=1,9=1/99;
 Leave Link    1 at Fri Sep 22 16:36:59 2023, MaxMem=   268435456 cpu:               0.1 elap:               0.1
 (Enter /share/apps/gaussian/g16/l101.exe)
 ------------------------
 tmpdir/M2_conf_0_392.gjf
 ------------------------
 Symbolic Z-matrix:
 Charge =  0 Multiplicity = 1
 C                     0.        0.        0. 
 H                     1.0885    0.        0. 
 H                    -0.50692   0.       -0.89053 
 O                    -0.60832   0.0099    1.0502 
 
 ITRead=  0  0  0  0
 MicOpt= -1 -1 -1 -1
 NAtoms=      4 NQM=        4 NQMF=       0 NMMI=      0 NMMIF=      0
                NMic=       0 NMicF=      0.
                    Isotopes and Nuclear Properties:
 (Nuclear quadrupole moments (NQMom) in fm**2, nuclear magnetic moments (NMagM)
  in nuclear magnetons)

  Atom         1           2           3           4
 IAtWgt=          12           1           1          16
 AtmWgt=  12.0000000   1.0078250   1.0078250  15.9949146
 NucSpn=           0           1           1           0
 AtZEff=  -0.0000000  -0.0000000  -0.0000000  -0.0000000
 NQMom=    0.0000000   0.0000000   0.0000000   0.0000000
 NMagM=    0.0000000   2.7928460   2.7928460   0.0000000
 AtZNuc=   6.0000000   1.0000000   1.0000000   8.0000000
 Leave Link  101 at Fri Sep 22 16:36:59 2023, MaxMem=   268435456 cpu:               0.2 elap:               0.1
 (Enter /share/apps/gaussian/g16/l202.exe)
                          Input orientation:                          
 ---------------------------------------------------------------------
 Center     Atomic      Atomic             Coordinates (Angstroms)
 Number     Number       Type             X           Y           Z
 ---------------------------------------------------------------------
      1          6           0        0.000000    0.000000    0.000000
      2          1           0        1.088500    0.000000    0.000000
      3          1           0       -0.506920    0.000000   -0.890530
      4          8           0       -0.608320    0.009900    1.050200
 ---------------------------------------------------------------------
                    Distance matrix (angstroms):
                    1          2          3          4
     1  C    0.000000
     2  H    1.088500   0.000000
     3  H    1.024701   1.827131   0.000000
     4  O    1.213701   1.995549   1.943402   0.000000
 Stoichiometry    CH2O
 Framework group  C1[X(CH2O)]
 Deg. of freedom     6
 Full point group                 C1      NOp   1
 Largest Abelian subgroup         C1      NOp   1
 Largest concise Abelian subgroup C1      NOp   1
                         Standard orientation:                         
 ---------------------------------------------------------------------
 Center     Atomic      Atomic             Coordinates (Angstroms)
 Number     Number       Type             X           Y           Z
 ---------------------------------------------------------------------
      1          6           0       -0.540362   -0.011430   -0.001193
      2          1           0       -1.099600    0.922418    0.002414
      3          1           0       -1.043908   -0.903865    0.002569
      4          8           0        0.673210    0.006254    0.000272
 ---------------------------------------------------------------------
 Rotational constants (GHZ):         300.3504006          39.1157828          34.6087059
 Leave Link  202 at Fri Sep 22 16:36:59 2023, MaxMem=   268435456 cpu:               0.0 elap:               0.0
 (Enter /share/apps/gaussian/g16/l301.exe)
 General basis read from cards:  (5D, 7F)
 Centers:       2      3
 S 3 1.00
     Exponent=  1.2251800000D+01 Coefficients=  2.3337100000D-02
     Exponent=  1.8687100000D+00 Coefficients=  1.5915000000D-01
     Exponent=  4.1820800000D-01 Coefficients=  5.0000000000D-01
 S 1 1.00
     Exponent=  1.0610000000D-01 Coefficients=  1.0000000000D+00
 P 1 1.00
     Exponent=  1.0000000000D+00 Coefficients=  1.0000000000D+00
 ****
 Centers:       1
 S 5 1.00
     Exponent=  1.2432000000D+03 Coefficients=  6.0336600000D-03
     Exponent=  1.8714500000D+02 Coefficients=  4.4957600000D-02
     Exponent=  4.2512600000D+01 Coefficients=  1.9790100000D-01
     Exponent=  1.1739300000D+01 Coefficients=  5.0000000000D-01
     Exponent=  3.5054800000D+00 Coefficients=  4.8036400000D-01
 S 2 1.00
     Exponent=  5.3908900000D+00 Coefficients= -7.0398000000D-02
     Exponent=  4.9334100000D-01 Coefficients=  5.0000000000D-01
 S 1 1.00
     Exponent=  1.4974100000D-01 Coefficients=  1.0000000000D+00
 P 3 1.00
     Exponent=  9.1805600000D+00 Coefficients=  4.3170100000D-02
     Exponent=  1.9365800000D+00 Coefficients=  2.2499900000D-01
     Exponent=  5.2629600000D-01 Coefficients=  5.0000000000D-01
 P 1 1.00
     Exponent=  1.3631900000D-01 Coefficients=  1.0000000000D+00
 D 1 1.00
     Exponent=  8.0000000000D-01 Coefficients=  1.0000000000D+00
 ****
 Centers:       4
 S 5 1.00
     Exponent=  2.2886400000D+03 Coefficients=  5.8546800000D-03
     Exponent=  3.4441600000D+02 Coefficients=  4.3733300000D-02
     Exponent=  7.8253800000D+01 Coefficients=  1.9479600000D-01
     Exponent=  2.1719500000D+01 Coefficients=  5.0000000000D-01
     Exponent=  6.5590700000D+00 Coefficients=  4.8461400000D-01
 S 2 1.00
     Exponent=  1.0465600000D+01 Coefficients= -7.1334300000D-02
     Exponent=  9.6435100000D-01 Coefficients=  5.0000000000D-01
 S 1 1.00
     Exponent=  2.8512700000D-01 Coefficients=  1.0000000000D+00
 P 3 1.00
     Exponent=  1.7059000000D+01 Coefficients=  4.7443900000D-02
     Exponent=  3.6899900000D+00 Coefficients=  2.4268900000D-01
     Exponent=  9.9299600000D-01 Coefficients=  5.0000000000D-01
 P 1 1.00
     Exponent=  2.4492400000D-01 Coefficients=  1.0000000000D+00
 D 1 1.00
     Exponent=  1.0000000000D+00 Coefficients=  1.0000000000D+00
 ****
 Ernie: Thresh=  0.10000D-02 Tol=  0.10000D-05 Strict=F.
 There are    40 symmetry adapted cartesian basis functions of A   symmetry.
 There are    38 symmetry adapted basis functions of A   symmetry.
    38 basis functions,    66 primitive gaussians,    40 cartesian basis functions
     8 alpha electrons        8 beta electrons
       nuclear repulsion energy        31.5329822830 Hartrees.
 IExCor=  402 DFT=T Ex+Corr=B3LYP ExCW=0 ScaHFX=  0.200000
 ScaDFX=  0.800000  0.720000  1.000000  0.810000 ScalE2=  1.000000  1.000000
 IRadAn=      5 IRanWt=     -1 IRanGd=            0 ICorTp=0 IEmpDi=141
 NAtoms=    4 NActive=    4 NUniq=    4 SFac= 1.00D+00 NAtFMM=   60 NAOKFM=F Big=F
 Integral buffers will be    131072 words long.
 Raffenetti 2 integral format.
 Two-electron integral symmetry is turned on.
 R6Disp:  Grimme-D3(BJ) Dispersion energy=       -0.0018378155 Hartrees.
 Nuclear repulsion after empirical dispersion term =       31.5311444675 Hartrees.
 ------------------------------------------------------------------------------
 Polarizable Continuum Model (PCM)
 =================================
 Model                : C-PCM.
 Atomic radii         : UFF (Universal Force Field).
 Polarization charges : Total charges.
 Charge compensation  : None.
 Solution method      : On-the-fly selection.
 Cavity type          : Scaled VdW (van der Waals Surface) (Alpha=1.100).
 Cavity algorithm     : GePol (No added spheres)
                        Default sphere list used, NSphG=    4.
                        Lebedev-Laikov grids with approx.  5.0 points / Ang**2.
                        Smoothing algorithm: York/Karplus (Gamma=1.0000).
                        Polarization charges: spherical gaussians, with
                                              point-specific exponents (IZeta= 3).
                        Self-potential: point-specific (ISelfS= 7).
                        Self-field    : sphere-specific E.n sum rule (ISelfD= 2).
 Solvent              : Toluene, Eps=   2.374100 Eps(inf)=   2.238315
 ------------------------------------------------------------------------------
 Spheres list:
 ISph  on   Nord     Re0    Alpha      Xe            Ye            Ze
    1   C      1    1.9255  1.100     -0.540362     -0.011430     -0.001193
    2   H      2    1.4430  1.100     -1.099600      0.922418      0.002414
    3   H      3    1.4430  1.100     -1.043908     -0.903865      0.002569
    4   O      4    1.7500  1.100      0.673210      0.006254      0.000272
 ------------------------------------------------------------------------------
 GePol: Number of generator spheres                  =       4
 GePol: Total number of spheres                      =       4
 GePol: Number of exposed spheres                    =       4 (100.00%)
 GePol: Number of points                             =     522
 GePol: Average weight of points                     =       0.14
 GePol: Minimum weight of points                     =   0.13D-10
 GePol: Maximum weight of points                     =    0.20577
 GePol: Number of points with low weight             =      17
 GePol: Fraction of low-weight points (<1% of avg)   =       3.26%
 GePol: Cavity surface area                          =     73.416 Ang**2
 GePol: Cavity volume                                =     55.726 Ang**3
 Leave Link  301 at Fri Sep 22 16:36:59 2023, MaxMem=   268435456 cpu:               0.3 elap:               0.1
 (Enter /share/apps/gaussian/g16/l302.exe)
 NPDir=0 NMtPBC=     1 NCelOv=     1 NCel=       1 NClECP=     1 NCelD=      1
         NCelK=      1 NCelE2=     1 NClLst=     1 CellRange=     0.0.
 One-electron integrals computed using PRISM.
 One-electron integral symmetry used in STVInt
 NBasis=    38 RedAO= T EigKep=  2.21D-02  NBF=    38
 NBsUse=    38 1.00D-06 EigRej= -1.00D+00 NBFU=    38
 Precomputing XC quadrature grid using
 IXCGrd= 4 IRadAn=           5 IRanWt=          -1 IRanGd=           0 AccXCQ= 0.00D+00.
 Generated NRdTot=       0 NPtTot=           0 NUsed=           0 NTot=          32
 NSgBfM=    40    40    40    40    40 MxSgAt=     4 MxSgA2=     4.
 Leave Link  302 at Fri Sep 22 16:37:00 2023, MaxMem=   268435456 cpu:               0.3 elap:               0.2
 (Enter /share/apps/gaussian/g16/l303.exe)
 DipDrv:  MaxL=1.
 Leave Link  303 at Fri Sep 22 16:37:00 2023, MaxMem=   268435456 cpu:               0.1 elap:               0.0
 (Enter /share/apps/gaussian/g16/l401.exe)
 ExpMin= 1.06D-01 ExpMax= 2.29D+03 ExpMxC= 3.44D+02 IAcc=3 IRadAn=         5 AccDes= 0.00D+00
 Harris functional with IExCor=  402 and IRadAn=       5 diagonalized for initial guess.
 HarFok:  IExCor=  402 AccDes= 0.00D+00 IRadAn=         5 IDoV= 1 UseB2=F ITyADJ=14
 ICtDFT=  3500011 ScaDFX=  1.000000  1.000000  1.000000  1.000000
 FoFCou: FMM=F IPFlag=           0 FMFlag=      100000 FMFlg1=           0
         NFxFlg=           0 DoJE=T BraDBF=F KetDBF=T FulRan=T
         wScrn=  0.000000 ICntrl=       500 IOpCl=  0 I1Cent=   200000004 NGrid=           0
         NMat0=    1 NMatS0=      1 NMatT0=    0 NMatD0=    1 NMtDS0=    0 NMtDT0=    0
 Petite list used in FoFCou.
 Harris En= -114.493199259721    
 JPrj=0 DoOrth=F DoCkMO=F.
 Leave Link  401 at Fri Sep 22 16:37:00 2023, MaxMem=   268435456 cpu:               0.7 elap:               0.4
 (Enter /share/apps/gaussian/g16/l502.exe)
 Keep R1 ints in memory in canonical form, NReq=2001317.
 FoFCou: FMM=F IPFlag=           0 FMFlag=           0 FMFlg1=           0
         NFxFlg=           0 DoJE=F BraDBF=F KetDBF=F FulRan=T
         wScrn=  0.000000 ICntrl=       600 IOpCl=  0 I1Cent=           0 NGrid=           0
         NMat0=    1 NMatS0=    741 NMatT0=    0 NMatD0=    1 NMtDS0=    0 NMtDT0=    0
 Symmetry not used in FoFCou.
 Two-electron integral symmetry not used.
 Closed shell SCF:
 Using DIIS extrapolation, IDIIS=  1040.
 NGot=   268435456 LenX=   268156521 LenY=   268154480
 Requested convergence on RMS density matrix=1.00D-08 within 128 cycles.
 Requested convergence on MAX density matrix=1.00D-06.
 Requested convergence on             energy=1.00D-06.
 No special actions if energy rises.

 Cycle   1  Pass 1  IDiag  1:
 Inv3:  Mode=1 IEnd=      817452.
 Iteration    1 A*A^-1 deviation from unit magnitude is 3.33D-15 for    521.
 Iteration    1 A*A^-1 deviation from orthogonality  is 1.03D-15 for    521    467.
 Iteration    1 A^-1*A deviation from unit magnitude is 3.11D-15 for    521.
 Iteration    1 A^-1*A deviation from orthogonality  is 6.37D-16 for    385    244.
 E= -114.438282725178    
 DIIS: error= 3.76D-02 at cycle   1 NSaved=   1.
 NSaved= 1 IEnMin= 1 EnMin= -114.438282725178     IErMin= 1 ErrMin= 3.76D-02
 ErrMax= 3.76D-02  0.00D+00 EMaxC= 1.00D-01 BMatC= 5.43D-02 BMatP= 5.43D-02
 IDIUse=3 WtCom= 6.24D-01 WtEn= 3.76D-01
 Coeff-Com:  0.100D+01
 Coeff-En:   0.100D+01
 Coeff:      0.100D+01
 Gap=     0.176 Goal=   None    Shift=    0.000
 GapD=    0.176 DampG=1.000 DampE=0.500 DampFc=0.5000 IDamp=-1.
 Damping current iteration by 5.00D-01
 RMSDP=1.27D-02 MaxDP=1.62D-01              OVMax= 2.31D-01

 Cycle   2  Pass 1  IDiag  1:
 E= -114.444998171240     Delta-E=       -0.006715446063 Rises=F Damp=T
 DIIS: error= 1.42D-02 at cycle   2 NSaved=   2.
 NSaved= 2 IEnMin= 2 EnMin= -114.444998171240     IErMin= 2 ErrMin= 1.42D-02
 ErrMax= 1.42D-02  0.00D+00 EMaxC= 1.00D-01 BMatC= 1.21D-02 BMatP= 5.43D-02
 IDIUse=3 WtCom= 8.58D-01 WtEn= 1.42D-01
 Coeff-Com:  0.291D+00 0.709D+00
 Coeff-En:   0.433D+00 0.567D+00
 Coeff:      0.311D+00 0.689D+00
 Gap=     0.222 Goal=   None    Shift=    0.000
 RMSDP=3.07D-03 MaxDP=3.40D-02 DE=-6.72D-03 OVMax= 1.73D-01

 Cycle   3  Pass 1  IDiag  1:
 E= -114.480738825235     Delta-E=       -0.035740653995 Rises=F Damp=F
 DIIS: error= 8.84D-03 at cycle   3 NSaved=   3.
 NSaved= 3 IEnMin= 3 EnMin= -114.480738825235     IErMin= 3 ErrMin= 8.84D-03
 ErrMax= 8.84D-03  0.00D+00 EMaxC= 1.00D-01 BMatC= 2.73D-03 BMatP= 1.21D-02
 IDIUse=3 WtCom= 9.12D-01 WtEn= 8.84D-02
 Coeff-Com:  0.943D-01 0.346D+00 0.560D+00
 Coeff-En:   0.000D+00 0.000D+00 0.100D+01
 Coeff:      0.859D-01 0.315D+00 0.599D+00
 Gap=     0.219 Goal=   None    Shift=    0.000
 RMSDP=1.28D-03 MaxDP=1.75D-02 DE=-3.57D-02 OVMax= 2.77D-02

 Cycle   4  Pass 1  IDiag  1:
 E= -114.483311562240     Delta-E=       -0.002572737005 Rises=F Damp=F
 DIIS: error= 2.65D-03 at cycle   4 NSaved=   4.
 NSaved= 4 IEnMin= 4 EnMin= -114.483311562240     IErMin= 4 ErrMin= 2.65D-03
 ErrMax= 2.65D-03  0.00D+00 EMaxC= 1.00D-01 BMatC= 2.18D-04 BMatP= 2.73D-03
 IDIUse=3 WtCom= 9.73D-01 WtEn= 2.65D-02
 Coeff-Com:  0.135D-01 0.180D-01 0.219D+00 0.749D+00
 Coeff-En:   0.000D+00 0.000D+00 0.000D+00 0.100D+01
 Coeff:      0.131D-01 0.175D-01 0.214D+00 0.756D+00
 Gap=     0.221 Goal=   None    Shift=    0.000
 RMSDP=2.51D-04 MaxDP=3.60D-03 DE=-2.57D-03 OVMax= 4.68D-03

 Cycle   5  Pass 1  IDiag  1:
 E= -114.483497338748     Delta-E=       -0.000185776508 Rises=F Damp=F
 DIIS: error= 1.76D-04 at cycle   5 NSaved=   5.
 NSaved= 5 IEnMin= 5 EnMin= -114.483497338748     IErMin= 5 ErrMin= 1.76D-04
 ErrMax= 1.76D-04  0.00D+00 EMaxC= 1.00D-01 BMatC= 1.13D-06 BMatP= 2.18D-04
 IDIUse=3 WtCom= 9.98D-01 WtEn= 1.76D-03
 Coeff-Com:  0.183D-02-0.679D-02 0.289D-01 0.139D+00 0.837D+00
 Coeff-En:   0.000D+00 0.000D+00 0.000D+00 0.000D+00 0.100D+01
 Coeff:      0.183D-02-0.678D-02 0.288D-01 0.139D+00 0.838D+00
 Gap=     0.221 Goal=   None    Shift=    0.000
 RMSDP=2.37D-05 MaxDP=2.02D-04 DE=-1.86D-04 OVMax= 2.52D-04

 Cycle   6  Pass 1  IDiag  1:
 E= -114.483498238698     Delta-E=       -0.000000899950 Rises=F Damp=F
 DIIS: error= 3.20D-05 at cycle   6 NSaved=   6.
 NSaved= 6 IEnMin= 6 EnMin= -114.483498238698     IErMin= 6 ErrMin= 3.20D-05
 ErrMax= 3.20D-05  0.00D+00 EMaxC= 1.00D-01 BMatC= 3.92D-08 BMatP= 1.13D-06
 IDIUse=1 WtCom= 1.00D+00 WtEn= 0.00D+00
 Coeff-Com:  0.351D-03-0.121D-02 0.108D-02 0.190D-02 0.410D-01 0.957D+00
 Coeff:      0.351D-03-0.121D-02 0.108D-02 0.190D-02 0.410D-01 0.957D+00
 Gap=     0.221 Goal=   None    Shift=    0.000
 RMSDP=4.95D-06 MaxDP=4.88D-05 DE=-9.00D-07 OVMax= 5.38D-05

 Cycle   7  Pass 1  IDiag  1:
 E= -114.483498269997     Delta-E=       -0.000000031299 Rises=F Damp=F
 DIIS: error= 1.53D-06 at cycle   7 NSaved=   7.
 NSaved= 7 IEnMin= 7 EnMin= -114.483498269997     IErMin= 7 ErrMin= 1.53D-06
 ErrMax= 1.53D-06  0.00D+00 EMaxC= 1.00D-01 BMatC= 2.07D-10 BMatP= 3.92D-08
 IDIUse=1 WtCom= 1.00D+00 WtEn= 0.00D+00
 Coeff-Com:  0.150D-05 0.290D-04-0.242D-03-0.195D-02-0.129D-01 0.332D-01
 Coeff-Com:  0.982D+00
 Coeff:      0.150D-05 0.290D-04-0.242D-03-0.195D-02-0.129D-01 0.332D-01
 Coeff:      0.982D+00
 Gap=     0.221 Goal=   None    Shift=    0.000
 RMSDP=3.53D-07 MaxDP=3.24D-06 DE=-3.13D-08 OVMax= 3.19D-06

 Cycle   8  Pass 1  IDiag  1:
 E= -114.483498270157     Delta-E=       -0.000000000160 Rises=F Damp=F
 DIIS: error= 3.74D-07 at cycle   8 NSaved=   8.
 NSaved= 8 IEnMin= 8 EnMin= -114.483498270157     IErMin= 8 ErrMin= 3.74D-07
 ErrMax= 3.74D-07  0.00D+00 EMaxC= 1.00D-01 BMatC= 5.11D-12 BMatP= 2.07D-10
 IDIUse=1 WtCom= 1.00D+00 WtEn= 0.00D+00
 Coeff-Com: -0.581D-08 0.677D-05-0.106D-04-0.171D-03-0.126D-02-0.640D-02
 Coeff-Com:  0.717D-01 0.936D+00
 Coeff:     -0.581D-08 0.677D-05-0.106D-04-0.171D-03-0.126D-02-0.640D-02
 Coeff:      0.717D-01 0.936D+00
 Gap=     0.221 Goal=   None    Shift=    0.000
 RMSDP=5.07D-08 MaxDP=4.21D-07 DE=-1.60D-10 OVMax= 5.29D-07

 Cycle   9  Pass 1  IDiag  1:
 E= -114.483498270161     Delta-E=       -0.000000000004 Rises=F Damp=F
 DIIS: error= 3.47D-08 at cycle   9 NSaved=   9.
 NSaved= 9 IEnMin= 9 EnMin= -114.483498270161     IErMin= 9 ErrMin= 3.47D-08
 ErrMax= 3.47D-08  0.00D+00 EMaxC= 1.00D-01 BMatC= 6.03D-14 BMatP= 5.11D-12
 IDIUse=1 WtCom= 1.00D+00 WtEn= 0.00D+00
 Coeff-Com:  0.162D-06-0.341D-06 0.368D-05 0.830D-05 0.802D-04-0.119D-02
 Coeff-Com: -0.631D-02 0.788D-01 0.929D+00
 Coeff:      0.162D-06-0.341D-06 0.368D-05 0.830D-05 0.802D-04-0.119D-02
 Coeff:     -0.631D-02 0.788D-01 0.929D+00
 Gap=     0.221 Goal=   None    Shift=    0.000
 RMSDP=4.82D-09 MaxDP=4.84D-08 DE=-3.92D-12 OVMax= 5.92D-08

 Error on total polarization charges =  0.00274
 SCF Done:  E(RB3LYP) =  -114.483498270     A.U. after    9 cycles
            NFock=  9  Conv=0.48D-08     -V/T= 2.0031
 KE= 1.141318867999D+02 PE=-3.320806255585D+02 EE= 7.193409602094D+01
 Leave Link  502 at Fri Sep 22 16:37:02 2023, MaxMem=   268435456 cpu:               4.7 elap:               2.4
 (Enter /share/apps/gaussian/g16/l601.exe)
 Copying SCF densities to generalized density rwf, IOpCl= 0 IROHF=0.

 **********************************************************************

            Population analysis using the SCF density.

 **********************************************************************

 Orbital symmetries:
       Occupied  (A) (A) (A) (A) (A) (A) (A) (A)
       Virtual   (A) (A) (A) (A) (A) (A) (A) (A) (A) (A) (A) (A)
                 (A) (A) (A) (A) (A) (A) (A) (A) (A) (A) (A) (A)
                 (A) (A) (A) (A) (A) (A)
 The electronic state is 1-A.
 Alpha  occ. eigenvalues --  -19.13875 -10.27051  -1.06428  -0.65024  -0.51204
 Alpha  occ. eigenvalues --   -0.45458  -0.40311  -0.27430
 Alpha virt. eigenvalues --   -0.05281   0.06554   0.11886   0.18143   0.40323
 Alpha virt. eigenvalues --    0.47596   0.52774   0.60910   0.62557   0.72773
 Alpha virt. eigenvalues --    0.78064   0.87668   0.98017   1.32103   1.50571
 Alpha virt. eigenvalues --    1.59904   1.74894   1.80545   1.96375   1.97046
 Alpha virt. eigenvalues --    2.11352   2.14688   2.27009   2.53012   2.70258
 Alpha virt. eigenvalues --    2.77319   2.81042   3.14343   3.29213   3.44784
          Condensed to atoms (all electrons):
               1          2          3          4
     1  C    4.394415   0.388473   0.399468   0.595982
     2  H    0.388473   0.672690  -0.081501  -0.056989
     3  H    0.399468  -0.081501   0.670240  -0.053620
     4  O    0.595982  -0.056989  -0.053620   7.879029
 Mulliken charges:
               1
     1  C    0.221663
     2  H    0.077327
     3  H    0.065413
     4  O   -0.364403
 Sum of Mulliken charges =  -0.00000
 Mulliken charges with hydrogens summed into heavy atoms:
               1
     1  C    0.364403
     4  O   -0.364403
 Electronic spatial extent (au):  <R**2>=             59.4294
 Charge=             -0.0000 electrons
 Dipole moment (field-independent basis, Debye):
    X=             -2.7519    Y=             -0.0917    Z=              0.0005  Tot=              2.7534
 Quadrupole moment (field-independent basis, Debye-Ang):
   XX=            -12.0592   YY=            -11.4830   ZZ=            -11.5044
   XY=              0.0440   XZ=             -0.0024   YZ=              0.0001
 Traceless Quadrupole moment (field-independent basis, Debye-Ang):
   XX=             -0.3770   YY=              0.1992   ZZ=              0.1778
   XY=              0.0440   XZ=             -0.0024   YZ=              0.0001
 Octapole moment (field-independent basis, Debye-Ang**2):
  XXX=             -0.3257  YYY=             -0.2013  ZZZ=              0.0033  XYY=             -0.5108
  XXY=             -0.0768  XXZ=              0.0056  XZZ=              0.4658  YZZ=             -0.0816
  YYZ=              0.0056  XYZ=             -0.0001
 Hexadecapole moment (field-independent basis, Debye-Ang**3):
 XXXX=            -43.7003 YYYY=            -17.4385 ZZZZ=             -9.9356 XXXY=              0.2076
 XXXZ=             -0.0067 YYYX=              0.1788 YYYZ=             -0.0003 ZZZX=             -0.0001
 ZZZY=             -0.0002 XXYY=             -9.9227 XXZZ=             -8.8850 YYZZ=             -4.8042
 XXYZ=              0.0003 YYXZ=             -0.0057 ZZXY=              0.0958
 N-N= 3.153114446747D+01 E-N=-3.320806257013D+02  KE= 1.141318867999D+02
 There are a total of       88026 grid points.
 ElSum from          density=       15.9999999697
 ElSum from atomic densities=       15.9999998314
 Hirshfeld populations at iteration   1 (CA, CB, DipXYZ):
               1          2          3          4          5
     1  C    2.930261   2.930261  -0.107770  -0.010332  -0.001558
     2  H    0.474887   0.474887  -0.078933   0.101881   0.000729
     3  H    0.473126   0.473126  -0.080586  -0.113508   0.000764
     4  O    4.121725   4.121725  -0.152842  -0.003986   0.000215
       Tot   8.000000   8.000000  -0.420131  -0.025944   0.000151

 Dip from Atomic Chgs             -0.662531  -0.010145   0.000050
         Total Dipole             -1.082662  -0.036089   0.000201

 Hirshfeld charges, spin densities, dipoles, and CM5 charges using IRadAn=      5:
              Q-H        S-H        Dx         Dy         Dz        Q-CM5   
     1  C    0.139477   0.000000  -0.107770  -0.010332  -0.001558   0.071564
     2  H    0.050225   0.000000  -0.078933   0.101881   0.000729   0.111072
     3  H    0.053747   0.000000  -0.080586  -0.113508   0.000764   0.124569
     4  O   -0.243450   0.000000  -0.152842  -0.003986   0.000215  -0.307204
       Tot   0.000000   0.000000  -0.420131  -0.025944   0.000151   0.000000
 Hirshfeld charges with hydrogens summed into heavy atoms:
              Q-H       Q-CM5   
     1  C    0.243450   0.307204
     4  O   -0.243450  -0.307204
 
 EQQ= 0.000000000000E+00 EQD= 0.000000000000E+00 EDD= 0.393121328973E-02
 EQQ+QD+DD= 0.393121328973E-02
 
 No NMR shielding tensors so no spin-rotation constants.
 Leave Link  601 at Fri Sep 22 16:37:03 2023, MaxMem=   268435456 cpu:               0.6 elap:               0.3
 (Enter /share/apps/gaussian/g16/l9999.exe)
 1\1\GINC-NODE99\SP\RB3LYP\Gen\C1H2O1\YANZ\22-Sep-2023\0\\#p b3lyp/gen 
 scrf=(cpcm,solvent=toluene) pop=hirshfeld empiricaldispersion=gd3bj\\t
 mpdir/M2_conf_0_392.gjf\\0,1\C,0,0.,0.,0.\H,0,1.0885,0.,0.\H,0,-0.5069
 2,0.,-0.89053\O,0,-0.60832,0.0099,1.0502\\Version=ES64L-G16RevA.03\Sta
 te=1-A\HF=-114.4834983\RMSD=4.817e-09\Dipole=0.5252776,-0.0073296,-0.9
 473586\Quadrupole=0.0061778,0.1321625,-0.1383403,0.0026866,0.2042377,-
 0.0038276\PG=C01 [X(C1H2O1)]\\@


 ALL SCIENCE IS EITHER PHYSICS, OR STAMP COLLECTING.
   --ERNEST RUTHERFORD, 1871-1937.
 Job cpu time:       0 days  0 hours  0 minutes  7.1 seconds.
 Elapsed time:       0 days  0 hours  0 minutes  3.6 seconds.
 File lengths (MBytes):  RWF=      6 Int=      0 D2E=      0 Chk=      1 Scr=      1
 Normal termination of Gaussian 16 at Fri Sep 22 16:37:03 2023.
