 Entering Gaussian System, Link 0=g16
 Initial command:
 /share/apps/gaussian/g16/l1.exe "/tmp/55556.mgr/Gau-87861.inp" -scrdir="/tmp/55556.mgr/"
 Entering Link 1 = /share/apps/gaussian/g16/l1.exe PID=     87862.
  
 Copyright (c) 1988,1990,1992,1993,1995,1998,2003,2009,2016,
            Gaussian, Inc.  All Rights Reserved.
  
 This is part of the Gaussian(R) 16 program.  It is based on
 the Gaussian(R) 09 system (copyright 2009, Gaussian, Inc.),
 the Gaussian(R) 03 system (copyright 2003, Gaussian, Inc.),
 the Gaussian(R) 98 system (copyright 1998, Gaussian, Inc.),
 the Gaussian(R) 94 system (copyright 1995, Gaussian, Inc.),
 the Gaussian 92(TM) system (copyright 1992, Gaussian, Inc.),
 the Gaussian 90(TM) system (copyright 1990, Gaussian, Inc.),
 the Gaussian 88(TM) system (copyright 1988, Gaussian, Inc.),
 the Gaussian 86(TM) system (copyright 1986, Carnegie Mellon
 University), and the Gaussian 82(TM) system (copyright 1983,
 Carnegie Mellon University). Gaussian is a federally registered
 trademark of Gaussian, Inc.
  
 This software contains proprietary and confidential information,
 including trade secrets, belonging to Gaussian, Inc.
  
 This software is provided under written license and may be
 used, copied, transmitted, or stored only in accord with that
 written license.
  
 The following legend is applicable only to US Government
 contracts under FAR:
  
                    RESTRICTED RIGHTS LEGEND
  
 Use, reproduction and disclosure by the US Government is
 subject to restrictions as set forth in subparagraphs (a)
 and (c) of the Commercial Computer Software - Restricted
 Rights clause in FAR 52.227-19.
  
 Gaussian, Inc.
 340 Quinnipiac St., Bldg. 40, Wallingford CT 06492
  
  
 ---------------------------------------------------------------
 Warning -- This program may not be used in any manner that
 competes with the business of Gaussian, Inc. or will provide
 assistance to any competitor of Gaussian, Inc.  The licensee
 of this program is prohibited from giving any competitor of
 Gaussian, Inc. access to this program.  By using this program,
 the user acknowledges that Gaussian, Inc. is engaged in the
 business of creating and licensing software in the field of
 computational chemistry and represents and warrants to the
 licensee that it is not a competitor of Gaussian, Inc. and that
 it will not use this program in any manner prohibited above.
 ---------------------------------------------------------------
  

 Cite this work as:
 Gaussian 16, Revision A.03,
 M. J. Frisch, G. W. Trucks, H. B. Schlegel, G. E. Scuseria, 
 M. A. Robb, J. R. Cheeseman, G. Scalmani, V. Barone, 
 G. A. Petersson, H. Nakatsuji, X. Li, M. Caricato, A. V. Marenich, 
 J. Bloino, B. G. Janesko, R. Gomperts, B. Mennucci, H. P. Hratchian, 
 J. V. Ortiz, A. F. Izmaylov, J. L. Sonnenberg, D. Williams-Young, 
 F. Ding, F. Lipparini, F. Egidi, J. Goings, B. Peng, A. Petrone, 
 T. Henderson, D. Ranasinghe, V. G. Zakrzewski, J. Gao, N. Rega, 
 G. Zheng, W. Liang, M. Hada, M. Ehara, K. Toyota, R. Fukuda, 
 J. Hasegawa, M. Ishida, T. Nakajima, Y. Honda, O. Kitao, H. Nakai, 
 T. Vreven, K. Throssell, J. A. Montgomery, Jr., J. E. Peralta, 
 F. Ogliaro, M. J. Bearpark, J. J. Heyd, E. N. Brothers, K. N. Kudin, 
 V. N. Staroverov, T. A. Keith, R. Kobayashi, J. Normand, 
 K. Raghavachari, A. P. Rendell, J. C. Burant, S. S. Iyengar, 
 J. Tomasi, M. Cossi, J. M. Millam, M. Klene, C. Adamo, R. Cammi, 
 J. W. Ochterski, R. L. Martin, K. Morokuma, O. Farkas, 
 J. B. Foresman, and D. J. Fox, Gaussian, Inc., Wallingford CT, 2016.
 
 ******************************************
 Gaussian 16:  ES64L-G16RevA.03 25-Dec-2016
                22-Sep-2023 
 ******************************************
 %nprocshared=2
 Will use up to    2 processors via shared memory.
 %mem=2GB
 ----------------------------------------------------------------------
 #p b3lyp/gen scrf=(cpcm,solvent=toluene) pop=hirshfeld empiricaldisper
 sion=gd3bj
 ----------------------------------------------------------------------
 1/38=1,172=1/1;
 2/12=2,17=6,18=5,40=1/2;
 3/5=7,11=2,25=1,30=1,70=2101,72=13,74=-5,124=41/1,2,3;
 4//1;
 5/5=2,38=5,53=13/2;
 6/7=2,8=2,9=2,10=2,28=1,79=1/1;
 99/5=1,9=1/99;
 Leave Link    1 at Fri Sep 22 16:36:25 2023, MaxMem=   268435456 cpu:               0.1 elap:               0.0
 (Enter /share/apps/gaussian/g16/l101.exe)
 ------------------------
 tmpdir/M2_conf_0_396.gjf
 ------------------------
 Symbolic Z-matrix:
 Charge =  1 Multiplicity = 1
 O                     0.        0.        0. 
 H                     1.5291    0.        0. 
 O                    -0.5817    0.       -0.9198 
 
 ITRead=  0  0  0
 MicOpt= -1 -1 -1
 NAtoms=      3 NQM=        3 NQMF=       0 NMMI=      0 NMMIF=      0
                NMic=       0 NMicF=      0.
                    Isotopes and Nuclear Properties:
 (Nuclear quadrupole moments (NQMom) in fm**2, nuclear magnetic moments (NMagM)
  in nuclear magnetons)

  Atom         1           2           3
 IAtWgt=          16           1          16
 AtmWgt=  15.9949146   1.0078250  15.9949146
 NucSpn=           0           1           0
 AtZEff=  -0.0000000  -0.0000000  -0.0000000
 NQMom=    0.0000000   0.0000000   0.0000000
 NMagM=    0.0000000   2.7928460   0.0000000
 AtZNuc=   8.0000000   1.0000000   8.0000000
 Leave Link  101 at Fri Sep 22 16:36:26 2023, MaxMem=   268435456 cpu:               0.2 elap:               0.1
 (Enter /share/apps/gaussian/g16/l202.exe)
                          Input orientation:                          
 ---------------------------------------------------------------------
 Center     Atomic      Atomic             Coordinates (Angstroms)
 Number     Number       Type             X           Y           Z
 ---------------------------------------------------------------------
      1          8           0        0.000000    0.000000    0.000000
      2          1           0        1.529100    0.000000    0.000000
      3          8           0       -0.581700    0.000000   -0.919800
 ---------------------------------------------------------------------
                    Distance matrix (angstroms):
                    1          2          3
     1  O    0.000000
     2  H    1.529100   0.000000
     3  O    1.088305   2.302501   0.000000
 Stoichiometry    HO2(1+)
 Framework group  CS[SG(HO2)]
 Deg. of freedom     3
 Full point group                 CS      NOp   2
 Largest Abelian subgroup         CS      NOp   2
 Largest concise Abelian subgroup C1      NOp   1
                         Standard orientation:                         
 ---------------------------------------------------------------------
 Center     Atomic      Atomic             Coordinates (Angstroms)
 Number     Number       Type             X           Y           Z
 ---------------------------------------------------------------------
      1          8           0        0.076020    0.464067   -0.000000
      2          1           0       -1.216326    1.281372    0.000000
      3          8           0        0.076020   -0.624238    0.000000
 ---------------------------------------------------------------------
 Rotational constants (GHZ):         378.6282985          43.6412131          39.1309290
 Leave Link  202 at Fri Sep 22 16:36:26 2023, MaxMem=   268435456 cpu:               0.0 elap:               0.0
 (Enter /share/apps/gaussian/g16/l301.exe)
 General basis read from cards:  (5D, 7F)
 Centers:       2
 S 3 1.00
     Exponent=  1.2251800000D+01 Coefficients=  2.3337100000D-02
     Exponent=  1.8687100000D+00 Coefficients=  1.5915000000D-01
     Exponent=  4.1820800000D-01 Coefficients=  5.0000000000D-01
 S 1 1.00
     Exponent=  1.0610000000D-01 Coefficients=  1.0000000000D+00
 P 1 1.00
     Exponent=  1.0000000000D+00 Coefficients=  1.0000000000D+00
 ****
 Centers:       1      3
 S 5 1.00
     Exponent=  2.2886400000D+03 Coefficients=  5.8546800000D-03
     Exponent=  3.4441600000D+02 Coefficients=  4.3733300000D-02
     Exponent=  7.8253800000D+01 Coefficients=  1.9479600000D-01
     Exponent=  2.1719500000D+01 Coefficients=  5.0000000000D-01
     Exponent=  6.5590700000D+00 Coefficients=  4.8461400000D-01
 S 2 1.00
     Exponent=  1.0465600000D+01 Coefficients= -7.1334300000D-02
     Exponent=  9.6435100000D-01 Coefficients=  5.0000000000D-01
 S 1 1.00
     Exponent=  2.8512700000D-01 Coefficients=  1.0000000000D+00
 P 3 1.00
     Exponent=  1.7059000000D+01 Coefficients=  4.7443900000D-02
     Exponent=  3.6899900000D+00 Coefficients=  2.4268900000D-01
     Exponent=  9.9299600000D-01 Coefficients=  5.0000000000D-01
 P 1 1.00
     Exponent=  2.4492400000D-01 Coefficients=  1.0000000000D+00
 D 1 1.00
     Exponent=  1.0000000000D+00 Coefficients=  1.0000000000D+00
 ****
 Ernie: Thresh=  0.10000D-02 Tol=  0.10000D-05 Strict=F.
 There are    26 symmetry adapted cartesian basis functions of A'  symmetry.
 There are     9 symmetry adapted cartesian basis functions of A"  symmetry.
 There are    24 symmetry adapted basis functions of A'  symmetry.
 There are     9 symmetry adapted basis functions of A"  symmetry.
    33 basis functions,    59 primitive gaussians,    35 cartesian basis functions
     8 alpha electrons        8 beta electrons
       nuclear repulsion energy        35.7265442926 Hartrees.
 IExCor=  402 DFT=T Ex+Corr=B3LYP ExCW=0 ScaHFX=  0.200000
 ScaDFX=  0.800000  0.720000  1.000000  0.810000 ScalE2=  1.000000  1.000000
 IRadAn=      5 IRanWt=     -1 IRanGd=            0 ICorTp=0 IEmpDi=141
 NAtoms=    3 NActive=    3 NUniq=    3 SFac= 1.00D+00 NAtFMM=   60 NAOKFM=F Big=F
 Integral buffers will be    131072 words long.
 Raffenetti 2 integral format.
 Two-electron integral symmetry is turned on.
 R6Disp:  Grimme-D3(BJ) Dispersion energy=       -0.0011387994 Hartrees.
 Nuclear repulsion after empirical dispersion term =       35.7254054931 Hartrees.
 ------------------------------------------------------------------------------
 Polarizable Continuum Model (PCM)
 =================================
 Model                : C-PCM.
 Atomic radii         : UFF (Universal Force Field).
 Polarization charges : Total charges.
 Charge compensation  : None.
 Solution method      : On-the-fly selection.
 Cavity type          : Scaled VdW (van der Waals Surface) (Alpha=1.100).
 Cavity algorithm     : GePol (No added spheres)
                        Default sphere list used, NSphG=    3.
                        Lebedev-Laikov grids with approx.  5.0 points / Ang**2.
                        Smoothing algorithm: York/Karplus (Gamma=1.0000).
                        Polarization charges: spherical gaussians, with
                                              point-specific exponents (IZeta= 3).
                        Self-potential: point-specific (ISelfS= 7).
                        Self-field    : sphere-specific E.n sum rule (ISelfD= 2).
 Solvent              : Toluene, Eps=   2.374100 Eps(inf)=   2.238315
 ------------------------------------------------------------------------------
 Spheres list:
 ISph  on   Nord     Re0    Alpha      Xe            Ye            Ze
    1   O      1    1.7500  1.100      0.076020      0.464067     -0.000000
    2   H      2    1.4430  1.100     -1.216326      1.281372      0.000000
    3   O      3    1.7500  1.100      0.076020     -0.624238      0.000000
 ------------------------------------------------------------------------------
 GePol: Number of generator spheres                  =       3
 GePol: Total number of spheres                      =       3
 GePol: Number of exposed spheres                    =       3 (100.00%)
 GePol: Number of points                             =     488
 GePol: Average weight of points                     =       0.14
 GePol: Minimum weight of points                     =   0.84D-07
 GePol: Maximum weight of points                     =    0.20212
 GePol: Number of points with low weight             =      11
 GePol: Fraction of low-weight points (<1% of avg)   =       2.25%
 GePol: Cavity surface area                          =     69.962 Ang**2
 GePol: Cavity volume                                =     50.390 Ang**3
 Leave Link  301 at Fri Sep 22 16:36:26 2023, MaxMem=   268435456 cpu:               0.2 elap:               0.1
 (Enter /share/apps/gaussian/g16/l302.exe)
 NPDir=0 NMtPBC=     1 NCelOv=     1 NCel=       1 NClECP=     1 NCelD=      1
         NCelK=      1 NCelE2=     1 NClLst=     1 CellRange=     0.0.
 One-electron integrals computed using PRISM.
 One-electron integral symmetry used in STVInt
 NBasis=    33 RedAO= T EigKep=  1.13D-02  NBF=    24     9
 NBsUse=    33 1.00D-06 EigRej= -1.00D+00 NBFU=    24     9
 Precomputing XC quadrature grid using
 IXCGrd= 4 IRadAn=           5 IRanWt=          -1 IRanGd=           0 AccXCQ= 0.00D+00.
 Generated NRdTot=       0 NPtTot=           0 NUsed=           0 NTot=          32
 NSgBfM=    35    35    35    35    35 MxSgAt=     3 MxSgA2=     3.
 Leave Link  302 at Fri Sep 22 16:36:26 2023, MaxMem=   268435456 cpu:               0.2 elap:               0.1
 (Enter /share/apps/gaussian/g16/l303.exe)
 DipDrv:  MaxL=1.
 Leave Link  303 at Fri Sep 22 16:36:26 2023, MaxMem=   268435456 cpu:               0.1 elap:               0.0
 (Enter /share/apps/gaussian/g16/l401.exe)
 ExpMin= 1.06D-01 ExpMax= 2.29D+03 ExpMxC= 3.44D+02 IAcc=3 IRadAn=         5 AccDes= 0.00D+00
 Harris functional with IExCor=  402 and IRadAn=       5 diagonalized for initial guess.
 HarFok:  IExCor=  402 AccDes= 0.00D+00 IRadAn=         5 IDoV= 1 UseB2=F ITyADJ=14
 ICtDFT=  3500011 ScaDFX=  1.000000  1.000000  1.000000  1.000000
 FoFCou: FMM=F IPFlag=           0 FMFlag=      100000 FMFlg1=           0
         NFxFlg=           0 DoJE=T BraDBF=F KetDBF=T FulRan=T
         wScrn=  0.000000 ICntrl=       500 IOpCl=  0 I1Cent=   200000004 NGrid=           0
         NMat0=    1 NMatS0=      1 NMatT0=    0 NMatD0=    1 NMtDS0=    0 NMtDT0=    0
 Petite list used in FoFCou.
 Harris En= -150.567898363234    
 JPrj=0 DoOrth=F DoCkMO=F.
 Initial guess orbital symmetries:
       Occupied  (A') (A') (A') (A') (A') (A') (A") (A')
       Virtual   (A") (A') (A') (A') (A') (A") (A') (A') (A") (A')
                 (A') (A') (A') (A") (A") (A') (A") (A') (A') (A")
                 (A') (A') (A") (A') (A')
 The electronic state of the initial guess is 1-A'.
 Leave Link  401 at Fri Sep 22 16:36:26 2023, MaxMem=   268435456 cpu:               0.4 elap:               0.2
 (Enter /share/apps/gaussian/g16/l502.exe)
 Keep R1 ints in memory in symmetry-blocked form, NReq=1884938.
 FoFCou: FMM=F IPFlag=           0 FMFlag=           0 FMFlg1=           0
         NFxFlg=           0 DoJE=F BraDBF=F KetDBF=F FulRan=T
         wScrn=  0.000000 ICntrl=       600 IOpCl=  0 I1Cent=           0 NGrid=           0
         NMat0=    1 NMatS0=    561 NMatT0=    0 NMatD0=    1 NMtDS0=    0 NMtDT0=    0
 Petite list used in FoFCou.
 Closed shell SCF:
 Using DIIS extrapolation, IDIIS=  1040.
 NGot=   268435456 LenX=   268347532 LenY=   268345866
 Requested convergence on RMS density matrix=1.00D-08 within 128 cycles.
 Requested convergence on MAX density matrix=1.00D-06.
 Requested convergence on             energy=1.00D-06.
 No special actions if energy rises.

 Cycle   1  Pass 1  IDiag  1:
 Inv3:  Mode=1 IEnd=      714432.
 Iteration    1 A*A^-1 deviation from unit magnitude is 3.22D-15 for    475.
 Iteration    1 A*A^-1 deviation from orthogonality  is 1.05D-15 for    445    269.
 Iteration    1 A^-1*A deviation from unit magnitude is 3.00D-15 for    475.
 Iteration    1 A^-1*A deviation from orthogonality  is 6.61D-16 for    479    445.
 E= -150.349202047452    
 DIIS: error= 4.38D-02 at cycle   1 NSaved=   1.
 NSaved= 1 IEnMin= 1 EnMin= -150.349202047452     IErMin= 1 ErrMin= 4.38D-02
 ErrMax= 4.38D-02  0.00D+00 EMaxC= 1.00D-01 BMatC= 9.22D-02 BMatP= 9.22D-02
 IDIUse=3 WtCom= 5.62D-01 WtEn= 4.38D-01
 Coeff-Com:  0.100D+01
 Coeff-En:   0.100D+01
 Coeff:      0.100D+01
 Gap=     0.007 Goal=   None    Shift=    0.000
 GapD=    0.007 DampG=0.250 DampE=0.500 DampFc=0.2500 IDamp=-1.
 Damping current iteration by 2.50D-01
 RMSDP=2.00D-02 MaxDP=2.62D-01              OVMax= 4.40D-01

 Cycle   2  Pass 1  IDiag  1:
 E= -150.387489741748     Delta-E=       -0.038287694296 Rises=F Damp=T
 DIIS: error= 2.12D-02 at cycle   2 NSaved=   2.
 NSaved= 2 IEnMin= 2 EnMin= -150.387489741748     IErMin= 2 ErrMin= 2.12D-02
 ErrMax= 2.12D-02  0.00D+00 EMaxC= 1.00D-01 BMatC= 1.62D-02 BMatP= 9.22D-02
 IDIUse=3 WtCom= 7.88D-01 WtEn= 2.12D-01
 Coeff-Com: -0.554D+00 0.155D+01
 Coeff-En:   0.000D+00 0.100D+01
 Coeff:     -0.436D+00 0.144D+01
 Gap=     0.090 Goal=   None    Shift=    0.000
 RMSDP=7.39D-03 MaxDP=6.47D-02 DE=-3.83D-02 OVMax= 2.01D-01

 Cycle   3  Pass 1  IDiag  1:
 E= -150.434377063011     Delta-E=       -0.046887321264 Rises=F Damp=F
 DIIS: error= 1.40D-02 at cycle   3 NSaved=   3.
 NSaved= 3 IEnMin= 3 EnMin= -150.434377063011     IErMin= 3 ErrMin= 1.40D-02
 ErrMax= 1.40D-02  0.00D+00 EMaxC= 1.00D-01 BMatC= 9.06D-03 BMatP= 1.62D-02
 IDIUse=3 WtCom= 8.60D-01 WtEn= 1.40D-01
 Coeff-Com: -0.221D+00 0.784D+00 0.437D+00
 Coeff-En:   0.000D+00 0.000D+00 0.100D+01
 Coeff:     -0.190D+00 0.674D+00 0.516D+00
 Gap=     0.108 Goal=   None    Shift=    0.000
 RMSDP=3.76D-03 MaxDP=4.28D-02 DE=-4.69D-02 OVMax= 8.07D-02

 Cycle   4  Pass 1  IDiag  1:
 E= -150.440062527940     Delta-E=       -0.005685464929 Rises=F Damp=F
 DIIS: error= 1.20D-02 at cycle   4 NSaved=   4.
 NSaved= 4 IEnMin= 4 EnMin= -150.440062527940     IErMin= 4 ErrMin= 1.20D-02
 ErrMax= 1.20D-02  0.00D+00 EMaxC= 1.00D-01 BMatC= 3.44D-03 BMatP= 9.06D-03
 IDIUse=3 WtCom= 8.80D-01 WtEn= 1.20D-01
 Coeff-Com:  0.613D-01-0.173D-01 0.395D+00 0.561D+00
 Coeff-En:   0.000D+00 0.000D+00 0.287D+00 0.713D+00
 Coeff:      0.539D-01-0.152D-01 0.382D+00 0.580D+00
 Gap=     0.108 Goal=   None    Shift=    0.000
 RMSDP=1.48D-03 MaxDP=1.65D-02 DE=-5.69D-03 OVMax= 2.91D-02

 Cycle   5  Pass 1  IDiag  1:
 E= -150.442789500632     Delta-E=       -0.002726972691 Rises=F Damp=F
 DIIS: error= 1.87D-03 at cycle   5 NSaved=   5.
 NSaved= 5 IEnMin= 5 EnMin= -150.442789500632     IErMin= 5 ErrMin= 1.87D-03
 ErrMax= 1.87D-03  0.00D+00 EMaxC= 1.00D-01 BMatC= 6.98D-05 BMatP= 3.44D-03
 IDIUse=3 WtCom= 9.81D-01 WtEn= 1.87D-02
 Coeff-Com: -0.332D-03-0.858D-02 0.649D-02 0.134D+00 0.868D+00
 Coeff-En:   0.000D+00 0.000D+00 0.000D+00 0.000D+00 0.100D+01
 Coeff:     -0.326D-03-0.841D-02 0.637D-02 0.132D+00 0.871D+00
 Gap=     0.109 Goal=   None    Shift=    0.000
 RMSDP=1.84D-04 MaxDP=1.91D-03 DE=-2.73D-03 OVMax= 3.22D-03

 Cycle   6  Pass 1  IDiag  1:
 E= -150.442842964874     Delta-E=       -0.000053464242 Rises=F Damp=F
 DIIS: error= 7.79D-05 at cycle   6 NSaved=   6.
 NSaved= 6 IEnMin= 6 EnMin= -150.442842964874     IErMin= 6 ErrMin= 7.79D-05
 ErrMax= 7.79D-05  0.00D+00 EMaxC= 1.00D-01 BMatC= 3.02D-07 BMatP= 6.98D-05
 IDIUse=1 WtCom= 1.00D+00 WtEn= 0.00D+00
 Coeff-Com: -0.260D-02 0.332D-02-0.104D-02-0.197D-02 0.495D-01 0.953D+00
 Coeff:     -0.260D-02 0.332D-02-0.104D-02-0.197D-02 0.495D-01 0.953D+00
 Gap=     0.109 Goal=   None    Shift=    0.000
 RMSDP=2.75D-05 MaxDP=2.91D-04 DE=-5.35D-05 OVMax= 6.70D-04

 Cycle   7  Pass 1  IDiag  1:
 E= -150.442843353262     Delta-E=       -0.000000388388 Rises=F Damp=F
 DIIS: error= 2.01D-05 at cycle   7 NSaved=   7.
 NSaved= 7 IEnMin= 7 EnMin= -150.442843353262     IErMin= 7 ErrMin= 2.01D-05
 ErrMax= 2.01D-05  0.00D+00 EMaxC= 1.00D-01 BMatC= 1.94D-08 BMatP= 3.02D-07
 IDIUse=1 WtCom= 1.00D+00 WtEn= 0.00D+00
 Coeff-Com:  0.403D-03-0.633D-03-0.586D-03-0.266D-02-0.111D-01 0.146D+00
 Coeff-Com:  0.869D+00
 Coeff:      0.403D-03-0.633D-03-0.586D-03-0.266D-02-0.111D-01 0.146D+00
 Coeff:      0.869D+00
 Gap=     0.109 Goal=   None    Shift=    0.000
 RMSDP=4.46D-06 MaxDP=5.71D-05 DE=-3.88D-07 OVMax= 9.94D-05

 Cycle   8  Pass 1  IDiag  1:
 E= -150.442843375570     Delta-E=       -0.000000022308 Rises=F Damp=F
 DIIS: error= 2.53D-06 at cycle   8 NSaved=   8.
 NSaved= 8 IEnMin= 8 EnMin= -150.442843375570     IErMin= 8 ErrMin= 2.53D-06
 ErrMax= 2.53D-06  0.00D+00 EMaxC= 1.00D-01 BMatC= 1.84D-10 BMatP= 1.94D-08
 IDIUse=1 WtCom= 1.00D+00 WtEn= 0.00D+00
 Coeff-Com:  0.131D-03-0.192D-03-0.993D-05-0.288D-03-0.155D-02-0.267D-02
 Coeff-Com:  0.840D-01 0.921D+00
 Coeff:      0.131D-03-0.192D-03-0.993D-05-0.288D-03-0.155D-02-0.267D-02
 Coeff:      0.840D-01 0.921D+00
 Gap=     0.109 Goal=   None    Shift=    0.000
 RMSDP=2.10D-07 MaxDP=2.44D-06 DE=-2.23D-08 OVMax= 3.82D-06

 Cycle   9  Pass 1  IDiag  1:
 E= -150.442843375688     Delta-E=       -0.000000000118 Rises=F Damp=F
 DIIS: error= 4.81D-07 at cycle   9 NSaved=   9.
 NSaved= 9 IEnMin= 9 EnMin= -150.442843375688     IErMin= 9 ErrMin= 4.81D-07
 ErrMax= 4.81D-07  0.00D+00 EMaxC= 1.00D-01 BMatC= 1.09D-11 BMatP= 1.84D-10
 IDIUse=1 WtCom= 1.00D+00 WtEn= 0.00D+00
 Coeff-Com:  0.839D-06 0.350D-05 0.219D-04-0.955D-05-0.911D-05-0.436D-02
 Coeff-Com: -0.699D-02 0.114D+00 0.897D+00
 Coeff:      0.839D-06 0.350D-05 0.219D-04-0.955D-05-0.911D-05-0.436D-02
 Coeff:     -0.699D-02 0.114D+00 0.897D+00
 Gap=     0.109 Goal=   None    Shift=    0.000
 RMSDP=1.05D-07 MaxDP=1.19D-06 DE=-1.18D-10 OVMax= 2.46D-06

 Cycle  10  Pass 1  IDiag  1:
 E= -150.442843375700     Delta-E=       -0.000000000012 Rises=F Damp=F
 DIIS: error= 2.42D-08 at cycle  10 NSaved=  10.
 NSaved=10 IEnMin=10 EnMin= -150.442843375700     IErMin=10 ErrMin= 2.42D-08
 ErrMax= 2.42D-08  0.00D+00 EMaxC= 1.00D-01 BMatC= 2.29D-14 BMatP= 1.09D-11
 IDIUse=1 WtCom= 1.00D+00 WtEn= 0.00D+00
 Coeff-Com:  0.438D-06-0.583D-06 0.421D-06 0.163D-06-0.181D-05 0.187D-04
 Coeff-Com:  0.327D-03-0.800D-02-0.713D-02 0.101D+01
 Coeff:      0.438D-06-0.583D-06 0.421D-06 0.163D-06-0.181D-05 0.187D-04
 Coeff:      0.327D-03-0.800D-02-0.713D-02 0.101D+01
 Gap=     0.109 Goal=   None    Shift=    0.000
 RMSDP=4.53D-09 MaxDP=4.65D-08 DE=-1.16D-11 OVMax= 9.50D-08

 Error on total polarization charges =  0.00081
 SCF Done:  E(RB3LYP) =  -150.442843376     A.U. after   10 cycles
            NFock= 10  Conv=0.45D-08     -V/T= 2.0014
 KE= 1.502385295846D+02 PE=-4.208423543032D+02 EE= 8.443557584983D+01
 Leave Link  502 at Fri Sep 22 16:36:28 2023, MaxMem=   268435456 cpu:               2.9 elap:               1.5
 (Enter /share/apps/gaussian/g16/l601.exe)
 Copying SCF densities to generalized density rwf, IOpCl= 0 IROHF=0.

 **********************************************************************

            Population analysis using the SCF density.

 **********************************************************************

 Orbital symmetries:
       Occupied  (A') (A') (A') (A') (A') (A") (A') (A')
       Virtual   (A") (A') (A') (A') (A') (A") (A') (A') (A") (A')
                 (A') (A') (A') (A") (A") (A') (A") (A') (A') (A")
                 (A') (A') (A") (A') (A')
 The electronic state is 1-A'.
 Alpha  occ. eigenvalues --  -19.58507 -19.53658  -1.67526  -1.03209  -0.83750
 Alpha  occ. eigenvalues --   -0.82533  -0.80567  -0.49272
 Alpha virt. eigenvalues --   -0.38415  -0.29414   0.13645   0.21316   0.48940
 Alpha virt. eigenvalues --    0.49158   0.53311   0.56677   0.63349   0.72443
 Alpha virt. eigenvalues --    0.82696   1.35795   1.46770   1.50691   1.58443
 Alpha virt. eigenvalues --    1.60007   1.70821   1.74617   1.98334   2.13100
 Alpha virt. eigenvalues --    2.42332   2.63862   2.83175   2.90697   2.94235
          Condensed to atoms (all electrons):
               1          2          3
     1  O    7.490845   0.153918   0.143982
     2  H    0.153918   0.416064  -0.039834
     3  O    0.143982  -0.039834   7.576960
 Mulliken charges:
               1
     1  O    0.211255
     2  H    0.469852
     3  O    0.318893
 Sum of Mulliken charges =   1.00000
 Mulliken charges with hydrogens summed into heavy atoms:
               1
     1  O    0.681107
     3  O    0.318893
 Electronic spatial extent (au):  <R**2>=             44.2531
 Charge=              1.0000 electrons
 Dipole moment (field-independent basis, Debye):
    X=             -2.4000    Y=              2.2997    Z=              0.0000  Tot=              3.3239
 Quadrupole moment (field-independent basis, Debye-Ang):
   XX=             -6.6143   YY=             -5.5142   ZZ=             -8.7080
   XY=             -3.5779   XZ=             -0.0000   YZ=              0.0000
 Traceless Quadrupole moment (field-independent basis, Debye-Ang):
   XX=              0.3312   YY=              1.4313   ZZ=             -1.7625
   XY=             -3.5779   XZ=             -0.0000   YZ=              0.0000
 Octapole moment (field-independent basis, Debye-Ang**2):
  XXX=             -4.4613  YYY=              4.5677  ZZZ=              0.0000  XYY=             -4.6548
  XXY=              4.5329  XXZ=              0.0000  XZZ=              0.0936  YZZ=             -0.2337
  YYZ=              0.0000  XYZ=             -0.0000
 Hexadecapole moment (field-independent basis, Debye-Ang**3):
 XXXX=             -6.2933 YYYY=            -20.9572 ZZZZ=             -5.5874 XXXY=             -3.0454
 XXXZ=             -0.0000 YYYX=             -3.6952 YYYZ=              0.0000 ZZZX=              0.0000
 ZZZY=             -0.0000 XXYY=             -1.0782 XXZZ=             -2.9365 YYZZ=             -5.3517
 XXYZ=              0.0000 YYXZ=             -0.0000 ZZXY=              0.9274
 N-N= 3.572540549312D+01 E-N=-4.208423535380D+02  KE= 1.502385295846D+02
 Symmetry A'   KE= 1.452836210640D+02
 Symmetry A"   KE= 4.954908520562D+00
 There are a total of       66674 grid points.
 ElSum from          density=       16.0000000063
 ElSum from atomic densities=       17.0000000368

 Hirshfeld populations at iteration   1 (CX, CA, CB, DipXYZ):
               1          2          3          4          5          6
     1  O    0.000000   3.837779   3.837779  -0.057694  -0.046332   0.000000
     2  H    0.000000   0.318061   0.318061  -0.137429   0.110170  -0.000000
     3  O    0.000000   3.844161   3.844161  -0.004100   0.042954   0.000000
       Tot   0.000000   8.000000   8.000000  -0.199222   0.106792   0.000000

 Dip from Atomic Chgs             -0.745000   0.797966   0.000000
         Total Dipole             -0.944222   0.904758   0.000000

 Hirshfeld charges, spin densities, dipoles, and CM5 charges using IRadAn=      5:
              Q-H        S-H        Dx         Dy         Dz        Q-CM5   
     1  O    0.324443   0.000000  -0.057694  -0.046332   0.000000   0.283563
     2  H    0.363879   0.000000  -0.137429   0.110170  -0.000000   0.410792
     3  O    0.311678   0.000000  -0.004100   0.042954   0.000000   0.305645
       Tot   1.000000   0.000000  -0.199222   0.106792   0.000000   1.000000
 Hirshfeld charges with hydrogens summed into heavy atoms:
              Q-H       Q-CM5   
     1  O    0.688322   0.694355
     3  O    0.311678   0.305645
 
 EQQ= 0.000000000000E+00 EQD= 0.000000000000E+00 EDD=-0.202469870226E-04
 EQQ+QD+DD=-0.202469870226E-04
 
 No NMR shielding tensors so no spin-rotation constants.
 Leave Link  601 at Fri Sep 22 16:36:28 2023, MaxMem=   268435456 cpu:               0.4 elap:               0.2
 (Enter /share/apps/gaussian/g16/l9999.exe)
 1\1\GINC-NODE99\SP\RB3LYP\Gen\H1O2(1+)\YANZ\22-Sep-2023\0\\#p b3lyp/ge
 n scrf=(cpcm,solvent=toluene) pop=hirshfeld empiricaldispersion=gd3bj\
 \tmpdir/M2_conf_0_396.gjf\\1,1\O,0,0.,0.,0.\H,0,1.5291,0.,0.\O,0,-0.58
 17,0.,-0.9198\\Version=ES64L-G16RevA.03\State=1-A'\HF=-150.4428434\RMS
 D=4.534e-09\Dipole=1.2816203,0.,0.2599849\Quadrupole=2.8832334,-1.3103
 909,-1.5728425,0.,1.5096103,0.\PG=CS [SG(H1O2)]\\@


 IF THERE IS ONE WAY BETTER THAN ANOTHER IT IS THE WAY OF NATURE.

                          -- ARISTOTLE
 Job cpu time:       0 days  0 hours  0 minutes  4.6 seconds.
 Elapsed time:       0 days  0 hours  0 minutes  2.4 seconds.
 File lengths (MBytes):  RWF=      6 Int=      0 D2E=      0 Chk=      1 Scr=      1
 Normal termination of Gaussian 16 at Fri Sep 22 16:36:28 2023.
