 Entering Gaussian System, Link 0=g16
 Initial command:
 /share/apps/gaussian/g16/l1.exe "/tmp/55556.mgr/Gau-84563.inp" -scrdir="/tmp/55556.mgr/"
 Entering Link 1 = /share/apps/gaussian/g16/l1.exe PID=     84564.
  
 Copyright (c) 1988,1990,1992,1993,1995,1998,2003,2009,2016,
            Gaussian, Inc.  All Rights Reserved.
  
 This is part of the Gaussian(R) 16 program.  It is based on
 the Gaussian(R) 09 system (copyright 2009, Gaussian, Inc.),
 the Gaussian(R) 03 system (copyright 2003, Gaussian, Inc.),
 the Gaussian(R) 98 system (copyright 1998, Gaussian, Inc.),
 the Gaussian(R) 94 system (copyright 1995, Gaussian, Inc.),
 the Gaussian 92(TM) system (copyright 1992, Gaussian, Inc.),
 the Gaussian 90(TM) system (copyright 1990, Gaussian, Inc.),
 the Gaussian 88(TM) system (copyright 1988, Gaussian, Inc.),
 the Gaussian 86(TM) system (copyright 1986, Carnegie Mellon
 University), and the Gaussian 82(TM) system (copyright 1983,
 Carnegie Mellon University). Gaussian is a federally registered
 trademark of Gaussian, Inc.
  
 This software contains proprietary and confidential information,
 including trade secrets, belonging to Gaussian, Inc.
  
 This software is provided under written license and may be
 used, copied, transmitted, or stored only in accord with that
 written license.
  
 The following legend is applicable only to US Government
 contracts under FAR:
  
                    RESTRICTED RIGHTS LEGEND
  
 Use, reproduction and disclosure by the US Government is
 subject to restrictions as set forth in subparagraphs (a)
 and (c) of the Commercial Computer Software - Restricted
 Rights clause in FAR 52.227-19.
  
 Gaussian, Inc.
 340 Quinnipiac St., Bldg. 40, Wallingford CT 06492
  
  
 ---------------------------------------------------------------
 Warning -- This program may not be used in any manner that
 competes with the business of Gaussian, Inc. or will provide
 assistance to any competitor of Gaussian, Inc.  The licensee
 of this program is prohibited from giving any competitor of
 Gaussian, Inc. access to this program.  By using this program,
 the user acknowledges that Gaussian, Inc. is engaged in the
 business of creating and licensing software in the field of
 computational chemistry and represents and warrants to the
 licensee that it is not a competitor of Gaussian, Inc. and that
 it will not use this program in any manner prohibited above.
 ---------------------------------------------------------------
  

 Cite this work as:
 Gaussian 16, Revision A.03,
 M. J. Frisch, G. W. Trucks, H. B. Schlegel, G. E. Scuseria, 
 M. A. Robb, J. R. Cheeseman, G. Scalmani, V. Barone, 
 G. A. Petersson, H. Nakatsuji, X. Li, M. Caricato, A. V. Marenich, 
 J. Bloino, B. G. Janesko, R. Gomperts, B. Mennucci, H. P. Hratchian, 
 J. V. Ortiz, A. F. Izmaylov, J. L. Sonnenberg, D. Williams-Young, 
 F. Ding, F. Lipparini, F. Egidi, J. Goings, B. Peng, A. Petrone, 
 T. Henderson, D. Ranasinghe, V. G. Zakrzewski, J. Gao, N. Rega, 
 G. Zheng, W. Liang, M. Hada, M. Ehara, K. Toyota, R. Fukuda, 
 J. Hasegawa, M. Ishida, T. Nakajima, Y. Honda, O. Kitao, H. Nakai, 
 T. Vreven, K. Throssell, J. A. Montgomery, Jr., J. E. Peralta, 
 F. Ogliaro, M. J. Bearpark, J. J. Heyd, E. N. Brothers, K. N. Kudin, 
 V. N. Staroverov, T. A. Keith, R. Kobayashi, J. Normand, 
 K. Raghavachari, A. P. Rendell, J. C. Burant, S. S. Iyengar, 
 J. Tomasi, M. Cossi, J. M. Millam, M. Klene, C. Adamo, R. Cammi, 
 J. W. Ochterski, R. L. Martin, K. Morokuma, O. Farkas, 
 J. B. Foresman, and D. J. Fox, Gaussian, Inc., Wallingford CT, 2016.
 
 ******************************************
 Gaussian 16:  ES64L-G16RevA.03 25-Dec-2016
                22-Sep-2023 
 ******************************************
 %nprocshared=2
 Will use up to    2 processors via shared memory.
 %mem=2GB
 ----------------------------------------------------------------------
 #p b3lyp/gen scrf=(cpcm,solvent=toluene) pop=hirshfeld empiricaldisper
 sion=gd3bj
 ----------------------------------------------------------------------
 1/38=1,172=1/1;
 2/12=2,17=6,18=5,40=1/2;
 3/5=7,11=2,25=1,30=1,70=2101,72=13,74=-5,124=41/1,2,3;
 4//1;
 5/5=2,38=5,53=13/2;
 6/7=2,8=2,9=2,10=2,28=1,79=1/1;
 99/5=1,9=1/99;
 Leave Link    1 at Fri Sep 22 16:33:30 2023, MaxMem=   268435456 cpu:               0.1 elap:               0.0
 (Enter /share/apps/gaussian/g16/l101.exe)
 -----------------------
 tmpdir/M2_conf_0_17.gjf
 -----------------------
 Symbolic Z-matrix:
 Charge =  0 Multiplicity = 1
 C                     0.        0.        0. 
 H                     1.0883    0.        0. 
 O                    -0.5919    0.       -1.074 
 H                    -0.50306   0.00461   0.88017 
 
 ITRead=  0  0  0  0
 MicOpt= -1 -1 -1 -1
 NAtoms=      4 NQM=        4 NQMF=       0 NMMI=      0 NMMIF=      0
                NMic=       0 NMicF=      0.
                    Isotopes and Nuclear Properties:
 (Nuclear quadrupole moments (NQMom) in fm**2, nuclear magnetic moments (NMagM)
  in nuclear magnetons)

  Atom         1           2           3           4
 IAtWgt=          12           1          16           1
 AtmWgt=  12.0000000   1.0078250  15.9949146   1.0078250
 NucSpn=           0           1           0           1
 AtZEff=  -0.0000000  -0.0000000  -0.0000000  -0.0000000
 NQMom=    0.0000000   0.0000000   0.0000000   0.0000000
 NMagM=    0.0000000   2.7928460   0.0000000   2.7928460
 AtZNuc=   6.0000000   1.0000000   8.0000000   1.0000000
 Leave Link  101 at Fri Sep 22 16:33:30 2023, MaxMem=   268435456 cpu:               0.2 elap:               0.1
 (Enter /share/apps/gaussian/g16/l202.exe)
                          Input orientation:                          
 ---------------------------------------------------------------------
 Center     Atomic      Atomic             Coordinates (Angstroms)
 Number     Number       Type             X           Y           Z
 ---------------------------------------------------------------------
      1          6           0        0.000000    0.000000    0.000000
      2          1           0        1.088300    0.000000    0.000000
      3          8           0       -0.591900    0.000000   -1.074000
      4          1           0       -0.503060    0.004610    0.880170
 ---------------------------------------------------------------------
                    Distance matrix (angstroms):
                    1          2          3          4
     1  C    0.000000
     2  H    1.088300   0.000000
     3  O    1.226304   1.994128   0.000000
     4  H    1.013800   1.818556   1.956194   0.000000
 Stoichiometry    CH2O
 Framework group  C1[X(CH2O)]
 Deg. of freedom     6
 Full point group                 C1      NOp   1
 Largest Abelian subgroup         C1      NOp   1
 Largest concise Abelian subgroup C1      NOp   1
                         Standard orientation:                         
 ---------------------------------------------------------------------
 Center     Atomic      Atomic             Coordinates (Angstroms)
 Number     Number       Type             X           Y           Z
 ---------------------------------------------------------------------
      1          6           0        0.547175   -0.013659   -0.000666
      2          1           0        1.086648    0.931520    0.001330
      3          8           0       -0.678991    0.004663    0.000150
      4          1           0        1.062231   -0.886873    0.001464
 ---------------------------------------------------------------------
 Rotational constants (GHZ):         302.7517415          38.4504689          34.1174810
 Leave Link  202 at Fri Sep 22 16:33:30 2023, MaxMem=   268435456 cpu:               0.0 elap:               0.0
 (Enter /share/apps/gaussian/g16/l301.exe)
 General basis read from cards:  (5D, 7F)
 Centers:       2      4
 S 3 1.00
     Exponent=  1.2251800000D+01 Coefficients=  2.3337100000D-02
     Exponent=  1.8687100000D+00 Coefficients=  1.5915000000D-01
     Exponent=  4.1820800000D-01 Coefficients=  5.0000000000D-01
 S 1 1.00
     Exponent=  1.0610000000D-01 Coefficients=  1.0000000000D+00
 P 1 1.00
     Exponent=  1.0000000000D+00 Coefficients=  1.0000000000D+00
 ****
 Centers:       1
 S 5 1.00
     Exponent=  1.2432000000D+03 Coefficients=  6.0336600000D-03
     Exponent=  1.8714500000D+02 Coefficients=  4.4957600000D-02
     Exponent=  4.2512600000D+01 Coefficients=  1.9790100000D-01
     Exponent=  1.1739300000D+01 Coefficients=  5.0000000000D-01
     Exponent=  3.5054800000D+00 Coefficients=  4.8036400000D-01
 S 2 1.00
     Exponent=  5.3908900000D+00 Coefficients= -7.0398000000D-02
     Exponent=  4.9334100000D-01 Coefficients=  5.0000000000D-01
 S 1 1.00
     Exponent=  1.4974100000D-01 Coefficients=  1.0000000000D+00
 P 3 1.00
     Exponent=  9.1805600000D+00 Coefficients=  4.3170100000D-02
     Exponent=  1.9365800000D+00 Coefficients=  2.2499900000D-01
     Exponent=  5.2629600000D-01 Coefficients=  5.0000000000D-01
 P 1 1.00
     Exponent=  1.3631900000D-01 Coefficients=  1.0000000000D+00
 D 1 1.00
     Exponent=  8.0000000000D-01 Coefficients=  1.0000000000D+00
 ****
 Centers:       3
 S 5 1.00
     Exponent=  2.2886400000D+03 Coefficients=  5.8546800000D-03
     Exponent=  3.4441600000D+02 Coefficients=  4.3733300000D-02
     Exponent=  7.8253800000D+01 Coefficients=  1.9479600000D-01
     Exponent=  2.1719500000D+01 Coefficients=  5.0000000000D-01
     Exponent=  6.5590700000D+00 Coefficients=  4.8461400000D-01
 S 2 1.00
     Exponent=  1.0465600000D+01 Coefficients= -7.1334300000D-02
     Exponent=  9.6435100000D-01 Coefficients=  5.0000000000D-01
 S 1 1.00
     Exponent=  2.8512700000D-01 Coefficients=  1.0000000000D+00
 P 3 1.00
     Exponent=  1.7059000000D+01 Coefficients=  4.7443900000D-02
     Exponent=  3.6899900000D+00 Coefficients=  2.4268900000D-01
     Exponent=  9.9299600000D-01 Coefficients=  5.0000000000D-01
 P 1 1.00
     Exponent=  2.4492400000D-01 Coefficients=  1.0000000000D+00
 D 1 1.00
     Exponent=  1.0000000000D+00 Coefficients=  1.0000000000D+00
 ****
 Ernie: Thresh=  0.10000D-02 Tol=  0.10000D-05 Strict=F.
 There are    40 symmetry adapted cartesian basis functions of A   symmetry.
 There are    38 symmetry adapted basis functions of A   symmetry.
    38 basis functions,    66 primitive gaussians,    40 cartesian basis functions
     8 alpha electrons        8 beta electrons
       nuclear repulsion energy        31.3403928705 Hartrees.
 IExCor=  402 DFT=T Ex+Corr=B3LYP ExCW=0 ScaHFX=  0.200000
 ScaDFX=  0.800000  0.720000  1.000000  0.810000 ScalE2=  1.000000  1.000000
 IRadAn=      5 IRanWt=     -1 IRanGd=            0 ICorTp=0 IEmpDi=141
 NAtoms=    4 NActive=    4 NUniq=    4 SFac= 1.00D+00 NAtFMM=   60 NAOKFM=F Big=F
 Integral buffers will be    131072 words long.
 Raffenetti 2 integral format.
 Two-electron integral symmetry is turned on.
 R6Disp:  Grimme-D3(BJ) Dispersion energy=       -0.0018375698 Hartrees.
 Nuclear repulsion after empirical dispersion term =       31.3385553007 Hartrees.
 ------------------------------------------------------------------------------
 Polarizable Continuum Model (PCM)
 =================================
 Model                : C-PCM.
 Atomic radii         : UFF (Universal Force Field).
 Polarization charges : Total charges.
 Charge compensation  : None.
 Solution method      : On-the-fly selection.
 Cavity type          : Scaled VdW (van der Waals Surface) (Alpha=1.100).
 Cavity algorithm     : GePol (No added spheres)
                        Default sphere list used, NSphG=    4.
                        Lebedev-Laikov grids with approx.  5.0 points / Ang**2.
                        Smoothing algorithm: York/Karplus (Gamma=1.0000).
                        Polarization charges: spherical gaussians, with
                                              point-specific exponents (IZeta= 3).
                        Self-potential: point-specific (ISelfS= 7).
                        Self-field    : sphere-specific E.n sum rule (ISelfD= 2).
 Solvent              : Toluene, Eps=   2.374100 Eps(inf)=   2.238315
 ------------------------------------------------------------------------------
 Spheres list:
 ISph  on   Nord     Re0    Alpha      Xe            Ye            Ze
    1   C      1    1.9255  1.100      0.547175     -0.013659     -0.000666
    2   H      2    1.4430  1.100      1.086648      0.931520      0.001330
    3   O      3    1.7500  1.100     -0.678991      0.004663      0.000150
    4   H      4    1.4430  1.100      1.062231     -0.886873      0.001464
 ------------------------------------------------------------------------------
 GePol: Number of generator spheres                  =       4
 GePol: Total number of spheres                      =       4
 GePol: Number of exposed spheres                    =       4 (100.00%)
 GePol: Number of points                             =     522
 GePol: Average weight of points                     =       0.14
 GePol: Minimum weight of points                     =   0.20D-05
 GePol: Maximum weight of points                     =    0.20577
 GePol: Number of points with low weight             =      21
 GePol: Fraction of low-weight points (<1% of avg)   =       4.02%
 GePol: Cavity surface area                          =     73.502 Ang**2
 GePol: Cavity volume                                =     55.804 Ang**3
 Leave Link  301 at Fri Sep 22 16:33:30 2023, MaxMem=   268435456 cpu:               0.2 elap:               0.1
 (Enter /share/apps/gaussian/g16/l302.exe)
 NPDir=0 NMtPBC=     1 NCelOv=     1 NCel=       1 NClECP=     1 NCelD=      1
         NCelK=      1 NCelE2=     1 NClLst=     1 CellRange=     0.0.
 One-electron integrals computed using PRISM.
 One-electron integral symmetry used in STVInt
 NBasis=    38 RedAO= T EigKep=  2.23D-02  NBF=    38
 NBsUse=    38 1.00D-06 EigRej= -1.00D+00 NBFU=    38
 Precomputing XC quadrature grid using
 IXCGrd= 4 IRadAn=           5 IRanWt=          -1 IRanGd=           0 AccXCQ= 0.00D+00.
 Generated NRdTot=       0 NPtTot=           0 NUsed=           0 NTot=          32
 NSgBfM=    40    40    40    40    40 MxSgAt=     4 MxSgA2=     4.
 Leave Link  302 at Fri Sep 22 16:33:30 2023, MaxMem=   268435456 cpu:               0.2 elap:               0.1
 (Enter /share/apps/gaussian/g16/l303.exe)
 DipDrv:  MaxL=1.
 Leave Link  303 at Fri Sep 22 16:33:30 2023, MaxMem=   268435456 cpu:               0.1 elap:               0.1
 (Enter /share/apps/gaussian/g16/l401.exe)
 ExpMin= 1.06D-01 ExpMax= 2.29D+03 ExpMxC= 3.44D+02 IAcc=3 IRadAn=         5 AccDes= 0.00D+00
 Harris functional with IExCor=  402 and IRadAn=       5 diagonalized for initial guess.
 HarFok:  IExCor=  402 AccDes= 0.00D+00 IRadAn=         5 IDoV= 1 UseB2=F ITyADJ=14
 ICtDFT=  3500011 ScaDFX=  1.000000  1.000000  1.000000  1.000000
 FoFCou: FMM=F IPFlag=           0 FMFlag=      100000 FMFlg1=           0
         NFxFlg=           0 DoJE=T BraDBF=F KetDBF=T FulRan=T
         wScrn=  0.000000 ICntrl=       500 IOpCl=  0 I1Cent=   200000004 NGrid=           0
         NMat0=    1 NMatS0=      1 NMatT0=    0 NMatD0=    1 NMtDS0=    0 NMtDT0=    0
 Petite list used in FoFCou.
 Harris En= -114.491307398969    
 JPrj=0 DoOrth=F DoCkMO=F.
 Leave Link  401 at Fri Sep 22 16:33:31 2023, MaxMem=   268435456 cpu:               0.6 elap:               0.3
 (Enter /share/apps/gaussian/g16/l502.exe)
 Keep R1 ints in memory in canonical form, NReq=2001317.
 FoFCou: FMM=F IPFlag=           0 FMFlag=           0 FMFlg1=           0
         NFxFlg=           0 DoJE=F BraDBF=F KetDBF=F FulRan=T
         wScrn=  0.000000 ICntrl=       600 IOpCl=  0 I1Cent=           0 NGrid=           0
         NMat0=    1 NMatS0=    741 NMatT0=    0 NMatD0=    1 NMtDS0=    0 NMtDT0=    0
 Symmetry not used in FoFCou.
 Two-electron integral symmetry not used.
 Closed shell SCF:
 Using DIIS extrapolation, IDIIS=  1040.
 NGot=   268435456 LenX=   268156521 LenY=   268154480
 Requested convergence on RMS density matrix=1.00D-08 within 128 cycles.
 Requested convergence on MAX density matrix=1.00D-06.
 Requested convergence on             energy=1.00D-06.
 No special actions if energy rises.

 Cycle   1  Pass 1  IDiag  1:
 Inv3:  Mode=1 IEnd=      817452.
 Iteration    1 A*A^-1 deviation from unit magnitude is 2.89D-15 for    518.
 Iteration    1 A*A^-1 deviation from orthogonality  is 8.92D-16 for    495    210.
 Iteration    1 A^-1*A deviation from unit magnitude is 2.89D-15 for    518.
 Iteration    1 A^-1*A deviation from orthogonality  is 1.04D-15 for    420     16.
 E= -114.437575398093    
 DIIS: error= 3.70D-02 at cycle   1 NSaved=   1.
 NSaved= 1 IEnMin= 1 EnMin= -114.437575398093     IErMin= 1 ErrMin= 3.70D-02
 ErrMax= 3.70D-02  0.00D+00 EMaxC= 1.00D-01 BMatC= 5.29D-02 BMatP= 5.29D-02
 IDIUse=3 WtCom= 6.30D-01 WtEn= 3.70D-01
 Coeff-Com:  0.100D+01
 Coeff-En:   0.100D+01
 Coeff:      0.100D+01
 Gap=     0.171 Goal=   None    Shift=    0.000
 GapD=    0.171 DampG=1.000 DampE=0.500 DampFc=0.5000 IDamp=-1.
 Damping current iteration by 5.00D-01
 RMSDP=1.25D-02 MaxDP=1.63D-01              OVMax= 2.33D-01

 Cycle   2  Pass 1  IDiag  1:
 E= -114.443418319517     Delta-E=       -0.005842921424 Rises=F Damp=T
 DIIS: error= 1.43D-02 at cycle   2 NSaved=   2.
 NSaved= 2 IEnMin= 2 EnMin= -114.443418319517     IErMin= 2 ErrMin= 1.43D-02
 ErrMax= 1.43D-02  0.00D+00 EMaxC= 1.00D-01 BMatC= 1.25D-02 BMatP= 5.29D-02
 IDIUse=3 WtCom= 8.57D-01 WtEn= 1.43D-01
 Coeff-Com:  0.298D+00 0.702D+00
 Coeff-En:   0.441D+00 0.559D+00
 Coeff:      0.318D+00 0.682D+00
 Gap=     0.218 Goal=   None    Shift=    0.000
 RMSDP=3.08D-03 MaxDP=3.48D-02 DE=-5.84D-03 OVMax= 1.76D-01

 Cycle   3  Pass 1  IDiag  1:
 E= -114.478909335689     Delta-E=       -0.035491016172 Rises=F Damp=F
 DIIS: error= 8.79D-03 at cycle   3 NSaved=   3.
 NSaved= 3 IEnMin= 3 EnMin= -114.478909335689     IErMin= 3 ErrMin= 8.79D-03
 ErrMax= 8.79D-03  0.00D+00 EMaxC= 1.00D-01 BMatC= 2.77D-03 BMatP= 1.25D-02
 IDIUse=3 WtCom= 9.12D-01 WtEn= 8.79D-02
 Coeff-Com:  0.957D-01 0.343D+00 0.562D+00
 Coeff-En:   0.000D+00 0.000D+00 0.100D+01
 Coeff:      0.873D-01 0.313D+00 0.600D+00
 Gap=     0.216 Goal=   None    Shift=    0.000
 RMSDP=1.30D-03 MaxDP=1.78D-02 DE=-3.55D-02 OVMax= 2.84D-02

 Cycle   4  Pass 1  IDiag  1:
 E= -114.481532937600     Delta-E=       -0.002623601911 Rises=F Damp=F
 DIIS: error= 2.73D-03 at cycle   4 NSaved=   4.
 NSaved= 4 IEnMin= 4 EnMin= -114.481532937600     IErMin= 4 ErrMin= 2.73D-03
 ErrMax= 2.73D-03  0.00D+00 EMaxC= 1.00D-01 BMatC= 2.29D-04 BMatP= 2.77D-03
 IDIUse=3 WtCom= 9.73D-01 WtEn= 2.73D-02
 Coeff-Com:  0.148D-01 0.183D-01 0.221D+00 0.746D+00
 Coeff-En:   0.000D+00 0.000D+00 0.000D+00 0.100D+01
 Coeff:      0.144D-01 0.178D-01 0.215D+00 0.753D+00
 Gap=     0.218 Goal=   None    Shift=    0.000
 RMSDP=2.57D-04 MaxDP=3.63D-03 DE=-2.62D-03 OVMax= 4.92D-03

 Cycle   5  Pass 1  IDiag  1:
 E= -114.481728571592     Delta-E=       -0.000195633991 Rises=F Damp=F
 DIIS: error= 1.73D-04 at cycle   5 NSaved=   5.
 NSaved= 5 IEnMin= 5 EnMin= -114.481728571592     IErMin= 5 ErrMin= 1.73D-04
 ErrMax= 1.73D-04  0.00D+00 EMaxC= 1.00D-01 BMatC= 1.19D-06 BMatP= 2.29D-04
 IDIUse=3 WtCom= 9.98D-01 WtEn= 1.73D-03
 Coeff-Com:  0.199D-02-0.700D-02 0.289D-01 0.140D+00 0.836D+00
 Coeff-En:   0.000D+00 0.000D+00 0.000D+00 0.000D+00 0.100D+01
 Coeff:      0.199D-02-0.699D-02 0.289D-01 0.140D+00 0.836D+00
 Gap=     0.219 Goal=   None    Shift=    0.000
 RMSDP=2.37D-05 MaxDP=1.97D-04 DE=-1.96D-04 OVMax= 2.52D-04

 Cycle   6  Pass 1  IDiag  1:
 E= -114.481729505356     Delta-E=       -0.000000933764 Rises=F Damp=F
 DIIS: error= 3.36D-05 at cycle   6 NSaved=   6.
 NSaved= 6 IEnMin= 6 EnMin= -114.481729505356     IErMin= 6 ErrMin= 3.36D-05
 ErrMax= 3.36D-05  0.00D+00 EMaxC= 1.00D-01 BMatC= 4.35D-08 BMatP= 1.19D-06
 IDIUse=1 WtCom= 1.00D+00 WtEn= 0.00D+00
 Coeff-Com:  0.369D-03-0.123D-02 0.109D-02 0.175D-02 0.384D-01 0.960D+00
 Coeff:      0.369D-03-0.123D-02 0.109D-02 0.175D-02 0.384D-01 0.960D+00
 Gap=     0.219 Goal=   None    Shift=    0.000
 RMSDP=5.09D-06 MaxDP=4.99D-05 DE=-9.34D-07 OVMax= 5.86D-05

 Cycle   7  Pass 1  IDiag  1:
 E= -114.481729540199     Delta-E=       -0.000000034843 Rises=F Damp=F
 DIIS: error= 1.65D-06 at cycle   7 NSaved=   7.
 NSaved= 7 IEnMin= 7 EnMin= -114.481729540199     IErMin= 7 ErrMin= 1.65D-06
 ErrMax= 1.65D-06  0.00D+00 EMaxC= 1.00D-01 BMatC= 2.20D-10 BMatP= 4.35D-08
 IDIUse=1 WtCom= 1.00D+00 WtEn= 0.00D+00
 Coeff-Com:  0.259D-06 0.311D-04-0.230D-03-0.191D-02-0.127D-01 0.288D-01
 Coeff-Com:  0.986D+00
 Coeff:      0.259D-06 0.311D-04-0.230D-03-0.191D-02-0.127D-01 0.288D-01
 Coeff:      0.986D+00
 Gap=     0.219 Goal=   None    Shift=    0.000
 RMSDP=3.58D-07 MaxDP=3.28D-06 DE=-3.48D-08 OVMax= 3.24D-06

 Cycle   8  Pass 1  IDiag  1:
 E= -114.481729540368     Delta-E=       -0.000000000169 Rises=F Damp=F
 DIIS: error= 3.93D-07 at cycle   8 NSaved=   8.
 NSaved= 8 IEnMin= 8 EnMin= -114.481729540368     IErMin= 8 ErrMin= 3.93D-07
 ErrMax= 3.93D-07  0.00D+00 EMaxC= 1.00D-01 BMatC= 5.59D-12 BMatP= 2.20D-10
 IDIUse=1 WtCom= 1.00D+00 WtEn= 0.00D+00
 Coeff-Com:  0.216D-07 0.643D-05-0.807D-05-0.155D-03-0.114D-02-0.690D-02
 Coeff-Com:  0.662D-01 0.942D+00
 Coeff:      0.216D-07 0.643D-05-0.807D-05-0.155D-03-0.114D-02-0.690D-02
 Coeff:      0.662D-01 0.942D+00
 Gap=     0.219 Goal=   None    Shift=    0.000
 RMSDP=5.25D-08 MaxDP=4.34D-07 DE=-1.69D-10 OVMax= 5.49D-07

 Cycle   9  Pass 1  IDiag  1:
 E= -114.481729540373     Delta-E=       -0.000000000004 Rises=F Damp=F
 DIIS: error= 3.33D-08 at cycle   9 NSaved=   9.
 NSaved= 9 IEnMin= 9 EnMin= -114.481729540373     IErMin= 9 ErrMin= 3.33D-08
 ErrMax= 3.33D-08  0.00D+00 EMaxC= 1.00D-01 BMatC= 5.48D-14 BMatP= 5.59D-12
 IDIUse=1 WtCom= 1.00D+00 WtEn= 0.00D+00
 Coeff-Com:  0.177D-06-0.605D-06 0.384D-05 0.140D-04 0.123D-03-0.930D-03
 Coeff-Com: -0.873D-02 0.429D-01 0.967D+00
 Coeff:      0.177D-06-0.605D-06 0.384D-05 0.140D-04 0.123D-03-0.930D-03
 Coeff:     -0.873D-02 0.429D-01 0.967D+00
 Gap=     0.219 Goal=   None    Shift=    0.000
 RMSDP=4.61D-09 MaxDP=5.08D-08 DE=-4.41D-12 OVMax= 5.85D-08

 Error on total polarization charges =  0.00270
 SCF Done:  E(RB3LYP) =  -114.481729540     A.U. after    9 cycles
            NFock=  9  Conv=0.46D-08     -V/T= 2.0033
 KE= 1.141048498022D+02 PE=-3.316833070191D+02 EE= 7.175817237589D+01
 Leave Link  502 at Fri Sep 22 16:33:33 2023, MaxMem=   268435456 cpu:               4.8 elap:               2.4
 (Enter /share/apps/gaussian/g16/l601.exe)
 Copying SCF densities to generalized density rwf, IOpCl= 0 IROHF=0.

 **********************************************************************

            Population analysis using the SCF density.

 **********************************************************************

 Orbital symmetries:
       Occupied  (A) (A) (A) (A) (A) (A) (A) (A)
       Virtual   (A) (A) (A) (A) (A) (A) (A) (A) (A) (A) (A) (A)
                 (A) (A) (A) (A) (A) (A) (A) (A) (A) (A) (A) (A)
                 (A) (A) (A) (A) (A) (A)
 The electronic state is 1-A.
 Alpha  occ. eigenvalues --  -19.13927 -10.27132  -1.05763  -0.65400  -0.51157
 Alpha  occ. eigenvalues --   -0.45279  -0.39923  -0.27499
 Alpha virt. eigenvalues --   -0.05638   0.06589   0.11859   0.17952   0.40388
 Alpha virt. eigenvalues --    0.47724   0.52710   0.59782   0.62512   0.72855
 Alpha virt. eigenvalues --    0.78456   0.87630   0.97937   1.32107   1.50147
 Alpha virt. eigenvalues --    1.59836   1.75255   1.80585   1.95226   1.97369
 Alpha virt. eigenvalues --    2.11760   2.14928   2.26778   2.52902   2.69783
 Alpha virt. eigenvalues --    2.77602   2.79855   3.13108   3.29152   3.46466
          Condensed to atoms (all electrons):
               1          2          3          4
     1  C    4.394004   0.390534   0.588006   0.399083
     2  H    0.390534   0.667605  -0.057763  -0.079726
     3  O    0.588006  -0.057763   7.894080  -0.050124
     4  H    0.399083  -0.079726  -0.050124   0.664291
 Mulliken charges:
               1
     1  C    0.228372
     2  H    0.079350
     3  O   -0.374198
     4  H    0.066476
 Sum of Mulliken charges =  -0.00000
 Mulliken charges with hydrogens summed into heavy atoms:
               1
     1  C    0.374198
     3  O   -0.374198
 Electronic spatial extent (au):  <R**2>=             59.7794
 Charge=             -0.0000 electrons
 Dipole moment (field-independent basis, Debye):
    X=              2.8137    Y=             -0.1013    Z=              0.0004  Tot=              2.8155
 Quadrupole moment (field-independent basis, Debye-Ang):
   XX=            -12.0234   YY=            -11.4699   ZZ=            -11.5249
   XY=             -0.0882   XZ=              0.0014   YZ=              0.0002
 Traceless Quadrupole moment (field-independent basis, Debye-Ang):
   XX=             -0.3506   YY=              0.2028   ZZ=              0.1478
   XY=             -0.0882   XZ=              0.0014   YZ=              0.0002
 Octapole moment (field-independent basis, Debye-Ang**2):
  XXX=              0.4583  YYY=             -0.2000  ZZZ=              0.0020  XYY=              0.5809
  XXY=             -0.1400  XXZ=              0.0032  XZZ=             -0.4431  YZZ=             -0.0984
  YYZ=              0.0032  XYZ=              0.0000
 Hexadecapole moment (field-independent basis, Debye-Ang**3):
 XXXX=            -44.0337 YYYY=            -17.2474 ZZZZ=             -9.9811 XXXY=             -0.3537
 XXXZ=              0.0038 YYYX=             -0.2136 YYYZ=             -0.0000 ZZZX=              0.0002
 ZZZY=             -0.0001 XXYY=             -9.9266 XXZZ=             -8.9540 YYZZ=             -4.7826
 XXYZ=              0.0001 YYXZ=              0.0032 ZZXY=             -0.1154
 N-N= 3.133855530066D+01 E-N=-3.316833071633D+02  KE= 1.141048498022D+02
 There are a total of       88026 grid points.
 ElSum from          density=       15.9999999759
 ElSum from atomic densities=       15.9999998420
 Hirshfeld populations at iteration   1 (CA, CB, DipXYZ):
               1          2          3          4          5
     1  C    2.930279   2.930279   0.110617  -0.016246  -0.000865
     2  H    0.474793   0.474793   0.077256   0.104708   0.000408
     3  O    4.123215   4.123215   0.155796  -0.002128   0.000124
     4  H    0.471712   0.471712   0.085865  -0.114336   0.000433
       Tot   8.000000   8.000000   0.429534  -0.028002   0.000100

 Dip from Atomic Chgs              0.677470  -0.011846   0.000038
         Total Dipole              1.107004  -0.039847   0.000138

 Hirshfeld charges, spin densities, dipoles, and CM5 charges using IRadAn=      5:
              Q-H        S-H        Dx         Dy         Dz        Q-CM5   
     1  C    0.139441   0.000000   0.110617  -0.016246  -0.000865   0.068858
     2  H    0.050413   0.000000   0.077256   0.104708   0.000408   0.111329
     3  O   -0.246431   0.000000   0.155796  -0.002128   0.000124  -0.308663
     4  H    0.056576   0.000000   0.085865  -0.114336   0.000433   0.128475
       Tot   0.000000   0.000000   0.429534  -0.028002   0.000100   0.000000
 Hirshfeld charges with hydrogens summed into heavy atoms:
              Q-H       Q-CM5   
     1  C    0.246431   0.308663
     3  O   -0.246431  -0.308663
 
 EQQ= 0.000000000000E+00 EQD= 0.000000000000E+00 EDD= 0.414816681052E-02
 EQQ+QD+DD= 0.414816681052E-02
 
 No NMR shielding tensors so no spin-rotation constants.
 Leave Link  601 at Fri Sep 22 16:33:33 2023, MaxMem=   268435456 cpu:               0.4 elap:               0.2
 (Enter /share/apps/gaussian/g16/l9999.exe)
 1\1\GINC-NODE99\SP\RB3LYP\Gen\C1H2O1\YANZ\22-Sep-2023\0\\#p b3lyp/gen 
 scrf=(cpcm,solvent=toluene) pop=hirshfeld empiricaldispersion=gd3bj\\t
 mpdir/M2_conf_0_17.gjf\\0,1\C,0,0.,0.,0.\H,0,1.0883,0.,0.\O,0,-0.5919,
 0.,-1.074\H,0,-0.50306,0.00461,0.88017\\Version=ES64L-G16RevA.03\State
 =1-A\HF=-114.4817295\RMSD=4.609e-09\Dipole=0.5141376,0.0009317,0.98117
 65\Quadrupole=-0.0067758,0.10989,-0.1031142,0.0004443,-0.210485,0.0008
 389\PG=C01 [X(C1H2O1)]\\@


 CHILDREN YOU ARE VERY LITTLE,
 AND YOUR BONES ARE VERY BRITTLE;
 IF YOU WOULD GROW GREAT AND STATELY
 YOU MUST TRY TO WALK SEDATELY.
 YOU MUST STILL BE BRIGHT AND QUIET,
 AND CONTENT WITH SIMPLE DIET;
 AND REMAIN, THROUGH ALL BEWILD'RING
 INNOCENT AND HONEST CHILDREN.
     -- A CHILD'S GARDEN OF VERSE,
        ROBERT LOUIS STEVENSON
 Job cpu time:       0 days  0 hours  0 minutes  6.7 seconds.
 Elapsed time:       0 days  0 hours  0 minutes  3.5 seconds.
 File lengths (MBytes):  RWF=      6 Int=      0 D2E=      0 Chk=      1 Scr=      1
 Normal termination of Gaussian 16 at Fri Sep 22 16:33:33 2023.
