 Entering Gaussian System, Link 0=g16
 Initial command:
 /share/apps/gaussian/g16/l1.exe "/tmp/55556.mgr/Gau-87305.inp" -scrdir="/tmp/55556.mgr/"
 Entering Link 1 = /share/apps/gaussian/g16/l1.exe PID=     87306.
  
 Copyright (c) 1988,1990,1992,1993,1995,1998,2003,2009,2016,
            Gaussian, Inc.  All Rights Reserved.
  
 This is part of the Gaussian(R) 16 program.  It is based on
 the Gaussian(R) 09 system (copyright 2009, Gaussian, Inc.),
 the Gaussian(R) 03 system (copyright 2003, Gaussian, Inc.),
 the Gaussian(R) 98 system (copyright 1998, Gaussian, Inc.),
 the Gaussian(R) 94 system (copyright 1995, Gaussian, Inc.),
 the Gaussian 92(TM) system (copyright 1992, Gaussian, Inc.),
 the Gaussian 90(TM) system (copyright 1990, Gaussian, Inc.),
 the Gaussian 88(TM) system (copyright 1988, Gaussian, Inc.),
 the Gaussian 86(TM) system (copyright 1986, Carnegie Mellon
 University), and the Gaussian 82(TM) system (copyright 1983,
 Carnegie Mellon University). Gaussian is a federally registered
 trademark of Gaussian, Inc.
  
 This software contains proprietary and confidential information,
 including trade secrets, belonging to Gaussian, Inc.
  
 This software is provided under written license and may be
 used, copied, transmitted, or stored only in accord with that
 written license.
  
 The following legend is applicable only to US Government
 contracts under FAR:
  
                    RESTRICTED RIGHTS LEGEND
  
 Use, reproduction and disclosure by the US Government is
 subject to restrictions as set forth in subparagraphs (a)
 and (c) of the Commercial Computer Software - Restricted
 Rights clause in FAR 52.227-19.
  
 Gaussian, Inc.
 340 Quinnipiac St., Bldg. 40, Wallingford CT 06492
  
  
 ---------------------------------------------------------------
 Warning -- This program may not be used in any manner that
 competes with the business of Gaussian, Inc. or will provide
 assistance to any competitor of Gaussian, Inc.  The licensee
 of this program is prohibited from giving any competitor of
 Gaussian, Inc. access to this program.  By using this program,
 the user acknowledges that Gaussian, Inc. is engaged in the
 business of creating and licensing software in the field of
 computational chemistry and represents and warrants to the
 licensee that it is not a competitor of Gaussian, Inc. and that
 it will not use this program in any manner prohibited above.
 ---------------------------------------------------------------
  

 Cite this work as:
 Gaussian 16, Revision A.03,
 M. J. Frisch, G. W. Trucks, H. B. Schlegel, G. E. Scuseria, 
 M. A. Robb, J. R. Cheeseman, G. Scalmani, V. Barone, 
 G. A. Petersson, H. Nakatsuji, X. Li, M. Caricato, A. V. Marenich, 
 J. Bloino, B. G. Janesko, R. Gomperts, B. Mennucci, H. P. Hratchian, 
 J. V. Ortiz, A. F. Izmaylov, J. L. Sonnenberg, D. Williams-Young, 
 F. Ding, F. Lipparini, F. Egidi, J. Goings, B. Peng, A. Petrone, 
 T. Henderson, D. Ranasinghe, V. G. Zakrzewski, J. Gao, N. Rega, 
 G. Zheng, W. Liang, M. Hada, M. Ehara, K. Toyota, R. Fukuda, 
 J. Hasegawa, M. Ishida, T. Nakajima, Y. Honda, O. Kitao, H. Nakai, 
 T. Vreven, K. Throssell, J. A. Montgomery, Jr., J. E. Peralta, 
 F. Ogliaro, M. J. Bearpark, J. J. Heyd, E. N. Brothers, K. N. Kudin, 
 V. N. Staroverov, T. A. Keith, R. Kobayashi, J. Normand, 
 K. Raghavachari, A. P. Rendell, J. C. Burant, S. S. Iyengar, 
 J. Tomasi, M. Cossi, J. M. Millam, M. Klene, C. Adamo, R. Cammi, 
 J. W. Ochterski, R. L. Martin, K. Morokuma, O. Farkas, 
 J. B. Foresman, and D. J. Fox, Gaussian, Inc., Wallingford CT, 2016.
 
 ******************************************
 Gaussian 16:  ES64L-G16RevA.03 25-Dec-2016
                22-Sep-2023 
 ******************************************
 %nprocshared=2
 Will use up to    2 processors via shared memory.
 %mem=2GB
 ----------------------------------------------------------------------
 #p b3lyp/gen scrf=(cpcm,solvent=toluene) pop=hirshfeld empiricaldisper
 sion=gd3bj
 ----------------------------------------------------------------------
 1/38=1,172=1/1;
 2/12=2,17=6,18=5,40=1/2;
 3/5=7,11=2,25=1,30=1,70=2101,72=13,74=-5,124=41/1,2,3;
 4//1;
 5/5=2,38=5,53=13/2;
 6/7=2,8=2,9=2,10=2,28=1,79=1/1;
 99/5=1,9=1/99;
 Leave Link    1 at Fri Sep 22 16:35:57 2023, MaxMem=   268435456 cpu:               0.1 elap:               0.0
 (Enter /share/apps/gaussian/g16/l101.exe)
 ------------------------
 tmpdir/M2_conf_0_362.gjf
 ------------------------
 Symbolic Z-matrix:
 Charge =  0 Multiplicity = 1
 C                     0.        0.        0. 
 C                     1.5046    0.        0. 
 H                     1.84461   0.        1.04582 
 O                    -0.67937   0.84239  -0.47485 
 H                    -0.45254  -0.86412   0.48552 
 H                     1.88537  -0.91692  -0.47265 
 H                     1.94543   0.85832  -0.51491 
 
 ITRead=  0  0  0  0  0  0  0
 MicOpt= -1 -1 -1 -1 -1 -1 -1
 NAtoms=      7 NQM=        7 NQMF=       0 NMMI=      0 NMMIF=      0
                NMic=       0 NMicF=      0.
                    Isotopes and Nuclear Properties:
 (Nuclear quadrupole moments (NQMom) in fm**2, nuclear magnetic moments (NMagM)
  in nuclear magnetons)

  Atom         1           2           3           4           5           6           7
 IAtWgt=          12          12           1          16           1           1           1
 AtmWgt=  12.0000000  12.0000000   1.0078250  15.9949146   1.0078250   1.0078250   1.0078250
 NucSpn=           0           0           1           0           1           1           1
 AtZEff=  -0.0000000  -0.0000000  -0.0000000  -0.0000000  -0.0000000  -0.0000000  -0.0000000
 NQMom=    0.0000000   0.0000000   0.0000000   0.0000000   0.0000000   0.0000000   0.0000000
 NMagM=    0.0000000   0.0000000   2.7928460   0.0000000   2.7928460   2.7928460   2.7928460
 AtZNuc=   6.0000000   6.0000000   1.0000000   8.0000000   1.0000000   1.0000000   1.0000000
 Leave Link  101 at Fri Sep 22 16:35:57 2023, MaxMem=   268435456 cpu:               0.2 elap:               0.1
 (Enter /share/apps/gaussian/g16/l202.exe)
                          Input orientation:                          
 ---------------------------------------------------------------------
 Center     Atomic      Atomic             Coordinates (Angstroms)
 Number     Number       Type             X           Y           Z
 ---------------------------------------------------------------------
      1          6           0        0.000000    0.000000    0.000000
      2          6           0        1.504600    0.000000    0.000000
      3          1           0        1.844610    0.000000    1.045820
      4          8           0       -0.679370    0.842390   -0.474850
      5          1           0       -0.452540   -0.864120    0.485520
      6          1           0        1.885370   -0.916920   -0.472650
      7          1           0        1.945430    0.858320   -0.514910
 ---------------------------------------------------------------------
                    Distance matrix (angstroms):
                    1          2          3          4          5
     1  C    0.000000
     2  C    1.504600   0.000000
     3  H    2.120454   1.099703   0.000000
     4  O    1.181798   2.388478   3.064724   0.000000
     5  H    1.089599   2.193816   2.517447   1.971278   0.000000
     6  H    2.149130   1.099603   1.774304   3.110156   2.527192
     7  H    2.187817   1.093699   1.784028   2.625154   3.117358
                    6          7
     6  H    0.000000
     7  H    1.776758   0.000000
 Stoichiometry    C2H4O
 Framework group  C1[X(C2H4O)]
 Deg. of freedom    15
 Full point group                 C1      NOp   1
 Largest Abelian subgroup         C1      NOp   1
 Largest concise Abelian subgroup C1      NOp   1
                         Standard orientation:                         
 ---------------------------------------------------------------------
 Center     Atomic      Atomic             Coordinates (Angstroms)
 Number     Number       Type             X           Y           Z
 ---------------------------------------------------------------------
      1          6           0        0.246415    0.389001   -0.002030
      2          6           0       -1.162389   -0.139286   -0.000431
      3          1           0       -1.661061    0.224924    0.909527
      4          8           0        1.222063   -0.277897   -0.000031
      5          1           0        0.322124    1.475957   -0.006676
      6          1           0       -1.717887    0.255008   -0.863612
      7          1           0       -1.223841   -1.230998   -0.024222
 ---------------------------------------------------------------------
 Rotational constants (GHZ):          58.3019965          10.2291800           9.2051423
 Leave Link  202 at Fri Sep 22 16:35:57 2023, MaxMem=   268435456 cpu:               0.0 elap:               0.0
 (Enter /share/apps/gaussian/g16/l301.exe)
 General basis read from cards:  (5D, 7F)
 Centers:       3      5      6      7
 S 3 1.00
     Exponent=  1.2251800000D+01 Coefficients=  2.3337100000D-02
     Exponent=  1.8687100000D+00 Coefficients=  1.5915000000D-01
     Exponent=  4.1820800000D-01 Coefficients=  5.0000000000D-01
 S 1 1.00
     Exponent=  1.0610000000D-01 Coefficients=  1.0000000000D+00
 P 1 1.00
     Exponent=  1.0000000000D+00 Coefficients=  1.0000000000D+00
 ****
 Centers:       1      2
 S 5 1.00
     Exponent=  1.2432000000D+03 Coefficients=  6.0336600000D-03
     Exponent=  1.8714500000D+02 Coefficients=  4.4957600000D-02
     Exponent=  4.2512600000D+01 Coefficients=  1.9790100000D-01
     Exponent=  1.1739300000D+01 Coefficients=  5.0000000000D-01
     Exponent=  3.5054800000D+00 Coefficients=  4.8036400000D-01
 S 2 1.00
     Exponent=  5.3908900000D+00 Coefficients= -7.0398000000D-02
     Exponent=  4.9334100000D-01 Coefficients=  5.0000000000D-01
 S 1 1.00
     Exponent=  1.4974100000D-01 Coefficients=  1.0000000000D+00
 P 3 1.00
     Exponent=  9.1805600000D+00 Coefficients=  4.3170100000D-02
     Exponent=  1.9365800000D+00 Coefficients=  2.2499900000D-01
     Exponent=  5.2629600000D-01 Coefficients=  5.0000000000D-01
 P 1 1.00
     Exponent=  1.3631900000D-01 Coefficients=  1.0000000000D+00
 D 1 1.00
     Exponent=  8.0000000000D-01 Coefficients=  1.0000000000D+00
 ****
 Centers:       4
 S 5 1.00
     Exponent=  2.2886400000D+03 Coefficients=  5.8546800000D-03
     Exponent=  3.4441600000D+02 Coefficients=  4.3733300000D-02
     Exponent=  7.8253800000D+01 Coefficients=  1.9479600000D-01
     Exponent=  2.1719500000D+01 Coefficients=  5.0000000000D-01
     Exponent=  6.5590700000D+00 Coefficients=  4.8461400000D-01
 S 2 1.00
     Exponent=  1.0465600000D+01 Coefficients= -7.1334300000D-02
     Exponent=  9.6435100000D-01 Coefficients=  5.0000000000D-01
 S 1 1.00
     Exponent=  2.8512700000D-01 Coefficients=  1.0000000000D+00
 P 3 1.00
     Exponent=  1.7059000000D+01 Coefficients=  4.7443900000D-02
     Exponent=  3.6899900000D+00 Coefficients=  2.4268900000D-01
     Exponent=  9.9299600000D-01 Coefficients=  5.0000000000D-01
 P 1 1.00
     Exponent=  2.4492400000D-01 Coefficients=  1.0000000000D+00
 D 1 1.00
     Exponent=  1.0000000000D+00 Coefficients=  1.0000000000D+00
 ****
 Ernie: Thresh=  0.10000D-02 Tol=  0.10000D-05 Strict=F.
 There are    65 symmetry adapted cartesian basis functions of A   symmetry.
 There are    62 symmetry adapted basis functions of A   symmetry.
    62 basis functions,   106 primitive gaussians,    65 cartesian basis functions
    12 alpha electrons       12 beta electrons
       nuclear repulsion energy        70.2387890980 Hartrees.
 IExCor=  402 DFT=T Ex+Corr=B3LYP ExCW=0 ScaHFX=  0.200000
 ScaDFX=  0.800000  0.720000  1.000000  0.810000 ScalE2=  1.000000  1.000000
 IRadAn=      5 IRanWt=     -1 IRanGd=            0 ICorTp=0 IEmpDi=141
 NAtoms=    7 NActive=    7 NUniq=    7 SFac= 1.00D+00 NAtFMM=   60 NAOKFM=F Big=F
 Integral buffers will be    131072 words long.
 Raffenetti 2 integral format.
 Two-electron integral symmetry is turned on.
 R6Disp:  Grimme-D3(BJ) Dispersion energy=       -0.0053855281 Hartrees.
 Nuclear repulsion after empirical dispersion term =       70.2334035699 Hartrees.
 ------------------------------------------------------------------------------
 Polarizable Continuum Model (PCM)
 =================================
 Model                : C-PCM.
 Atomic radii         : UFF (Universal Force Field).
 Polarization charges : Total charges.
 Charge compensation  : None.
 Solution method      : On-the-fly selection.
 Cavity type          : Scaled VdW (van der Waals Surface) (Alpha=1.100).
 Cavity algorithm     : GePol (No added spheres)
                        Default sphere list used, NSphG=    7.
                        Lebedev-Laikov grids with approx.  5.0 points / Ang**2.
                        Smoothing algorithm: York/Karplus (Gamma=1.0000).
                        Polarization charges: spherical gaussians, with
                                              point-specific exponents (IZeta= 3).
                        Self-potential: point-specific (ISelfS= 7).
                        Self-field    : sphere-specific E.n sum rule (ISelfD= 2).
 Solvent              : Toluene, Eps=   2.374100 Eps(inf)=   2.238315
 ------------------------------------------------------------------------------
 Spheres list:
 ISph  on   Nord     Re0    Alpha      Xe            Ye            Ze
    1   C      1    1.9255  1.100      0.246415      0.389001     -0.002030
    2   C      2    1.9255  1.100     -1.162389     -0.139286     -0.000431
    3   H      3    1.4430  1.100     -1.661061      0.224924      0.909527
    4   O      4    1.7500  1.100      1.222063     -0.277897     -0.000031
    5   H      5    1.4430  1.100      0.322124      1.475957     -0.006676
    6   H      6    1.4430  1.100     -1.717887      0.255008     -0.863612
    7   H      7    1.4430  1.100     -1.223841     -1.230998     -0.024222
 ------------------------------------------------------------------------------
 GePol: Number of generator spheres                  =       7
 GePol: Total number of spheres                      =       7
 GePol: Number of exposed spheres                    =       7 (100.00%)
 GePol: Number of points                             =     740
 GePol: Average weight of points                     =       0.13
 GePol: Minimum weight of points                     =   0.12D-07
 GePol: Maximum weight of points                     =    0.20321
 GePol: Number of points with low weight             =      39
 GePol: Fraction of low-weight points (<1% of avg)   =       5.27%
 GePol: Cavity surface area                          =     99.491 Ang**2
 GePol: Cavity volume                                =     81.664 Ang**3
 Leave Link  301 at Fri Sep 22 16:35:58 2023, MaxMem=   268435456 cpu:               0.3 elap:               0.2
 (Enter /share/apps/gaussian/g16/l302.exe)
 NPDir=0 NMtPBC=     1 NCelOv=     1 NCel=       1 NClECP=     1 NCelD=      1
         NCelK=      1 NCelE2=     1 NClLst=     1 CellRange=     0.0.
 One-electron integrals computed using PRISM.
 One-electron integral symmetry used in STVInt
 NBasis=    62 RedAO= T EigKep=  6.56D-03  NBF=    62
 NBsUse=    62 1.00D-06 EigRej= -1.00D+00 NBFU=    62
 Precomputing XC quadrature grid using
 IXCGrd= 4 IRadAn=           5 IRanWt=          -1 IRanGd=           0 AccXCQ= 0.00D+00.
 Generated NRdTot=       0 NPtTot=           0 NUsed=           0 NTot=          32
 NSgBfM=    65    65    65    65    65 MxSgAt=     7 MxSgA2=     7.
 Leave Link  302 at Fri Sep 22 16:35:58 2023, MaxMem=   268435456 cpu:               0.3 elap:               0.2
 (Enter /share/apps/gaussian/g16/l303.exe)
 DipDrv:  MaxL=1.
 Leave Link  303 at Fri Sep 22 16:35:58 2023, MaxMem=   268435456 cpu:               0.1 elap:               0.1
 (Enter /share/apps/gaussian/g16/l401.exe)
 ExpMin= 1.06D-01 ExpMax= 2.29D+03 ExpMxC= 3.44D+02 IAcc=3 IRadAn=         5 AccDes= 0.00D+00
 Harris functional with IExCor=  402 and IRadAn=       5 diagonalized for initial guess.
 HarFok:  IExCor=  402 AccDes= 0.00D+00 IRadAn=         5 IDoV= 1 UseB2=F ITyADJ=14
 ICtDFT=  3500011 ScaDFX=  1.000000  1.000000  1.000000  1.000000
 FoFCou: FMM=F IPFlag=           0 FMFlag=      100000 FMFlg1=           0
         NFxFlg=           0 DoJE=T BraDBF=F KetDBF=T FulRan=T
         wScrn=  0.000000 ICntrl=       500 IOpCl=  0 I1Cent=   200000004 NGrid=           0
         NMat0=    1 NMatS0=      1 NMatT0=    0 NMatD0=    1 NMtDS0=    0 NMtDT0=    0
 Petite list used in FoFCou.
 Harris En= -153.839072474686    
 JPrj=0 DoOrth=F DoCkMO=F.
 Leave Link  401 at Fri Sep 22 16:35:58 2023, MaxMem=   268435456 cpu:               1.1 elap:               0.6
 (Enter /share/apps/gaussian/g16/l502.exe)
 Keep R1 ints in memory in canonical form, NReq=3684788.
 FoFCou: FMM=F IPFlag=           0 FMFlag=           0 FMFlg1=           0
         NFxFlg=           0 DoJE=F BraDBF=F KetDBF=F FulRan=T
         wScrn=  0.000000 ICntrl=       600 IOpCl=  0 I1Cent=           0 NGrid=           0
         NMat0=    1 NMatS0=   1953 NMatT0=    0 NMatD0=    1 NMtDS0=    0 NMtDT0=    0
 Symmetry not used in FoFCou.
 Two-electron integral symmetry not used.
 Closed shell SCF:
 Using DIIS extrapolation, IDIIS=  1040.
 NGot=   268435456 LenX=   266517664 LenY=   266512998
 Requested convergence on RMS density matrix=1.00D-08 within 128 cycles.
 Requested convergence on MAX density matrix=1.00D-06.
 Requested convergence on             energy=1.00D-06.
 No special actions if energy rises.

 Cycle   1  Pass 1  IDiag  1:
 Inv3:  Mode=1 IEnd=     1642800.
 Iteration    1 A*A^-1 deviation from unit magnitude is 2.44D-15 for    722.
 Iteration    1 A*A^-1 deviation from orthogonality  is 1.24D-15 for    726     31.
 Iteration    1 A^-1*A deviation from unit magnitude is 2.44D-15 for    722.
 Iteration    1 A^-1*A deviation from orthogonality  is 1.17D-15 for    706    288.
 E= -153.709647124339    
 DIIS: error= 3.50D-02 at cycle   1 NSaved=   1.
 NSaved= 1 IEnMin= 1 EnMin= -153.709647124339     IErMin= 1 ErrMin= 3.50D-02
 ErrMax= 3.50D-02  0.00D+00 EMaxC= 1.00D-01 BMatC= 1.12D-01 BMatP= 1.12D-01
 IDIUse=3 WtCom= 6.50D-01 WtEn= 3.50D-01
 Coeff-Com:  0.100D+01
 Coeff-En:   0.100D+01
 Coeff:      0.100D+01
 Gap=     0.180 Goal=   None    Shift=    0.000
 GapD=    0.180 DampG=1.000 DampE=0.500 DampFc=0.5000 IDamp=-1.
 Damping current iteration by 5.00D-01
 RMSDP=1.20D-02 MaxDP=1.69D-01              OVMax= 2.21D-01

 Cycle   2  Pass 1  IDiag  1:
 E= -153.744729028243     Delta-E=       -0.035081903905 Rises=F Damp=T
 DIIS: error= 1.13D-02 at cycle   2 NSaved=   2.
 NSaved= 2 IEnMin= 2 EnMin= -153.744729028243     IErMin= 2 ErrMin= 1.13D-02
 ErrMax= 1.13D-02  0.00D+00 EMaxC= 1.00D-01 BMatC= 1.17D-02 BMatP= 1.12D-01
 IDIUse=3 WtCom= 8.87D-01 WtEn= 1.13D-01
 Coeff-Com:  0.195D+00 0.805D+00
 Coeff-En:   0.287D+00 0.713D+00
 Coeff:      0.206D+00 0.794D+00
 Gap=     0.240 Goal=   None    Shift=    0.000
 RMSDP=2.91D-03 MaxDP=3.64D-02 DE=-3.51D-02 OVMax= 1.48D-01

 Cycle   3  Pass 1  IDiag  1:
 E= -153.804924981628     Delta-E=       -0.060195953385 Rises=F Damp=F
 DIIS: error= 1.15D-02 at cycle   3 NSaved=   3.
 NSaved= 3 IEnMin= 3 EnMin= -153.804924981628     IErMin= 2 ErrMin= 1.13D-02
 ErrMax= 1.15D-02  0.00D+00 EMaxC= 1.00D-01 BMatC= 9.50D-03 BMatP= 1.17D-02
 IDIUse=3 WtCom= 8.85D-01 WtEn= 1.15D-01
 Coeff-Com:  0.792D-01 0.488D+00 0.433D+00
 Coeff-En:   0.000D+00 0.000D+00 0.100D+01
 Coeff:      0.701D-01 0.432D+00 0.498D+00
 Gap=     0.238 Goal=   None    Shift=    0.000
 RMSDP=1.53D-03 MaxDP=2.60D-02 DE=-6.02D-02 OVMax= 4.26D-02

 Cycle   4  Pass 1  IDiag  1:
 E= -153.812544328826     Delta-E=       -0.007619347197 Rises=F Damp=F
 DIIS: error= 3.32D-03 at cycle   4 NSaved=   4.
 NSaved= 4 IEnMin= 4 EnMin= -153.812544328826     IErMin= 4 ErrMin= 3.32D-03
 ErrMax= 3.32D-03  0.00D+00 EMaxC= 1.00D-01 BMatC= 1.02D-03 BMatP= 9.50D-03
 IDIUse=3 WtCom= 9.67D-01 WtEn= 3.32D-02
 Coeff-Com:  0.113D-01 0.419D-01 0.252D+00 0.695D+00
 Coeff-En:   0.000D+00 0.000D+00 0.828D-01 0.917D+00
 Coeff:      0.109D-01 0.405D-01 0.246D+00 0.702D+00
 Gap=     0.240 Goal=   None    Shift=    0.000
 RMSDP=3.95D-04 MaxDP=6.06D-03 DE=-7.62D-03 OVMax= 8.83D-03

 Cycle   5  Pass 1  IDiag  1:
 E= -153.813367235968     Delta-E=       -0.000822907143 Rises=F Damp=F
 DIIS: error= 2.41D-04 at cycle   5 NSaved=   5.
 NSaved= 5 IEnMin= 5 EnMin= -153.813367235968     IErMin= 5 ErrMin= 2.41D-04
 ErrMax= 2.41D-04  0.00D+00 EMaxC= 1.00D-01 BMatC= 8.52D-06 BMatP= 1.02D-03
 IDIUse=3 WtCom= 9.98D-01 WtEn= 2.41D-03
 Coeff-Com:  0.161D-02-0.376D-02 0.660D-01 0.231D+00 0.705D+00
 Coeff-En:   0.000D+00 0.000D+00 0.000D+00 0.000D+00 0.100D+01
 Coeff:      0.160D-02-0.375D-02 0.658D-01 0.231D+00 0.706D+00
 Gap=     0.240 Goal=   None    Shift=    0.000
 RMSDP=5.23D-05 MaxDP=7.78D-04 DE=-8.23D-04 OVMax= 8.23D-04

 Cycle   6  Pass 1  IDiag  1:
 E= -153.813374520150     Delta-E=       -0.000007284182 Rises=F Damp=F
 DIIS: error= 1.02D-04 at cycle   6 NSaved=   6.
 NSaved= 6 IEnMin= 6 EnMin= -153.813374520150     IErMin= 6 ErrMin= 1.02D-04
 ErrMax= 1.02D-04  0.00D+00 EMaxC= 1.00D-01 BMatC= 1.01D-06 BMatP= 8.52D-06
 IDIUse=3 WtCom= 9.99D-01 WtEn= 1.02D-03
 Coeff-Com:  0.388D-03-0.398D-02 0.171D-01 0.639D-01 0.314D+00 0.608D+00
 Coeff-En:   0.000D+00 0.000D+00 0.000D+00 0.000D+00 0.000D+00 0.100D+01
 Coeff:      0.388D-03-0.398D-02 0.171D-01 0.639D-01 0.314D+00 0.609D+00
 Gap=     0.240 Goal=   None    Shift=    0.000
 RMSDP=1.83D-05 MaxDP=1.96D-04 DE=-7.28D-06 OVMax= 2.90D-04

 Cycle   7  Pass 1  IDiag  1:
 E= -153.813375480308     Delta-E=       -0.000000960157 Rises=F Damp=F
 DIIS: error= 1.10D-05 at cycle   7 NSaved=   7.
 NSaved= 7 IEnMin= 7 EnMin= -153.813375480308     IErMin= 7 ErrMin= 1.10D-05
 ErrMax= 1.10D-05  0.00D+00 EMaxC= 1.00D-01 BMatC= 1.63D-08 BMatP= 1.01D-06
 IDIUse=1 WtCom= 1.00D+00 WtEn= 0.00D+00
 Coeff-Com:  0.131D-03-0.829D-03 0.174D-02 0.479D-02 0.346D-01 0.101D+00
 Coeff-Com:  0.859D+00
 Coeff:      0.131D-03-0.829D-03 0.174D-02 0.479D-02 0.346D-01 0.101D+00
 Coeff:      0.859D+00
 Gap=     0.240 Goal=   None    Shift=    0.000
 RMSDP=1.98D-06 MaxDP=1.94D-05 DE=-9.60D-07 OVMax= 2.82D-05

 Cycle   8  Pass 1  IDiag  1:
 E= -153.813375493395     Delta-E=       -0.000000013087 Rises=F Damp=F
 DIIS: error= 1.90D-06 at cycle   8 NSaved=   8.
 NSaved= 8 IEnMin= 8 EnMin= -153.813375493395     IErMin= 8 ErrMin= 1.90D-06
 ErrMax= 1.90D-06  0.00D+00 EMaxC= 1.00D-01 BMatC= 3.47D-10 BMatP= 1.63D-08
 IDIUse=1 WtCom= 1.00D+00 WtEn= 0.00D+00
 Coeff-Com:  0.190D-04 0.134D-04-0.288D-03-0.159D-02-0.722D-02-0.109D-01
 Coeff-Com:  0.958D-01 0.924D+00
 Coeff:      0.190D-04 0.134D-04-0.288D-03-0.159D-02-0.722D-02-0.109D-01
 Coeff:      0.958D-01 0.924D+00
 Gap=     0.240 Goal=   None    Shift=    0.000
 RMSDP=5.31D-07 MaxDP=6.74D-06 DE=-1.31D-08 OVMax= 7.92D-06

 Cycle   9  Pass 1  IDiag  1:
 E= -153.813375493702     Delta-E=       -0.000000000308 Rises=F Damp=F
 DIIS: error= 1.40D-07 at cycle   9 NSaved=   9.
 NSaved= 9 IEnMin= 9 EnMin= -153.813375493702     IErMin= 9 ErrMin= 1.40D-07
 ErrMax= 1.40D-07  0.00D+00 EMaxC= 1.00D-01 BMatC= 2.51D-12 BMatP= 3.47D-10
 IDIUse=1 WtCom= 1.00D+00 WtEn= 0.00D+00
 Coeff-Com:  0.580D-06 0.970D-05-0.511D-04-0.240D-03-0.136D-02-0.195D-02
 Coeff-Com: -0.638D-03 0.115D+00 0.889D+00
 Coeff:      0.580D-06 0.970D-05-0.511D-04-0.240D-03-0.136D-02-0.195D-02
 Coeff:     -0.638D-03 0.115D+00 0.889D+00
 Gap=     0.240 Goal=   None    Shift=    0.000
 RMSDP=3.29D-08 MaxDP=3.70D-07 DE=-3.08D-10 OVMax= 8.58D-07

 Cycle  10  Pass 1  IDiag  1:
 E= -153.813375493704     Delta-E=       -0.000000000002 Rises=F Damp=F
 DIIS: error= 4.61D-08 at cycle  10 NSaved=  10.
 NSaved=10 IEnMin=10 EnMin= -153.813375493704     IErMin=10 ErrMin= 4.61D-08
 ErrMax= 4.61D-08  0.00D+00 EMaxC= 1.00D-01 BMatC= 1.85D-13 BMatP= 2.51D-12
 IDIUse=1 WtCom= 1.00D+00 WtEn= 0.00D+00
 Coeff-Com: -0.194D-06 0.756D-06 0.778D-06 0.112D-06-0.611D-04 0.248D-04
 Coeff-Com: -0.270D-02-0.601D-02 0.146D+00 0.862D+00
 Coeff:     -0.194D-06 0.756D-06 0.778D-06 0.112D-06-0.611D-04 0.248D-04
 Coeff:     -0.270D-02-0.601D-02 0.146D+00 0.862D+00
 Gap=     0.240 Goal=   None    Shift=    0.000
 RMSDP=7.12D-09 MaxDP=7.42D-08 DE=-1.71D-12 OVMax= 1.11D-07

 Error on total polarization charges =  0.00414
 SCF Done:  E(RB3LYP) =  -153.813375494     A.U. after   10 cycles
            NFock= 10  Conv=0.71D-08     -V/T= 2.0039
 KE= 1.532193629058D+02 PE=-5.002750459234D+02 EE= 1.230089039539D+02
 Leave Link  502 at Fri Sep 22 16:36:05 2023, MaxMem=   268435456 cpu:              13.6 elap:               6.9
 (Enter /share/apps/gaussian/g16/l601.exe)
 Copying SCF densities to generalized density rwf, IOpCl= 0 IROHF=0.

 **********************************************************************

            Population analysis using the SCF density.

 **********************************************************************

 Orbital symmetries:
       Occupied  (A) (A) (A) (A) (A) (A) (A) (A) (A) (A) (A) (A)
       Virtual   (A) (A) (A) (A) (A) (A) (A) (A) (A) (A) (A) (A)
                 (A) (A) (A) (A) (A) (A) (A) (A) (A) (A) (A) (A)
                 (A) (A) (A) (A) (A) (A) (A) (A) (A) (A) (A) (A)
                 (A) (A) (A) (A) (A) (A) (A) (A) (A) (A) (A) (A)
                 (A) (A)
 The electronic state is 1-A.
 Alpha  occ. eigenvalues --  -19.12791 -10.26984 -10.18391  -1.07653  -0.75580
 Alpha  occ. eigenvalues --   -0.58860  -0.48770  -0.45215  -0.44973  -0.40001
 Alpha  occ. eigenvalues --   -0.37957  -0.26546
 Alpha virt. eigenvalues --   -0.02523   0.05521   0.08252   0.10781   0.11878
 Alpha virt. eigenvalues --    0.20933   0.22806   0.41472   0.42341   0.44087
 Alpha virt. eigenvalues --    0.45865   0.54781   0.58725   0.60992   0.64685
 Alpha virt. eigenvalues --    0.65858   0.67004   0.75205   0.78534   0.89698
 Alpha virt. eigenvalues --    0.99816   1.09912   1.25265   1.46700   1.47840
 Alpha virt. eigenvalues --    1.66653   1.71838   1.74559   1.84361   1.84448
 Alpha virt. eigenvalues --    1.89759   1.90240   1.92256   2.10550   2.11322
 Alpha virt. eigenvalues --    2.14987   2.17922   2.29929   2.45376   2.53261
 Alpha virt. eigenvalues --    2.56555   2.64812   2.72704   2.90395   2.92523
 Alpha virt. eigenvalues --    3.04914   3.15910   3.19460   3.27355   3.38406
          Condensed to atoms (all electrons):
               1          2          3          4          5          6
     1  C    4.456986   0.372871  -0.018336   0.652131   0.396506  -0.017038
     2  C    0.372871   4.958502   0.372111  -0.099560  -0.111462   0.372990
     3  H   -0.018336   0.372111   0.553992   0.001642   0.001795  -0.015252
     4  O    0.652131  -0.099560   0.001642   7.826694  -0.059281   0.001999
     5  H    0.396506  -0.111462   0.001795  -0.059281   0.713980   0.001465
     6  H   -0.017038   0.372990  -0.015252   0.001999   0.001465   0.553404
     7  H   -0.018024   0.368567  -0.016089   0.008524   0.011321  -0.017387
               7
     1  C   -0.018024
     2  C    0.368567
     3  H   -0.016089
     4  O    0.008524
     5  H    0.011321
     6  H   -0.017387
     7  H    0.557457
 Mulliken charges:
               1
     1  C    0.174904
     2  C   -0.234019
     3  H    0.120137
     4  O   -0.332148
     5  H    0.045677
     6  H    0.119819
     7  H    0.105631
 Sum of Mulliken charges =  -0.00000
 Mulliken charges with hydrogens summed into heavy atoms:
               1
     1  C    0.220581
     2  C    0.111568
     4  O   -0.332148
 Electronic spatial extent (au):  <R**2>=            166.6489
 Charge=              0.0000 electrons
 Dipole moment (field-independent basis, Debye):
    X=             -2.6924    Y=              1.3250    Z=              0.0057  Tot=              3.0008
 Quadrupole moment (field-independent basis, Debye-Ang):
   XX=            -21.2259   YY=            -18.1445   ZZ=            -17.8388
   XY=              0.9901   XZ=              0.0122   YZ=              0.0152
 Traceless Quadrupole moment (field-independent basis, Debye-Ang):
   XX=             -2.1562   YY=              0.9252   ZZ=              1.2309
   XY=              0.9901   XZ=              0.0122   YZ=              0.0152
 Octapole moment (field-independent basis, Debye-Ang**2):
  XXX=             -1.5159  YYY=             -0.4791  ZZZ=              0.0829  XYY=              0.8172
  XXY=              1.0050  XXZ=             -0.1005  XZZ=              0.6208  YZZ=              0.2467
  YYZ=             -0.0475  XYZ=             -0.0144
 Hexadecapole moment (field-independent basis, Debye-Ang**3):
 XXXX=           -152.4924 YYYY=            -41.8717 ZZZZ=            -23.5760 XXXY=             -1.4571
 XXXZ=              0.2874 YYYX=              0.5779 YYYZ=              0.0424 ZZZX=             -0.1009
 ZZZY=              0.0267 XXYY=            -31.7350 XXZZ=            -26.2315 YYZZ=            -11.5735
 XXYZ=             -0.0186 YYXZ=              0.0612 ZZXY=             -1.2480
 N-N= 7.023340356994D+01 E-N=-5.002750454992D+02  KE= 1.532193629058D+02
 There are a total of      155354 grid points.
 ElSum from          density=       23.9999994324
 ElSum from atomic densities=       23.9999976880
 Hirshfeld populations at iteration   1 (CA, CB, DipXYZ):
               1          2          3          4          5
     1  C    2.922378   2.922378  -0.062315   0.033948   0.001509
     2  C    3.038120   3.038120   0.014803   0.016268  -0.001817
     3  H    0.475398   0.475398  -0.062889   0.049522   0.120795
     4  O    4.127015   4.127015  -0.127024   0.076559  -0.000439
     5  H    0.482180   0.482180   0.000810   0.118923  -0.000878
     6  H    0.475514   0.475514  -0.072167   0.051768  -0.114657
     7  H    0.479395   0.479395  -0.016574  -0.141329  -0.004058
       Tot  12.000000  12.000000  -0.325356   0.205659   0.000455

 Dip from Atomic Chgs             -0.733928   0.315648   0.001795
         Total Dipole             -1.059284   0.521307   0.002251

 Hirshfeld charges, spin densities, dipoles, and CM5 charges using IRadAn=      5:
              Q-H        S-H        Dx         Dy         Dz        Q-CM5   
     1  C    0.155245   0.000000  -0.062315   0.033948   0.001509   0.136217
     2  C   -0.076239   0.000000   0.014803   0.016268  -0.001817  -0.218013
     3  H    0.049204   0.000000  -0.062889   0.049522   0.120795   0.100496
     4  O   -0.254030   0.000000  -0.127024   0.076559  -0.000439  -0.313315
     5  H    0.035640   0.000000   0.000810   0.118923  -0.000878   0.100268
     6  H    0.048971   0.000000  -0.072167   0.051768  -0.114657   0.099922
     7  H    0.041209   0.000000  -0.016574  -0.141329  -0.004058   0.094426
       Tot   0.000001   0.000000  -0.325356   0.205659   0.000455   0.000001
 Hirshfeld charges with hydrogens summed into heavy atoms:
              Q-H       Q-CM5   
     1  C    0.190885   0.236485
     2  C    0.063146   0.076830
     4  O   -0.254030  -0.313315
 
 EQQ= 0.000000000000E+00 EQD= 0.000000000000E+00 EDD= 0.963503918531E-03
 EQQ+QD+DD= 0.963503918531E-03
 
 No NMR shielding tensors so no spin-rotation constants.
 Leave Link  601 at Fri Sep 22 16:36:06 2023, MaxMem=   268435456 cpu:               0.9 elap:               0.5
 (Enter /share/apps/gaussian/g16/l9999.exe)
 1\1\GINC-NODE99\SP\RB3LYP\Gen\C2H4O1\YANZ\22-Sep-2023\0\\#p b3lyp/gen 
 scrf=(cpcm,solvent=toluene) pop=hirshfeld empiricaldispersion=gd3bj\\t
 mpdir/M2_conf_0_362.gjf\\0,1\C,0,0.,0.,0.\C,0,1.5046,0.,0.\H,0,1.84461
 ,0.,1.04582\O,0,-0.67937,0.84239,-0.47485\H,0,-0.45254,-0.86412,0.4855
 2\H,0,1.88537,-0.91692,-0.47265\H,0,1.94543,0.85832,-0.51491\\Version=
 ES64L-G16RevA.03\State=1-A\HF=-153.8133755\RMSD=7.124e-09\Dipole=0.808
 8042,-0.7473358,0.4256439\Quadrupole=-0.8366367,0.1559378,0.6806989,1.
 132233,-0.6546207,0.4220513\PG=C01 [X(C2H4O1)]\\@


 10 WHATSOEVER THY HAND FINDETH TO DO, DO IT WITH THY  
 MIGHT. FOR THERE IS NO WORK, NOR DEVICE, NOR KNOWLEDGE, NOR  
 WISDOM, IN THE GRAVE, WHITHER THOU GOEST.                    
 11 I RETURNED AND SAW UNDER THE SUN, THAT THE RACE IS NOT TO 
 THE SWIFT, NOR THE BATTLE TO THE STRONG, NEITHER YET BREAD TO
 THE WISE, NOR YET RICHES TO MEN OF UNDERSTANDING, NOR YET    
 FAVOR TO MEN OF SKILL. BUT TIME AND CHANCE HAPPEN TO THEM ALL.
 12 FOR MAN ALSO KNOWETH NOT HIS TIME. AS THE FISHES   
 THAT ARE TAKEN IN AN EVIL NET, AND AS THE BIRDS THAT ARE     
 CAUGHT IN THE SNARE. SO ARE THE SONS OF MEN SNARED IN AN EVIL
 TIME, WHEN IT FALLETH SUDDENLY UPON THEM.
                                         ECCLESIASTES 9
 Job cpu time:       0 days  0 hours  0 minutes 16.8 seconds.
 Elapsed time:       0 days  0 hours  0 minutes  8.5 seconds.
 File lengths (MBytes):  RWF=     11 Int=      0 D2E=      0 Chk=      2 Scr=      1
 Normal termination of Gaussian 16 at Fri Sep 22 16:36:06 2023.
