 Entering Gaussian System, Link 0=g16
 Initial command:
 /share/apps/gaussian/g16/l1.exe "/tmp/55556.mgr/Gau-85841.inp" -scrdir="/tmp/55556.mgr/"
 Entering Link 1 = /share/apps/gaussian/g16/l1.exe PID=     85842.
  
 Copyright (c) 1988,1990,1992,1993,1995,1998,2003,2009,2016,
            Gaussian, Inc.  All Rights Reserved.
  
 This is part of the Gaussian(R) 16 program.  It is based on
 the Gaussian(R) 09 system (copyright 2009, Gaussian, Inc.),
 the Gaussian(R) 03 system (copyright 2003, Gaussian, Inc.),
 the Gaussian(R) 98 system (copyright 1998, Gaussian, Inc.),
 the Gaussian(R) 94 system (copyright 1995, Gaussian, Inc.),
 the Gaussian 92(TM) system (copyright 1992, Gaussian, Inc.),
 the Gaussian 90(TM) system (copyright 1990, Gaussian, Inc.),
 the Gaussian 88(TM) system (copyright 1988, Gaussian, Inc.),
 the Gaussian 86(TM) system (copyright 1986, Carnegie Mellon
 University), and the Gaussian 82(TM) system (copyright 1983,
 Carnegie Mellon University). Gaussian is a federally registered
 trademark of Gaussian, Inc.
  
 This software contains proprietary and confidential information,
 including trade secrets, belonging to Gaussian, Inc.
  
 This software is provided under written license and may be
 used, copied, transmitted, or stored only in accord with that
 written license.
  
 The following legend is applicable only to US Government
 contracts under FAR:
  
                    RESTRICTED RIGHTS LEGEND
  
 Use, reproduction and disclosure by the US Government is
 subject to restrictions as set forth in subparagraphs (a)
 and (c) of the Commercial Computer Software - Restricted
 Rights clause in FAR 52.227-19.
  
 Gaussian, Inc.
 340 Quinnipiac St., Bldg. 40, Wallingford CT 06492
  
  
 ---------------------------------------------------------------
 Warning -- This program may not be used in any manner that
 competes with the business of Gaussian, Inc. or will provide
 assistance to any competitor of Gaussian, Inc.  The licensee
 of this program is prohibited from giving any competitor of
 Gaussian, Inc. access to this program.  By using this program,
 the user acknowledges that Gaussian, Inc. is engaged in the
 business of creating and licensing software in the field of
 computational chemistry and represents and warrants to the
 licensee that it is not a competitor of Gaussian, Inc. and that
 it will not use this program in any manner prohibited above.
 ---------------------------------------------------------------
  

 Cite this work as:
 Gaussian 16, Revision A.03,
 M. J. Frisch, G. W. Trucks, H. B. Schlegel, G. E. Scuseria, 
 M. A. Robb, J. R. Cheeseman, G. Scalmani, V. Barone, 
 G. A. Petersson, H. Nakatsuji, X. Li, M. Caricato, A. V. Marenich, 
 J. Bloino, B. G. Janesko, R. Gomperts, B. Mennucci, H. P. Hratchian, 
 J. V. Ortiz, A. F. Izmaylov, J. L. Sonnenberg, D. Williams-Young, 
 F. Ding, F. Lipparini, F. Egidi, J. Goings, B. Peng, A. Petrone, 
 T. Henderson, D. Ranasinghe, V. G. Zakrzewski, J. Gao, N. Rega, 
 G. Zheng, W. Liang, M. Hada, M. Ehara, K. Toyota, R. Fukuda, 
 J. Hasegawa, M. Ishida, T. Nakajima, Y. Honda, O. Kitao, H. Nakai, 
 T. Vreven, K. Throssell, J. A. Montgomery, Jr., J. E. Peralta, 
 F. Ogliaro, M. J. Bearpark, J. J. Heyd, E. N. Brothers, K. N. Kudin, 
 V. N. Staroverov, T. A. Keith, R. Kobayashi, J. Normand, 
 K. Raghavachari, A. P. Rendell, J. C. Burant, S. S. Iyengar, 
 J. Tomasi, M. Cossi, J. M. Millam, M. Klene, C. Adamo, R. Cammi, 
 J. W. Ochterski, R. L. Martin, K. Morokuma, O. Farkas, 
 J. B. Foresman, and D. J. Fox, Gaussian, Inc., Wallingford CT, 2016.
 
 ******************************************
 Gaussian 16:  ES64L-G16RevA.03 25-Dec-2016
                22-Sep-2023 
 ******************************************
 %nprocshared=2
 Will use up to    2 processors via shared memory.
 %mem=2GB
 ----------------------------------------------------------------------
 #p b3lyp/gen scrf=(cpcm,solvent=toluene) pop=hirshfeld empiricaldisper
 sion=gd3bj
 ----------------------------------------------------------------------
 1/38=1,172=1/1;
 2/12=2,17=6,18=5,40=1/2;
 3/5=7,11=2,25=1,30=1,70=2101,72=13,74=-5,124=41/1,2,3;
 4//1;
 5/5=2,38=5,53=13/2;
 6/7=2,8=2,9=2,10=2,28=1,79=1/1;
 99/5=1,9=1/99;
 Leave Link    1 at Fri Sep 22 16:34:34 2023, MaxMem=   268435456 cpu:               0.1 elap:               0.0
 (Enter /share/apps/gaussian/g16/l101.exe)
 ------------------------
 tmpdir/M2_conf_0_194.gjf
 ------------------------
 Symbolic Z-matrix:
 Charge =  0 Multiplicity = 1
 C                     0.        0.        0. 
 H                     1.0962    0.        0. 
 H                    -0.3631    0.       -1.04798 
 H                    -0.35573   0.87739   0.54655 
 H                    -0.33167  -0.90611   0.51915 
 
 ITRead=  0  0  0  0  0
 MicOpt= -1 -1 -1 -1 -1
 NAtoms=      5 NQM=        5 NQMF=       0 NMMI=      0 NMMIF=      0
                NMic=       0 NMicF=      0.
                    Isotopes and Nuclear Properties:
 (Nuclear quadrupole moments (NQMom) in fm**2, nuclear magnetic moments (NMagM)
  in nuclear magnetons)

  Atom         1           2           3           4           5
 IAtWgt=          12           1           1           1           1
 AtmWgt=  12.0000000   1.0078250   1.0078250   1.0078250   1.0078250
 NucSpn=           0           1           1           1           1
 AtZEff=  -0.0000000  -0.0000000  -0.0000000  -0.0000000  -0.0000000
 NQMom=    0.0000000   0.0000000   0.0000000   0.0000000   0.0000000
 NMagM=    0.0000000   2.7928460   2.7928460   2.7928460   2.7928460
 AtZNuc=   6.0000000   1.0000000   1.0000000   1.0000000   1.0000000
 Leave Link  101 at Fri Sep 22 16:34:34 2023, MaxMem=   268435456 cpu:               0.2 elap:               0.1
 (Enter /share/apps/gaussian/g16/l202.exe)
                          Input orientation:                          
 ---------------------------------------------------------------------
 Center     Atomic      Atomic             Coordinates (Angstroms)
 Number     Number       Type             X           Y           Z
 ---------------------------------------------------------------------
      1          6           0        0.000000    0.000000    0.000000
      2          1           0        1.096200    0.000000    0.000000
      3          1           0       -0.363100    0.000000   -1.047980
      4          1           0       -0.355730    0.877390    0.546550
      5          1           0       -0.331670   -0.906110    0.519150
 ---------------------------------------------------------------------
                    Distance matrix (angstroms):
                    1          2          3          4          5
     1  C    0.000000
     2  H    1.096200   0.000000
     3  H    1.109100   1.796613   0.000000
     4  H    1.093194   1.782311   1.819998   0.000000
     5  H    1.095699   1.769001   1.810503   1.783873   0.000000
 Stoichiometry    CH4
 Framework group  C1[X(CH4)]
 Deg. of freedom     9
 Full point group                 C1      NOp   1
 Largest Abelian subgroup         C1      NOp   1
 Largest concise Abelian subgroup C1      NOp   1
                         Standard orientation:                         
 ---------------------------------------------------------------------
 Center     Atomic      Atomic             Coordinates (Angstroms)
 Number     Number       Type             X           Y           Z
 ---------------------------------------------------------------------
      1          6           0        0.002047    0.004588   -0.002653
      2          1           0       -0.136382   -0.456101    0.982364
      3          1           0        1.082488    0.194404   -0.166122
      4          1           0       -0.577879    0.930212   -0.047124
      5          1           0       -0.380510   -0.696041   -0.753204
 ---------------------------------------------------------------------
 Rotational constants (GHZ):         158.7871491         155.1823304         153.5875594
 Leave Link  202 at Fri Sep 22 16:34:34 2023, MaxMem=   268435456 cpu:               0.0 elap:               0.0
 (Enter /share/apps/gaussian/g16/l301.exe)
 General basis read from cards:  (5D, 7F)
 Centers:       2      3      4      5
 S 3 1.00
     Exponent=  1.2251800000D+01 Coefficients=  2.3337100000D-02
     Exponent=  1.8687100000D+00 Coefficients=  1.5915000000D-01
     Exponent=  4.1820800000D-01 Coefficients=  5.0000000000D-01
 S 1 1.00
     Exponent=  1.0610000000D-01 Coefficients=  1.0000000000D+00
 P 1 1.00
     Exponent=  1.0000000000D+00 Coefficients=  1.0000000000D+00
 ****
 Centers:       1
 S 5 1.00
     Exponent=  1.2432000000D+03 Coefficients=  6.0336600000D-03
     Exponent=  1.8714500000D+02 Coefficients=  4.4957600000D-02
     Exponent=  4.2512600000D+01 Coefficients=  1.9790100000D-01
     Exponent=  1.1739300000D+01 Coefficients=  5.0000000000D-01
     Exponent=  3.5054800000D+00 Coefficients=  4.8036400000D-01
 S 2 1.00
     Exponent=  5.3908900000D+00 Coefficients= -7.0398000000D-02
     Exponent=  4.9334100000D-01 Coefficients=  5.0000000000D-01
 S 1 1.00
     Exponent=  1.4974100000D-01 Coefficients=  1.0000000000D+00
 P 3 1.00
     Exponent=  9.1805600000D+00 Coefficients=  4.3170100000D-02
     Exponent=  1.9365800000D+00 Coefficients=  2.2499900000D-01
     Exponent=  5.2629600000D-01 Coefficients=  5.0000000000D-01
 P 1 1.00
     Exponent=  1.3631900000D-01 Coefficients=  1.0000000000D+00
 D 1 1.00
     Exponent=  8.0000000000D-01 Coefficients=  1.0000000000D+00
 ****
 Ernie: Thresh=  0.10000D-02 Tol=  0.10000D-05 Strict=F.
 There are    35 symmetry adapted cartesian basis functions of A   symmetry.
 There are    34 symmetry adapted basis functions of A   symmetry.
    34 basis functions,    54 primitive gaussians,    35 cartesian basis functions
     5 alpha electrons        5 beta electrons
       nuclear repulsion energy        13.3315751513 Hartrees.
 IExCor=  402 DFT=T Ex+Corr=B3LYP ExCW=0 ScaHFX=  0.200000
 ScaDFX=  0.800000  0.720000  1.000000  0.810000 ScalE2=  1.000000  1.000000
 IRadAn=      5 IRanWt=     -1 IRanGd=            0 ICorTp=0 IEmpDi=141
 NAtoms=    5 NActive=    5 NUniq=    5 SFac= 1.00D+00 NAtFMM=   60 NAOKFM=F Big=F
 Integral buffers will be    131072 words long.
 Raffenetti 2 integral format.
 Two-electron integral symmetry is turned on.
 R6Disp:  Grimme-D3(BJ) Dispersion energy=       -0.0019127736 Hartrees.
 Nuclear repulsion after empirical dispersion term =       13.3296623777 Hartrees.
 ------------------------------------------------------------------------------
 Polarizable Continuum Model (PCM)
 =================================
 Model                : C-PCM.
 Atomic radii         : UFF (Universal Force Field).
 Polarization charges : Total charges.
 Charge compensation  : None.
 Solution method      : On-the-fly selection.
 Cavity type          : Scaled VdW (van der Waals Surface) (Alpha=1.100).
 Cavity algorithm     : GePol (No added spheres)
                        Default sphere list used, NSphG=    5.
                        Lebedev-Laikov grids with approx.  5.0 points / Ang**2.
                        Smoothing algorithm: York/Karplus (Gamma=1.0000).
                        Polarization charges: spherical gaussians, with
                                              point-specific exponents (IZeta= 3).
                        Self-potential: point-specific (ISelfS= 7).
                        Self-field    : sphere-specific E.n sum rule (ISelfD= 2).
 Solvent              : Toluene, Eps=   2.374100 Eps(inf)=   2.238315
 ------------------------------------------------------------------------------
 Spheres list:
 ISph  on   Nord     Re0    Alpha      Xe            Ye            Ze
    1   C      1    1.9255  1.100      0.002047      0.004588     -0.002653
    2   H      2    1.4430  1.100     -0.136382     -0.456101      0.982364
    3   H      3    1.4430  1.100      1.082488      0.194404     -0.166122
    4   H      4    1.4430  1.100     -0.577879      0.930212     -0.047124
    5   H      5    1.4430  1.100     -0.380510     -0.696041     -0.753204
 ------------------------------------------------------------------------------
 GePol: Number of generator spheres                  =       5
 GePol: Total number of spheres                      =       5
 GePol: Number of exposed spheres                    =       5 (100.00%)
 GePol: Number of points                             =     490
 GePol: Average weight of points                     =       0.14
 GePol: Minimum weight of points                     =   0.62D-06
 GePol: Maximum weight of points                     =    0.20577
 GePol: Number of points with low weight             =      18
 GePol: Fraction of low-weight points (<1% of avg)   =       3.67%
 GePol: Cavity surface area                          =     69.970 Ang**2
 GePol: Cavity volume                                =     51.637 Ang**3
 Leave Link  301 at Fri Sep 22 16:34:34 2023, MaxMem=   268435456 cpu:               0.2 elap:               0.1
 (Enter /share/apps/gaussian/g16/l302.exe)
 NPDir=0 NMtPBC=     1 NCelOv=     1 NCel=       1 NClECP=     1 NCelD=      1
         NCelK=      1 NCelE2=     1 NClLst=     1 CellRange=     0.0.
 One-electron integrals computed using PRISM.
 One-electron integral symmetry used in STVInt
 NBasis=    34 RedAO= T EigKep=  2.84D-02  NBF=    34
 NBsUse=    34 1.00D-06 EigRej= -1.00D+00 NBFU=    34
 Precomputing XC quadrature grid using
 IXCGrd= 4 IRadAn=           5 IRanWt=          -1 IRanGd=           0 AccXCQ= 0.00D+00.
 Generated NRdTot=       0 NPtTot=           0 NUsed=           0 NTot=          32
 NSgBfM=    35    35    35    35    35 MxSgAt=     5 MxSgA2=     5.
 Leave Link  302 at Fri Sep 22 16:34:34 2023, MaxMem=   268435456 cpu:               0.2 elap:               0.1
 (Enter /share/apps/gaussian/g16/l303.exe)
 DipDrv:  MaxL=1.
 Leave Link  303 at Fri Sep 22 16:34:34 2023, MaxMem=   268435456 cpu:               0.1 elap:               0.0
 (Enter /share/apps/gaussian/g16/l401.exe)
 ExpMin= 1.06D-01 ExpMax= 1.24D+03 ExpMxC= 1.87D+02 IAcc=3 IRadAn=         5 AccDes= 0.00D+00
 Harris functional with IExCor=  402 and IRadAn=       5 diagonalized for initial guess.
 HarFok:  IExCor=  402 AccDes= 0.00D+00 IRadAn=         5 IDoV= 1 UseB2=F ITyADJ=14
 ICtDFT=  3500011 ScaDFX=  1.000000  1.000000  1.000000  1.000000
 FoFCou: FMM=F IPFlag=           0 FMFlag=      100000 FMFlg1=           0
         NFxFlg=           0 DoJE=T BraDBF=F KetDBF=T FulRan=T
         wScrn=  0.000000 ICntrl=       500 IOpCl=  0 I1Cent=   200000004 NGrid=           0
         NMat0=    1 NMatS0=      1 NMatT0=    0 NMatD0=    1 NMtDS0=    0 NMtDT0=    0
 Petite list used in FoFCou.
 Harris En= -40.5514752468379    
 JPrj=0 DoOrth=F DoCkMO=F.
 Leave Link  401 at Fri Sep 22 16:34:35 2023, MaxMem=   268435456 cpu:               0.6 elap:               0.3
 (Enter /share/apps/gaussian/g16/l502.exe)
 Keep R1 ints in memory in canonical form, NReq=1903191.
 FoFCou: FMM=F IPFlag=           0 FMFlag=           0 FMFlg1=           0
         NFxFlg=           0 DoJE=F BraDBF=F KetDBF=F FulRan=T
         wScrn=  0.000000 ICntrl=       600 IOpCl=  0 I1Cent=           0 NGrid=           0
         NMat0=    1 NMatS0=    595 NMatT0=    0 NMatD0=    1 NMtDS0=    0 NMtDT0=    0
 Symmetry not used in FoFCou.
 Two-electron integral symmetry not used.
 Closed shell SCF:
 Using DIIS extrapolation, IDIIS=  1040.
 NGot=   268435456 LenX=   268254897 LenY=   268253231
 Requested convergence on RMS density matrix=1.00D-08 within 128 cycles.
 Requested convergence on MAX density matrix=1.00D-06.
 Requested convergence on             energy=1.00D-06.
 No special actions if energy rises.

 Cycle   1  Pass 1  IDiag  1:
 Inv3:  Mode=1 IEnd=      720300.
 Iteration    1 A*A^-1 deviation from unit magnitude is 4.00D-15 for    489.
 Iteration    1 A*A^-1 deviation from orthogonality  is 1.36D-15 for    482     58.
 Iteration    1 A^-1*A deviation from unit magnitude is 4.00D-15 for    489.
 Iteration    1 A^-1*A deviation from orthogonality  is 1.19D-15 for    371      5.
 E= -40.4267765213656    
 DIIS: error= 4.69D-02 at cycle   1 NSaved=   1.
 NSaved= 1 IEnMin= 1 EnMin= -40.4267765213656     IErMin= 1 ErrMin= 4.69D-02
 ErrMax= 4.69D-02  0.00D+00 EMaxC= 1.00D-01 BMatC= 7.75D-02 BMatP= 7.75D-02
 IDIUse=3 WtCom= 5.31D-01 WtEn= 4.69D-01
 Coeff-Com:  0.100D+01
 Coeff-En:   0.100D+01
 Coeff:      0.100D+01
 Gap=     0.360 Goal=   None    Shift=    0.000
 GapD=    0.360 DampG=1.000 DampE=0.500 DampFc=0.5000 IDamp=-1.
 Damping current iteration by 5.00D-01
 RMSDP=1.46D-02 MaxDP=1.49D-01              OVMax= 1.98D-01

 Cycle   2  Pass 1  IDiag  1:
 E= -40.4661053962888     Delta-E=       -0.039328874923 Rises=F Damp=T
 DIIS: error= 8.12D-03 at cycle   2 NSaved=   2.
 NSaved= 2 IEnMin= 2 EnMin= -40.4661053962888     IErMin= 2 ErrMin= 8.12D-03
 ErrMax= 8.12D-03  0.00D+00 EMaxC= 1.00D-01 BMatC= 1.27D-03 BMatP= 7.75D-02
 IDIUse=3 WtCom= 9.19D-01 WtEn= 8.12D-02
 Coeff-Com:  0.835D-01 0.917D+00
 Coeff-En:   0.137D+00 0.863D+00
 Coeff:      0.878D-01 0.912D+00
 Gap=     0.438 Goal=   None    Shift=    0.000
 RMSDP=1.36D-03 MaxDP=1.13D-02 DE=-3.93D-02 OVMax= 1.04D-01

 Cycle   3  Pass 1  IDiag  1:
 E= -40.5139130544113     Delta-E=       -0.047807658122 Rises=F Damp=F
 DIIS: error= 5.03D-04 at cycle   3 NSaved=   3.
 NSaved= 3 IEnMin= 3 EnMin= -40.5139130544113     IErMin= 3 ErrMin= 5.03D-04
 ErrMax= 5.03D-04  0.00D+00 EMaxC= 1.00D-01 BMatC= 9.99D-06 BMatP= 1.27D-03
 IDIUse=3 WtCom= 9.95D-01 WtEn= 5.03D-03
 Coeff-Com:  0.616D-02-0.498D-01 0.104D+01
 Coeff-En:   0.000D+00 0.000D+00 0.100D+01
 Coeff:      0.613D-02-0.495D-01 0.104D+01
 Gap=     0.446 Goal=   None    Shift=    0.000
 RMSDP=8.19D-05 MaxDP=8.12D-04 DE=-4.78D-02 OVMax= 9.17D-04

 Cycle   4  Pass 1  IDiag  1:
 E= -40.5139219165394     Delta-E=       -0.000008862128 Rises=F Damp=F
 DIIS: error= 7.59D-05 at cycle   4 NSaved=   4.
 NSaved= 4 IEnMin= 4 EnMin= -40.5139219165394     IErMin= 4 ErrMin= 7.59D-05
 ErrMax= 7.59D-05  0.00D+00 EMaxC= 1.00D-01 BMatC= 1.03D-07 BMatP= 9.99D-06
 IDIUse=1 WtCom= 1.00D+00 WtEn= 0.00D+00
 Coeff-Com:  0.176D-02-0.964D-02 0.207D+00 0.801D+00
 Coeff:      0.176D-02-0.964D-02 0.207D+00 0.801D+00
 Gap=     0.446 Goal=   None    Shift=    0.000
 RMSDP=9.64D-06 MaxDP=1.08D-04 DE=-8.86D-06 OVMax= 1.30D-04

 Cycle   5  Pass 1  IDiag  1:
 E= -40.5139220355201     Delta-E=       -0.000000118981 Rises=F Damp=F
 DIIS: error= 8.04D-06 at cycle   5 NSaved=   5.
 NSaved= 5 IEnMin= 5 EnMin= -40.5139220355201     IErMin= 5 ErrMin= 8.04D-06
 ErrMax= 8.04D-06  0.00D+00 EMaxC= 1.00D-01 BMatC= 1.84D-09 BMatP= 1.03D-07
 IDIUse=1 WtCom= 1.00D+00 WtEn= 0.00D+00
 Coeff-Com:  0.187D-03 0.691D-04 0.368D-02 0.106D+00 0.890D+00
 Coeff:      0.187D-03 0.691D-04 0.368D-02 0.106D+00 0.890D+00
 Gap=     0.446 Goal=   None    Shift=    0.000
 RMSDP=1.46D-06 MaxDP=1.38D-05 DE=-1.19D-07 OVMax= 1.92D-05

 Cycle   6  Pass 1  IDiag  1:
 E= -40.5139220377318     Delta-E=       -0.000000002212 Rises=F Damp=F
 DIIS: error= 8.81D-07 at cycle   6 NSaved=   6.
 NSaved= 6 IEnMin= 6 EnMin= -40.5139220377318     IErMin= 6 ErrMin= 8.81D-07
 ErrMax= 8.81D-07  0.00D+00 EMaxC= 1.00D-01 BMatC= 1.52D-11 BMatP= 1.84D-09
 IDIUse=1 WtCom= 1.00D+00 WtEn= 0.00D+00
 Coeff-Com: -0.115D-04 0.476D-04-0.122D-02-0.103D-02 0.750D-01 0.927D+00
 Coeff:     -0.115D-04 0.476D-04-0.122D-02-0.103D-02 0.750D-01 0.927D+00
 Gap=     0.446 Goal=   None    Shift=    0.000
 RMSDP=1.28D-07 MaxDP=1.27D-06 DE=-2.21D-09 OVMax= 1.71D-06

 Cycle   7  Pass 1  IDiag  1:
 E= -40.5139220377525     Delta-E=       -0.000000000021 Rises=F Damp=F
 DIIS: error= 1.71D-08 at cycle   7 NSaved=   7.
 NSaved= 7 IEnMin= 7 EnMin= -40.5139220377525     IErMin= 7 ErrMin= 1.71D-08
 ErrMax= 1.71D-08  0.00D+00 EMaxC= 1.00D-01 BMatC= 8.65D-15 BMatP= 1.52D-11
 IDIUse=1 WtCom= 1.00D+00 WtEn= 0.00D+00
 Coeff-Com: -0.153D-06 0.319D-08-0.352D-04 0.145D-03 0.139D-02 0.552D-02
 Coeff-Com:  0.993D+00
 Coeff:     -0.153D-06 0.319D-08-0.352D-04 0.145D-03 0.139D-02 0.552D-02
 Coeff:      0.993D+00
 Gap=     0.446 Goal=   None    Shift=    0.000
 RMSDP=3.92D-09 MaxDP=6.84D-08 DE=-2.07D-11 OVMax= 4.48D-08

 Error on total polarization charges =  0.00449
 SCF Done:  E(RB3LYP) =  -40.5139220378     A.U. after    7 cycles
            NFock=  7  Conv=0.39D-08     -V/T= 2.0095
 KE= 4.013441177727D+01 PE=-1.197387744754D+02 EE= 2.576077828264D+01
 Leave Link  502 at Fri Sep 22 16:34:37 2023, MaxMem=   268435456 cpu:               4.0 elap:               2.0
 (Enter /share/apps/gaussian/g16/l601.exe)
 Copying SCF densities to generalized density rwf, IOpCl= 0 IROHF=0.

 **********************************************************************

            Population analysis using the SCF density.

 **********************************************************************

 Orbital symmetries:
       Occupied  (A) (A) (A) (A) (A)
       Virtual   (A) (A) (A) (A) (A) (A) (A) (A) (A) (A) (A) (A)
                 (A) (A) (A) (A) (A) (A) (A) (A) (A) (A) (A) (A)
                 (A) (A) (A) (A) (A)
 The electronic state is 1-A.
 Alpha  occ. eigenvalues --  -10.16358  -0.69304  -0.39524  -0.39257  -0.38958
 Alpha virt. eigenvalues --    0.05662   0.12409   0.12588   0.12622   0.37272
 Alpha virt. eigenvalues --    0.37582   0.38133   0.63308   0.63761   0.64001
 Alpha virt. eigenvalues --    0.67575   0.96115   1.28832   1.29045   1.84974
 Alpha virt. eigenvalues --    1.85679   1.86549   1.87388   1.89131   1.89943
 Alpha virt. eigenvalues --    2.39351   2.41459   2.43804   2.75067   2.75553
 Alpha virt. eigenvalues --    2.92426   3.18235   3.20914   3.21136
          Condensed to atoms (all electrons):
               1          2          3          4          5
     1  C    4.741602   0.402844   0.401764   0.404032   0.403212
     2  H    0.402844   0.576833  -0.021409  -0.021341  -0.022347
     3  H    0.401764  -0.021409   0.567512  -0.019714  -0.020291
     4  H    0.404032  -0.021341  -0.019714   0.569447  -0.021479
     5  H    0.403212  -0.022347  -0.020291  -0.021479   0.574064
 Mulliken charges:
               1
     1  C   -0.353455
     2  H    0.085420
     3  H    0.092138
     4  H    0.089056
     5  H    0.086841
 Sum of Mulliken charges =  -0.00000
 Mulliken charges with hydrogens summed into heavy atoms:
               1
     1  C   -0.000000
 Electronic spatial extent (au):  <R**2>=             36.1005
 Charge=             -0.0000 electrons
 Dipole moment (field-independent basis, Debye):
    X=             -0.0233    Y=             -0.0199    Z=              0.0132  Tot=              0.0333
 Quadrupole moment (field-independent basis, Debye-Ang):
   XX=             -8.3747   YY=             -8.4631   ZZ=             -8.5333
   XY=             -0.0117   XZ=              0.0042   YZ=              0.0028
 Traceless Quadrupole moment (field-independent basis, Debye-Ang):
   XX=              0.0823   YY=             -0.0060   ZZ=             -0.0763
   XY=             -0.0117   XZ=              0.0042   YZ=              0.0028
 Octapole moment (field-independent basis, Debye-Ang**2):
  XXX=              0.6018  YYY=              0.2019  ZZZ=              0.3417  XYY=             -0.4674
  XXY=              0.2706  XXZ=             -0.1847  XZZ=             -0.2272  YZZ=             -0.5223
  YYZ=             -0.1196  XYZ=             -0.0944
 Hexadecapole moment (field-independent basis, Debye-Ang**3):
 XXXX=            -16.1826 YYYY=            -16.4211 ZZZZ=            -16.1790 XXXY=              0.0865
 XXXZ=             -0.1652 YYYX=             -0.3695 YYYZ=              0.1394 ZZZX=              0.0412
 ZZZY=             -0.1445 XXYY=             -5.4509 XXZZ=             -5.7519 YYZZ=             -5.3242
 XXYZ=              0.0200 YYXZ=              0.1432 ZZXY=              0.2253
 N-N= 1.332966237769D+01 E-N=-1.197387743527D+02  KE= 4.013441177727D+01
 There are a total of      109428 grid points.
 ElSum from          density=       10.0000000563
 ElSum from atomic densities=       10.0000000819
 Hirshfeld populations at iteration   1 (CA, CB, DipXYZ):
               1          2          3          4          5
     1  C    3.060727   3.060727   0.000462   0.002617  -0.001374
     2  H    0.485464   0.485464  -0.019131  -0.059465   0.122843
     3  H    0.484065   0.484065   0.136100   0.021764  -0.018687
     4  H    0.484613   0.484613  -0.077629   0.116590  -0.004754
     5  H    0.485130   0.485130  -0.051200  -0.089895  -0.092329
       Tot   5.000000   5.000000  -0.011397  -0.008388   0.005699

 Dip from Atomic Chgs              0.002239   0.000576  -0.000498
         Total Dipole             -0.009158  -0.007812   0.005201

 Hirshfeld charges, spin densities, dipoles, and CM5 charges using IRadAn=      5:
              Q-H        S-H        Dx         Dy         Dz        Q-CM5   
     1  C   -0.121455   0.000000   0.000462   0.002617  -0.001374  -0.308584
     2  H    0.029072   0.000000  -0.019131  -0.059465   0.122843   0.076121
     3  H    0.031869   0.000000   0.136100   0.021764  -0.018687   0.077441
     4  H    0.030774   0.000000  -0.077629   0.116590  -0.004754   0.078174
     5  H    0.029740   0.000000  -0.051200  -0.089895  -0.092329   0.076848
       Tot  -0.000000   0.000000  -0.011397  -0.008388   0.005699  -0.000000
 Hirshfeld charges with hydrogens summed into heavy atoms:
              Q-H       Q-CM5   
     1  C   -0.000000  -0.000000
 
 EQQ= 0.000000000000E+00 EQD= 0.000000000000E+00 EDD=-0.988998893297E-03
 EQQ+QD+DD=-0.988998893297E-03
 
 No NMR shielding tensors so no spin-rotation constants.
 Leave Link  601 at Fri Sep 22 16:34:37 2023, MaxMem=   268435456 cpu:               0.5 elap:               0.3
 (Enter /share/apps/gaussian/g16/l9999.exe)
 1\1\GINC-NODE99\SP\RB3LYP\Gen\C1H4\YANZ\22-Sep-2023\0\\#p b3lyp/gen sc
 rf=(cpcm,solvent=toluene) pop=hirshfeld empiricaldispersion=gd3bj\\tmp
 dir/M2_conf_0_194.gjf\\0,1\C,0,0.,0.,0.\H,0,1.0962,0.,0.\H,0,-0.3631,0
 .,-1.04798\H,0,-0.35573,0.87739,0.54655\H,0,-0.33167,-0.90611,0.51915\
 \Version=ES64L-G16RevA.03\State=1-A\HF=-40.513922\RMSD=3.918e-09\Dipol
 e=0.0091133,-0.0040585,0.00851\Quadrupole=-0.0488281,-0.0098209,0.0586
 491,-0.016896,0.0092383,0.0158394\PG=C01 [X(C1H4)]\\@


 MY GROUP MEETINGS AREN'T VERY STRUCTURED.
     -- PROF. M. S. GORDON, OCT. 5, 1984
 Job cpu time:       0 days  0 hours  0 minutes  6.1 seconds.
 Elapsed time:       0 days  0 hours  0 minutes  3.1 seconds.
 File lengths (MBytes):  RWF=      6 Int=      0 D2E=      0 Chk=      1 Scr=      1
 Normal termination of Gaussian 16 at Fri Sep 22 16:34:37 2023.
