 Entering Gaussian System, Link 0=g16
 Initial command:
 /share/apps/gaussian/g16/l1.exe "/tmp/55556.mgr/Gau-85294.inp" -scrdir="/tmp/55556.mgr/"
 Entering Link 1 = /share/apps/gaussian/g16/l1.exe PID=     85295.
  
 Copyright (c) 1988,1990,1992,1993,1995,1998,2003,2009,2016,
            Gaussian, Inc.  All Rights Reserved.
  
 This is part of the Gaussian(R) 16 program.  It is based on
 the Gaussian(R) 09 system (copyright 2009, Gaussian, Inc.),
 the Gaussian(R) 03 system (copyright 2003, Gaussian, Inc.),
 the Gaussian(R) 98 system (copyright 1998, Gaussian, Inc.),
 the Gaussian(R) 94 system (copyright 1995, Gaussian, Inc.),
 the Gaussian 92(TM) system (copyright 1992, Gaussian, Inc.),
 the Gaussian 90(TM) system (copyright 1990, Gaussian, Inc.),
 the Gaussian 88(TM) system (copyright 1988, Gaussian, Inc.),
 the Gaussian 86(TM) system (copyright 1986, Carnegie Mellon
 University), and the Gaussian 82(TM) system (copyright 1983,
 Carnegie Mellon University). Gaussian is a federally registered
 trademark of Gaussian, Inc.
  
 This software contains proprietary and confidential information,
 including trade secrets, belonging to Gaussian, Inc.
  
 This software is provided under written license and may be
 used, copied, transmitted, or stored only in accord with that
 written license.
  
 The following legend is applicable only to US Government
 contracts under FAR:
  
                    RESTRICTED RIGHTS LEGEND
  
 Use, reproduction and disclosure by the US Government is
 subject to restrictions as set forth in subparagraphs (a)
 and (c) of the Commercial Computer Software - Restricted
 Rights clause in FAR 52.227-19.
  
 Gaussian, Inc.
 340 Quinnipiac St., Bldg. 40, Wallingford CT 06492
  
  
 ---------------------------------------------------------------
 Warning -- This program may not be used in any manner that
 competes with the business of Gaussian, Inc. or will provide
 assistance to any competitor of Gaussian, Inc.  The licensee
 of this program is prohibited from giving any competitor of
 Gaussian, Inc. access to this program.  By using this program,
 the user acknowledges that Gaussian, Inc. is engaged in the
 business of creating and licensing software in the field of
 computational chemistry and represents and warrants to the
 licensee that it is not a competitor of Gaussian, Inc. and that
 it will not use this program in any manner prohibited above.
 ---------------------------------------------------------------
  

 Cite this work as:
 Gaussian 16, Revision A.03,
 M. J. Frisch, G. W. Trucks, H. B. Schlegel, G. E. Scuseria, 
 M. A. Robb, J. R. Cheeseman, G. Scalmani, V. Barone, 
 G. A. Petersson, H. Nakatsuji, X. Li, M. Caricato, A. V. Marenich, 
 J. Bloino, B. G. Janesko, R. Gomperts, B. Mennucci, H. P. Hratchian, 
 J. V. Ortiz, A. F. Izmaylov, J. L. Sonnenberg, D. Williams-Young, 
 F. Ding, F. Lipparini, F. Egidi, J. Goings, B. Peng, A. Petrone, 
 T. Henderson, D. Ranasinghe, V. G. Zakrzewski, J. Gao, N. Rega, 
 G. Zheng, W. Liang, M. Hada, M. Ehara, K. Toyota, R. Fukuda, 
 J. Hasegawa, M. Ishida, T. Nakajima, Y. Honda, O. Kitao, H. Nakai, 
 T. Vreven, K. Throssell, J. A. Montgomery, Jr., J. E. Peralta, 
 F. Ogliaro, M. J. Bearpark, J. J. Heyd, E. N. Brothers, K. N. Kudin, 
 V. N. Staroverov, T. A. Keith, R. Kobayashi, J. Normand, 
 K. Raghavachari, A. P. Rendell, J. C. Burant, S. S. Iyengar, 
 J. Tomasi, M. Cossi, J. M. Millam, M. Klene, C. Adamo, R. Cammi, 
 J. W. Ochterski, R. L. Martin, K. Morokuma, O. Farkas, 
 J. B. Foresman, and D. J. Fox, Gaussian, Inc., Wallingford CT, 2016.
 
 ******************************************
 Gaussian 16:  ES64L-G16RevA.03 25-Dec-2016
                22-Sep-2023 
 ******************************************
 %nprocshared=2
 Will use up to    2 processors via shared memory.
 %mem=2GB
 ----------------------------------------------------------------------
 #p b3lyp/gen scrf=(cpcm,solvent=toluene) pop=hirshfeld empiricaldisper
 sion=gd3bj
 ----------------------------------------------------------------------
 1/38=1,172=1/1;
 2/12=2,17=6,18=5,40=1/2;
 3/5=7,11=2,25=1,30=1,70=2101,72=13,74=-5,124=41/1,2,3;
 4//1;
 5/5=2,38=5,53=13/2;
 6/7=2,8=2,9=2,10=2,28=1,79=1/1;
 99/5=1,9=1/99;
 Leave Link    1 at Fri Sep 22 16:34:04 2023, MaxMem=   268435456 cpu:               0.1 elap:               0.0
 (Enter /share/apps/gaussian/g16/l101.exe)
 ------------------------
 tmpdir/M2_conf_0_150.gjf
 ------------------------
 Symbolic Z-matrix:
 Charge =  0 Multiplicity = 1
 H                     0.        0.        0. 
 C                     1.0981    0.        0. 
 H                     1.43837   0.        1.04352 
 H                     1.49943   0.89457  -0.52736 
 H                     1.43826  -0.93105  -0.46644 
 
 ITRead=  0  0  0  0  0
 MicOpt= -1 -1 -1 -1 -1
 NAtoms=      5 NQM=        5 NQMF=       0 NMMI=      0 NMMIF=      0
                NMic=       0 NMicF=      0.
                    Isotopes and Nuclear Properties:
 (Nuclear quadrupole moments (NQMom) in fm**2, nuclear magnetic moments (NMagM)
  in nuclear magnetons)

  Atom         1           2           3           4           5
 IAtWgt=           1          12           1           1           1
 AtmWgt=   1.0078250  12.0000000   1.0078250   1.0078250   1.0078250
 NucSpn=           1           0           1           1           1
 AtZEff=  -0.0000000  -0.0000000  -0.0000000  -0.0000000  -0.0000000
 NQMom=    0.0000000   0.0000000   0.0000000   0.0000000   0.0000000
 NMagM=    2.7928460   0.0000000   2.7928460   2.7928460   2.7928460
 AtZNuc=   1.0000000   6.0000000   1.0000000   1.0000000   1.0000000
 Leave Link  101 at Fri Sep 22 16:34:04 2023, MaxMem=   268435456 cpu:               0.2 elap:               0.1
 (Enter /share/apps/gaussian/g16/l202.exe)
                          Input orientation:                          
 ---------------------------------------------------------------------
 Center     Atomic      Atomic             Coordinates (Angstroms)
 Number     Number       Type             X           Y           Z
 ---------------------------------------------------------------------
      1          1           0        0.000000    0.000000    0.000000
      2          6           0        1.098100    0.000000    0.000000
      3          1           0        1.438370    0.000000    1.043520
      4          1           0        1.499430    0.894570   -0.527360
      5          1           0        1.438260   -0.931050   -0.466440
 ---------------------------------------------------------------------
                    Distance matrix (angstroms):
                    1          2          3          4          5
     1  H    0.000000
     2  C    1.098100   0.000000
     3  H    1.777032   1.097596   0.000000
     4  H    1.823912   1.113297   1.808770   0.000000
     5  H    1.775672   1.095504   1.773932   1.827660   0.000000
 Stoichiometry    CH4
 Framework group  C1[X(CH4)]
 Deg. of freedom     9
 Full point group                 C1      NOp   1
 Largest Abelian subgroup         C1      NOp   1
 Largest concise Abelian subgroup C1      NOp   1
                         Standard orientation:                         
 ---------------------------------------------------------------------
 Center     Atomic      Atomic             Coordinates (Angstroms)
 Number     Number       Type             X           Y           Z
 ---------------------------------------------------------------------
      1          1           0       -0.434664    1.001138    0.105199
      2          6           0        0.005399    0.000936   -0.003267
      3          1           0       -0.198422   -0.562072    0.916623
      4          1           0        1.104105    0.062047   -0.172205
      5          1           0       -0.503415   -0.506727   -0.830017
 ---------------------------------------------------------------------
 Rotational constants (GHZ):         159.2536539         153.3027299         152.8875835
 Leave Link  202 at Fri Sep 22 16:34:04 2023, MaxMem=   268435456 cpu:               0.0 elap:               0.0
 (Enter /share/apps/gaussian/g16/l301.exe)
 General basis read from cards:  (5D, 7F)
 Centers:       1      3      4      5
 S 3 1.00
     Exponent=  1.2251800000D+01 Coefficients=  2.3337100000D-02
     Exponent=  1.8687100000D+00 Coefficients=  1.5915000000D-01
     Exponent=  4.1820800000D-01 Coefficients=  5.0000000000D-01
 S 1 1.00
     Exponent=  1.0610000000D-01 Coefficients=  1.0000000000D+00
 P 1 1.00
     Exponent=  1.0000000000D+00 Coefficients=  1.0000000000D+00
 ****
 Centers:       2
 S 5 1.00
     Exponent=  1.2432000000D+03 Coefficients=  6.0336600000D-03
     Exponent=  1.8714500000D+02 Coefficients=  4.4957600000D-02
     Exponent=  4.2512600000D+01 Coefficients=  1.9790100000D-01
     Exponent=  1.1739300000D+01 Coefficients=  5.0000000000D-01
     Exponent=  3.5054800000D+00 Coefficients=  4.8036400000D-01
 S 2 1.00
     Exponent=  5.3908900000D+00 Coefficients= -7.0398000000D-02
     Exponent=  4.9334100000D-01 Coefficients=  5.0000000000D-01
 S 1 1.00
     Exponent=  1.4974100000D-01 Coefficients=  1.0000000000D+00
 P 3 1.00
     Exponent=  9.1805600000D+00 Coefficients=  4.3170100000D-02
     Exponent=  1.9365800000D+00 Coefficients=  2.2499900000D-01
     Exponent=  5.2629600000D-01 Coefficients=  5.0000000000D-01
 P 1 1.00
     Exponent=  1.3631900000D-01 Coefficients=  1.0000000000D+00
 D 1 1.00
     Exponent=  8.0000000000D-01 Coefficients=  1.0000000000D+00
 ****
 Ernie: Thresh=  0.10000D-02 Tol=  0.10000D-05 Strict=F.
 There are    35 symmetry adapted cartesian basis functions of A   symmetry.
 There are    34 symmetry adapted basis functions of A   symmetry.
    34 basis functions,    54 primitive gaussians,    35 cartesian basis functions
     5 alpha electrons        5 beta electrons
       nuclear repulsion energy        13.3007143590 Hartrees.
 IExCor=  402 DFT=T Ex+Corr=B3LYP ExCW=0 ScaHFX=  0.200000
 ScaDFX=  0.800000  0.720000  1.000000  0.810000 ScalE2=  1.000000  1.000000
 IRadAn=      5 IRanWt=     -1 IRanGd=            0 ICorTp=0 IEmpDi=141
 NAtoms=    5 NActive=    5 NUniq=    5 SFac= 1.00D+00 NAtFMM=   60 NAOKFM=F Big=F
 Integral buffers will be    131072 words long.
 Raffenetti 2 integral format.
 Two-electron integral symmetry is turned on.
 R6Disp:  Grimme-D3(BJ) Dispersion energy=       -0.0019125632 Hartrees.
 Nuclear repulsion after empirical dispersion term =       13.2988017957 Hartrees.
 ------------------------------------------------------------------------------
 Polarizable Continuum Model (PCM)
 =================================
 Model                : C-PCM.
 Atomic radii         : UFF (Universal Force Field).
 Polarization charges : Total charges.
 Charge compensation  : None.
 Solution method      : On-the-fly selection.
 Cavity type          : Scaled VdW (van der Waals Surface) (Alpha=1.100).
 Cavity algorithm     : GePol (No added spheres)
                        Default sphere list used, NSphG=    5.
                        Lebedev-Laikov grids with approx.  5.0 points / Ang**2.
                        Smoothing algorithm: York/Karplus (Gamma=1.0000).
                        Polarization charges: spherical gaussians, with
                                              point-specific exponents (IZeta= 3).
                        Self-potential: point-specific (ISelfS= 7).
                        Self-field    : sphere-specific E.n sum rule (ISelfD= 2).
 Solvent              : Toluene, Eps=   2.374100 Eps(inf)=   2.238315
 ------------------------------------------------------------------------------
 Spheres list:
 ISph  on   Nord     Re0    Alpha      Xe            Ye            Ze
    1   H      1    1.4430  1.100     -0.434664      1.001138      0.105199
    2   C      2    1.9255  1.100      0.005399      0.000936     -0.003267
    3   H      3    1.4430  1.100     -0.198422     -0.562072      0.916623
    4   H      4    1.4430  1.100      1.104105      0.062047     -0.172205
    5   H      5    1.4430  1.100     -0.503415     -0.506727     -0.830017
 ------------------------------------------------------------------------------
 GePol: Number of generator spheres                  =       5
 GePol: Total number of spheres                      =       5
 GePol: Number of exposed spheres                    =       5 (100.00%)
 GePol: Number of points                             =     490
 GePol: Average weight of points                     =       0.14
 GePol: Minimum weight of points                     =   0.64D-06
 GePol: Maximum weight of points                     =    0.20577
 GePol: Number of points with low weight             =      22
 GePol: Fraction of low-weight points (<1% of avg)   =       4.49%
 GePol: Cavity surface area                          =     70.244 Ang**2
 GePol: Cavity volume                                =     51.828 Ang**3
 Leave Link  301 at Fri Sep 22 16:34:04 2023, MaxMem=   268435456 cpu:               0.2 elap:               0.1
 (Enter /share/apps/gaussian/g16/l302.exe)
 NPDir=0 NMtPBC=     1 NCelOv=     1 NCel=       1 NClECP=     1 NCelD=      1
         NCelK=      1 NCelE2=     1 NClLst=     1 CellRange=     0.0.
 One-electron integrals computed using PRISM.
 One-electron integral symmetry used in STVInt
 NBasis=    34 RedAO= T EigKep=  2.85D-02  NBF=    34
 NBsUse=    34 1.00D-06 EigRej= -1.00D+00 NBFU=    34
 Precomputing XC quadrature grid using
 IXCGrd= 4 IRadAn=           5 IRanWt=          -1 IRanGd=           0 AccXCQ= 0.00D+00.
 Generated NRdTot=       0 NPtTot=           0 NUsed=           0 NTot=          32
 NSgBfM=    35    35    35    35    35 MxSgAt=     5 MxSgA2=     5.
 Leave Link  302 at Fri Sep 22 16:34:05 2023, MaxMem=   268435456 cpu:               0.2 elap:               0.1
 (Enter /share/apps/gaussian/g16/l303.exe)
 DipDrv:  MaxL=1.
 Leave Link  303 at Fri Sep 22 16:34:05 2023, MaxMem=   268435456 cpu:               0.1 elap:               0.0
 (Enter /share/apps/gaussian/g16/l401.exe)
 ExpMin= 1.06D-01 ExpMax= 1.24D+03 ExpMxC= 1.87D+02 IAcc=3 IRadAn=         5 AccDes= 0.00D+00
 Harris functional with IExCor=  402 and IRadAn=       5 diagonalized for initial guess.
 HarFok:  IExCor=  402 AccDes= 0.00D+00 IRadAn=         5 IDoV= 1 UseB2=F ITyADJ=14
 ICtDFT=  3500011 ScaDFX=  1.000000  1.000000  1.000000  1.000000
 FoFCou: FMM=F IPFlag=           0 FMFlag=      100000 FMFlg1=           0
         NFxFlg=           0 DoJE=T BraDBF=F KetDBF=T FulRan=T
         wScrn=  0.000000 ICntrl=       500 IOpCl=  0 I1Cent=   200000004 NGrid=           0
         NMat0=    1 NMatS0=      1 NMatT0=    0 NMatD0=    1 NMtDS0=    0 NMtDT0=    0
 Petite list used in FoFCou.
 Harris En= -40.5504460632140    
 JPrj=0 DoOrth=F DoCkMO=F.
 Leave Link  401 at Fri Sep 22 16:34:05 2023, MaxMem=   268435456 cpu:               0.6 elap:               0.3
 (Enter /share/apps/gaussian/g16/l502.exe)
 Keep R1 ints in memory in canonical form, NReq=1903191.
 FoFCou: FMM=F IPFlag=           0 FMFlag=           0 FMFlg1=           0
         NFxFlg=           0 DoJE=F BraDBF=F KetDBF=F FulRan=T
         wScrn=  0.000000 ICntrl=       600 IOpCl=  0 I1Cent=           0 NGrid=           0
         NMat0=    1 NMatS0=    595 NMatT0=    0 NMatD0=    1 NMtDS0=    0 NMtDT0=    0
 Symmetry not used in FoFCou.
 Two-electron integral symmetry not used.
 Closed shell SCF:
 Using DIIS extrapolation, IDIIS=  1040.
 NGot=   268435456 LenX=   268254897 LenY=   268253231
 Requested convergence on RMS density matrix=1.00D-08 within 128 cycles.
 Requested convergence on MAX density matrix=1.00D-06.
 Requested convergence on             energy=1.00D-06.
 No special actions if energy rises.

 Cycle   1  Pass 1  IDiag  1:
 Inv3:  Mode=1 IEnd=      720300.
 Iteration    1 A*A^-1 deviation from unit magnitude is 2.00D-15 for    476.
 Iteration    1 A*A^-1 deviation from orthogonality  is 1.37D-15 for    463     76.
 Iteration    1 A^-1*A deviation from unit magnitude is 2.00D-15 for    476.
 Iteration    1 A^-1*A deviation from orthogonality  is 8.01D-16 for    471    122.
 E= -40.4274011481445    
 DIIS: error= 4.67D-02 at cycle   1 NSaved=   1.
 NSaved= 1 IEnMin= 1 EnMin= -40.4274011481445     IErMin= 1 ErrMin= 4.67D-02
 ErrMax= 4.67D-02  0.00D+00 EMaxC= 1.00D-01 BMatC= 7.67D-02 BMatP= 7.67D-02
 IDIUse=3 WtCom= 5.33D-01 WtEn= 4.67D-01
 Coeff-Com:  0.100D+01
 Coeff-En:   0.100D+01
 Coeff:      0.100D+01
 Gap=     0.360 Goal=   None    Shift=    0.000
 GapD=    0.360 DampG=1.000 DampE=0.500 DampFc=0.5000 IDamp=-1.
 Damping current iteration by 5.00D-01
 RMSDP=1.46D-02 MaxDP=1.48D-01              OVMax= 1.97D-01

 Cycle   2  Pass 1  IDiag  1:
 E= -40.4662802007061     Delta-E=       -0.038879052562 Rises=F Damp=T
 DIIS: error= 8.10D-03 at cycle   2 NSaved=   2.
 NSaved= 2 IEnMin= 2 EnMin= -40.4662802007061     IErMin= 2 ErrMin= 8.10D-03
 ErrMax= 8.10D-03  0.00D+00 EMaxC= 1.00D-01 BMatC= 1.28D-03 BMatP= 7.67D-02
 IDIUse=3 WtCom= 9.19D-01 WtEn= 8.10D-02
 Coeff-Com:  0.849D-01 0.915D+00
 Coeff-En:   0.139D+00 0.861D+00
 Coeff:      0.893D-01 0.911D+00
 Gap=     0.438 Goal=   None    Shift=    0.000
 RMSDP=1.35D-03 MaxDP=1.12D-02 DE=-3.89D-02 OVMax= 1.04D-01

 Cycle   3  Pass 1  IDiag  1:
 E= -40.5137258299172     Delta-E=       -0.047445629211 Rises=F Damp=F
 DIIS: error= 5.28D-04 at cycle   3 NSaved=   3.
 NSaved= 3 IEnMin= 3 EnMin= -40.5137258299172     IErMin= 3 ErrMin= 5.28D-04
 ErrMax= 5.28D-04  0.00D+00 EMaxC= 1.00D-01 BMatC= 1.04D-05 BMatP= 1.28D-03
 IDIUse=3 WtCom= 9.95D-01 WtEn= 5.28D-03
 Coeff-Com:  0.644D-02-0.482D-01 0.104D+01
 Coeff-En:   0.000D+00 0.000D+00 0.100D+01
 Coeff:      0.641D-02-0.479D-01 0.104D+01
 Gap=     0.446 Goal=   None    Shift=    0.000
 RMSDP=8.38D-05 MaxDP=8.92D-04 DE=-4.74D-02 OVMax= 1.04D-03

 Cycle   4  Pass 1  IDiag  1:
 E= -40.5137351337569     Delta-E=       -0.000009303840 Rises=F Damp=F
 DIIS: error= 9.72D-05 at cycle   4 NSaved=   4.
 NSaved= 4 IEnMin= 4 EnMin= -40.5137351337569     IErMin= 4 ErrMin= 9.72D-05
 ErrMax= 9.72D-05  0.00D+00 EMaxC= 1.00D-01 BMatC= 1.45D-07 BMatP= 1.04D-05
 IDIUse=1 WtCom= 1.00D+00 WtEn= 0.00D+00
 Coeff-Com:  0.192D-02-0.111D-01 0.234D+00 0.775D+00
 Coeff:      0.192D-02-0.111D-01 0.234D+00 0.775D+00
 Gap=     0.446 Goal=   None    Shift=    0.000
 RMSDP=1.10D-05 MaxDP=1.40D-04 DE=-9.30D-06 OVMax= 1.71D-04

 Cycle   5  Pass 1  IDiag  1:
 E= -40.5137352967845     Delta-E=       -0.000000163028 Rises=F Damp=F
 DIIS: error= 8.98D-06 at cycle   5 NSaved=   5.
 NSaved= 5 IEnMin= 5 EnMin= -40.5137352967845     IErMin= 5 ErrMin= 8.98D-06
 ErrMax= 8.98D-06  0.00D+00 EMaxC= 1.00D-01 BMatC= 2.02D-09 BMatP= 1.45D-07
 IDIUse=1 WtCom= 1.00D+00 WtEn= 0.00D+00
 Coeff-Com:  0.186D-03 0.915D-04 0.310D-02 0.815D-01 0.915D+00
 Coeff:      0.186D-03 0.915D-04 0.310D-02 0.815D-01 0.915D+00
 Gap=     0.446 Goal=   None    Shift=    0.000
 RMSDP=1.57D-06 MaxDP=1.22D-05 DE=-1.63D-07 OVMax= 1.96D-05

 Cycle   6  Pass 1  IDiag  1:
 E= -40.5137352992887     Delta-E=       -0.000000002504 Rises=F Damp=F
 DIIS: error= 8.80D-07 at cycle   6 NSaved=   6.
 NSaved= 6 IEnMin= 6 EnMin= -40.5137352992887     IErMin= 6 ErrMin= 8.80D-07
 ErrMax= 8.80D-07  0.00D+00 EMaxC= 1.00D-01 BMatC= 1.40D-11 BMatP= 2.02D-09
 IDIUse=1 WtCom= 1.00D+00 WtEn= 0.00D+00
 Coeff-Com: -0.111D-04 0.489D-04-0.124D-02-0.138D-02 0.710D-01 0.932D+00
 Coeff:     -0.111D-04 0.489D-04-0.124D-02-0.138D-02 0.710D-01 0.932D+00
 Gap=     0.446 Goal=   None    Shift=    0.000
 RMSDP=1.28D-07 MaxDP=1.12D-06 DE=-2.50D-09 OVMax= 1.80D-06

 Cycle   7  Pass 1  IDiag  1:
 E= -40.5137352993082     Delta-E=       -0.000000000019 Rises=F Damp=F
 DIIS: error= 1.77D-08 at cycle   7 NSaved=   7.
 NSaved= 7 IEnMin= 7 EnMin= -40.5137352993082     IErMin= 7 ErrMin= 1.77D-08
 ErrMax= 1.77D-08  0.00D+00 EMaxC= 1.00D-01 BMatC= 1.33D-14 BMatP= 1.40D-11
 IDIUse=1 WtCom= 1.00D+00 WtEn= 0.00D+00
 Coeff-Com: -0.540D-06 0.130D-05-0.719D-04 0.489D-04 0.361D-02 0.370D-01
 Coeff-Com:  0.959D+00
 Coeff:     -0.540D-06 0.130D-05-0.719D-04 0.489D-04 0.361D-02 0.370D-01
 Coeff:      0.959D+00
 Gap=     0.446 Goal=   None    Shift=    0.000
 RMSDP=4.70D-09 MaxDP=7.86D-08 DE=-1.95D-11 OVMax= 6.53D-08

 Error on total polarization charges =  0.00450
 SCF Done:  E(RB3LYP) =  -40.5137352993     A.U. after    7 cycles
            NFock=  7  Conv=0.47D-08     -V/T= 2.0098
 KE= 4.012161263587D+01 PE=-1.196679858100D+02 EE= 2.573383607912D+01
 Leave Link  502 at Fri Sep 22 16:34:07 2023, MaxMem=   268435456 cpu:               3.9 elap:               2.0
 (Enter /share/apps/gaussian/g16/l601.exe)
 Copying SCF densities to generalized density rwf, IOpCl= 0 IROHF=0.

 **********************************************************************

            Population analysis using the SCF density.

 **********************************************************************

 Orbital symmetries:
       Occupied  (A) (A) (A) (A) (A)
       Virtual   (A) (A) (A) (A) (A) (A) (A) (A) (A) (A) (A) (A)
                 (A) (A) (A) (A) (A) (A) (A) (A) (A) (A) (A) (A)
                 (A) (A) (A) (A) (A)
 The electronic state is 1-A.
 Alpha  occ. eigenvalues --  -10.16461  -0.69233  -0.39552  -0.39074  -0.38984
 Alpha virt. eigenvalues --    0.05619   0.12338   0.12553   0.12578   0.37297
 Alpha virt. eigenvalues --    0.37384   0.38321   0.63099   0.63672   0.63761
 Alpha virt. eigenvalues --    0.67336   0.96083   1.28799   1.29145   1.84657
 Alpha virt. eigenvalues --    1.85031   1.86480   1.86907   1.89636   1.89845
 Alpha virt. eigenvalues --    2.38919   2.40230   2.44223   2.74319   2.75104
 Alpha virt. eigenvalues --    2.91648   3.17173   3.20630   3.21028
          Condensed to atoms (all electrons):
               1          2          3          4          5
     1  H    0.573806   0.402757  -0.021904  -0.019905  -0.022327
     2  C    0.402757   4.746315   0.402563   0.401196   0.403221
     3  H   -0.021904   0.402563   0.576472  -0.021062  -0.022138
     4  H   -0.019905   0.401196  -0.021062   0.564568  -0.019446
     5  H   -0.022327   0.403221  -0.022138  -0.019446   0.572930
 Mulliken charges:
               1
     1  H    0.087573
     2  C   -0.356053
     3  H    0.086070
     4  H    0.094650
     5  H    0.087759
 Sum of Mulliken charges =  -0.00000
 Mulliken charges with hydrogens summed into heavy atoms:
               1
     2  C   -0.000000
 Electronic spatial extent (au):  <R**2>=             36.1988
 Charge=             -0.0000 electrons
 Dipole moment (field-independent basis, Debye):
    X=             -0.0386    Y=             -0.0066    Z=              0.0149  Tot=              0.0419
 Quadrupole moment (field-independent basis, Debye-Ang):
   XX=             -8.3451   YY=             -8.5182   ZZ=             -8.5313
   XY=              0.0006   XZ=              0.0065   YZ=              0.0057
 Traceless Quadrupole moment (field-independent basis, Debye-Ang):
   XX=              0.1198   YY=             -0.0534   ZZ=             -0.0664
   XY=              0.0006   XZ=              0.0065   YZ=              0.0057
 Octapole moment (field-independent basis, Debye-Ang**2):
  XXX=              0.6607  YYY=              0.4100  ZZZ=              0.1499  XYY=             -0.4420
  XXY=              0.0692  XXZ=             -0.2311  XZZ=             -0.3522  YZZ=             -0.5017
  YYZ=              0.1216  XYZ=             -0.1088
 Hexadecapole moment (field-independent basis, Debye-Ang**3):
 XXXX=            -16.2283 YYYY=            -16.3270 ZZZZ=            -16.2894 XXXY=              0.0771
 XXXZ=             -0.1345 YYYX=             -0.3657 YYYZ=              0.0670 ZZZX=              0.1561
 ZZZY=             -0.1453 XXYY=             -5.6300 XXZZ=             -5.6558 YYZZ=             -5.3685
 XXYZ=              0.1075 YYXZ=              0.0086 ZZXY=              0.2917
 N-N= 1.329880179575D+01 E-N=-1.196679856677D+02  KE= 4.012161263587D+01
 There are a total of      109428 grid points.
 ElSum from          density=        9.9999999926
 ElSum from atomic densities=        9.9999999931
 Hirshfeld populations at iteration   1 (CA, CB, DipXYZ):
               1          2          3          4          5
     1  H    0.485147   0.485147  -0.060253   0.124174   0.014394
     2  C    3.060585   3.060585   0.002427   0.000375  -0.001778
     3  H    0.485505   0.485505  -0.028976  -0.070514   0.115042
     4  H    0.483693   0.483693   0.138281   0.006952  -0.019027
     5  H    0.485070   0.485070  -0.069805  -0.063994  -0.102197
       Tot   5.000000   5.000000  -0.018327  -0.003007   0.006434

 Dip from Atomic Chgs              0.003135   0.000424  -0.000579
         Total Dipole             -0.015192  -0.002583   0.005855

 Hirshfeld charges, spin densities, dipoles, and CM5 charges using IRadAn=      5:
              Q-H        S-H        Dx         Dy         Dz        Q-CM5   
     1  H    0.029706   0.000000  -0.060253   0.124174   0.014394   0.076534
     2  C   -0.121169   0.000000   0.002427   0.000375  -0.001778  -0.307116
     3  H    0.028990   0.000000  -0.028976  -0.070514   0.115042   0.075877
     4  H    0.032614   0.000000   0.138281   0.006952  -0.019027   0.077715
     5  H    0.029860   0.000000  -0.069805  -0.063994  -0.102197   0.076990
       Tot   0.000000   0.000000  -0.018327  -0.003007   0.006434   0.000000
 Hirshfeld charges with hydrogens summed into heavy atoms:
              Q-H       Q-CM5   
     2  C    0.000000   0.000000
 
 EQQ= 0.000000000000E+00 EQD= 0.000000000000E+00 EDD=-0.981503107654E-03
 EQQ+QD+DD=-0.981503107654E-03
 
 No NMR shielding tensors so no spin-rotation constants.
 Leave Link  601 at Fri Sep 22 16:34:07 2023, MaxMem=   268435456 cpu:               0.5 elap:               0.2
 (Enter /share/apps/gaussian/g16/l9999.exe)
 1\1\GINC-NODE99\SP\RB3LYP\Gen\C1H4\YANZ\22-Sep-2023\0\\#p b3lyp/gen sc
 rf=(cpcm,solvent=toluene) pop=hirshfeld empiricaldispersion=gd3bj\\tmp
 dir/M2_conf_0_150.gjf\\0,1\H,0,0.,0.,0.\C,0,1.0981,0.,0.\H,0,1.43837,0
 .,1.04352\H,0,1.49943,0.89457,-0.52736\H,0,1.43826,-0.93105,-0.46644\\
 Version=ES64L-G16RevA.03\State=1-A\HF=-40.5137353\RMSD=4.701e-09\Dipol
 e=-0.0043129,-0.0115629,0.0109286\Quadrupole=-0.0190147,0.0578009,-0.0
 387862,0.0429623,-0.017369,-0.03552\PG=C01 [X(C1H4)]\\@


 REVOLUTIONS HAVE NEVER LIGHTENED THE BURDEN OF TYRANNY:
 THEY HAVE MERELY SHIFTED IT TO OTHER SHOULDERS.
                                   -- G. B. SHAW (1903)
 Job cpu time:       0 days  0 hours  0 minutes  5.9 seconds.
 Elapsed time:       0 days  0 hours  0 minutes  3.0 seconds.
 File lengths (MBytes):  RWF=      6 Int=      0 D2E=      0 Chk=      1 Scr=      1
 Normal termination of Gaussian 16 at Fri Sep 22 16:34:07 2023.
