 Entering Gaussian System, Link 0=g16
 Initial command:
 /share/apps/gaussian/g16/l1.exe "/tmp/55556.mgr/Gau-86576.inp" -scrdir="/tmp/55556.mgr/"
 Entering Link 1 = /share/apps/gaussian/g16/l1.exe PID=     86577.
  
 Copyright (c) 1988,1990,1992,1993,1995,1998,2003,2009,2016,
            Gaussian, Inc.  All Rights Reserved.
  
 This is part of the Gaussian(R) 16 program.  It is based on
 the Gaussian(R) 09 system (copyright 2009, Gaussian, Inc.),
 the Gaussian(R) 03 system (copyright 2003, Gaussian, Inc.),
 the Gaussian(R) 98 system (copyright 1998, Gaussian, Inc.),
 the Gaussian(R) 94 system (copyright 1995, Gaussian, Inc.),
 the Gaussian 92(TM) system (copyright 1992, Gaussian, Inc.),
 the Gaussian 90(TM) system (copyright 1990, Gaussian, Inc.),
 the Gaussian 88(TM) system (copyright 1988, Gaussian, Inc.),
 the Gaussian 86(TM) system (copyright 1986, Carnegie Mellon
 University), and the Gaussian 82(TM) system (copyright 1983,
 Carnegie Mellon University). Gaussian is a federally registered
 trademark of Gaussian, Inc.
  
 This software contains proprietary and confidential information,
 including trade secrets, belonging to Gaussian, Inc.
  
 This software is provided under written license and may be
 used, copied, transmitted, or stored only in accord with that
 written license.
  
 The following legend is applicable only to US Government
 contracts under FAR:
  
                    RESTRICTED RIGHTS LEGEND
  
 Use, reproduction and disclosure by the US Government is
 subject to restrictions as set forth in subparagraphs (a)
 and (c) of the Commercial Computer Software - Restricted
 Rights clause in FAR 52.227-19.
  
 Gaussian, Inc.
 340 Quinnipiac St., Bldg. 40, Wallingford CT 06492
  
  
 ---------------------------------------------------------------
 Warning -- This program may not be used in any manner that
 competes with the business of Gaussian, Inc. or will provide
 assistance to any competitor of Gaussian, Inc.  The licensee
 of this program is prohibited from giving any competitor of
 Gaussian, Inc. access to this program.  By using this program,
 the user acknowledges that Gaussian, Inc. is engaged in the
 business of creating and licensing software in the field of
 computational chemistry and represents and warrants to the
 licensee that it is not a competitor of Gaussian, Inc. and that
 it will not use this program in any manner prohibited above.
 ---------------------------------------------------------------
  

 Cite this work as:
 Gaussian 16, Revision A.03,
 M. J. Frisch, G. W. Trucks, H. B. Schlegel, G. E. Scuseria, 
 M. A. Robb, J. R. Cheeseman, G. Scalmani, V. Barone, 
 G. A. Petersson, H. Nakatsuji, X. Li, M. Caricato, A. V. Marenich, 
 J. Bloino, B. G. Janesko, R. Gomperts, B. Mennucci, H. P. Hratchian, 
 J. V. Ortiz, A. F. Izmaylov, J. L. Sonnenberg, D. Williams-Young, 
 F. Ding, F. Lipparini, F. Egidi, J. Goings, B. Peng, A. Petrone, 
 T. Henderson, D. Ranasinghe, V. G. Zakrzewski, J. Gao, N. Rega, 
 G. Zheng, W. Liang, M. Hada, M. Ehara, K. Toyota, R. Fukuda, 
 J. Hasegawa, M. Ishida, T. Nakajima, Y. Honda, O. Kitao, H. Nakai, 
 T. Vreven, K. Throssell, J. A. Montgomery, Jr., J. E. Peralta, 
 F. Ogliaro, M. J. Bearpark, J. J. Heyd, E. N. Brothers, K. N. Kudin, 
 V. N. Staroverov, T. A. Keith, R. Kobayashi, J. Normand, 
 K. Raghavachari, A. P. Rendell, J. C. Burant, S. S. Iyengar, 
 J. Tomasi, M. Cossi, J. M. Millam, M. Klene, C. Adamo, R. Cammi, 
 J. W. Ochterski, R. L. Martin, K. Morokuma, O. Farkas, 
 J. B. Foresman, and D. J. Fox, Gaussian, Inc., Wallingford CT, 2016.
 
 ******************************************
 Gaussian 16:  ES64L-G16RevA.03 25-Dec-2016
                22-Sep-2023 
 ******************************************
 %nprocshared=2
 Will use up to    2 processors via shared memory.
 %mem=2GB
 ----------------------------------------------------------------------
 #p b3lyp/gen scrf=(cpcm,solvent=toluene) pop=hirshfeld empiricaldisper
 sion=gd3bj
 ----------------------------------------------------------------------
 1/38=1,172=1/1;
 2/12=2,17=6,18=5,40=1/2;
 3/5=7,11=2,25=1,30=1,70=2101,72=13,74=-5,124=41/1,2,3;
 4//1;
 5/5=2,38=5,53=13/2;
 6/7=2,8=2,9=2,10=2,28=1,79=1/1;
 99/5=1,9=1/99;
 Leave Link    1 at Fri Sep 22 16:35:16 2023, MaxMem=   268435456 cpu:               0.1 elap:               0.0
 (Enter /share/apps/gaussian/g16/l101.exe)
 ------------------------
 tmpdir/M2_conf_0_274.gjf
 ------------------------
 Symbolic Z-matrix:
 Charge =  0 Multiplicity = 1
 O                     0.        0.        0. 
 C                     1.4426    0.        0. 
 H                     1.79118   0.        1.0412 
 H                    -0.44503  -0.80772   0.09417 
 H                     1.80453  -0.92075  -0.46814 
 H                     1.76245   0.89768  -0.53853 
 
 ITRead=  0  0  0  0  0  0
 MicOpt= -1 -1 -1 -1 -1 -1
 NAtoms=      6 NQM=        6 NQMF=       0 NMMI=      0 NMMIF=      0
                NMic=       0 NMicF=      0.
                    Isotopes and Nuclear Properties:
 (Nuclear quadrupole moments (NQMom) in fm**2, nuclear magnetic moments (NMagM)
  in nuclear magnetons)

  Atom         1           2           3           4           5           6
 IAtWgt=          16          12           1           1           1           1
 AtmWgt=  15.9949146  12.0000000   1.0078250   1.0078250   1.0078250   1.0078250
 NucSpn=           0           0           1           1           1           1
 AtZEff=  -0.0000000  -0.0000000  -0.0000000  -0.0000000  -0.0000000  -0.0000000
 NQMom=    0.0000000   0.0000000   0.0000000   0.0000000   0.0000000   0.0000000
 NMagM=    0.0000000   0.0000000   2.7928460   2.7928460   2.7928460   2.7928460
 AtZNuc=   8.0000000   6.0000000   1.0000000   1.0000000   1.0000000   1.0000000
 Leave Link  101 at Fri Sep 22 16:35:16 2023, MaxMem=   268435456 cpu:               0.2 elap:               0.1
 (Enter /share/apps/gaussian/g16/l202.exe)
                          Input orientation:                          
 ---------------------------------------------------------------------
 Center     Atomic      Atomic             Coordinates (Angstroms)
 Number     Number       Type             X           Y           Z
 ---------------------------------------------------------------------
      1          8           0        0.000000    0.000000    0.000000
      2          6           0        1.442600    0.000000    0.000000
      3          1           0        1.791180    0.000000    1.041200
      4          1           0       -0.445030   -0.807720    0.094170
      5          1           0        1.804530   -0.920750   -0.468140
      6          1           0        1.762450    0.897680   -0.538530
 ---------------------------------------------------------------------
                    Distance matrix (angstroms):
                    1          2          3          4          5
     1  O    0.000000
     2  C    1.442600   0.000000
     3  H    2.071816   1.098001   0.000000
     4  H    0.927001   2.055341   2.559280   0.000000
     5  H    2.079246   1.094499   1.768068   2.321527   0.000000
     6  H    2.049896   1.094599   1.817196   2.860361   1.820278
                    6
     6  H    0.000000
 Stoichiometry    CH4O
 Framework group  C1[X(CH4O)]
 Deg. of freedom    12
 Full point group                 C1      NOp   1
 Largest Abelian subgroup         C1      NOp   1
 Largest concise Abelian subgroup C1      NOp   1
                         Standard orientation:                         
 ---------------------------------------------------------------------
 Center     Atomic      Atomic             Coordinates (Angstroms)
 Number     Number       Type             X           Y           Z
 ---------------------------------------------------------------------
      1          8           0        0.746326   -0.115490    0.009096
      2          6           0       -0.690145    0.016577   -0.005179
      3          1           0       -1.029437    0.243944    1.014032
      4          1           0        1.264300    0.651354   -0.045544
      5          1           0       -0.969546    0.862275   -0.641307
      6          1           0       -1.095059   -0.933118   -0.368871
 ---------------------------------------------------------------------
 Rotational constants (GHZ):         130.5097737          24.0909340          23.3240048
 Leave Link  202 at Fri Sep 22 16:35:16 2023, MaxMem=   268435456 cpu:               0.0 elap:               0.0
 (Enter /share/apps/gaussian/g16/l301.exe)
 General basis read from cards:  (5D, 7F)
 Centers:       3      4      5      6
 S 3 1.00
     Exponent=  1.2251800000D+01 Coefficients=  2.3337100000D-02
     Exponent=  1.8687100000D+00 Coefficients=  1.5915000000D-01
     Exponent=  4.1820800000D-01 Coefficients=  5.0000000000D-01
 S 1 1.00
     Exponent=  1.0610000000D-01 Coefficients=  1.0000000000D+00
 P 1 1.00
     Exponent=  1.0000000000D+00 Coefficients=  1.0000000000D+00
 ****
 Centers:       2
 S 5 1.00
     Exponent=  1.2432000000D+03 Coefficients=  6.0336600000D-03
     Exponent=  1.8714500000D+02 Coefficients=  4.4957600000D-02
     Exponent=  4.2512600000D+01 Coefficients=  1.9790100000D-01
     Exponent=  1.1739300000D+01 Coefficients=  5.0000000000D-01
     Exponent=  3.5054800000D+00 Coefficients=  4.8036400000D-01
 S 2 1.00
     Exponent=  5.3908900000D+00 Coefficients= -7.0398000000D-02
     Exponent=  4.9334100000D-01 Coefficients=  5.0000000000D-01
 S 1 1.00
     Exponent=  1.4974100000D-01 Coefficients=  1.0000000000D+00
 P 3 1.00
     Exponent=  9.1805600000D+00 Coefficients=  4.3170100000D-02
     Exponent=  1.9365800000D+00 Coefficients=  2.2499900000D-01
     Exponent=  5.2629600000D-01 Coefficients=  5.0000000000D-01
 P 1 1.00
     Exponent=  1.3631900000D-01 Coefficients=  1.0000000000D+00
 D 1 1.00
     Exponent=  8.0000000000D-01 Coefficients=  1.0000000000D+00
 ****
 Centers:       1
 S 5 1.00
     Exponent=  2.2886400000D+03 Coefficients=  5.8546800000D-03
     Exponent=  3.4441600000D+02 Coefficients=  4.3733300000D-02
     Exponent=  7.8253800000D+01 Coefficients=  1.9479600000D-01
     Exponent=  2.1719500000D+01 Coefficients=  5.0000000000D-01
     Exponent=  6.5590700000D+00 Coefficients=  4.8461400000D-01
 S 2 1.00
     Exponent=  1.0465600000D+01 Coefficients= -7.1334300000D-02
     Exponent=  9.6435100000D-01 Coefficients=  5.0000000000D-01
 S 1 1.00
     Exponent=  2.8512700000D-01 Coefficients=  1.0000000000D+00
 P 3 1.00
     Exponent=  1.7059000000D+01 Coefficients=  4.7443900000D-02
     Exponent=  3.6899900000D+00 Coefficients=  2.4268900000D-01
     Exponent=  9.9299600000D-01 Coefficients=  5.0000000000D-01
 P 1 1.00
     Exponent=  2.4492400000D-01 Coefficients=  1.0000000000D+00
 D 1 1.00
     Exponent=  1.0000000000D+00 Coefficients=  1.0000000000D+00
 ****
 Ernie: Thresh=  0.10000D-02 Tol=  0.10000D-05 Strict=F.
 There are    50 symmetry adapted cartesian basis functions of A   symmetry.
 There are    48 symmetry adapted basis functions of A   symmetry.
    48 basis functions,    80 primitive gaussians,    50 cartesian basis functions
     9 alpha electrons        9 beta electrons
       nuclear repulsion energy        40.0577772461 Hartrees.
 IExCor=  402 DFT=T Ex+Corr=B3LYP ExCW=0 ScaHFX=  0.200000
 ScaDFX=  0.800000  0.720000  1.000000  0.810000 ScalE2=  1.000000  1.000000
 IRadAn=      5 IRanWt=     -1 IRanGd=            0 ICorTp=0 IEmpDi=141
 NAtoms=    6 NActive=    6 NUniq=    6 SFac= 1.00D+00 NAtFMM=   60 NAOKFM=F Big=F
 Integral buffers will be    131072 words long.
 Raffenetti 2 integral format.
 Two-electron integral symmetry is turned on.
 R6Disp:  Grimme-D3(BJ) Dispersion energy=       -0.0030887327 Hartrees.
 Nuclear repulsion after empirical dispersion term =       40.0546885134 Hartrees.
 ------------------------------------------------------------------------------
 Polarizable Continuum Model (PCM)
 =================================
 Model                : C-PCM.
 Atomic radii         : UFF (Universal Force Field).
 Polarization charges : Total charges.
 Charge compensation  : None.
 Solution method      : On-the-fly selection.
 Cavity type          : Scaled VdW (van der Waals Surface) (Alpha=1.100).
 Cavity algorithm     : GePol (No added spheres)
                        Default sphere list used, NSphG=    6.
                        Lebedev-Laikov grids with approx.  5.0 points / Ang**2.
                        Smoothing algorithm: York/Karplus (Gamma=1.0000).
                        Polarization charges: spherical gaussians, with
                                              point-specific exponents (IZeta= 3).
                        Self-potential: point-specific (ISelfS= 7).
                        Self-field    : sphere-specific E.n sum rule (ISelfD= 2).
 Solvent              : Toluene, Eps=   2.374100 Eps(inf)=   2.238315
 ------------------------------------------------------------------------------
 Spheres list:
 ISph  on   Nord     Re0    Alpha      Xe            Ye            Ze
    1   O      1    1.7500  1.100      0.746326     -0.115490      0.009096
    2   C      2    1.9255  1.100     -0.690145      0.016577     -0.005179
    3   H      3    1.4430  1.100     -1.029437      0.243944      1.014032
    4   H      4    1.4430  1.100      1.264300      0.651354     -0.045544
    5   H      5    1.4430  1.100     -0.969546      0.862275     -0.641307
    6   H      6    1.4430  1.100     -1.095059     -0.933118     -0.368871
 ------------------------------------------------------------------------------
 GePol: Number of generator spheres                  =       6
 GePol: Total number of spheres                      =       6
 GePol: Number of exposed spheres                    =       6 (100.00%)
 GePol: Number of points                             =     617
 GePol: Average weight of points                     =       0.14
 GePol: Minimum weight of points                     =   0.12D-08
 GePol: Maximum weight of points                     =    0.20577
 GePol: Number of points with low weight             =      36
 GePol: Fraction of low-weight points (<1% of avg)   =       5.83%
 GePol: Cavity surface area                          =     84.022 Ang**2
 GePol: Cavity volume                                =     65.173 Ang**3
 Leave Link  301 at Fri Sep 22 16:35:16 2023, MaxMem=   268435456 cpu:               0.3 elap:               0.1
 (Enter /share/apps/gaussian/g16/l302.exe)
 NPDir=0 NMtPBC=     1 NCelOv=     1 NCel=       1 NClECP=     1 NCelD=      1
         NCelK=      1 NCelE2=     1 NClLst=     1 CellRange=     0.0.
 One-electron integrals computed using PRISM.
 One-electron integral symmetry used in STVInt
 NBasis=    48 RedAO= T EigKep=  1.88D-02  NBF=    48
 NBsUse=    48 1.00D-06 EigRej= -1.00D+00 NBFU=    48
 Precomputing XC quadrature grid using
 IXCGrd= 4 IRadAn=           5 IRanWt=          -1 IRanGd=           0 AccXCQ= 0.00D+00.
 Generated NRdTot=       0 NPtTot=           0 NUsed=           0 NTot=          32
 NSgBfM=    50    50    50    50    50 MxSgAt=     6 MxSgA2=     6.
 Leave Link  302 at Fri Sep 22 16:35:16 2023, MaxMem=   268435456 cpu:               0.3 elap:               0.2
 (Enter /share/apps/gaussian/g16/l303.exe)
 DipDrv:  MaxL=1.
 Leave Link  303 at Fri Sep 22 16:35:17 2023, MaxMem=   268435456 cpu:               0.1 elap:               0.0
 (Enter /share/apps/gaussian/g16/l401.exe)
 ExpMin= 1.06D-01 ExpMax= 2.29D+03 ExpMxC= 3.44D+02 IAcc=3 IRadAn=         5 AccDes= 0.00D+00
 Harris functional with IExCor=  402 and IRadAn=       5 diagonalized for initial guess.
 HarFok:  IExCor=  402 AccDes= 0.00D+00 IRadAn=         5 IDoV= 1 UseB2=F ITyADJ=14
 ICtDFT=  3500011 ScaDFX=  1.000000  1.000000  1.000000  1.000000
 FoFCou: FMM=F IPFlag=           0 FMFlag=      100000 FMFlg1=           0
         NFxFlg=           0 DoJE=T BraDBF=F KetDBF=T FulRan=T
         wScrn=  0.000000 ICntrl=       500 IOpCl=  0 I1Cent=   200000004 NGrid=           0
         NMat0=    1 NMatS0=      1 NMatT0=    0 NMatD0=    1 NMtDS0=    0 NMtDT0=    0
 Petite list used in FoFCou.
 Harris En= -115.728668085565    
 JPrj=0 DoOrth=F DoCkMO=F.
 Leave Link  401 at Fri Sep 22 16:35:17 2023, MaxMem=   268435456 cpu:               0.9 elap:               0.4
 (Enter /share/apps/gaussian/g16/l502.exe)
 Keep R1 ints in memory in canonical form, NReq=2435568.
 FoFCou: FMM=F IPFlag=           0 FMFlag=           0 FMFlg1=           0
         NFxFlg=           0 DoJE=F BraDBF=F KetDBF=F FulRan=T
         wScrn=  0.000000 ICntrl=       600 IOpCl=  0 I1Cent=           0 NGrid=           0
         NMat0=    1 NMatS0=   1176 NMatT0=    0 NMatD0=    1 NMtDS0=    0 NMtDT0=    0
 Symmetry not used in FoFCou.
 Two-electron integral symmetry not used.
 Closed shell SCF:
 Using DIIS extrapolation, IDIIS=  1040.
 NGot=   268435456 LenX=   267737350 LenY=   267734409
 Requested convergence on RMS density matrix=1.00D-08 within 128 cycles.
 Requested convergence on MAX density matrix=1.00D-06.
 Requested convergence on             energy=1.00D-06.
 No special actions if energy rises.

 Cycle   1  Pass 1  IDiag  1:
 Inv3:  Mode=1 IEnd=     1142067.
 Iteration    1 A*A^-1 deviation from unit magnitude is 2.22D-15 for    303.
 Iteration    1 A*A^-1 deviation from orthogonality  is 2.14D-15 for    601     81.
 Iteration    1 A^-1*A deviation from unit magnitude is 2.22D-15 for    592.
 Iteration    1 A^-1*A deviation from orthogonality  is 1.51D-15 for    559    318.
 E= -115.622537940785    
 DIIS: error= 2.89D-02 at cycle   1 NSaved=   1.
 NSaved= 1 IEnMin= 1 EnMin= -115.622537940785     IErMin= 1 ErrMin= 2.89D-02
 ErrMax= 2.89D-02  0.00D+00 EMaxC= 1.00D-01 BMatC= 9.04D-02 BMatP= 9.04D-02
 IDIUse=3 WtCom= 7.11D-01 WtEn= 2.89D-01
 Coeff-Com:  0.100D+01
 Coeff-En:   0.100D+01
 Coeff:      0.100D+01
 Gap=     0.255 Goal=   None    Shift=    0.000
 GapD=    0.255 DampG=1.000 DampE=0.500 DampFc=0.5000 IDamp=-1.
 Damping current iteration by 5.00D-01
 RMSDP=1.06D-02 MaxDP=1.49D-01              OVMax= 1.42D-01

 Cycle   2  Pass 1  IDiag  1:
 E= -115.654192378873     Delta-E=       -0.031654438088 Rises=F Damp=T
 DIIS: error= 8.25D-03 at cycle   2 NSaved=   2.
 NSaved= 2 IEnMin= 2 EnMin= -115.654192378873     IErMin= 2 ErrMin= 8.25D-03
 ErrMax= 8.25D-03  0.00D+00 EMaxC= 1.00D-01 BMatC= 4.67D-03 BMatP= 9.04D-02
 IDIUse=3 WtCom= 9.17D-01 WtEn= 8.25D-02
 Coeff-Com:  0.135D+00 0.865D+00
 Coeff-En:   0.202D+00 0.798D+00
 Coeff:      0.140D+00 0.860D+00
 Gap=     0.323 Goal=   None    Shift=    0.000
 RMSDP=1.62D-03 MaxDP=1.36D-02 DE=-3.17D-02 OVMax= 8.57D-02

 Cycle   3  Pass 1  IDiag  1:
 E= -115.699907371542     Delta-E=       -0.045714992670 Rises=F Damp=F
 DIIS: error= 4.40D-03 at cycle   3 NSaved=   3.
 NSaved= 3 IEnMin= 3 EnMin= -115.699907371542     IErMin= 3 ErrMin= 4.40D-03
 ErrMax= 4.40D-03  0.00D+00 EMaxC= 1.00D-01 BMatC= 1.15D-03 BMatP= 4.67D-03
 IDIUse=3 WtCom= 9.56D-01 WtEn= 4.40D-02
 Coeff-Com:  0.334D-01 0.335D+00 0.632D+00
 Coeff-En:   0.000D+00 0.000D+00 0.100D+01
 Coeff:      0.319D-01 0.320D+00 0.648D+00
 Gap=     0.318 Goal=   None    Shift=    0.000
 RMSDP=6.55D-04 MaxDP=1.03D-02 DE=-4.57D-02 OVMax= 1.14D-02

 Cycle   4  Pass 1  IDiag  1:
 E= -115.700697733249     Delta-E=       -0.000790361707 Rises=F Damp=F
 DIIS: error= 1.96D-03 at cycle   4 NSaved=   4.
 NSaved= 4 IEnMin= 4 EnMin= -115.700697733249     IErMin= 4 ErrMin= 1.96D-03
 ErrMax= 1.96D-03  0.00D+00 EMaxC= 1.00D-01 BMatC= 2.48D-04 BMatP= 1.15D-03
 IDIUse=3 WtCom= 9.80D-01 WtEn= 1.96D-02
 Coeff-Com:  0.630D-02 0.771D-01 0.331D+00 0.586D+00
 Coeff-En:   0.000D+00 0.000D+00 0.154D+00 0.846D+00
 Coeff:      0.618D-02 0.755D-01 0.328D+00 0.591D+00
 Gap=     0.319 Goal=   None    Shift=    0.000
 RMSDP=2.33D-04 MaxDP=3.67D-03 DE=-7.90D-04 OVMax= 4.19D-03

 Cycle   5  Pass 1  IDiag  1:
 E= -115.700912800319     Delta-E=       -0.000215067069 Rises=F Damp=F
 DIIS: error= 1.94D-04 at cycle   5 NSaved=   5.
 NSaved= 5 IEnMin= 5 EnMin= -115.700912800319     IErMin= 5 ErrMin= 1.94D-04
 ErrMax= 1.94D-04  0.00D+00 EMaxC= 1.00D-01 BMatC= 2.91D-06 BMatP= 2.48D-04
 IDIUse=3 WtCom= 9.98D-01 WtEn= 1.94D-03
 Coeff-Com: -0.207D-04-0.260D-02 0.397D-01 0.146D+00 0.817D+00
 Coeff-En:   0.000D+00 0.000D+00 0.000D+00 0.000D+00 0.100D+01
 Coeff:     -0.207D-04-0.260D-02 0.396D-01 0.146D+00 0.817D+00
 Gap=     0.319 Goal=   None    Shift=    0.000
 RMSDP=2.33D-05 MaxDP=2.62D-04 DE=-2.15D-04 OVMax= 3.76D-04

 Cycle   6  Pass 1  IDiag  1:
 E= -115.700915208809     Delta-E=       -0.000002408490 Rises=F Damp=F
 DIIS: error= 9.85D-06 at cycle   6 NSaved=   6.
 NSaved= 6 IEnMin= 6 EnMin= -115.700915208809     IErMin= 6 ErrMin= 9.85D-06
 ErrMax= 9.85D-06  0.00D+00 EMaxC= 1.00D-01 BMatC= 7.43D-09 BMatP= 2.91D-06
 IDIUse=1 WtCom= 1.00D+00 WtEn= 0.00D+00
 Coeff-Com:  0.846D-04-0.845D-03 0.216D-02 0.978D-02 0.803D-01 0.908D+00
 Coeff:      0.846D-04-0.845D-03 0.216D-02 0.978D-02 0.803D-01 0.908D+00
 Gap=     0.319 Goal=   None    Shift=    0.000
 RMSDP=2.19D-06 MaxDP=2.36D-05 DE=-2.41D-06 OVMax= 3.25D-05

 Cycle   7  Pass 1  IDiag  1:
 E= -115.700915215578     Delta-E=       -0.000000006769 Rises=F Damp=F
 DIIS: error= 1.63D-06 at cycle   7 NSaved=   7.
 NSaved= 7 IEnMin= 7 EnMin= -115.700915215578     IErMin= 7 ErrMin= 1.63D-06
 ErrMax= 1.63D-06  0.00D+00 EMaxC= 1.00D-01 BMatC= 1.48D-10 BMatP= 7.43D-09
 IDIUse=1 WtCom= 1.00D+00 WtEn= 0.00D+00
 Coeff-Com:  0.188D-04-0.617D-04-0.371D-03-0.109D-02-0.352D-02 0.141D+00
 Coeff-Com:  0.864D+00
 Coeff:      0.188D-04-0.617D-04-0.371D-03-0.109D-02-0.352D-02 0.141D+00
 Coeff:      0.864D+00
 Gap=     0.319 Goal=   None    Shift=    0.000
 RMSDP=2.39D-07 MaxDP=3.02D-06 DE=-6.77D-09 OVMax= 4.44D-06

 Cycle   8  Pass 1  IDiag  1:
 E= -115.700915215711     Delta-E=       -0.000000000133 Rises=F Damp=F
 DIIS: error= 2.06D-07 at cycle   8 NSaved=   8.
 NSaved= 8 IEnMin= 8 EnMin= -115.700915215711     IErMin= 8 ErrMin= 2.06D-07
 ErrMax= 2.06D-07  0.00D+00 EMaxC= 1.00D-01 BMatC= 2.40D-12 BMatP= 1.48D-10
 IDIUse=1 WtCom= 1.00D+00 WtEn= 0.00D+00
 Coeff-Com:  0.288D-07 0.111D-04-0.993D-04-0.339D-03-0.237D-02-0.255D-02
 Coeff-Com:  0.918D-01 0.914D+00
 Coeff:      0.288D-07 0.111D-04-0.993D-04-0.339D-03-0.237D-02-0.255D-02
 Coeff:      0.918D-01 0.914D+00
 Gap=     0.319 Goal=   None    Shift=    0.000
 RMSDP=3.33D-08 MaxDP=4.12D-07 DE=-1.33D-10 OVMax= 4.55D-07

 Cycle   9  Pass 1  IDiag  1:
 E= -115.700915215712     Delta-E=       -0.000000000001 Rises=F Damp=F
 DIIS: error= 3.45D-08 at cycle   9 NSaved=   9.
 NSaved= 9 IEnMin= 9 EnMin= -115.700915215712     IErMin= 9 ErrMin= 3.45D-08
 ErrMax= 3.45D-08  0.00D+00 EMaxC= 1.00D-01 BMatC= 4.70D-14 BMatP= 2.40D-12
 IDIUse=1 WtCom= 1.00D+00 WtEn= 0.00D+00
 Coeff-Com: -0.348D-06 0.251D-05-0.105D-04-0.421D-04-0.327D-03-0.186D-02
 Coeff-Com:  0.589D-02 0.154D+00 0.842D+00
 Coeff:     -0.348D-06 0.251D-05-0.105D-04-0.421D-04-0.327D-03-0.186D-02
 Coeff:      0.589D-02 0.154D+00 0.842D+00
 Gap=     0.319 Goal=   None    Shift=    0.000
 RMSDP=5.00D-09 MaxDP=5.73D-08 DE=-1.14D-12 OVMax= 7.47D-08

 Error on total polarization charges =  0.00310
 SCF Done:  E(RB3LYP) =  -115.700915216     A.U. after    9 cycles
            NFock=  9  Conv=0.50D-08     -V/T= 2.0044
 KE= 1.151987526300D+02 PE=-3.517253307231D+02 EE= 8.077097436401D+01
 Leave Link  502 at Fri Sep 22 16:35:21 2023, MaxMem=   268435456 cpu:               8.0 elap:               4.1
 (Enter /share/apps/gaussian/g16/l601.exe)
 Copying SCF densities to generalized density rwf, IOpCl= 0 IROHF=0.

 **********************************************************************

            Population analysis using the SCF density.

 **********************************************************************

 Orbital symmetries:
       Occupied  (A) (A) (A) (A) (A) (A) (A) (A) (A)
       Virtual   (A) (A) (A) (A) (A) (A) (A) (A) (A) (A) (A) (A)
                 (A) (A) (A) (A) (A) (A) (A) (A) (A) (A) (A) (A)
                 (A) (A) (A) (A) (A) (A) (A) (A) (A) (A) (A) (A)
                 (A) (A) (A)
 The electronic state is 1-A.
 Alpha  occ. eigenvalues --  -19.10458 -10.22054  -1.01137  -0.69058  -0.50788
 Alpha  occ. eigenvalues --   -0.43757  -0.43140  -0.32455  -0.27143
 Alpha virt. eigenvalues --    0.04749   0.07740   0.11770   0.11984   0.16984
 Alpha virt. eigenvalues --    0.41460   0.42717   0.44590   0.58839   0.60899
 Alpha virt. eigenvalues --    0.63700   0.65921   0.86653   0.86790   0.90607
 Alpha virt. eigenvalues --    0.97577   1.34976   1.44935   1.62276   1.71955
 Alpha virt. eigenvalues --    1.83231   1.86521   1.87105   1.88504   1.90711
 Alpha virt. eigenvalues --    2.01573   2.14956   2.38215   2.45513   2.47625
 Alpha virt. eigenvalues --    2.59743   2.68826   2.78488   2.85970   2.96430
 Alpha virt. eigenvalues --    3.11997   3.20350   3.23869   3.62176
          Condensed to atoms (all electrons):
               1          2          3          4          5          6
     1  O    8.000008   0.264051  -0.039853   0.348836  -0.033806  -0.029319
     2  C    0.264051   4.499771   0.403973  -0.027444   0.404657   0.402558
     3  H   -0.039853   0.403973   0.627849   0.000219  -0.034588  -0.033530
     4  H    0.348836  -0.027444   0.000219   0.473957  -0.008553   0.006996
     5  H   -0.033806   0.404657  -0.034588  -0.008553   0.619816  -0.024884
     6  H   -0.029319   0.402558  -0.033530   0.006996  -0.024884   0.579975
 Mulliken charges:
               1
     1  O   -0.509917
     2  C    0.052435
     3  H    0.075930
     4  H    0.205989
     5  H    0.077360
     6  H    0.098203
 Sum of Mulliken charges =  -0.00000
 Mulliken charges with hydrogens summed into heavy atoms:
               1
     1  O   -0.303927
     2  C    0.303927
 Electronic spatial extent (au):  <R**2>=             85.1699
 Charge=             -0.0000 electrons
 Dipole moment (field-independent basis, Debye):
    X=             -0.8805    Y=              1.6105    Z=             -0.1586  Tot=              1.8423
 Quadrupole moment (field-independent basis, Debye-Ang):
   XX=            -12.1612   YY=            -12.3473   ZZ=            -13.6960
   XY=              2.3082   XZ=             -0.0995   YZ=              0.0064
 Traceless Quadrupole moment (field-independent basis, Debye-Ang):
   XX=              0.5736   YY=              0.3875   ZZ=             -0.9611
   XY=              2.3082   XZ=             -0.0995   YZ=              0.0064
 Octapole moment (field-independent basis, Debye-Ang**2):
  XXX=              5.3923  YYY=              0.8054  ZZZ=              0.2995  XYY=              1.3977
  XXY=              2.6603  XXZ=             -0.2878  XZZ=              0.5072  YZZ=              0.4543
  YYZ=             -0.5245  XYZ=             -0.2091
 Hexadecapole moment (field-independent basis, Debye-Ang**3):
 XXXX=            -59.9776 YYYY=            -19.9997 ZZZZ=            -19.6993 XXXY=              4.5032
 XXXZ=             -0.1417 YYYX=              2.4115 YYYZ=             -0.0312 ZZZX=             -0.4858
 ZZZY=              0.1064 XXYY=            -12.6170 XXZZ=            -14.2770 YYZZ=             -6.6614
 XXYZ=              0.0776 YYXZ=              0.4794 ZZXY=              0.2301
 N-N= 4.005468851338D+01 E-N=-3.517253301723D+02  KE= 1.151987526300D+02
 There are a total of      133448 grid points.
 ElSum from          density=       18.0000000036
 ElSum from atomic densities=       18.0000002066
 Hirshfeld populations at iteration   1 (CA, CB, DipXYZ):
               1          2          3          4          5
     1  O    4.135800   4.135800  -0.123667   0.193244  -0.011478
     2  C    2.995545   2.995545   0.034375  -0.004219  -0.003721
     3  H    0.485664   0.485664  -0.050295   0.033176   0.118554
     4  H    0.422250   0.422250   0.128977   0.187663  -0.013142
     5  H    0.483230   0.483230  -0.038405   0.108832  -0.071709
     6  H    0.477512   0.477512  -0.063938  -0.124583  -0.045699
       Tot   9.000000   9.000000  -0.112953   0.394113  -0.027196

 Dip from Atomic Chgs             -0.233452   0.239517  -0.035193
         Total Dipole             -0.346405   0.633630  -0.062389

 Hirshfeld charges, spin densities, dipoles, and CM5 charges using IRadAn=      5:
              Q-H        S-H        Dx         Dy         Dz        Q-CM5   
     1  O   -0.271599   0.000000  -0.123667   0.193244  -0.011478  -0.505885
     2  C    0.008910   0.000000   0.034375  -0.004219  -0.003721  -0.116255
     3  H    0.028673   0.000000  -0.050295   0.033176   0.118554   0.086188
     4  H    0.155501   0.000000   0.128977   0.187663  -0.013142   0.341200
     5  H    0.033539   0.000000  -0.038405   0.108832  -0.071709   0.091268
     6  H    0.044977   0.000000  -0.063938  -0.124583  -0.045699   0.103483
       Tot  -0.000000   0.000000  -0.112953   0.394113  -0.027196  -0.000000
 Hirshfeld charges with hydrogens summed into heavy atoms:
              Q-H       Q-CM5   
     1  O   -0.116098  -0.164685
     2  C    0.116098   0.164685
 
 EQQ= 0.000000000000E+00 EQD= 0.000000000000E+00 EDD= 0.293379323129E-02
 EQQ+QD+DD= 0.293379323129E-02
 
 No NMR shielding tensors so no spin-rotation constants.
 Leave Link  601 at Fri Sep 22 16:35:21 2023, MaxMem=   268435456 cpu:               0.7 elap:               0.4
 (Enter /share/apps/gaussian/g16/l9999.exe)
 1\1\GINC-NODE99\SP\RB3LYP\Gen\C1H4O1\YANZ\22-Sep-2023\0\\#p b3lyp/gen 
 scrf=(cpcm,solvent=toluene) pop=hirshfeld empiricaldispersion=gd3bj\\t
 mpdir/M2_conf_0_274.gjf\\0,1\O,0,0.,0.,0.\C,0,1.4426,0.,0.\H,0,1.79118
 ,0.,1.0412\H,0,-0.44503,-0.80772,0.09417\H,0,1.80453,-0.92075,-0.46814
 \H,0,1.76245,0.89768,-0.53853\\Version=ES64L-G16RevA.03\State=1-A\HF=-
 115.7009152\RMSD=5.003e-09\Dipole=0.4035581,-0.5995693,0.0550693\Quadr
 upole=0.1108506,0.562849,-0.6736997,1.6850705,-0.2380793,-0.2248341\PG
 =C01 [X(C1H4O1)]\\@


 Experience is what you get when you don't get what you want.
 -- Dan Stanford
 Job cpu time:       0 days  0 hours  0 minutes 10.7 seconds.
 Elapsed time:       0 days  0 hours  0 minutes  5.5 seconds.
 File lengths (MBytes):  RWF=     10 Int=      0 D2E=      0 Chk=      1 Scr=      1
 Normal termination of Gaussian 16 at Fri Sep 22 16:35:21 2023.
