 Entering Gaussian System, Link 0=g16
 Initial command:
 /share/apps/gaussian/g16/l1.exe "/tmp/55556.mgr/Gau-87815.inp" -scrdir="/tmp/55556.mgr/"
 Entering Link 1 = /share/apps/gaussian/g16/l1.exe PID=     87817.
  
 Copyright (c) 1988,1990,1992,1993,1995,1998,2003,2009,2016,
            Gaussian, Inc.  All Rights Reserved.
  
 This is part of the Gaussian(R) 16 program.  It is based on
 the Gaussian(R) 09 system (copyright 2009, Gaussian, Inc.),
 the Gaussian(R) 03 system (copyright 2003, Gaussian, Inc.),
 the Gaussian(R) 98 system (copyright 1998, Gaussian, Inc.),
 the Gaussian(R) 94 system (copyright 1995, Gaussian, Inc.),
 the Gaussian 92(TM) system (copyright 1992, Gaussian, Inc.),
 the Gaussian 90(TM) system (copyright 1990, Gaussian, Inc.),
 the Gaussian 88(TM) system (copyright 1988, Gaussian, Inc.),
 the Gaussian 86(TM) system (copyright 1986, Carnegie Mellon
 University), and the Gaussian 82(TM) system (copyright 1983,
 Carnegie Mellon University). Gaussian is a federally registered
 trademark of Gaussian, Inc.
  
 This software contains proprietary and confidential information,
 including trade secrets, belonging to Gaussian, Inc.
  
 This software is provided under written license and may be
 used, copied, transmitted, or stored only in accord with that
 written license.
  
 The following legend is applicable only to US Government
 contracts under FAR:
  
                    RESTRICTED RIGHTS LEGEND
  
 Use, reproduction and disclosure by the US Government is
 subject to restrictions as set forth in subparagraphs (a)
 and (c) of the Commercial Computer Software - Restricted
 Rights clause in FAR 52.227-19.
  
 Gaussian, Inc.
 340 Quinnipiac St., Bldg. 40, Wallingford CT 06492
  
  
 ---------------------------------------------------------------
 Warning -- This program may not be used in any manner that
 competes with the business of Gaussian, Inc. or will provide
 assistance to any competitor of Gaussian, Inc.  The licensee
 of this program is prohibited from giving any competitor of
 Gaussian, Inc. access to this program.  By using this program,
 the user acknowledges that Gaussian, Inc. is engaged in the
 business of creating and licensing software in the field of
 computational chemistry and represents and warrants to the
 licensee that it is not a competitor of Gaussian, Inc. and that
 it will not use this program in any manner prohibited above.
 ---------------------------------------------------------------
  

 Cite this work as:
 Gaussian 16, Revision A.03,
 M. J. Frisch, G. W. Trucks, H. B. Schlegel, G. E. Scuseria, 
 M. A. Robb, J. R. Cheeseman, G. Scalmani, V. Barone, 
 G. A. Petersson, H. Nakatsuji, X. Li, M. Caricato, A. V. Marenich, 
 J. Bloino, B. G. Janesko, R. Gomperts, B. Mennucci, H. P. Hratchian, 
 J. V. Ortiz, A. F. Izmaylov, J. L. Sonnenberg, D. Williams-Young, 
 F. Ding, F. Lipparini, F. Egidi, J. Goings, B. Peng, A. Petrone, 
 T. Henderson, D. Ranasinghe, V. G. Zakrzewski, J. Gao, N. Rega, 
 G. Zheng, W. Liang, M. Hada, M. Ehara, K. Toyota, R. Fukuda, 
 J. Hasegawa, M. Ishida, T. Nakajima, Y. Honda, O. Kitao, H. Nakai, 
 T. Vreven, K. Throssell, J. A. Montgomery, Jr., J. E. Peralta, 
 F. Ogliaro, M. J. Bearpark, J. J. Heyd, E. N. Brothers, K. N. Kudin, 
 V. N. Staroverov, T. A. Keith, R. Kobayashi, J. Normand, 
 K. Raghavachari, A. P. Rendell, J. C. Burant, S. S. Iyengar, 
 J. Tomasi, M. Cossi, J. M. Millam, M. Klene, C. Adamo, R. Cammi, 
 J. W. Ochterski, R. L. Martin, K. Morokuma, O. Farkas, 
 J. B. Foresman, and D. J. Fox, Gaussian, Inc., Wallingford CT, 2016.
 
 ******************************************
 Gaussian 16:  ES64L-G16RevA.03 25-Dec-2016
                22-Sep-2023 
 ******************************************
 %nprocshared=2
 Will use up to    2 processors via shared memory.
 %mem=2GB
 ----------------------------------------------------------------------
 #p b3lyp/gen scrf=(cpcm,solvent=toluene) pop=hirshfeld empiricaldisper
 sion=gd3bj
 ----------------------------------------------------------------------
 1/38=1,172=1/1;
 2/12=2,17=6,18=5,40=1/2;
 3/5=7,11=2,25=1,30=1,70=2101,72=13,74=-5,124=41/1,2,3;
 4//1;
 5/5=2,38=5,53=13/2;
 6/7=2,8=2,9=2,10=2,28=1,79=1/1;
 99/5=1,9=1/99;
 Leave Link    1 at Fri Sep 22 16:36:23 2023, MaxMem=   268435456 cpu:               0.1 elap:               0.0
 (Enter /share/apps/gaussian/g16/l101.exe)
 ------------------------
 tmpdir/M2_conf_0_365.gjf
 ------------------------
 Symbolic Z-matrix:
 Charge =  0 Multiplicity = 1
 H                     0.        0.        0. 
 C                     1.0997    0.        0. 
 H                     1.39596   0.        1.05894 
 H                     1.47562  -0.88904  -0.50463 
 H                     1.43077   0.93809  -0.4545 
 
 ITRead=  0  0  0  0  0
 MicOpt= -1 -1 -1 -1 -1
 NAtoms=      5 NQM=        5 NQMF=       0 NMMI=      0 NMMIF=      0
                NMic=       0 NMicF=      0.
                    Isotopes and Nuclear Properties:
 (Nuclear quadrupole moments (NQMom) in fm**2, nuclear magnetic moments (NMagM)
  in nuclear magnetons)

  Atom         1           2           3           4           5
 IAtWgt=           1          12           1           1           1
 AtmWgt=   1.0078250  12.0000000   1.0078250   1.0078250   1.0078250
 NucSpn=           1           0           1           1           1
 AtZEff=  -0.0000000  -0.0000000  -0.0000000  -0.0000000  -0.0000000
 NQMom=    0.0000000   0.0000000   0.0000000   0.0000000   0.0000000
 NMagM=    2.7928460   0.0000000   2.7928460   2.7928460   2.7928460
 AtZNuc=   1.0000000   6.0000000   1.0000000   1.0000000   1.0000000
 Leave Link  101 at Fri Sep 22 16:36:24 2023, MaxMem=   268435456 cpu:               0.2 elap:               0.1
 (Enter /share/apps/gaussian/g16/l202.exe)
                          Input orientation:                          
 ---------------------------------------------------------------------
 Center     Atomic      Atomic             Coordinates (Angstroms)
 Number     Number       Type             X           Y           Z
 ---------------------------------------------------------------------
      1          1           0        0.000000    0.000000    0.000000
      2          6           0        1.099700    0.000000    0.000000
      3          1           0        1.395960    0.000000    1.058940
      4          1           0        1.475620   -0.889040   -0.504630
      5          1           0        1.430770    0.938090   -0.454500
 ---------------------------------------------------------------------
                    Distance matrix (angstroms):
                    1          2          3          4          5
     1  H    0.000000
     2  C    1.099700   0.000000
     3  H    1.752158   1.099602   0.000000
     4  H    1.795132   1.089201   1.800414   0.000000
     5  H    1.770222   1.093705   1.780934   1.828368   0.000000
 Stoichiometry    CH4
 Framework group  C1[X(CH4)]
 Deg. of freedom     9
 Full point group                 C1      NOp   1
 Largest Abelian subgroup         C1      NOp   1
 Largest concise Abelian subgroup C1      NOp   1
                         Standard orientation:                         
 ---------------------------------------------------------------------
 Center     Atomic      Atomic             Coordinates (Angstroms)
 Number     Number       Type             X           Y           Z
 ---------------------------------------------------------------------
      1          1           0        0.223683   -0.412702    0.983863
      2          6           0       -0.009257    0.010743   -0.003949
      3          1           0        0.203057   -0.789968   -0.727073
      4          1           0       -1.057581    0.302717   -0.050080
      5          1           0        0.686382    0.835493   -0.183015
 ---------------------------------------------------------------------
 Rotational constants (GHZ):         160.8282608         155.9991598         153.4968286
 Leave Link  202 at Fri Sep 22 16:36:24 2023, MaxMem=   268435456 cpu:               0.0 elap:               0.0
 (Enter /share/apps/gaussian/g16/l301.exe)
 General basis read from cards:  (5D, 7F)
 Centers:       1      3      4      5
 S 3 1.00
     Exponent=  1.2251800000D+01 Coefficients=  2.3337100000D-02
     Exponent=  1.8687100000D+00 Coefficients=  1.5915000000D-01
     Exponent=  4.1820800000D-01 Coefficients=  5.0000000000D-01
 S 1 1.00
     Exponent=  1.0610000000D-01 Coefficients=  1.0000000000D+00
 P 1 1.00
     Exponent=  1.0000000000D+00 Coefficients=  1.0000000000D+00
 ****
 Centers:       2
 S 5 1.00
     Exponent=  1.2432000000D+03 Coefficients=  6.0336600000D-03
     Exponent=  1.8714500000D+02 Coefficients=  4.4957600000D-02
     Exponent=  4.2512600000D+01 Coefficients=  1.9790100000D-01
     Exponent=  1.1739300000D+01 Coefficients=  5.0000000000D-01
     Exponent=  3.5054800000D+00 Coefficients=  4.8036400000D-01
 S 2 1.00
     Exponent=  5.3908900000D+00 Coefficients= -7.0398000000D-02
     Exponent=  4.9334100000D-01 Coefficients=  5.0000000000D-01
 S 1 1.00
     Exponent=  1.4974100000D-01 Coefficients=  1.0000000000D+00
 P 3 1.00
     Exponent=  9.1805600000D+00 Coefficients=  4.3170100000D-02
     Exponent=  1.9365800000D+00 Coefficients=  2.2499900000D-01
     Exponent=  5.2629600000D-01 Coefficients=  5.0000000000D-01
 P 1 1.00
     Exponent=  1.3631900000D-01 Coefficients=  1.0000000000D+00
 D 1 1.00
     Exponent=  8.0000000000D-01 Coefficients=  1.0000000000D+00
 ****
 Ernie: Thresh=  0.10000D-02 Tol=  0.10000D-05 Strict=F.
 There are    35 symmetry adapted cartesian basis functions of A   symmetry.
 There are    34 symmetry adapted basis functions of A   symmetry.
    34 basis functions,    54 primitive gaussians,    35 cartesian basis functions
     5 alpha electrons        5 beta electrons
       nuclear repulsion energy        13.3689603849 Hartrees.
 IExCor=  402 DFT=T Ex+Corr=B3LYP ExCW=0 ScaHFX=  0.200000
 ScaDFX=  0.800000  0.720000  1.000000  0.810000 ScalE2=  1.000000  1.000000
 IRadAn=      5 IRanWt=     -1 IRanGd=            0 ICorTp=0 IEmpDi=141
 NAtoms=    5 NActive=    5 NUniq=    5 SFac= 1.00D+00 NAtFMM=   60 NAOKFM=F Big=F
 Integral buffers will be    131072 words long.
 Raffenetti 2 integral format.
 Two-electron integral symmetry is turned on.
 R6Disp:  Grimme-D3(BJ) Dispersion energy=       -0.0019130405 Hartrees.
 Nuclear repulsion after empirical dispersion term =       13.3670473444 Hartrees.
 ------------------------------------------------------------------------------
 Polarizable Continuum Model (PCM)
 =================================
 Model                : C-PCM.
 Atomic radii         : UFF (Universal Force Field).
 Polarization charges : Total charges.
 Charge compensation  : None.
 Solution method      : On-the-fly selection.
 Cavity type          : Scaled VdW (van der Waals Surface) (Alpha=1.100).
 Cavity algorithm     : GePol (No added spheres)
                        Default sphere list used, NSphG=    5.
                        Lebedev-Laikov grids with approx.  5.0 points / Ang**2.
                        Smoothing algorithm: York/Karplus (Gamma=1.0000).
                        Polarization charges: spherical gaussians, with
                                              point-specific exponents (IZeta= 3).
                        Self-potential: point-specific (ISelfS= 7).
                        Self-field    : sphere-specific E.n sum rule (ISelfD= 2).
 Solvent              : Toluene, Eps=   2.374100 Eps(inf)=   2.238315
 ------------------------------------------------------------------------------
 Spheres list:
 ISph  on   Nord     Re0    Alpha      Xe            Ye            Ze
    1   H      1    1.4430  1.100      0.223683     -0.412702      0.983863
    2   C      2    1.9255  1.100     -0.009257      0.010743     -0.003949
    3   H      3    1.4430  1.100      0.203057     -0.789968     -0.727073
    4   H      4    1.4430  1.100     -1.057581      0.302717     -0.050080
    5   H      5    1.4430  1.100      0.686382      0.835493     -0.183015
 ------------------------------------------------------------------------------
 GePol: Number of generator spheres                  =       5
 GePol: Total number of spheres                      =       5
 GePol: Number of exposed spheres                    =       5 (100.00%)
 GePol: Number of points                             =     496
 GePol: Average weight of points                     =       0.14
 GePol: Minimum weight of points                     =   0.11D-05
 GePol: Maximum weight of points                     =    0.20577
 GePol: Number of points with low weight             =      19
 GePol: Fraction of low-weight points (<1% of avg)   =       3.83%
 GePol: Cavity surface area                          =     69.795 Ang**2
 GePol: Cavity volume                                =     51.498 Ang**3
 Leave Link  301 at Fri Sep 22 16:36:24 2023, MaxMem=   268435456 cpu:               0.2 elap:               0.1
 (Enter /share/apps/gaussian/g16/l302.exe)
 NPDir=0 NMtPBC=     1 NCelOv=     1 NCel=       1 NClECP=     1 NCelD=      1
         NCelK=      1 NCelE2=     1 NClLst=     1 CellRange=     0.0.
 One-electron integrals computed using PRISM.
 One-electron integral symmetry used in STVInt
 NBasis=    34 RedAO= T EigKep=  2.82D-02  NBF=    34
 NBsUse=    34 1.00D-06 EigRej= -1.00D+00 NBFU=    34
 Precomputing XC quadrature grid using
 IXCGrd= 4 IRadAn=           5 IRanWt=          -1 IRanGd=           0 AccXCQ= 0.00D+00.
 Generated NRdTot=       0 NPtTot=           0 NUsed=           0 NTot=          32
 NSgBfM=    35    35    35    35    35 MxSgAt=     5 MxSgA2=     5.
 Leave Link  302 at Fri Sep 22 16:36:24 2023, MaxMem=   268435456 cpu:               0.2 elap:               0.1
 (Enter /share/apps/gaussian/g16/l303.exe)
 DipDrv:  MaxL=1.
 Leave Link  303 at Fri Sep 22 16:36:24 2023, MaxMem=   268435456 cpu:               0.1 elap:               0.1
 (Enter /share/apps/gaussian/g16/l401.exe)
 ExpMin= 1.06D-01 ExpMax= 1.24D+03 ExpMxC= 1.87D+02 IAcc=3 IRadAn=         5 AccDes= 0.00D+00
 Harris functional with IExCor=  402 and IRadAn=       5 diagonalized for initial guess.
 HarFok:  IExCor=  402 AccDes= 0.00D+00 IRadAn=         5 IDoV= 1 UseB2=F ITyADJ=14
 ICtDFT=  3500011 ScaDFX=  1.000000  1.000000  1.000000  1.000000
 FoFCou: FMM=F IPFlag=           0 FMFlag=      100000 FMFlg1=           0
         NFxFlg=           0 DoJE=T BraDBF=F KetDBF=T FulRan=T
         wScrn=  0.000000 ICntrl=       500 IOpCl=  0 I1Cent=   200000004 NGrid=           0
         NMat0=    1 NMatS0=      1 NMatT0=    0 NMatD0=    1 NMtDS0=    0 NMtDT0=    0
 Petite list used in FoFCou.
 Harris En= -40.5520442883545    
 JPrj=0 DoOrth=F DoCkMO=F.
 Leave Link  401 at Fri Sep 22 16:36:24 2023, MaxMem=   268435456 cpu:               0.6 elap:               0.3
 (Enter /share/apps/gaussian/g16/l502.exe)
 Keep R1 ints in memory in canonical form, NReq=1903191.
 FoFCou: FMM=F IPFlag=           0 FMFlag=           0 FMFlg1=           0
         NFxFlg=           0 DoJE=F BraDBF=F KetDBF=F FulRan=T
         wScrn=  0.000000 ICntrl=       600 IOpCl=  0 I1Cent=           0 NGrid=           0
         NMat0=    1 NMatS0=    595 NMatT0=    0 NMatD0=    1 NMtDS0=    0 NMtDT0=    0
 Symmetry not used in FoFCou.
 Two-electron integral symmetry not used.
 Closed shell SCF:
 Using DIIS extrapolation, IDIIS=  1040.
 NGot=   268435456 LenX=   268254897 LenY=   268253231
 Requested convergence on RMS density matrix=1.00D-08 within 128 cycles.
 Requested convergence on MAX density matrix=1.00D-06.
 Requested convergence on             energy=1.00D-06.
 No special actions if energy rises.

 Cycle   1  Pass 1  IDiag  1:
 Inv3:  Mode=1 IEnd=      738048.
 Iteration    1 A*A^-1 deviation from unit magnitude is 2.55D-15 for    474.
 Iteration    1 A*A^-1 deviation from orthogonality  is 9.87D-16 for    452     61.
 Iteration    1 A^-1*A deviation from unit magnitude is 2.55D-15 for    474.
 Iteration    1 A^-1*A deviation from orthogonality  is 1.14D-15 for    356     35.
 E= -40.4253708741064    
 DIIS: error= 4.74D-02 at cycle   1 NSaved=   1.
 NSaved= 1 IEnMin= 1 EnMin= -40.4253708741064     IErMin= 1 ErrMin= 4.74D-02
 ErrMax= 4.74D-02  0.00D+00 EMaxC= 1.00D-01 BMatC= 7.85D-02 BMatP= 7.85D-02
 IDIUse=3 WtCom= 5.26D-01 WtEn= 4.74D-01
 Coeff-Com:  0.100D+01
 Coeff-En:   0.100D+01
 Coeff:      0.100D+01
 Gap=     0.356 Goal=   None    Shift=    0.000
 GapD=    0.356 DampG=1.000 DampE=0.500 DampFc=0.5000 IDamp=-1.
 Damping current iteration by 5.00D-01
 RMSDP=1.47D-02 MaxDP=1.52D-01              OVMax= 2.01D-01

 Cycle   2  Pass 1  IDiag  1:
 E= -40.4652229112749     Delta-E=       -0.039852037168 Rises=F Damp=T
 DIIS: error= 8.16D-03 at cycle   2 NSaved=   2.
 NSaved= 2 IEnMin= 2 EnMin= -40.4652229112749     IErMin= 2 ErrMin= 8.16D-03
 ErrMax= 8.16D-03  0.00D+00 EMaxC= 1.00D-01 BMatC= 1.25D-03 BMatP= 7.85D-02
 IDIUse=3 WtCom= 9.18D-01 WtEn= 8.16D-02
 Coeff-Com:  0.819D-01 0.918D+00
 Coeff-En:   0.135D+00 0.865D+00
 Coeff:      0.862D-01 0.914D+00
 Gap=     0.434 Goal=   None    Shift=    0.000
 RMSDP=1.37D-03 MaxDP=1.17D-02 DE=-3.99D-02 OVMax= 1.06D-01

 Cycle   3  Pass 1  IDiag  1:
 E= -40.5134781228791     Delta-E=       -0.048255211604 Rises=F Damp=F
 DIIS: error= 5.24D-04 at cycle   3 NSaved=   3.
 NSaved= 3 IEnMin= 3 EnMin= -40.5134781228791     IErMin= 3 ErrMin= 5.24D-04
 ErrMax= 5.24D-04  0.00D+00 EMaxC= 1.00D-01 BMatC= 9.86D-06 BMatP= 1.25D-03
 IDIUse=3 WtCom= 9.95D-01 WtEn= 5.24D-03
 Coeff-Com:  0.601D-02-0.480D-01 0.104D+01
 Coeff-En:   0.000D+00 0.000D+00 0.100D+01
 Coeff:      0.597D-02-0.477D-01 0.104D+01
 Gap=     0.443 Goal=   None    Shift=    0.000
 RMSDP=8.27D-05 MaxDP=8.57D-04 DE=-4.83D-02 OVMax= 1.05D-03

 Cycle   4  Pass 1  IDiag  1:
 E= -40.5134867221879     Delta-E=       -0.000008599309 Rises=F Damp=F
 DIIS: error= 9.71D-05 at cycle   4 NSaved=   4.
 NSaved= 4 IEnMin= 4 EnMin= -40.5134867221879     IErMin= 4 ErrMin= 9.71D-05
 ErrMax= 9.71D-05  0.00D+00 EMaxC= 1.00D-01 BMatC= 1.67D-07 BMatP= 9.86D-06
 IDIUse=1 WtCom= 1.00D+00 WtEn= 0.00D+00
 Coeff-Com:  0.186D-02-0.112D-01 0.235D+00 0.774D+00
 Coeff:      0.186D-02-0.112D-01 0.235D+00 0.774D+00
 Gap=     0.443 Goal=   None    Shift=    0.000
 RMSDP=1.17D-05 MaxDP=1.25D-04 DE=-8.60D-06 OVMax= 1.70D-04

 Cycle   5  Pass 1  IDiag  1:
 E= -40.5134869095544     Delta-E=       -0.000000187366 Rises=F Damp=F
 DIIS: error= 9.51D-06 at cycle   5 NSaved=   5.
 NSaved= 5 IEnMin= 5 EnMin= -40.5134869095544     IErMin= 5 ErrMin= 9.51D-06
 ErrMax= 9.51D-06  0.00D+00 EMaxC= 1.00D-01 BMatC= 2.25D-09 BMatP= 1.67D-07
 IDIUse=1 WtCom= 1.00D+00 WtEn= 0.00D+00
 Coeff-Com:  0.215D-03-0.465D-04 0.619D-02 0.873D-01 0.906D+00
 Coeff:      0.215D-03-0.465D-04 0.619D-02 0.873D-01 0.906D+00
 Gap=     0.443 Goal=   None    Shift=    0.000
 RMSDP=1.66D-06 MaxDP=1.54D-05 DE=-1.87D-07 OVMax= 2.13D-05

 Cycle   6  Pass 1  IDiag  1:
 E= -40.5134869123336     Delta-E=       -0.000000002779 Rises=F Damp=F
 DIIS: error= 7.87D-07 at cycle   6 NSaved=   6.
 NSaved= 6 IEnMin= 6 EnMin= -40.5134869123336     IErMin= 6 ErrMin= 7.87D-07
 ErrMax= 7.87D-07  0.00D+00 EMaxC= 1.00D-01 BMatC= 1.27D-11 BMatP= 2.25D-09
 IDIUse=1 WtCom= 1.00D+00 WtEn= 0.00D+00
 Coeff-Com: -0.115D-04 0.486D-04-0.122D-02-0.203D-02 0.597D-01 0.944D+00
 Coeff:     -0.115D-04 0.486D-04-0.122D-02-0.203D-02 0.597D-01 0.944D+00
 Gap=     0.443 Goal=   None    Shift=    0.000
 RMSDP=1.17D-07 MaxDP=1.26D-06 DE=-2.78D-09 OVMax= 1.73D-06

 Cycle   7  Pass 1  IDiag  1:
 E= -40.5134869123514     Delta-E=       -0.000000000018 Rises=F Damp=F
 DIIS: error= 2.06D-08 at cycle   7 NSaved=   7.
 NSaved= 7 IEnMin= 7 EnMin= -40.5134869123514     IErMin= 7 ErrMin= 2.06D-08
 ErrMax= 2.06D-08  0.00D+00 EMaxC= 1.00D-01 BMatC= 1.14D-14 BMatP= 1.27D-11
 IDIUse=1 WtCom= 1.00D+00 WtEn= 0.00D+00
 Coeff-Com: -0.338D-06 0.358D-06-0.465D-04 0.855D-04 0.194D-02 0.185D-01
 Coeff-Com:  0.980D+00
 Coeff:     -0.338D-06 0.358D-06-0.465D-04 0.855D-04 0.194D-02 0.185D-01
 Coeff:      0.980D+00
 Gap=     0.443 Goal=   None    Shift=    0.000
 RMSDP=4.92D-09 MaxDP=7.48D-08 DE=-1.78D-11 OVMax= 5.47D-08

 Error on total polarization charges =  0.00446
 SCF Done:  E(RB3LYP) =  -40.5134869124     A.U. after    7 cycles
            NFock=  7  Conv=0.49D-08     -V/T= 2.0091
 KE= 4.014942968799D+01 PE=-1.198228595517D+02 EE= 2.579289560686D+01
 Leave Link  502 at Fri Sep 22 16:36:26 2023, MaxMem=   268435456 cpu:               4.0 elap:               2.0
 (Enter /share/apps/gaussian/g16/l601.exe)
 Copying SCF densities to generalized density rwf, IOpCl= 0 IROHF=0.

 **********************************************************************

            Population analysis using the SCF density.

 **********************************************************************

 Orbital symmetries:
       Occupied  (A) (A) (A) (A) (A)
       Virtual   (A) (A) (A) (A) (A) (A) (A) (A) (A) (A) (A) (A)
                 (A) (A) (A) (A) (A) (A) (A) (A) (A) (A) (A) (A)
                 (A) (A) (A) (A) (A)
 The electronic state is 1-A.
 Alpha  occ. eigenvalues --  -10.16244  -0.69407  -0.40156  -0.39144  -0.38574
 Alpha virt. eigenvalues --    0.05704   0.12511   0.12563   0.12673   0.37005
 Alpha virt. eigenvalues --    0.37407   0.38587   0.63411   0.63761   0.64496
 Alpha virt. eigenvalues --    0.67913   0.96301   1.28805   1.28967   1.83624
 Alpha virt. eigenvalues --    1.85359   1.86926   1.88100   1.90047   1.91326
 Alpha virt. eigenvalues --    2.37848   2.41381   2.46652   2.74965   2.76090
 Alpha virt. eigenvalues --    2.93274   3.19925   3.21124   3.21805
          Condensed to atoms (all electrons):
               1          2          3          4          5
     1  H    0.581602   0.401930  -0.023579  -0.020607  -0.022388
     2  C    0.401930   4.736398   0.402297   0.405442   0.404126
     3  H   -0.023579   0.402297   0.578748  -0.020394  -0.021596
     4  H   -0.020607   0.405442  -0.020394   0.560485  -0.018386
     5  H   -0.022388   0.404126  -0.021596  -0.018386   0.569078
 Mulliken charges:
               1
     1  H    0.083043
     2  C   -0.350193
     3  H    0.084524
     4  H    0.093461
     5  H    0.089166
 Sum of Mulliken charges =   0.00000
 Mulliken charges with hydrogens summed into heavy atoms:
               1
     2  C    0.000000
 Electronic spatial extent (au):  <R**2>=             35.9844
 Charge=              0.0000 electrons
 Dipole moment (field-independent basis, Debye):
    X=              0.0320    Y=             -0.0380    Z=              0.0158  Tot=              0.0521
 Quadrupole moment (field-independent basis, Debye-Ang):
   XX=             -8.2785   YY=             -8.4790   ZZ=             -8.5930
   XY=             -0.0005   XZ=             -0.0020   YZ=             -0.0039
 Traceless Quadrupole moment (field-independent basis, Debye-Ang):
   XX=              0.1717   YY=             -0.0288   ZZ=             -0.1428
   XY=             -0.0005   XZ=             -0.0020   YZ=             -0.0039
 Octapole moment (field-independent basis, Debye-Ang**2):
  XXX=             -0.5441  YYY=             -0.0343  ZZZ=              0.3495  XYY=              0.3746
  XXY=              0.4412  XXZ=             -0.0717  XZZ=              0.2292  YZZ=             -0.4825
  YYZ=             -0.2418  XYZ=             -0.0404
 Hexadecapole moment (field-independent basis, Debye-Ang**3):
 XXXX=            -15.9242 YYYY=            -16.5543 ZZZZ=            -16.2543 XXXY=             -0.0977
 XXXZ=             -0.0016 YYYX=              0.2700 YYYZ=              0.1924 ZZZX=              0.1408
 ZZZY=             -0.1157 XXYY=             -5.3416 XXZZ=             -5.7548 YYZZ=             -5.2879
 XXYZ=             -0.0952 YYXZ=             -0.1505 ZZXY=             -0.1732
 N-N= 1.336704734445D+01 E-N=-1.198228593234D+02  KE= 4.014942968799D+01
 There are a total of      109428 grid points.
 ElSum from          density=        9.9999999493
 ElSum from atomic densities=        9.9999999087
 Hirshfeld populations at iteration   1 (CA, CB, DipXYZ):
               1          2          3          4          5
     1  H    0.485764   0.485764   0.032767  -0.055374   0.120057
     2  C    3.061063   3.061063  -0.006098   0.006636  -0.002224
     3  H    0.485440   0.485440   0.030105  -0.102304  -0.086037
     4  H    0.483385   0.483385  -0.138565   0.034451  -0.004601
     5  H    0.484348   0.484348   0.094826   0.101359  -0.020853
       Tot   5.000000   5.000000   0.013035  -0.015233   0.006342

 Dip from Atomic Chgs             -0.000459   0.000277  -0.000133
         Total Dipole              0.012576  -0.014956   0.006209

 Hirshfeld charges, spin densities, dipoles, and CM5 charges using IRadAn=      5:
              Q-H        S-H        Dx         Dy         Dz        Q-CM5   
     1  H    0.028473   0.000000   0.032767  -0.055374   0.120057   0.075117
     2  C   -0.122127   0.000000  -0.006098   0.006636  -0.002224  -0.310637
     3  H    0.029121   0.000000   0.030105  -0.102304  -0.086037   0.075776
     4  H    0.033229   0.000000  -0.138565   0.034451  -0.004601   0.081100
     5  H    0.031304   0.000000   0.094826   0.101359  -0.020853   0.078645
       Tot   0.000000   0.000000   0.013035  -0.015233   0.006342   0.000000
 Hirshfeld charges with hydrogens summed into heavy atoms:
              Q-H       Q-CM5   
     2  C    0.000000   0.000000
 
 EQQ= 0.000000000000E+00 EQD= 0.000000000000E+00 EDD=-0.100898158547E-02
 EQQ+QD+DD=-0.100898158547E-02
 
 No NMR shielding tensors so no spin-rotation constants.
 Leave Link  601 at Fri Sep 22 16:36:26 2023, MaxMem=   268435456 cpu:               0.5 elap:               0.3
 (Enter /share/apps/gaussian/g16/l9999.exe)
 1\1\GINC-NODE99\SP\RB3LYP\Gen\C1H4\YANZ\22-Sep-2023\0\\#p b3lyp/gen sc
 rf=(cpcm,solvent=toluene) pop=hirshfeld empiricaldispersion=gd3bj\\tmp
 dir/M2_conf_0_365.gjf\\0,1\H,0,0.,0.,0.\C,0,1.0997,0.,0.\H,0,1.39596,0
 .,1.05894\H,0,1.47562,-0.88904,-0.50463\H,0,1.43077,0.93809,-0.4545\\V
 ersion=ES64L-G16RevA.03\State=1-A\HF=-40.5134869\RMSD=4.922e-09\Dipole
 =-0.0140001,0.0064762,0.013507\Quadrupole=-0.0816453,0.1104884,-0.0288
 43,-0.0339803,-0.0427253,0.0345422\PG=C01 [X(C1H4)]\\@


 ON INDUCTION, OR "WHY DO YOU BELIEVE THE SUN WILL RISE TOMORROW?":

 ... THE FARMER WHO HAS FED THE CHICKEN EVERY DAY THROUGHOUT ITS
 LIFE AT LAST WRINGS ITS NECK INSTEAD, SHOWING THAT MORE REFINED VIEWS
 AS TO THE UNIFORMITY OF NATURE WOULD HAVE BEEN USEFUL TO THE CHICKEN.

                               -- BERTRAND RUSSELL
 Job cpu time:       0 days  0 hours  0 minutes  6.1 seconds.
 Elapsed time:       0 days  0 hours  0 minutes  3.2 seconds.
 File lengths (MBytes):  RWF=      6 Int=      0 D2E=      0 Chk=      1 Scr=      1
 Normal termination of Gaussian 16 at Fri Sep 22 16:36:27 2023.
