 Entering Gaussian System, Link 0=g16
 Initial command:
 /share/apps/gaussian/g16/l1.exe "/tmp/55556.mgr/Gau-84109.inp" -scrdir="/tmp/55556.mgr/"
 Entering Link 1 = /share/apps/gaussian/g16/l1.exe PID=     84110.
  
 Copyright (c) 1988,1990,1992,1993,1995,1998,2003,2009,2016,
            Gaussian, Inc.  All Rights Reserved.
  
 This is part of the Gaussian(R) 16 program.  It is based on
 the Gaussian(R) 09 system (copyright 2009, Gaussian, Inc.),
 the Gaussian(R) 03 system (copyright 2003, Gaussian, Inc.),
 the Gaussian(R) 98 system (copyright 1998, Gaussian, Inc.),
 the Gaussian(R) 94 system (copyright 1995, Gaussian, Inc.),
 the Gaussian 92(TM) system (copyright 1992, Gaussian, Inc.),
 the Gaussian 90(TM) system (copyright 1990, Gaussian, Inc.),
 the Gaussian 88(TM) system (copyright 1988, Gaussian, Inc.),
 the Gaussian 86(TM) system (copyright 1986, Carnegie Mellon
 University), and the Gaussian 82(TM) system (copyright 1983,
 Carnegie Mellon University). Gaussian is a federally registered
 trademark of Gaussian, Inc.
  
 This software contains proprietary and confidential information,
 including trade secrets, belonging to Gaussian, Inc.
  
 This software is provided under written license and may be
 used, copied, transmitted, or stored only in accord with that
 written license.
  
 The following legend is applicable only to US Government
 contracts under FAR:
  
                    RESTRICTED RIGHTS LEGEND
  
 Use, reproduction and disclosure by the US Government is
 subject to restrictions as set forth in subparagraphs (a)
 and (c) of the Commercial Computer Software - Restricted
 Rights clause in FAR 52.227-19.
  
 Gaussian, Inc.
 340 Quinnipiac St., Bldg. 40, Wallingford CT 06492
  
  
 ---------------------------------------------------------------
 Warning -- This program may not be used in any manner that
 competes with the business of Gaussian, Inc. or will provide
 assistance to any competitor of Gaussian, Inc.  The licensee
 of this program is prohibited from giving any competitor of
 Gaussian, Inc. access to this program.  By using this program,
 the user acknowledges that Gaussian, Inc. is engaged in the
 business of creating and licensing software in the field of
 computational chemistry and represents and warrants to the
 licensee that it is not a competitor of Gaussian, Inc. and that
 it will not use this program in any manner prohibited above.
 ---------------------------------------------------------------
  

 Cite this work as:
 Gaussian 16, Revision A.03,
 M. J. Frisch, G. W. Trucks, H. B. Schlegel, G. E. Scuseria, 
 M. A. Robb, J. R. Cheeseman, G. Scalmani, V. Barone, 
 G. A. Petersson, H. Nakatsuji, X. Li, M. Caricato, A. V. Marenich, 
 J. Bloino, B. G. Janesko, R. Gomperts, B. Mennucci, H. P. Hratchian, 
 J. V. Ortiz, A. F. Izmaylov, J. L. Sonnenberg, D. Williams-Young, 
 F. Ding, F. Lipparini, F. Egidi, J. Goings, B. Peng, A. Petrone, 
 T. Henderson, D. Ranasinghe, V. G. Zakrzewski, J. Gao, N. Rega, 
 G. Zheng, W. Liang, M. Hada, M. Ehara, K. Toyota, R. Fukuda, 
 J. Hasegawa, M. Ishida, T. Nakajima, Y. Honda, O. Kitao, H. Nakai, 
 T. Vreven, K. Throssell, J. A. Montgomery, Jr., J. E. Peralta, 
 F. Ogliaro, M. J. Bearpark, J. J. Heyd, E. N. Brothers, K. N. Kudin, 
 V. N. Staroverov, T. A. Keith, R. Kobayashi, J. Normand, 
 K. Raghavachari, A. P. Rendell, J. C. Burant, S. S. Iyengar, 
 J. Tomasi, M. Cossi, J. M. Millam, M. Klene, C. Adamo, R. Cammi, 
 J. W. Ochterski, R. L. Martin, K. Morokuma, O. Farkas, 
 J. B. Foresman, and D. J. Fox, Gaussian, Inc., Wallingford CT, 2016.
 
 ******************************************
 Gaussian 16:  ES64L-G16RevA.03 25-Dec-2016
                22-Sep-2023 
 ******************************************
 %nprocshared=2
 Will use up to    2 processors via shared memory.
 %mem=2GB
 ----------------------------------------------------------------------
 #p b3lyp/gen scrf=(cpcm,solvent=toluene) pop=hirshfeld empiricaldisper
 sion=gd3bj
 ----------------------------------------------------------------------
 1/38=1,172=1/1;
 2/12=2,17=6,18=5,40=1/2;
 3/5=7,11=2,25=1,30=1,70=2101,72=13,74=-5,124=41/1,2,3;
 4//1;
 5/5=2,38=5,53=13/2;
 6/7=2,8=2,9=2,10=2,28=1,79=1/1;
 99/5=1,9=1/99;
 Leave Link    1 at Fri Sep 22 16:33:06 2023, MaxMem=   268435456 cpu:               0.1 elap:               0.0
 (Enter /share/apps/gaussian/g16/l101.exe)
 -----------------------
 tmpdir/M2_conf_0_68.gjf
 -----------------------
 Symbolic Z-matrix:
 Charge =  0 Multiplicity = 1
 C                     0.        0.        0. 
 H                     1.0969    0.        0. 
 H                    -0.33955   0.       -1.0633 
 H                    -0.40458   0.83326   0.60141 
 H                    -0.3089   -0.95114   0.4596 
 
 ITRead=  0  0  0  0  0
 MicOpt= -1 -1 -1 -1 -1
 NAtoms=      5 NQM=        5 NQMF=       0 NMMI=      0 NMMIF=      0
                NMic=       0 NMicF=      0.
                    Isotopes and Nuclear Properties:
 (Nuclear quadrupole moments (NQMom) in fm**2, nuclear magnetic moments (NMagM)
  in nuclear magnetons)

  Atom         1           2           3           4           5
 IAtWgt=          12           1           1           1           1
 AtmWgt=  12.0000000   1.0078250   1.0078250   1.0078250   1.0078250
 NucSpn=           0           1           1           1           1
 AtZEff=  -0.0000000  -0.0000000  -0.0000000  -0.0000000  -0.0000000
 NQMom=    0.0000000   0.0000000   0.0000000   0.0000000   0.0000000
 NMagM=    0.0000000   2.7928460   2.7928460   2.7928460   2.7928460
 AtZNuc=   6.0000000   1.0000000   1.0000000   1.0000000   1.0000000
 Leave Link  101 at Fri Sep 22 16:33:06 2023, MaxMem=   268435456 cpu:               0.2 elap:               0.1
 (Enter /share/apps/gaussian/g16/l202.exe)
                          Input orientation:                          
 ---------------------------------------------------------------------
 Center     Atomic      Atomic             Coordinates (Angstroms)
 Number     Number       Type             X           Y           Z
 ---------------------------------------------------------------------
      1          6           0        0.000000    0.000000    0.000000
      2          1           0        1.096900    0.000000    0.000000
      3          1           0       -0.339550    0.000000   -1.063300
      4          1           0       -0.404580    0.833260    0.601410
      5          1           0       -0.308900   -0.951140    0.459600
 ---------------------------------------------------------------------
                    Distance matrix (angstroms):
                    1          2          3          4          5
     1  C    0.000000
     2  H    1.096900   0.000000
     3  H    1.116199   1.787175   0.000000
     4  H    1.104401   1.819467   1.862743   0.000000
     5  H    1.100599   1.758458   1.795781   1.792581   0.000000
 Stoichiometry    CH4
 Framework group  C1[X(CH4)]
 Deg. of freedom     9
 Full point group                 C1      NOp   1
 Largest Abelian subgroup         C1      NOp   1
 Largest concise Abelian subgroup C1      NOp   1
                         Standard orientation:                         
 ---------------------------------------------------------------------
 Center     Atomic      Atomic             Coordinates (Angstroms)
 Number     Number       Type             X           Y           Z
 ---------------------------------------------------------------------
      1          6           0       -0.006534   -0.009400   -0.005217
      2          1           0        0.257711    0.739063   -0.762296
      3          1           0        0.827205   -0.749792    0.045778
      4          1           0       -0.995024   -0.458314   -0.207857
      5          1           0       -0.050690    0.525440    0.955676
 ---------------------------------------------------------------------
 Rotational constants (GHZ):         159.9346760         152.7096145         150.1749176
 Leave Link  202 at Fri Sep 22 16:33:06 2023, MaxMem=   268435456 cpu:               0.0 elap:               0.0
 (Enter /share/apps/gaussian/g16/l301.exe)
 General basis read from cards:  (5D, 7F)
 Centers:       2      3      4      5
 S 3 1.00
     Exponent=  1.2251800000D+01 Coefficients=  2.3337100000D-02
     Exponent=  1.8687100000D+00 Coefficients=  1.5915000000D-01
     Exponent=  4.1820800000D-01 Coefficients=  5.0000000000D-01
 S 1 1.00
     Exponent=  1.0610000000D-01 Coefficients=  1.0000000000D+00
 P 1 1.00
     Exponent=  1.0000000000D+00 Coefficients=  1.0000000000D+00
 ****
 Centers:       1
 S 5 1.00
     Exponent=  1.2432000000D+03 Coefficients=  6.0336600000D-03
     Exponent=  1.8714500000D+02 Coefficients=  4.4957600000D-02
     Exponent=  4.2512600000D+01 Coefficients=  1.9790100000D-01
     Exponent=  1.1739300000D+01 Coefficients=  5.0000000000D-01
     Exponent=  3.5054800000D+00 Coefficients=  4.8036400000D-01
 S 2 1.00
     Exponent=  5.3908900000D+00 Coefficients= -7.0398000000D-02
     Exponent=  4.9334100000D-01 Coefficients=  5.0000000000D-01
 S 1 1.00
     Exponent=  1.4974100000D-01 Coefficients=  1.0000000000D+00
 P 3 1.00
     Exponent=  9.1805600000D+00 Coefficients=  4.3170100000D-02
     Exponent=  1.9365800000D+00 Coefficients=  2.2499900000D-01
     Exponent=  5.2629600000D-01 Coefficients=  5.0000000000D-01
 P 1 1.00
     Exponent=  1.3631900000D-01 Coefficients=  1.0000000000D+00
 D 1 1.00
     Exponent=  8.0000000000D-01 Coefficients=  1.0000000000D+00
 ****
 Ernie: Thresh=  0.10000D-02 Tol=  0.10000D-05 Strict=F.
 There are    35 symmetry adapted cartesian basis functions of A   symmetry.
 There are    34 symmetry adapted basis functions of A   symmetry.
    34 basis functions,    54 primitive gaussians,    35 cartesian basis functions
     5 alpha electrons        5 beta electrons
       nuclear repulsion energy        13.2607165183 Hartrees.
 IExCor=  402 DFT=T Ex+Corr=B3LYP ExCW=0 ScaHFX=  0.200000
 ScaDFX=  0.800000  0.720000  1.000000  0.810000 ScalE2=  1.000000  1.000000
 IRadAn=      5 IRanWt=     -1 IRanGd=            0 ICorTp=0 IEmpDi=141
 NAtoms=    5 NActive=    5 NUniq=    5 SFac= 1.00D+00 NAtFMM=   60 NAOKFM=F Big=F
 Integral buffers will be    131072 words long.
 Raffenetti 2 integral format.
 Two-electron integral symmetry is turned on.
 R6Disp:  Grimme-D3(BJ) Dispersion energy=       -0.0019123030 Hartrees.
 Nuclear repulsion after empirical dispersion term =       13.2588042153 Hartrees.
 ------------------------------------------------------------------------------
 Polarizable Continuum Model (PCM)
 =================================
 Model                : C-PCM.
 Atomic radii         : UFF (Universal Force Field).
 Polarization charges : Total charges.
 Charge compensation  : None.
 Solution method      : On-the-fly selection.
 Cavity type          : Scaled VdW (van der Waals Surface) (Alpha=1.100).
 Cavity algorithm     : GePol (No added spheres)
                        Default sphere list used, NSphG=    5.
                        Lebedev-Laikov grids with approx.  5.0 points / Ang**2.
                        Smoothing algorithm: York/Karplus (Gamma=1.0000).
                        Polarization charges: spherical gaussians, with
                                              point-specific exponents (IZeta= 3).
                        Self-potential: point-specific (ISelfS= 7).
                        Self-field    : sphere-specific E.n sum rule (ISelfD= 2).
 Solvent              : Toluene, Eps=   2.374100 Eps(inf)=   2.238315
 ------------------------------------------------------------------------------
 Spheres list:
 ISph  on   Nord     Re0    Alpha      Xe            Ye            Ze
    1   C      1    1.9255  1.100     -0.006534     -0.009400     -0.005217
    2   H      2    1.4430  1.100      0.257711      0.739063     -0.762296
    3   H      3    1.4430  1.100      0.827205     -0.749792      0.045778
    4   H      4    1.4430  1.100     -0.995024     -0.458314     -0.207857
    5   H      5    1.4430  1.100     -0.050690      0.525440      0.955676
 ------------------------------------------------------------------------------
 GePol: Number of generator spheres                  =       5
 GePol: Total number of spheres                      =       5
 GePol: Number of exposed spheres                    =       5 (100.00%)
 GePol: Number of points                             =     497
 GePol: Average weight of points                     =       0.14
 GePol: Minimum weight of points                     =   0.99D-07
 GePol: Maximum weight of points                     =    0.20577
 GePol: Number of points with low weight             =      19
 GePol: Fraction of low-weight points (<1% of avg)   =       3.82%
 GePol: Cavity surface area                          =     70.122 Ang**2
 GePol: Cavity volume                                =     51.764 Ang**3
 Leave Link  301 at Fri Sep 22 16:33:06 2023, MaxMem=   268435456 cpu:               0.2 elap:               0.1
 (Enter /share/apps/gaussian/g16/l302.exe)
 NPDir=0 NMtPBC=     1 NCelOv=     1 NCel=       1 NClECP=     1 NCelD=      1
         NCelK=      1 NCelE2=     1 NClLst=     1 CellRange=     0.0.
 One-electron integrals computed using PRISM.
 One-electron integral symmetry used in STVInt
 NBasis=    34 RedAO= T EigKep=  2.86D-02  NBF=    34
 NBsUse=    34 1.00D-06 EigRej= -1.00D+00 NBFU=    34
 Precomputing XC quadrature grid using
 IXCGrd= 4 IRadAn=           5 IRanWt=          -1 IRanGd=           0 AccXCQ= 0.00D+00.
 Generated NRdTot=       0 NPtTot=           0 NUsed=           0 NTot=          32
 NSgBfM=    35    35    35    35    35 MxSgAt=     5 MxSgA2=     5.
 Leave Link  302 at Fri Sep 22 16:33:06 2023, MaxMem=   268435456 cpu:               0.2 elap:               0.1
 (Enter /share/apps/gaussian/g16/l303.exe)
 DipDrv:  MaxL=1.
 Leave Link  303 at Fri Sep 22 16:33:06 2023, MaxMem=   268435456 cpu:               0.1 elap:               0.0
 (Enter /share/apps/gaussian/g16/l401.exe)
 ExpMin= 1.06D-01 ExpMax= 1.24D+03 ExpMxC= 1.87D+02 IAcc=3 IRadAn=         5 AccDes= 0.00D+00
 Harris functional with IExCor=  402 and IRadAn=       5 diagonalized for initial guess.
 HarFok:  IExCor=  402 AccDes= 0.00D+00 IRadAn=         5 IDoV= 1 UseB2=F ITyADJ=14
 ICtDFT=  3500011 ScaDFX=  1.000000  1.000000  1.000000  1.000000
 FoFCou: FMM=F IPFlag=           0 FMFlag=      100000 FMFlg1=           0
         NFxFlg=           0 DoJE=T BraDBF=F KetDBF=T FulRan=T
         wScrn=  0.000000 ICntrl=       500 IOpCl=  0 I1Cent=   200000004 NGrid=           0
         NMat0=    1 NMatS0=      1 NMatT0=    0 NMatD0=    1 NMtDS0=    0 NMtDT0=    0
 Petite list used in FoFCou.
 Harris En= -40.5487533885470    
 JPrj=0 DoOrth=F DoCkMO=F.
 Leave Link  401 at Fri Sep 22 16:33:07 2023, MaxMem=   268435456 cpu:               0.6 elap:               0.3
 (Enter /share/apps/gaussian/g16/l502.exe)
 Keep R1 ints in memory in canonical form, NReq=1903191.
 FoFCou: FMM=F IPFlag=           0 FMFlag=           0 FMFlg1=           0
         NFxFlg=           0 DoJE=F BraDBF=F KetDBF=F FulRan=T
         wScrn=  0.000000 ICntrl=       600 IOpCl=  0 I1Cent=           0 NGrid=           0
         NMat0=    1 NMatS0=    595 NMatT0=    0 NMatD0=    1 NMtDS0=    0 NMtDT0=    0
 Symmetry not used in FoFCou.
 Two-electron integral symmetry not used.
 Closed shell SCF:
 Using DIIS extrapolation, IDIIS=  1040.
 NGot=   268435456 LenX=   268254897 LenY=   268253231
 Requested convergence on RMS density matrix=1.00D-08 within 128 cycles.
 Requested convergence on MAX density matrix=1.00D-06.
 Requested convergence on             energy=1.00D-06.
 No special actions if energy rises.

 Cycle   1  Pass 1  IDiag  1:
 Inv3:  Mode=1 IEnd=      741027.
 Iteration    1 A*A^-1 deviation from unit magnitude is 3.00D-15 for    496.
 Iteration    1 A*A^-1 deviation from orthogonality  is 1.08D-15 for    415    295.
 Iteration    1 A^-1*A deviation from unit magnitude is 3.00D-15 for    496.
 Iteration    1 A^-1*A deviation from orthogonality  is 9.61D-16 for    338      3.
 E= -40.4278786515880    
 DIIS: error= 4.63D-02 at cycle   1 NSaved=   1.
 NSaved= 1 IEnMin= 1 EnMin= -40.4278786515880     IErMin= 1 ErrMin= 4.63D-02
 ErrMax= 4.63D-02  0.00D+00 EMaxC= 1.00D-01 BMatC= 7.57D-02 BMatP= 7.57D-02
 IDIUse=3 WtCom= 5.37D-01 WtEn= 4.63D-01
 Coeff-Com:  0.100D+01
 Coeff-En:   0.100D+01
 Coeff:      0.100D+01
 Gap=     0.358 Goal=   None    Shift=    0.000
 GapD=    0.358 DampG=1.000 DampE=0.500 DampFc=0.5000 IDamp=-1.
 Damping current iteration by 5.00D-01
 RMSDP=1.45D-02 MaxDP=1.48D-01              OVMax= 1.97D-01

 Cycle   2  Pass 1  IDiag  1:
 E= -40.4661601767319     Delta-E=       -0.038281525144 Rises=F Damp=T
 DIIS: error= 8.13D-03 at cycle   2 NSaved=   2.
 NSaved= 2 IEnMin= 2 EnMin= -40.4661601767319     IErMin= 2 ErrMin= 8.13D-03
 ErrMax= 8.13D-03  0.00D+00 EMaxC= 1.00D-01 BMatC= 1.31D-03 BMatP= 7.57D-02
 IDIUse=3 WtCom= 9.19D-01 WtEn= 8.13D-02
 Coeff-Com:  0.869D-01 0.913D+00
 Coeff-En:   0.142D+00 0.858D+00
 Coeff:      0.914D-01 0.909D+00
 Gap=     0.434 Goal=   None    Shift=    0.000
 RMSDP=1.35D-03 MaxDP=1.14D-02 DE=-3.83D-02 OVMax= 1.04D-01

 Cycle   3  Pass 1  IDiag  1:
 E= -40.5131373673390     Delta-E=       -0.046977190607 Rises=F Damp=F
 DIIS: error= 5.61D-04 at cycle   3 NSaved=   3.
 NSaved= 3 IEnMin= 3 EnMin= -40.5131373673390     IErMin= 3 ErrMin= 5.61D-04
 ErrMax= 5.61D-04  0.00D+00 EMaxC= 1.00D-01 BMatC= 1.12D-05 BMatP= 1.31D-03
 IDIUse=3 WtCom= 9.94D-01 WtEn= 5.61D-03
 Coeff-Com:  0.691D-02-0.449D-01 0.104D+01
 Coeff-En:   0.000D+00 0.000D+00 0.100D+01
 Coeff:      0.687D-02-0.446D-01 0.104D+01
 Gap=     0.442 Goal=   None    Shift=    0.000
 RMSDP=8.73D-05 MaxDP=8.50D-04 DE=-4.70D-02 OVMax= 1.13D-03

 Cycle   4  Pass 1  IDiag  1:
 E= -40.5131473916956     Delta-E=       -0.000010024357 Rises=F Damp=F
 DIIS: error= 1.12D-04 at cycle   4 NSaved=   4.
 NSaved= 4 IEnMin= 4 EnMin= -40.5131473916956     IErMin= 4 ErrMin= 1.12D-04
 ErrMax= 1.12D-04  0.00D+00 EMaxC= 1.00D-01 BMatC= 2.33D-07 BMatP= 1.12D-05
 IDIUse=3 WtCom= 9.99D-01 WtEn= 1.12D-03
 Coeff-Com:  0.207D-02-0.123D-01 0.255D+00 0.755D+00
 Coeff-En:   0.000D+00 0.000D+00 0.000D+00 0.100D+01
 Coeff:      0.207D-02-0.122D-01 0.255D+00 0.755D+00
 Gap=     0.442 Goal=   None    Shift=    0.000
 RMSDP=1.34D-05 MaxDP=1.26D-04 DE=-1.00D-05 OVMax= 1.92D-04

 Cycle   5  Pass 1  IDiag  1:
 E= -40.5131476471563     Delta-E=       -0.000000255461 Rises=F Damp=F
 DIIS: error= 8.85D-06 at cycle   5 NSaved=   5.
 NSaved= 5 IEnMin= 5 EnMin= -40.5131476471563     IErMin= 5 ErrMin= 8.85D-06
 ErrMax= 8.85D-06  0.00D+00 EMaxC= 1.00D-01 BMatC= 2.04D-09 BMatP= 2.33D-07
 IDIUse=1 WtCom= 1.00D+00 WtEn= 0.00D+00
 Coeff-Com:  0.181D-03 0.989D-04 0.256D-02 0.565D-01 0.941D+00
 Coeff:      0.181D-03 0.989D-04 0.256D-02 0.565D-01 0.941D+00
 Gap=     0.442 Goal=   None    Shift=    0.000
 RMSDP=1.61D-06 MaxDP=1.52D-05 DE=-2.55D-07 OVMax= 2.11D-05

 Cycle   6  Pass 1  IDiag  1:
 E= -40.5131476497364     Delta-E=       -0.000000002580 Rises=F Damp=F
 DIIS: error= 7.76D-07 at cycle   6 NSaved=   6.
 NSaved= 6 IEnMin= 6 EnMin= -40.5131476497364     IErMin= 6 ErrMin= 7.76D-07
 ErrMax= 7.76D-07  0.00D+00 EMaxC= 1.00D-01 BMatC= 1.20D-11 BMatP= 2.04D-09
 IDIUse=1 WtCom= 1.00D+00 WtEn= 0.00D+00
 Coeff-Com: -0.105D-04 0.502D-04-0.125D-02-0.179D-02 0.689D-01 0.934D+00
 Coeff:     -0.105D-04 0.502D-04-0.125D-02-0.179D-02 0.689D-01 0.934D+00
 Gap=     0.442 Goal=   None    Shift=    0.000
 RMSDP=1.23D-07 MaxDP=1.33D-06 DE=-2.58D-09 OVMax= 1.58D-06

 Cycle   7  Pass 1  IDiag  1:
 E= -40.5131476497537     Delta-E=       -0.000000000017 Rises=F Damp=F
 DIIS: error= 1.95D-08 at cycle   7 NSaved=   7.
 NSaved= 7 IEnMin= 7 EnMin= -40.5131476497537     IErMin= 7 ErrMin= 1.95D-08
 ErrMax= 1.95D-08  0.00D+00 EMaxC= 1.00D-01 BMatC= 1.45D-14 BMatP= 1.20D-11
 IDIUse=1 WtCom= 1.00D+00 WtEn= 0.00D+00
 Coeff-Com: -0.546D-06 0.769D-06-0.655D-04 0.742D-05 0.331D-02 0.382D-01
 Coeff-Com:  0.959D+00
 Coeff:     -0.546D-06 0.769D-06-0.655D-04 0.742D-05 0.331D-02 0.382D-01
 Coeff:      0.959D+00
 Gap=     0.442 Goal=   None    Shift=    0.000
 RMSDP=5.40D-09 MaxDP=8.50D-08 DE=-1.73D-11 OVMax= 6.65D-08

 Error on total polarization charges =  0.00451
 SCF Done:  E(RB3LYP) =  -40.5131476498     A.U. after    7 cycles
            NFock=  7  Conv=0.54D-08     -V/T= 2.0102
 KE= 4.010479626729D+01 PE=-1.195753748385D+02 EE= 2.569862670614D+01
 Leave Link  502 at Fri Sep 22 16:33:09 2023, MaxMem=   268435456 cpu:               3.9 elap:               2.0
 (Enter /share/apps/gaussian/g16/l601.exe)
 Copying SCF densities to generalized density rwf, IOpCl= 0 IROHF=0.

 **********************************************************************

            Population analysis using the SCF density.

 **********************************************************************

 Orbital symmetries:
       Occupied  (A) (A) (A) (A) (A)
       Virtual   (A) (A) (A) (A) (A) (A) (A) (A) (A) (A) (A) (A)
                 (A) (A) (A) (A) (A) (A) (A) (A) (A) (A) (A) (A)
                 (A) (A) (A) (A) (A)
 The electronic state is 1-A.
 Alpha  occ. eigenvalues --  -10.16597  -0.69148  -0.39923  -0.38838  -0.38669
 Alpha virt. eigenvalues --    0.05558   0.12278   0.12419   0.12545   0.36987
 Alpha virt. eigenvalues --    0.37248   0.38829   0.62807   0.63347   0.63705
 Alpha virt. eigenvalues --    0.66987   0.96083   1.28676   1.29369   1.82350
 Alpha virt. eigenvalues --    1.84861   1.86706   1.87825   1.88566   1.90975
 Alpha virt. eigenvalues --    2.36336   2.40192   2.45143   2.72782   2.74578
 Alpha virt. eigenvalues --    2.90598   3.16222   3.20009   3.21134
          Condensed to atoms (all electrons):
               1          2          3          4          5
     1  C    4.752744   0.402450   0.400224   0.402597   0.401418
     2  H    0.402450   0.576858  -0.022829  -0.019714  -0.023093
     3  H    0.400224  -0.022829   0.569570  -0.017842  -0.021725
     4  H    0.402597  -0.019714  -0.017842   0.561058  -0.022183
     5  H    0.401418  -0.023093  -0.021725  -0.022183   0.581165
 Mulliken charges:
               1
     1  C   -0.359433
     2  H    0.086329
     3  H    0.092602
     4  H    0.096084
     5  H    0.084419
 Sum of Mulliken charges =   0.00000
 Mulliken charges with hydrogens summed into heavy atoms:
               1
     1  C    0.000000
 Electronic spatial extent (au):  <R**2>=             36.3278
 Charge=              0.0000 electrons
 Dipole moment (field-independent basis, Debye):
    X=              0.0184    Y=              0.0555    Z=              0.0198  Tot=              0.0617
 Quadrupole moment (field-independent basis, Debye-Ang):
   XX=             -8.2870   YY=             -8.5284   ZZ=             -8.6142
   XY=              0.0248   XZ=              0.0032   YZ=             -0.0060
 Traceless Quadrupole moment (field-independent basis, Debye-Ang):
   XX=              0.1896   YY=             -0.0519   ZZ=             -0.1377
   XY=              0.0248   XZ=              0.0032   YZ=             -0.0060
 Octapole moment (field-independent basis, Debye-Ang**2):
  XXX=             -0.2798  YYY=              0.1802  ZZZ=              0.2786  XYY=              0.2531
  XXY=             -0.5804  XXZ=             -0.1392  XZZ=              0.0504  YZZ=              0.5781
  YYZ=             -0.0944  XYZ=             -0.1905
 Hexadecapole moment (field-independent basis, Debye-Ang**3):
 XXXX=            -16.4536 YYYY=            -16.9698 ZZZZ=            -16.3477 XXXY=              0.0941
 XXXZ=              0.2413 YYYX=             -0.1079 YYYZ=             -0.1976 ZZZX=             -0.1585
 ZZZY=              0.1379 XXYY=             -5.2866 XXZZ=             -5.8574 YYZZ=             -5.2660
 XXYZ=              0.0287 YYXZ=             -0.0627 ZZXY=              0.1339
 N-N= 1.325880421528D+01 E-N=-1.195753746545D+02  KE= 4.010479626729D+01
 There are a total of      109428 grid points.
 ElSum from          density=        9.9999999226
 ElSum from atomic densities=        9.9999998447
 Hirshfeld populations at iteration   1 (CA, CB, DipXYZ):
               1          2          3          4          5
     1  C    3.060480   3.060480  -0.004495  -0.004416  -0.002960
     2  H    0.485646   0.485646   0.037358   0.097523  -0.091085
     3  H    0.484303   0.484303   0.109422  -0.085262   0.007386
     4  H    0.483432   0.483432  -0.130191  -0.052448  -0.022723
     5  H    0.486139   0.486139  -0.004447   0.069865   0.117551
       Tot   5.000000   5.000000   0.007646   0.025262   0.008170

 Dip from Atomic Chgs             -0.000414  -0.003412  -0.000394
         Total Dipole              0.007232   0.021850   0.007776

 Hirshfeld charges, spin densities, dipoles, and CM5 charges using IRadAn=      5:
              Q-H        S-H        Dx         Dy         Dz        Q-CM5   
     1  C   -0.120960   0.000000  -0.004495  -0.004416  -0.002960  -0.305351
     2  H    0.028707   0.000000   0.037358   0.097523  -0.091085   0.075675
     3  H    0.031394   0.000000   0.109422  -0.085262   0.007386   0.076172
     4  H    0.033136   0.000000  -0.130191  -0.052448  -0.022723   0.079241
     5  H    0.027723   0.000000  -0.004447   0.069865   0.117551   0.074263
       Tot   0.000000   0.000000   0.007646   0.025262   0.008170   0.000000
 Hirshfeld charges with hydrogens summed into heavy atoms:
              Q-H       Q-CM5   
     1  C    0.000000   0.000000
 
 EQQ= 0.000000000000E+00 EQD= 0.000000000000E+00 EDD=-0.976147893187E-03
 EQQ+QD+DD=-0.976147893187E-03
 
 No NMR shielding tensors so no spin-rotation constants.
 Leave Link  601 at Fri Sep 22 16:33:09 2023, MaxMem=   268435456 cpu:               0.5 elap:               0.3
 (Enter /share/apps/gaussian/g16/l9999.exe)
 1\1\GINC-NODE99\SP\RB3LYP\Gen\C1H4\YANZ\22-Sep-2023\0\\#p b3lyp/gen sc
 rf=(cpcm,solvent=toluene) pop=hirshfeld empiricaldispersion=gd3bj\\tmp
 dir/M2_conf_0_68.gjf\\0,1\C,0,0.,0.,0.\H,0,1.0969,0.,0.\H,0,-0.33955,0
 .,-1.0633\H,0,-0.40458,0.83326,0.60141\H,0,-0.3089,-0.95114,0.4596\\Ve
 rsion=ES64L-G16RevA.03\State=1-A\HF=-40.5131476\RMSD=5.402e-09\Dipole=
 0.0112849,-0.0207809,0.0055665\Quadrupole=-0.0490655,-0.0269088,0.0759
 742,-0.0576097,-0.0358945,0.0849611\PG=C01 [X(C1H4)]\\@


 Any fool can criticize, condemn, and complain -- and most do.
 -- Dale Carnegie
 Job cpu time:       0 days  0 hours  0 minutes  5.8 seconds.
 Elapsed time:       0 days  0 hours  0 minutes  3.0 seconds.
 File lengths (MBytes):  RWF=      6 Int=      0 D2E=      0 Chk=      1 Scr=      1
 Normal termination of Gaussian 16 at Fri Sep 22 16:33:09 2023.
