 Entering Gaussian System, Link 0=g16
 Initial command:
 /share/apps/gaussian/g16/l1.exe "/tmp/55556.mgr/Gau-86524.inp" -scrdir="/tmp/55556.mgr/"
 Entering Link 1 = /share/apps/gaussian/g16/l1.exe PID=     86525.
  
 Copyright (c) 1988,1990,1992,1993,1995,1998,2003,2009,2016,
            Gaussian, Inc.  All Rights Reserved.
  
 This is part of the Gaussian(R) 16 program.  It is based on
 the Gaussian(R) 09 system (copyright 2009, Gaussian, Inc.),
 the Gaussian(R) 03 system (copyright 2003, Gaussian, Inc.),
 the Gaussian(R) 98 system (copyright 1998, Gaussian, Inc.),
 the Gaussian(R) 94 system (copyright 1995, Gaussian, Inc.),
 the Gaussian 92(TM) system (copyright 1992, Gaussian, Inc.),
 the Gaussian 90(TM) system (copyright 1990, Gaussian, Inc.),
 the Gaussian 88(TM) system (copyright 1988, Gaussian, Inc.),
 the Gaussian 86(TM) system (copyright 1986, Carnegie Mellon
 University), and the Gaussian 82(TM) system (copyright 1983,
 Carnegie Mellon University). Gaussian is a federally registered
 trademark of Gaussian, Inc.
  
 This software contains proprietary and confidential information,
 including trade secrets, belonging to Gaussian, Inc.
  
 This software is provided under written license and may be
 used, copied, transmitted, or stored only in accord with that
 written license.
  
 The following legend is applicable only to US Government
 contracts under FAR:
  
                    RESTRICTED RIGHTS LEGEND
  
 Use, reproduction and disclosure by the US Government is
 subject to restrictions as set forth in subparagraphs (a)
 and (c) of the Commercial Computer Software - Restricted
 Rights clause in FAR 52.227-19.
  
 Gaussian, Inc.
 340 Quinnipiac St., Bldg. 40, Wallingford CT 06492
  
  
 ---------------------------------------------------------------
 Warning -- This program may not be used in any manner that
 competes with the business of Gaussian, Inc. or will provide
 assistance to any competitor of Gaussian, Inc.  The licensee
 of this program is prohibited from giving any competitor of
 Gaussian, Inc. access to this program.  By using this program,
 the user acknowledges that Gaussian, Inc. is engaged in the
 business of creating and licensing software in the field of
 computational chemistry and represents and warrants to the
 licensee that it is not a competitor of Gaussian, Inc. and that
 it will not use this program in any manner prohibited above.
 ---------------------------------------------------------------
  

 Cite this work as:
 Gaussian 16, Revision A.03,
 M. J. Frisch, G. W. Trucks, H. B. Schlegel, G. E. Scuseria, 
 M. A. Robb, J. R. Cheeseman, G. Scalmani, V. Barone, 
 G. A. Petersson, H. Nakatsuji, X. Li, M. Caricato, A. V. Marenich, 
 J. Bloino, B. G. Janesko, R. Gomperts, B. Mennucci, H. P. Hratchian, 
 J. V. Ortiz, A. F. Izmaylov, J. L. Sonnenberg, D. Williams-Young, 
 F. Ding, F. Lipparini, F. Egidi, J. Goings, B. Peng, A. Petrone, 
 T. Henderson, D. Ranasinghe, V. G. Zakrzewski, J. Gao, N. Rega, 
 G. Zheng, W. Liang, M. Hada, M. Ehara, K. Toyota, R. Fukuda, 
 J. Hasegawa, M. Ishida, T. Nakajima, Y. Honda, O. Kitao, H. Nakai, 
 T. Vreven, K. Throssell, J. A. Montgomery, Jr., J. E. Peralta, 
 F. Ogliaro, M. J. Bearpark, J. J. Heyd, E. N. Brothers, K. N. Kudin, 
 V. N. Staroverov, T. A. Keith, R. Kobayashi, J. Normand, 
 K. Raghavachari, A. P. Rendell, J. C. Burant, S. S. Iyengar, 
 J. Tomasi, M. Cossi, J. M. Millam, M. Klene, C. Adamo, R. Cammi, 
 J. W. Ochterski, R. L. Martin, K. Morokuma, O. Farkas, 
 J. B. Foresman, and D. J. Fox, Gaussian, Inc., Wallingford CT, 2016.
 
 ******************************************
 Gaussian 16:  ES64L-G16RevA.03 25-Dec-2016
                22-Sep-2023 
 ******************************************
 %nprocshared=2
 Will use up to    2 processors via shared memory.
 %mem=2GB
 ----------------------------------------------------------------------
 #p b3lyp/gen scrf=(cpcm,solvent=toluene) pop=hirshfeld empiricaldisper
 sion=gd3bj
 ----------------------------------------------------------------------
 1/38=1,172=1/1;
 2/12=2,17=6,18=5,40=1/2;
 3/5=7,11=2,25=1,30=1,70=2101,72=13,74=-5,124=41/1,2,3;
 4//1;
 5/5=2,38=5,53=13/2;
 6/7=2,8=2,9=2,10=2,28=1,79=1/1;
 99/5=1,9=1/99;
 Leave Link    1 at Fri Sep 22 16:35:15 2023, MaxMem=   268435456 cpu:               0.1 elap:               0.0
 (Enter /share/apps/gaussian/g16/l101.exe)
 ------------------------
 tmpdir/M2_conf_0_256.gjf
 ------------------------
 Symbolic Z-matrix:
 Charge =  0 Multiplicity = 1
 C                     0.        0.        0. 
 H                     1.0958    0.        0. 
 H                    -0.42984   0.       -0.99187 
 H                    -0.33006  -0.90791   0.51597 
 H                    -0.34254   0.86445   0.58264 
 
 ITRead=  0  0  0  0  0
 MicOpt= -1 -1 -1 -1 -1
 NAtoms=      5 NQM=        5 NQMF=       0 NMMI=      0 NMMIF=      0
                NMic=       0 NMicF=      0.
                    Isotopes and Nuclear Properties:
 (Nuclear quadrupole moments (NQMom) in fm**2, nuclear magnetic moments (NMagM)
  in nuclear magnetons)

  Atom         1           2           3           4           5
 IAtWgt=          12           1           1           1           1
 AtmWgt=  12.0000000   1.0078250   1.0078250   1.0078250   1.0078250
 NucSpn=           0           1           1           1           1
 AtZEff=  -0.0000000  -0.0000000  -0.0000000  -0.0000000  -0.0000000
 NQMom=    0.0000000   0.0000000   0.0000000   0.0000000   0.0000000
 NMagM=    0.0000000   2.7928460   2.7928460   2.7928460   2.7928460
 AtZNuc=   6.0000000   1.0000000   1.0000000   1.0000000   1.0000000
 Leave Link  101 at Fri Sep 22 16:35:15 2023, MaxMem=   268435456 cpu:               0.2 elap:               0.1
 (Enter /share/apps/gaussian/g16/l202.exe)
                          Input orientation:                          
 ---------------------------------------------------------------------
 Center     Atomic      Atomic             Coordinates (Angstroms)
 Number     Number       Type             X           Y           Z
 ---------------------------------------------------------------------
      1          6           0        0.000000    0.000000    0.000000
      2          1           0        1.095800    0.000000    0.000000
      3          1           0       -0.429840    0.000000   -0.991870
      4          1           0       -0.330060   -0.907910    0.515970
      5          1           0       -0.342540    0.864450    0.582640
 ---------------------------------------------------------------------
                    Distance matrix (angstroms):
                    1          2          3          4          5
     1  C    0.000000
     2  H    1.095800   0.000000
     3  H    1.081003   1.819721   0.000000
     4  H    1.095201   1.767372   1.762906   0.000000
     5  H    1.097304   1.776391   1.798326   1.773657   0.000000
 Stoichiometry    CH4
 Framework group  C1[X(CH4)]
 Deg. of freedom     9
 Full point group                 C1      NOp   1
 Largest Abelian subgroup         C1      NOp   1
 Largest concise Abelian subgroup C1      NOp   1
                         Standard orientation:                         
 ---------------------------------------------------------------------
 Center     Atomic      Atomic             Coordinates (Angstroms)
 Number     Number       Type             X           Y           Z
 ---------------------------------------------------------------------
      1          6           0       -0.005276    0.000427   -0.010259
      2          1           0        0.771233   -0.593490   -0.505307
      3          1           0       -0.954673   -0.017150   -0.526888
      4          1           0       -0.152779   -0.418055    0.991031
      5          1           0        0.367877    1.026132    0.102716
 ---------------------------------------------------------------------
 Rotational constants (GHZ):         161.4001981         157.1069636         154.5131096
 Leave Link  202 at Fri Sep 22 16:35:15 2023, MaxMem=   268435456 cpu:               0.0 elap:               0.0
 (Enter /share/apps/gaussian/g16/l301.exe)
 General basis read from cards:  (5D, 7F)
 Centers:       2      3      4      5
 S 3 1.00
     Exponent=  1.2251800000D+01 Coefficients=  2.3337100000D-02
     Exponent=  1.8687100000D+00 Coefficients=  1.5915000000D-01
     Exponent=  4.1820800000D-01 Coefficients=  5.0000000000D-01
 S 1 1.00
     Exponent=  1.0610000000D-01 Coefficients=  1.0000000000D+00
 P 1 1.00
     Exponent=  1.0000000000D+00 Coefficients=  1.0000000000D+00
 ****
 Centers:       1
 S 5 1.00
     Exponent=  1.2432000000D+03 Coefficients=  6.0336600000D-03
     Exponent=  1.8714500000D+02 Coefficients=  4.4957600000D-02
     Exponent=  4.2512600000D+01 Coefficients=  1.9790100000D-01
     Exponent=  1.1739300000D+01 Coefficients=  5.0000000000D-01
     Exponent=  3.5054800000D+00 Coefficients=  4.8036400000D-01
 S 2 1.00
     Exponent=  5.3908900000D+00 Coefficients= -7.0398000000D-02
     Exponent=  4.9334100000D-01 Coefficients=  5.0000000000D-01
 S 1 1.00
     Exponent=  1.4974100000D-01 Coefficients=  1.0000000000D+00
 P 3 1.00
     Exponent=  9.1805600000D+00 Coefficients=  4.3170100000D-02
     Exponent=  1.9365800000D+00 Coefficients=  2.2499900000D-01
     Exponent=  5.2629600000D-01 Coefficients=  5.0000000000D-01
 P 1 1.00
     Exponent=  1.3631900000D-01 Coefficients=  1.0000000000D+00
 D 1 1.00
     Exponent=  8.0000000000D-01 Coefficients=  1.0000000000D+00
 ****
 Ernie: Thresh=  0.10000D-02 Tol=  0.10000D-05 Strict=F.
 There are    35 symmetry adapted cartesian basis functions of A   symmetry.
 There are    34 symmetry adapted basis functions of A   symmetry.
    34 basis functions,    54 primitive gaussians,    35 cartesian basis functions
     5 alpha electrons        5 beta electrons
       nuclear repulsion energy        13.4081081856 Hartrees.
 IExCor=  402 DFT=T Ex+Corr=B3LYP ExCW=0 ScaHFX=  0.200000
 ScaDFX=  0.800000  0.720000  1.000000  0.810000 ScalE2=  1.000000  1.000000
 IRadAn=      5 IRanWt=     -1 IRanGd=            0 ICorTp=0 IEmpDi=141
 NAtoms=    5 NActive=    5 NUniq=    5 SFac= 1.00D+00 NAtFMM=   60 NAOKFM=F Big=F
 Integral buffers will be    131072 words long.
 Raffenetti 2 integral format.
 Two-electron integral symmetry is turned on.
 R6Disp:  Grimme-D3(BJ) Dispersion energy=       -0.0019132913 Hartrees.
 Nuclear repulsion after empirical dispersion term =       13.4061948943 Hartrees.
 ------------------------------------------------------------------------------
 Polarizable Continuum Model (PCM)
 =================================
 Model                : C-PCM.
 Atomic radii         : UFF (Universal Force Field).
 Polarization charges : Total charges.
 Charge compensation  : None.
 Solution method      : On-the-fly selection.
 Cavity type          : Scaled VdW (van der Waals Surface) (Alpha=1.100).
 Cavity algorithm     : GePol (No added spheres)
                        Default sphere list used, NSphG=    5.
                        Lebedev-Laikov grids with approx.  5.0 points / Ang**2.
                        Smoothing algorithm: York/Karplus (Gamma=1.0000).
                        Polarization charges: spherical gaussians, with
                                              point-specific exponents (IZeta= 3).
                        Self-potential: point-specific (ISelfS= 7).
                        Self-field    : sphere-specific E.n sum rule (ISelfD= 2).
 Solvent              : Toluene, Eps=   2.374100 Eps(inf)=   2.238315
 ------------------------------------------------------------------------------
 Spheres list:
 ISph  on   Nord     Re0    Alpha      Xe            Ye            Ze
    1   C      1    1.9255  1.100     -0.005276      0.000427     -0.010259
    2   H      2    1.4430  1.100      0.771233     -0.593490     -0.505307
    3   H      3    1.4430  1.100     -0.954673     -0.017150     -0.526888
    4   H      4    1.4430  1.100     -0.152779     -0.418055      0.991031
    5   H      5    1.4430  1.100      0.367877      1.026132      0.102716
 ------------------------------------------------------------------------------
 GePol: Number of generator spheres                  =       5
 GePol: Total number of spheres                      =       5
 GePol: Number of exposed spheres                    =       5 (100.00%)
 GePol: Number of points                             =     494
 GePol: Average weight of points                     =       0.14
 GePol: Minimum weight of points                     =   0.23D-09
 GePol: Maximum weight of points                     =    0.20577
 GePol: Number of points with low weight             =      21
 GePol: Fraction of low-weight points (<1% of avg)   =       4.25%
 GePol: Cavity surface area                          =     69.713 Ang**2
 GePol: Cavity volume                                =     51.423 Ang**3
 Leave Link  301 at Fri Sep 22 16:35:15 2023, MaxMem=   268435456 cpu:               0.2 elap:               0.1
 (Enter /share/apps/gaussian/g16/l302.exe)
 NPDir=0 NMtPBC=     1 NCelOv=     1 NCel=       1 NClECP=     1 NCelD=      1
         NCelK=      1 NCelE2=     1 NClLst=     1 CellRange=     0.0.
 One-electron integrals computed using PRISM.
 One-electron integral symmetry used in STVInt
 NBasis=    34 RedAO= T EigKep=  2.81D-02  NBF=    34
 NBsUse=    34 1.00D-06 EigRej= -1.00D+00 NBFU=    34
 Precomputing XC quadrature grid using
 IXCGrd= 4 IRadAn=           5 IRanWt=          -1 IRanGd=           0 AccXCQ= 0.00D+00.
 Generated NRdTot=       0 NPtTot=           0 NUsed=           0 NTot=          32
 NSgBfM=    35    35    35    35    35 MxSgAt=     5 MxSgA2=     5.
 Leave Link  302 at Fri Sep 22 16:35:15 2023, MaxMem=   268435456 cpu:               0.3 elap:               0.1
 (Enter /share/apps/gaussian/g16/l303.exe)
 DipDrv:  MaxL=1.
 Leave Link  303 at Fri Sep 22 16:35:15 2023, MaxMem=   268435456 cpu:               0.1 elap:               0.1
 (Enter /share/apps/gaussian/g16/l401.exe)
 ExpMin= 1.06D-01 ExpMax= 1.24D+03 ExpMxC= 1.87D+02 IAcc=3 IRadAn=         5 AccDes= 0.00D+00
 Harris functional with IExCor=  402 and IRadAn=       5 diagonalized for initial guess.
 HarFok:  IExCor=  402 AccDes= 0.00D+00 IRadAn=         5 IDoV= 1 UseB2=F ITyADJ=14
 ICtDFT=  3500011 ScaDFX=  1.000000  1.000000  1.000000  1.000000
 FoFCou: FMM=F IPFlag=           0 FMFlag=      100000 FMFlg1=           0
         NFxFlg=           0 DoJE=T BraDBF=F KetDBF=T FulRan=T
         wScrn=  0.000000 ICntrl=       500 IOpCl=  0 I1Cent=   200000004 NGrid=           0
         NMat0=    1 NMatS0=      1 NMatT0=    0 NMatD0=    1 NMtDS0=    0 NMtDT0=    0
 Petite list used in FoFCou.
 Harris En= -40.5532614270465    
 JPrj=0 DoOrth=F DoCkMO=F.
 Leave Link  401 at Fri Sep 22 16:35:15 2023, MaxMem=   268435456 cpu:               0.6 elap:               0.3
 (Enter /share/apps/gaussian/g16/l502.exe)
 Keep R1 ints in memory in canonical form, NReq=1903191.
 FoFCou: FMM=F IPFlag=           0 FMFlag=           0 FMFlg1=           0
         NFxFlg=           0 DoJE=F BraDBF=F KetDBF=F FulRan=T
         wScrn=  0.000000 ICntrl=       600 IOpCl=  0 I1Cent=           0 NGrid=           0
         NMat0=    1 NMatS0=    595 NMatT0=    0 NMatD0=    1 NMtDS0=    0 NMtDT0=    0
 Symmetry not used in FoFCou.
 Two-electron integral symmetry not used.
 Closed shell SCF:
 Using DIIS extrapolation, IDIIS=  1040.
 NGot=   268435456 LenX=   268254897 LenY=   268253231
 Requested convergence on RMS density matrix=1.00D-08 within 128 cycles.
 Requested convergence on MAX density matrix=1.00D-06.
 Requested convergence on             energy=1.00D-06.
 No special actions if energy rises.

 Cycle   1  Pass 1  IDiag  1:
 Inv3:  Mode=1 IEnd=      732108.
 Iteration    1 A*A^-1 deviation from unit magnitude is 2.44D-15 for    488.
 Iteration    1 A*A^-1 deviation from orthogonality  is 1.50D-15 for    488     50.
 Iteration    1 A^-1*A deviation from unit magnitude is 2.44D-15 for    488.
 Iteration    1 A^-1*A deviation from orthogonality  is 8.97D-16 for    371    166.
 E= -40.4243859652521    
 DIIS: error= 4.74D-02 at cycle   1 NSaved=   1.
 NSaved= 1 IEnMin= 1 EnMin= -40.4243859652521     IErMin= 1 ErrMin= 4.74D-02
 ErrMax= 4.74D-02  0.00D+00 EMaxC= 1.00D-01 BMatC= 7.96D-02 BMatP= 7.96D-02
 IDIUse=3 WtCom= 5.26D-01 WtEn= 4.74D-01
 Coeff-Com:  0.100D+01
 Coeff-En:   0.100D+01
 Coeff:      0.100D+01
 Gap=     0.357 Goal=   None    Shift=    0.000
 GapD=    0.357 DampG=1.000 DampE=0.500 DampFc=0.5000 IDamp=-1.
 Damping current iteration by 5.00D-01
 RMSDP=1.47D-02 MaxDP=1.52D-01              OVMax= 2.01D-01

 Cycle   2  Pass 1  IDiag  1:
 E= -40.4648335923946     Delta-E=       -0.040447627142 Rises=F Damp=T
 DIIS: error= 8.10D-03 at cycle   2 NSaved=   2.
 NSaved= 2 IEnMin= 2 EnMin= -40.4648335923946     IErMin= 2 ErrMin= 8.10D-03
 ErrMax= 8.10D-03  0.00D+00 EMaxC= 1.00D-01 BMatC= 1.22D-03 BMatP= 7.96D-02
 IDIUse=3 WtCom= 9.19D-01 WtEn= 8.10D-02
 Coeff-Com:  0.801D-01 0.920D+00
 Coeff-En:   0.132D+00 0.868D+00
 Coeff:      0.843D-01 0.916D+00
 Gap=     0.437 Goal=   None    Shift=    0.000
 RMSDP=1.38D-03 MaxDP=1.18D-02 DE=-4.04D-02 OVMax= 1.06D-01

 Cycle   3  Pass 1  IDiag  1:
 E= -40.5135738337620     Delta-E=       -0.048740241367 Rises=F Damp=F
 DIIS: error= 4.78D-04 at cycle   3 NSaved=   3.
 NSaved= 3 IEnMin= 3 EnMin= -40.5135738337620     IErMin= 3 ErrMin= 4.78D-04
 ErrMax= 4.78D-04  0.00D+00 EMaxC= 1.00D-01 BMatC= 9.19D-06 BMatP= 1.22D-03
 IDIUse=3 WtCom= 9.95D-01 WtEn= 4.78D-03
 Coeff-Com:  0.559D-02-0.501D-01 0.104D+01
 Coeff-En:   0.000D+00 0.000D+00 0.100D+01
 Coeff:      0.557D-02-0.498D-01 0.104D+01
 Gap=     0.445 Goal=   None    Shift=    0.000
 RMSDP=8.00D-05 MaxDP=7.46D-04 DE=-4.87D-02 OVMax= 9.04D-04

 Cycle   4  Pass 1  IDiag  1:
 E= -40.5135818055300     Delta-E=       -0.000007971768 Rises=F Damp=F
 DIIS: error= 5.90D-05 at cycle   4 NSaved=   4.
 NSaved= 4 IEnMin= 4 EnMin= -40.5135818055300     IErMin= 4 ErrMin= 5.90D-05
 ErrMax= 5.90D-05  0.00D+00 EMaxC= 1.00D-01 BMatC= 1.09D-07 BMatP= 9.19D-06
 IDIUse=1 WtCom= 1.00D+00 WtEn= 0.00D+00
 Coeff-Com:  0.166D-02-0.926D-02 0.200D+00 0.808D+00
 Coeff:      0.166D-02-0.926D-02 0.200D+00 0.808D+00
 Gap=     0.445 Goal=   None    Shift=    0.000
 RMSDP=9.93D-06 MaxDP=8.09D-05 DE=-7.97D-06 OVMax= 1.34D-04

 Cycle   5  Pass 1  IDiag  1:
 E= -40.5135819318090     Delta-E=       -0.000000126279 Rises=F Damp=F
 DIIS: error= 8.02D-06 at cycle   5 NSaved=   5.
 NSaved= 5 IEnMin= 5 EnMin= -40.5135819318090     IErMin= 5 ErrMin= 8.02D-06
 ErrMax= 8.02D-06  0.00D+00 EMaxC= 1.00D-01 BMatC= 1.90D-09 BMatP= 1.09D-07
 IDIUse=1 WtCom= 1.00D+00 WtEn= 0.00D+00
 Coeff-Com:  0.211D-03-0.653D-04 0.665D-02 0.116D+00 0.877D+00
 Coeff:      0.211D-03-0.653D-04 0.665D-02 0.116D+00 0.877D+00
 Gap=     0.445 Goal=   None    Shift=    0.000
 RMSDP=1.48D-06 MaxDP=1.83D-05 DE=-1.26D-07 OVMax= 2.03D-05

 Cycle   6  Pass 1  IDiag  1:
 E= -40.5135819340658     Delta-E=       -0.000000002257 Rises=F Damp=F
 DIIS: error= 7.43D-07 at cycle   6 NSaved=   6.
 NSaved= 6 IEnMin= 6 EnMin= -40.5135819340658     IErMin= 6 ErrMin= 7.43D-07
 ErrMax= 7.43D-07  0.00D+00 EMaxC= 1.00D-01 BMatC= 1.48D-11 BMatP= 1.90D-09
 IDIUse=1 WtCom= 1.00D+00 WtEn= 0.00D+00
 Coeff-Com: -0.119D-04 0.480D-04-0.122D-02-0.219D-02 0.684D-01 0.935D+00
 Coeff:     -0.119D-04 0.480D-04-0.122D-02-0.219D-02 0.684D-01 0.935D+00
 Gap=     0.445 Goal=   None    Shift=    0.000
 RMSDP=1.21D-07 MaxDP=1.67D-06 DE=-2.26D-09 OVMax= 1.85D-06

 Cycle   7  Pass 1  IDiag  1:
 E= -40.5135819340856     Delta-E=       -0.000000000020 Rises=F Damp=F
 DIIS: error= 1.79D-08 at cycle   7 NSaved=   7.
 NSaved= 7 IEnMin= 7 EnMin= -40.5135819340856     IErMin= 7 ErrMin= 1.79D-08
 ErrMax= 1.79D-08  0.00D+00 EMaxC= 1.00D-01 BMatC= 1.27D-14 BMatP= 1.48D-11
 IDIUse=1 WtCom= 1.00D+00 WtEn= 0.00D+00
 Coeff-Com: -0.415D-06 0.929D-06-0.565D-04 0.110D-03 0.236D-02 0.222D-01
 Coeff-Com:  0.975D+00
 Coeff:     -0.415D-06 0.929D-06-0.565D-04 0.110D-03 0.236D-02 0.222D-01
 Coeff:      0.975D+00
 Gap=     0.445 Goal=   None    Shift=    0.000
 RMSDP=4.84D-09 MaxDP=6.10D-08 DE=-1.99D-11 OVMax= 6.64D-08

 Error on total polarization charges =  0.00444
 SCF Done:  E(RB3LYP) =  -40.5135819341     A.U. after    7 cycles
            NFock=  7  Conv=0.48D-08     -V/T= 2.0087
 KE= 4.016598512394D+01 PE=-1.199127353657D+02 EE= 2.582697341333D+01
 Leave Link  502 at Fri Sep 22 16:35:17 2023, MaxMem=   268435456 cpu:               4.0 elap:               2.0
 (Enter /share/apps/gaussian/g16/l601.exe)
 Copying SCF densities to generalized density rwf, IOpCl= 0 IROHF=0.

 **********************************************************************

            Population analysis using the SCF density.

 **********************************************************************

 Orbital symmetries:
       Occupied  (A) (A) (A) (A) (A)
       Virtual   (A) (A) (A) (A) (A) (A) (A) (A) (A) (A) (A) (A)
                 (A) (A) (A) (A) (A) (A) (A) (A) (A) (A) (A) (A)
                 (A) (A) (A) (A) (A)
 The electronic state is 1-A.
 Alpha  occ. eigenvalues --  -10.16114  -0.69496  -0.40193  -0.39073  -0.38772
 Alpha virt. eigenvalues --    0.05756   0.12554   0.12598   0.12782   0.36949
 Alpha virt. eigenvalues --    0.37461   0.38605   0.63697   0.63766   0.64794
 Alpha virt. eigenvalues --    0.68303   0.96222   1.28409   1.29379   1.83967
 Alpha virt. eigenvalues --    1.85737   1.87042   1.89468   1.90189   1.90360
 Alpha virt. eigenvalues --    2.38896   2.42812   2.45608   2.75216   2.77511
 Alpha virt. eigenvalues --    2.94476   3.20243   3.21096   3.23241
          Condensed to atoms (all electrons):
               1          2          3          4          5
     1  C    4.730358   0.403736   0.406582   0.402824   0.403316
     2  H    0.403736   0.571029  -0.018112  -0.022331  -0.022376
     3  H    0.406582  -0.018112   0.563925  -0.022504  -0.019944
     4  H    0.402824  -0.022331  -0.022504   0.581049  -0.021343
     5  H    0.403316  -0.022376  -0.019944  -0.021343   0.573943
 Mulliken charges:
               1
     1  C   -0.346816
     2  H    0.088054
     3  H    0.090053
     4  H    0.082305
     5  H    0.086404
 Sum of Mulliken charges =  -0.00000
 Mulliken charges with hydrogens summed into heavy atoms:
               1
     1  C   -0.000000
 Electronic spatial extent (au):  <R**2>=             35.8633
 Charge=             -0.0000 electrons
 Dipole moment (field-independent basis, Debye):
    X=              0.0086    Y=             -0.0045    Z=              0.0376  Tot=              0.0388
 Quadrupole moment (field-independent basis, Debye-Ang):
   XX=             -8.2906   YY=             -8.4762   ZZ=             -8.5518
   XY=             -0.0040   XZ=              0.0267   YZ=              0.0077
 Traceless Quadrupole moment (field-independent basis, Debye-Ang):
   XX=              0.1489   YY=             -0.0367   ZZ=             -0.1123
   XY=             -0.0040   XZ=              0.0267   YZ=              0.0077
 Octapole moment (field-independent basis, Debye-Ang**2):
  XXX=             -0.2775  YYY=              0.4776  ZZZ=              0.4651  XYY=              0.4033
  XXY=             -0.1642  XXZ=             -0.4715  XZZ=             -0.1387  YZZ=             -0.3286
  YYZ=              0.0860  XYZ=              0.2026
 Hexadecapole moment (field-independent basis, Debye-Ang**3):
 XXXX=            -16.1517 YYYY=            -16.1619 ZZZZ=            -16.1650 XXXY=             -0.2354
 XXXZ=              0.3038 YYYX=              0.2642 YYYZ=              0.1713 ZZZX=             -0.0592
 ZZZY=             -0.3441 XXYY=             -5.4424 XXZZ=             -5.3493 YYZZ=             -5.5201
 XXYZ=              0.2136 YYXZ=             -0.1115 ZZXY=             -0.0497
 N-N= 1.340619489429D+01 E-N=-1.199127351336D+02  KE= 4.016598512394D+01
 There are a total of      109428 grid points.
 ElSum from          density=        9.9999999129
 ElSum from atomic densities=        9.9999998028
 Hirshfeld populations at iteration   1 (CA, CB, DipXYZ):
               1          2          3          4          5
     1  C    3.061243   3.061243  -0.004022   0.000035  -0.006236
     2  H    0.484407   0.484407   0.102869  -0.074538  -0.057172
     3  H    0.483831   0.483831  -0.128097  -0.002465  -0.062607
     4  H    0.485692   0.485692  -0.018323  -0.052635   0.124404
     5  H    0.484826   0.484826   0.049808   0.127722   0.016508
       Tot   5.000000   5.000000   0.002234  -0.001881   0.014897

 Dip from Atomic Chgs              0.001167   0.000118  -0.000122
         Total Dipole              0.003401  -0.001763   0.014775

 Hirshfeld charges, spin densities, dipoles, and CM5 charges using IRadAn=      5:
              Q-H        S-H        Dx         Dy         Dz        Q-CM5   
     1  C   -0.122487   0.000000  -0.004022   0.000035  -0.006236  -0.312521
     2  H    0.031186   0.000000   0.102869  -0.074538  -0.057172   0.078282
     3  H    0.032338   0.000000  -0.128097  -0.002465  -0.062607   0.081190
     4  H    0.028615   0.000000  -0.018323  -0.052635   0.124404   0.075781
     5  H    0.030348   0.000000   0.049808   0.127722   0.016508   0.077268
       Tot   0.000000   0.000000   0.002234  -0.001881   0.014897   0.000000
 Hirshfeld charges with hydrogens summed into heavy atoms:
              Q-H       Q-CM5   
     1  C    0.000000   0.000000
 
 EQQ= 0.000000000000E+00 EQD= 0.000000000000E+00 EDD=-0.101113080348E-02
 EQQ+QD+DD=-0.101113080348E-02
 
 No NMR shielding tensors so no spin-rotation constants.
 Leave Link  601 at Fri Sep 22 16:35:18 2023, MaxMem=   268435456 cpu:               0.5 elap:               0.3
 (Enter /share/apps/gaussian/g16/l9999.exe)
 1\1\GINC-NODE99\SP\RB3LYP\Gen\C1H4\YANZ\22-Sep-2023\0\\#p b3lyp/gen sc
 rf=(cpcm,solvent=toluene) pop=hirshfeld empiricaldispersion=gd3bj\\tmp
 dir/M2_conf_0_256.gjf\\0,1\C,0,0.,0.,0.\H,0,1.0958,0.,0.\H,0,-0.42984,
 0.,-0.99187\H,0,-0.33006,-0.90791,0.51597\H,0,-0.34254,0.86445,0.58264
 \\Version=ES64L-G16RevA.03\State=1-A\HF=-40.5135819\RMSD=4.837e-09\Dip
 ole=-0.0033098,-0.0083308,0.0123545\Quadrupole=0.0229083,-0.0447017,0.
 0217934,0.0017019,0.0836867,0.0438006\PG=C01 [X(C1H4)]\\@


 WE THE UNWILLING
 LED BY THE UNQUALIFIED
 HAVE BEEN DOING THE UNBELIEVABLE SO LONG WITH SO LITTLE
 THAT WE NOW ATTEMPT THE IMPOSSIBLE WITH NOTHING.

                                    -- ANONYMOUS
 Job cpu time:       0 days  0 hours  0 minutes  6.2 seconds.
 Elapsed time:       0 days  0 hours  0 minutes  3.2 seconds.
 File lengths (MBytes):  RWF=      6 Int=      0 D2E=      0 Chk=      1 Scr=      1
 Normal termination of Gaussian 16 at Fri Sep 22 16:35:18 2023.
