 Entering Gaussian System, Link 0=g16
 Initial command:
 /share/apps/gaussian/g16/l1.exe "/tmp/55556.mgr/Gau-87275.inp" -scrdir="/tmp/55556.mgr/"
 Entering Link 1 = /share/apps/gaussian/g16/l1.exe PID=     87277.
  
 Copyright (c) 1988,1990,1992,1993,1995,1998,2003,2009,2016,
            Gaussian, Inc.  All Rights Reserved.
  
 This is part of the Gaussian(R) 16 program.  It is based on
 the Gaussian(R) 09 system (copyright 2009, Gaussian, Inc.),
 the Gaussian(R) 03 system (copyright 2003, Gaussian, Inc.),
 the Gaussian(R) 98 system (copyright 1998, Gaussian, Inc.),
 the Gaussian(R) 94 system (copyright 1995, Gaussian, Inc.),
 the Gaussian 92(TM) system (copyright 1992, Gaussian, Inc.),
 the Gaussian 90(TM) system (copyright 1990, Gaussian, Inc.),
 the Gaussian 88(TM) system (copyright 1988, Gaussian, Inc.),
 the Gaussian 86(TM) system (copyright 1986, Carnegie Mellon
 University), and the Gaussian 82(TM) system (copyright 1983,
 Carnegie Mellon University). Gaussian is a federally registered
 trademark of Gaussian, Inc.
  
 This software contains proprietary and confidential information,
 including trade secrets, belonging to Gaussian, Inc.
  
 This software is provided under written license and may be
 used, copied, transmitted, or stored only in accord with that
 written license.
  
 The following legend is applicable only to US Government
 contracts under FAR:
  
                    RESTRICTED RIGHTS LEGEND
  
 Use, reproduction and disclosure by the US Government is
 subject to restrictions as set forth in subparagraphs (a)
 and (c) of the Commercial Computer Software - Restricted
 Rights clause in FAR 52.227-19.
  
 Gaussian, Inc.
 340 Quinnipiac St., Bldg. 40, Wallingford CT 06492
  
  
 ---------------------------------------------------------------
 Warning -- This program may not be used in any manner that
 competes with the business of Gaussian, Inc. or will provide
 assistance to any competitor of Gaussian, Inc.  The licensee
 of this program is prohibited from giving any competitor of
 Gaussian, Inc. access to this program.  By using this program,
 the user acknowledges that Gaussian, Inc. is engaged in the
 business of creating and licensing software in the field of
 computational chemistry and represents and warrants to the
 licensee that it is not a competitor of Gaussian, Inc. and that
 it will not use this program in any manner prohibited above.
 ---------------------------------------------------------------
  

 Cite this work as:
 Gaussian 16, Revision A.03,
 M. J. Frisch, G. W. Trucks, H. B. Schlegel, G. E. Scuseria, 
 M. A. Robb, J. R. Cheeseman, G. Scalmani, V. Barone, 
 G. A. Petersson, H. Nakatsuji, X. Li, M. Caricato, A. V. Marenich, 
 J. Bloino, B. G. Janesko, R. Gomperts, B. Mennucci, H. P. Hratchian, 
 J. V. Ortiz, A. F. Izmaylov, J. L. Sonnenberg, D. Williams-Young, 
 F. Ding, F. Lipparini, F. Egidi, J. Goings, B. Peng, A. Petrone, 
 T. Henderson, D. Ranasinghe, V. G. Zakrzewski, J. Gao, N. Rega, 
 G. Zheng, W. Liang, M. Hada, M. Ehara, K. Toyota, R. Fukuda, 
 J. Hasegawa, M. Ishida, T. Nakajima, Y. Honda, O. Kitao, H. Nakai, 
 T. Vreven, K. Throssell, J. A. Montgomery, Jr., J. E. Peralta, 
 F. Ogliaro, M. J. Bearpark, J. J. Heyd, E. N. Brothers, K. N. Kudin, 
 V. N. Staroverov, T. A. Keith, R. Kobayashi, J. Normand, 
 K. Raghavachari, A. P. Rendell, J. C. Burant, S. S. Iyengar, 
 J. Tomasi, M. Cossi, J. M. Millam, M. Klene, C. Adamo, R. Cammi, 
 J. W. Ochterski, R. L. Martin, K. Morokuma, O. Farkas, 
 J. B. Foresman, and D. J. Fox, Gaussian, Inc., Wallingford CT, 2016.
 
 ******************************************
 Gaussian 16:  ES64L-G16RevA.03 25-Dec-2016
                22-Sep-2023 
 ******************************************
 %nprocshared=2
 Will use up to    2 processors via shared memory.
 %mem=2GB
 ----------------------------------------------------------------------
 #p b3lyp/gen scrf=(cpcm,solvent=toluene) pop=hirshfeld empiricaldisper
 sion=gd3bj
 ----------------------------------------------------------------------
 1/38=1,172=1/1;
 2/12=2,17=6,18=5,40=1/2;
 3/5=7,11=2,25=1,30=1,70=2101,72=13,74=-5,124=41/1,2,3;
 4//1;
 5/5=2,38=5,53=13/2;
 6/7=2,8=2,9=2,10=2,28=1,79=1/1;
 99/5=1,9=1/99;
 Leave Link    1 at Fri Sep 22 16:35:57 2023, MaxMem=   268435456 cpu:               0.1 elap:               0.0
 (Enter /share/apps/gaussian/g16/l101.exe)
 ------------------------
 tmpdir/M2_conf_0_308.gjf
 ------------------------
 Symbolic Z-matrix:
 Charge =  0 Multiplicity = 1
 C                     0.        0.        0. 
 C                     1.4217    0.        0. 
 C                     2.11825   0.        1.24992 
 O                    -0.61379  -0.0082    1.04447 
 H                    -0.525    -0.00183  -0.95261 
 H                     1.9586   -0.01535  -0.87053 
 H                     3.14587  -0.0257    1.23897 
 H                     1.57173   0.00817   2.1195 
 
 ITRead=  0  0  0  0  0  0  0  0
 MicOpt= -1 -1 -1 -1 -1 -1 -1 -1
 NAtoms=      8 NQM=        8 NQMF=       0 NMMI=      0 NMMIF=      0
                NMic=       0 NMicF=      0.
                    Isotopes and Nuclear Properties:
 (Nuclear quadrupole moments (NQMom) in fm**2, nuclear magnetic moments (NMagM)
  in nuclear magnetons)

  Atom         1           2           3           4           5           6           7           8
 IAtWgt=          12          12          12          16           1           1           1           1
 AtmWgt=  12.0000000  12.0000000  12.0000000  15.9949146   1.0078250   1.0078250   1.0078250   1.0078250
 NucSpn=           0           0           0           0           1           1           1           1
 AtZEff=  -0.0000000  -0.0000000  -0.0000000  -0.0000000  -0.0000000  -0.0000000  -0.0000000  -0.0000000
 NQMom=    0.0000000   0.0000000   0.0000000   0.0000000   0.0000000   0.0000000   0.0000000   0.0000000
 NMagM=    0.0000000   0.0000000   0.0000000   0.0000000   2.7928460   2.7928460   2.7928460   2.7928460
 AtZNuc=   6.0000000   6.0000000   6.0000000   8.0000000   1.0000000   1.0000000   1.0000000   1.0000000
 Leave Link  101 at Fri Sep 22 16:35:57 2023, MaxMem=   268435456 cpu:               0.2 elap:               0.1
 (Enter /share/apps/gaussian/g16/l202.exe)
                          Input orientation:                          
 ---------------------------------------------------------------------
 Center     Atomic      Atomic             Coordinates (Angstroms)
 Number     Number       Type             X           Y           Z
 ---------------------------------------------------------------------
      1          6           0        0.000000    0.000000    0.000000
      2          6           0        1.421700    0.000000    0.000000
      3          6           0        2.118250    0.000000    1.249920
      4          8           0       -0.613790   -0.008200    1.044470
      5          1           0       -0.525000   -0.001830   -0.952610
      6          1           0        1.958600   -0.015350   -0.870530
      7          1           0        3.145870   -0.025700    1.238970
      8          1           0        1.571730    0.008170    2.119500
 ---------------------------------------------------------------------
                    Distance matrix (angstroms):
                    1          2          3          4          5
     1  C    0.000000
     2  C    1.421700   0.000000
     3  C    2.459529   1.430902   0.000000
     4  O    1.211496   2.287838   2.739766   0.000000
     5  H    1.087701   2.167282   3.440627   1.999063   0.000000
     6  H    2.143402   1.022898   2.126507   3.206940   2.484993
     7  H    3.381154   2.123316   1.028000   3.764728   4.275381
     8  H    2.638689   2.124819   1.027093   2.435663   3.719440
                    6          7          8
     6  H    0.000000
     7  H    2.420683   0.000000
     8  H    3.015046   1.803995   0.000000
 Stoichiometry    C3H4O
 Framework group  C1[X(C3H4O)]
 Deg. of freedom    18
 Full point group                 C1      NOp   1
 Largest Abelian subgroup         C1      NOp   1
 Largest concise Abelian subgroup C1      NOp   1
                         Standard orientation:                         
 ---------------------------------------------------------------------
 Center     Atomic      Atomic             Coordinates (Angstroms)
 Number     Number       Type             X           Y           Z
 ---------------------------------------------------------------------
      1          6           0        0.823139    0.469051   -0.003292
      2          6           0       -0.584554    0.668124   -0.002572
      3          6           0       -1.449262   -0.471948   -0.003149
      4          8           0        1.284633   -0.651081    0.003820
      5          1           0        1.476357    1.338761   -0.001019
      6          1           0       -0.994262    1.605244    0.013697
      7          1           0       -2.465214   -0.317234    0.023079
      8          1           0       -1.029892   -1.409480   -0.012243
 ---------------------------------------------------------------------
 Rotational constants (GHZ):          21.2295829           6.8121530           5.1574247
 Leave Link  202 at Fri Sep 22 16:35:57 2023, MaxMem=   268435456 cpu:               0.0 elap:               0.0
 (Enter /share/apps/gaussian/g16/l301.exe)
 General basis read from cards:  (5D, 7F)
 Centers:       5      6      7      8
 S 3 1.00
     Exponent=  1.2251800000D+01 Coefficients=  2.3337100000D-02
     Exponent=  1.8687100000D+00 Coefficients=  1.5915000000D-01
     Exponent=  4.1820800000D-01 Coefficients=  5.0000000000D-01
 S 1 1.00
     Exponent=  1.0610000000D-01 Coefficients=  1.0000000000D+00
 P 1 1.00
     Exponent=  1.0000000000D+00 Coefficients=  1.0000000000D+00
 ****
 Centers:       1      2      3
 S 5 1.00
     Exponent=  1.2432000000D+03 Coefficients=  6.0336600000D-03
     Exponent=  1.8714500000D+02 Coefficients=  4.4957600000D-02
     Exponent=  4.2512600000D+01 Coefficients=  1.9790100000D-01
     Exponent=  1.1739300000D+01 Coefficients=  5.0000000000D-01
     Exponent=  3.5054800000D+00 Coefficients=  4.8036400000D-01
 S 2 1.00
     Exponent=  5.3908900000D+00 Coefficients= -7.0398000000D-02
     Exponent=  4.9334100000D-01 Coefficients=  5.0000000000D-01
 S 1 1.00
     Exponent=  1.4974100000D-01 Coefficients=  1.0000000000D+00
 P 3 1.00
     Exponent=  9.1805600000D+00 Coefficients=  4.3170100000D-02
     Exponent=  1.9365800000D+00 Coefficients=  2.2499900000D-01
     Exponent=  5.2629600000D-01 Coefficients=  5.0000000000D-01
 P 1 1.00
     Exponent=  1.3631900000D-01 Coefficients=  1.0000000000D+00
 D 1 1.00
     Exponent=  8.0000000000D-01 Coefficients=  1.0000000000D+00
 ****
 Centers:       4
 S 5 1.00
     Exponent=  2.2886400000D+03 Coefficients=  5.8546800000D-03
     Exponent=  3.4441600000D+02 Coefficients=  4.3733300000D-02
     Exponent=  7.8253800000D+01 Coefficients=  1.9479600000D-01
     Exponent=  2.1719500000D+01 Coefficients=  5.0000000000D-01
     Exponent=  6.5590700000D+00 Coefficients=  4.8461400000D-01
 S 2 1.00
     Exponent=  1.0465600000D+01 Coefficients= -7.1334300000D-02
     Exponent=  9.6435100000D-01 Coefficients=  5.0000000000D-01
 S 1 1.00
     Exponent=  2.8512700000D-01 Coefficients=  1.0000000000D+00
 P 3 1.00
     Exponent=  1.7059000000D+01 Coefficients=  4.7443900000D-02
     Exponent=  3.6899900000D+00 Coefficients=  2.4268900000D-01
     Exponent=  9.9299600000D-01 Coefficients=  5.0000000000D-01
 P 1 1.00
     Exponent=  2.4492400000D-01 Coefficients=  1.0000000000D+00
 D 1 1.00
     Exponent=  1.0000000000D+00 Coefficients=  1.0000000000D+00
 ****
 Ernie: Thresh=  0.10000D-02 Tol=  0.10000D-05 Strict=F.
 There are    80 symmetry adapted cartesian basis functions of A   symmetry.
 There are    76 symmetry adapted basis functions of A   symmetry.
    76 basis functions,   132 primitive gaussians,    80 cartesian basis functions
    15 alpha electrons       15 beta electrons
       nuclear repulsion energy       105.9623938543 Hartrees.
 IExCor=  402 DFT=T Ex+Corr=B3LYP ExCW=0 ScaHFX=  0.200000
 ScaDFX=  0.800000  0.720000  1.000000  0.810000 ScalE2=  1.000000  1.000000
 IRadAn=      5 IRanWt=     -1 IRanGd=            0 ICorTp=0 IEmpDi=141
 NAtoms=    8 NActive=    8 NUniq=    8 SFac= 1.00D+00 NAtFMM=   60 NAOKFM=F Big=F
 Integral buffers will be    131072 words long.
 Raffenetti 2 integral format.
 Two-electron integral symmetry is turned on.
 R6Disp:  Grimme-D3(BJ) Dispersion energy=       -0.0082534837 Hartrees.
 Nuclear repulsion after empirical dispersion term =      105.9541403707 Hartrees.
 ------------------------------------------------------------------------------
 Polarizable Continuum Model (PCM)
 =================================
 Model                : C-PCM.
 Atomic radii         : UFF (Universal Force Field).
 Polarization charges : Total charges.
 Charge compensation  : None.
 Solution method      : On-the-fly selection.
 Cavity type          : Scaled VdW (van der Waals Surface) (Alpha=1.100).
 Cavity algorithm     : GePol (No added spheres)
                        Default sphere list used, NSphG=    8.
                        Lebedev-Laikov grids with approx.  5.0 points / Ang**2.
                        Smoothing algorithm: York/Karplus (Gamma=1.0000).
                        Polarization charges: spherical gaussians, with
                                              point-specific exponents (IZeta= 3).
                        Self-potential: point-specific (ISelfS= 7).
                        Self-field    : sphere-specific E.n sum rule (ISelfD= 2).
 Solvent              : Toluene, Eps=   2.374100 Eps(inf)=   2.238315
 ------------------------------------------------------------------------------
 Spheres list:
 ISph  on   Nord     Re0    Alpha      Xe            Ye            Ze
    1   C      1    1.9255  1.100      0.823139      0.469051     -0.003292
    2   C      2    1.9255  1.100     -0.584554      0.668124     -0.002572
    3   C      3    1.9255  1.100     -1.449262     -0.471948     -0.003149
    4   O      4    1.7500  1.100      1.284633     -0.651081      0.003820
    5   H      5    1.4430  1.100      1.476357      1.338761     -0.001019
    6   H      6    1.4430  1.100     -0.994262      1.605244      0.013697
    7   H      7    1.4430  1.100     -2.465214     -0.317234      0.023079
    8   H      8    1.4430  1.100     -1.029892     -1.409480     -0.012243
 ------------------------------------------------------------------------------
 GePol: Number of generator spheres                  =       8
 GePol: Total number of spheres                      =       8
 GePol: Number of exposed spheres                    =       8 (100.00%)
 GePol: Number of points                             =     837
 GePol: Average weight of points                     =       0.14
 GePol: Minimum weight of points                     =   0.62D-07
 GePol: Maximum weight of points                     =    0.20577
 GePol: Number of points with low weight             =      48
 GePol: Fraction of low-weight points (<1% of avg)   =       5.73%
 GePol: Cavity surface area                          =    113.148 Ang**2
 GePol: Cavity volume                                =     98.041 Ang**3
 Leave Link  301 at Fri Sep 22 16:35:57 2023, MaxMem=   268435456 cpu:               0.2 elap:               0.1
 (Enter /share/apps/gaussian/g16/l302.exe)
 NPDir=0 NMtPBC=     1 NCelOv=     1 NCel=       1 NClECP=     1 NCelD=      1
         NCelK=      1 NCelE2=     1 NClLst=     1 CellRange=     0.0.
 One-electron integrals computed using PRISM.
 One-electron integral symmetry used in STVInt
 NBasis=    76 RedAO= T EigKep=  3.35D-03  NBF=    76
 NBsUse=    76 1.00D-06 EigRej= -1.00D+00 NBFU=    76
 Precomputing XC quadrature grid using
 IXCGrd= 4 IRadAn=           5 IRanWt=          -1 IRanGd=           0 AccXCQ= 0.00D+00.
 Generated NRdTot=       0 NPtTot=           0 NUsed=           0 NTot=          32
 NSgBfM=    80    80    80    80    80 MxSgAt=     8 MxSgA2=     8.
 Leave Link  302 at Fri Sep 22 16:35:57 2023, MaxMem=   268435456 cpu:               0.3 elap:               0.2
 (Enter /share/apps/gaussian/g16/l303.exe)
 DipDrv:  MaxL=1.
 Leave Link  303 at Fri Sep 22 16:35:57 2023, MaxMem=   268435456 cpu:               0.1 elap:               0.0
 (Enter /share/apps/gaussian/g16/l401.exe)
 ExpMin= 1.06D-01 ExpMax= 2.29D+03 ExpMxC= 3.44D+02 IAcc=3 IRadAn=         5 AccDes= 0.00D+00
 Harris functional with IExCor=  402 and IRadAn=       5 diagonalized for initial guess.
 HarFok:  IExCor=  402 AccDes= 0.00D+00 IRadAn=         5 IDoV= 1 UseB2=F ITyADJ=14
 ICtDFT=  3500011 ScaDFX=  1.000000  1.000000  1.000000  1.000000
 FoFCou: FMM=F IPFlag=           0 FMFlag=      100000 FMFlg1=           0
         NFxFlg=           0 DoJE=T BraDBF=F KetDBF=T FulRan=T
         wScrn=  0.000000 ICntrl=       500 IOpCl=  0 I1Cent=   200000004 NGrid=           0
         NMat0=    1 NMatS0=      1 NMatT0=    0 NMatD0=    1 NMtDS0=    0 NMtDT0=    0
 Petite list used in FoFCou.
 Harris En= -191.894224585980    
 JPrj=0 DoOrth=F DoCkMO=F.
 Leave Link  401 at Fri Sep 22 16:35:58 2023, MaxMem=   268435456 cpu:               1.5 elap:               0.8
 (Enter /share/apps/gaussian/g16/l502.exe)
 Keep R1 ints in memory in canonical form, NReq=6092111.
 FoFCou: FMM=F IPFlag=           0 FMFlag=           0 FMFlg1=           0
         NFxFlg=           0 DoJE=F BraDBF=F KetDBF=F FulRan=T
         wScrn=  0.000000 ICntrl=       600 IOpCl=  0 I1Cent=           0 NGrid=           0
         NMat0=    1 NMatS0=   2926 NMatT0=    0 NMatD0=    1 NMtDS0=    0 NMtDT0=    0
 Symmetry not used in FoFCou.
 Two-electron integral symmetry not used.
 Closed shell SCF:
 Using DIIS extrapolation, IDIIS=  1040.
 NGot=   268435456 LenX=   264138979 LenY=   264132138
 Requested convergence on RMS density matrix=1.00D-08 within 128 cycles.
 Requested convergence on MAX density matrix=1.00D-06.
 Requested convergence on             energy=1.00D-06.
 No special actions if energy rises.

 Cycle   1  Pass 1  IDiag  1:
 Inv3:  Mode=1 IEnd=     2101707.
 Iteration    1 A*A^-1 deviation from unit magnitude is 2.66D-15 for    261.
 Iteration    1 A*A^-1 deviation from orthogonality  is 1.23D-15 for    819    338.
 Iteration    1 A^-1*A deviation from unit magnitude is 2.66D-15 for    261.
 Iteration    1 A^-1*A deviation from orthogonality  is 2.22D-15 for    837    360.
 E= -191.773698043312    
 DIIS: error= 3.41D-02 at cycle   1 NSaved=   1.
 NSaved= 1 IEnMin= 1 EnMin= -191.773698043312     IErMin= 1 ErrMin= 3.41D-02
 ErrMax= 3.41D-02  0.00D+00 EMaxC= 1.00D-01 BMatC= 1.01D-01 BMatP= 1.01D-01
 IDIUse=3 WtCom= 6.59D-01 WtEn= 3.41D-01
 Coeff-Com:  0.100D+01
 Coeff-En:   0.100D+01
 Coeff:      0.100D+01
 Gap=     0.127 Goal=   None    Shift=    0.000
 GapD=    0.127 DampG=1.000 DampE=0.500 DampFc=0.5000 IDamp=-1.
 Damping current iteration by 5.00D-01
 RMSDP=1.10D-02 MaxDP=2.26D-01              OVMax= 2.00D-01

 Cycle   2  Pass 1  IDiag  1:
 E= -191.803831426618     Delta-E=       -0.030133383306 Rises=F Damp=T
 DIIS: error= 1.33D-02 at cycle   2 NSaved=   2.
 NSaved= 2 IEnMin= 2 EnMin= -191.803831426618     IErMin= 2 ErrMin= 1.33D-02
 ErrMax= 1.33D-02  0.00D+00 EMaxC= 1.00D-01 BMatC= 1.55D-02 BMatP= 1.01D-01
 IDIUse=3 WtCom= 8.67D-01 WtEn= 1.33D-01
 Coeff-Com:  0.221D+00 0.779D+00
 Coeff-En:   0.305D+00 0.695D+00
 Coeff:      0.232D+00 0.768D+00
 Gap=     0.192 Goal=   None    Shift=    0.000
 RMSDP=3.28D-03 MaxDP=5.26D-02 DE=-3.01D-02 OVMax= 1.84D-01

 Cycle   3  Pass 1  IDiag  1:
 E= -191.859529602048     Delta-E=       -0.055698175430 Rises=F Damp=F
 DIIS: error= 1.56D-02 at cycle   3 NSaved=   3.
 NSaved= 3 IEnMin= 3 EnMin= -191.859529602048     IErMin= 2 ErrMin= 1.33D-02
 ErrMax= 1.56D-02  0.00D+00 EMaxC= 1.00D-01 BMatC= 1.33D-02 BMatP= 1.55D-02
 IDIUse=3 WtCom= 8.44D-01 WtEn= 1.56D-01
 Coeff-Com:  0.602D-01 0.480D+00 0.460D+00
 Coeff-En:   0.000D+00 0.000D+00 0.100D+01
 Coeff:      0.508D-01 0.405D+00 0.544D+00
 Gap=     0.192 Goal=   None    Shift=    0.000
 RMSDP=1.85D-03 MaxDP=3.77D-02 DE=-5.57D-02 OVMax= 6.29D-02

 Cycle   4  Pass 1  IDiag  1:
 E= -191.870024646005     Delta-E=       -0.010495043957 Rises=F Damp=F
 DIIS: error= 6.04D-03 at cycle   4 NSaved=   4.
 NSaved= 4 IEnMin= 4 EnMin= -191.870024646005     IErMin= 4 ErrMin= 6.04D-03
 ErrMax= 6.04D-03  0.00D+00 EMaxC= 1.00D-01 BMatC= 2.21D-03 BMatP= 1.33D-02
 IDIUse=3 WtCom= 9.40D-01 WtEn= 6.04D-02
 Coeff-Com:  0.185D-01 0.473D-01 0.289D+00 0.645D+00
 Coeff-En:   0.000D+00 0.000D+00 0.153D+00 0.847D+00
 Coeff:      0.174D-01 0.444D-01 0.281D+00 0.658D+00
 Gap=     0.177 Goal=   None    Shift=    0.000
 RMSDP=6.17D-04 MaxDP=1.17D-02 DE=-1.05D-02 OVMax= 2.18D-02

 Cycle   5  Pass 1  IDiag  1:
 E= -191.871855418546     Delta-E=       -0.001830772541 Rises=F Damp=F
 DIIS: error= 8.25D-04 at cycle   5 NSaved=   5.
 NSaved= 5 IEnMin= 5 EnMin= -191.871855418546     IErMin= 5 ErrMin= 8.25D-04
 ErrMax= 8.25D-04  0.00D+00 EMaxC= 1.00D-01 BMatC= 5.04D-05 BMatP= 2.21D-03
 IDIUse=3 WtCom= 9.92D-01 WtEn= 8.25D-03
 Coeff-Com:  0.627D-02 0.350D-02 0.123D+00 0.335D+00 0.532D+00
 Coeff-En:   0.000D+00 0.000D+00 0.000D+00 0.000D+00 0.100D+01
 Coeff:      0.622D-02 0.347D-02 0.122D+00 0.333D+00 0.536D+00
 Gap=     0.175 Goal=   None    Shift=    0.000
 RMSDP=1.30D-04 MaxDP=3.10D-03 DE=-1.83D-03 OVMax= 7.16D-03

 Cycle   6  Pass 1  IDiag  1:
 E= -191.871897533988     Delta-E=       -0.000042115442 Rises=F Damp=F
 DIIS: error= 4.23D-04 at cycle   6 NSaved=   6.
 NSaved= 6 IEnMin= 6 EnMin= -191.871897533988     IErMin= 6 ErrMin= 4.23D-04
 ErrMax= 4.23D-04  0.00D+00 EMaxC= 1.00D-01 BMatC= 1.37D-05 BMatP= 5.04D-05
 IDIUse=3 WtCom= 9.96D-01 WtEn= 4.23D-03
 Coeff-Com:  0.158D-02-0.457D-02 0.362D-01 0.114D+00 0.363D+00 0.490D+00
 Coeff-En:   0.000D+00 0.000D+00 0.000D+00 0.000D+00 0.239D+00 0.761D+00
 Coeff:      0.157D-02-0.455D-02 0.361D-01 0.113D+00 0.362D+00 0.491D+00
 Gap=     0.175 Goal=   None    Shift=    0.000
 RMSDP=4.43D-05 MaxDP=1.19D-03 DE=-4.21D-05 OVMax= 2.50D-03

 Cycle   7  Pass 1  IDiag  1:
 E= -191.871912167200     Delta-E=       -0.000014633212 Rises=F Damp=F
 DIIS: error= 6.40D-05 at cycle   7 NSaved=   7.
 NSaved= 7 IEnMin= 7 EnMin= -191.871912167200     IErMin= 7 ErrMin= 6.40D-05
 ErrMax= 6.40D-05  0.00D+00 EMaxC= 1.00D-01 BMatC= 4.43D-07 BMatP= 1.37D-05
 IDIUse=1 WtCom= 1.00D+00 WtEn= 0.00D+00
 Coeff-Com:  0.426D-03-0.274D-02 0.987D-02 0.327D-01 0.151D+00 0.238D+00
 Coeff-Com:  0.570D+00
 Coeff:      0.426D-03-0.274D-02 0.987D-02 0.327D-01 0.151D+00 0.238D+00
 Coeff:      0.570D+00
 Gap=     0.176 Goal=   None    Shift=    0.000
 RMSDP=9.85D-06 MaxDP=1.57D-04 DE=-1.46D-05 OVMax= 2.14D-04

 Cycle   8  Pass 1  IDiag  1:
 E= -191.871912577276     Delta-E=       -0.000000410076 Rises=F Damp=F
 DIIS: error= 1.00D-05 at cycle   8 NSaved=   8.
 NSaved= 8 IEnMin= 8 EnMin= -191.871912577276     IErMin= 8 ErrMin= 1.00D-05
 ErrMax= 1.00D-05  0.00D+00 EMaxC= 1.00D-01 BMatC= 1.20D-08 BMatP= 4.43D-07
 IDIUse=1 WtCom= 1.00D+00 WtEn= 0.00D+00
 Coeff-Com:  0.450D-04-0.436D-03 0.153D-03 0.191D-03 0.152D-01 0.201D-01
 Coeff-Com:  0.140D+00 0.825D+00
 Coeff:      0.450D-04-0.436D-03 0.153D-03 0.191D-03 0.152D-01 0.201D-01
 Coeff:      0.140D+00 0.825D+00
 Gap=     0.176 Goal=   None    Shift=    0.000
 RMSDP=1.55D-06 MaxDP=2.22D-05 DE=-4.10D-07 OVMax= 5.22D-05

 Cycle   9  Pass 1  IDiag  1:
 E= -191.871912588987     Delta-E=       -0.000000011712 Rises=F Damp=F
 DIIS: error= 1.06D-06 at cycle   9 NSaved=   9.
 NSaved= 9 IEnMin= 9 EnMin= -191.871912588987     IErMin= 9 ErrMin= 1.06D-06
 ErrMax= 1.06D-06  0.00D+00 EMaxC= 1.00D-01 BMatC= 1.22D-10 BMatP= 1.20D-08
 IDIUse=1 WtCom= 1.00D+00 WtEn= 0.00D+00
 Coeff-Com: -0.189D-05 0.204D-04-0.212D-03-0.845D-03-0.225D-02-0.436D-02
 Coeff-Com: -0.397D-02 0.878D-01 0.924D+00
 Coeff:     -0.189D-05 0.204D-04-0.212D-03-0.845D-03-0.225D-02-0.436D-02
 Coeff:     -0.397D-02 0.878D-01 0.924D+00
 Gap=     0.176 Goal=   None    Shift=    0.000
 RMSDP=3.61D-07 MaxDP=6.93D-06 DE=-1.17D-08 OVMax= 4.78D-06

 Cycle  10  Pass 1  IDiag  1:
 E= -191.871912589127     Delta-E=       -0.000000000140 Rises=F Damp=F
 DIIS: error= 1.62D-07 at cycle  10 NSaved=  10.
 NSaved=10 IEnMin=10 EnMin= -191.871912589127     IErMin=10 ErrMin= 1.62D-07
 ErrMax= 1.62D-07  0.00D+00 EMaxC= 1.00D-01 BMatC= 1.96D-12 BMatP= 1.22D-10
 IDIUse=1 WtCom= 1.00D+00 WtEn= 0.00D+00
 Coeff-Com: -0.155D-05 0.117D-04-0.318D-04-0.132D-03-0.596D-03-0.104D-02
 Coeff-Com: -0.308D-02-0.357D-02 0.146D+00 0.863D+00
 Coeff:     -0.155D-05 0.117D-04-0.318D-04-0.132D-03-0.596D-03-0.104D-02
 Coeff:     -0.308D-02-0.357D-02 0.146D+00 0.863D+00
 Gap=     0.176 Goal=   None    Shift=    0.000
 RMSDP=3.02D-08 MaxDP=3.63D-07 DE=-1.40D-10 OVMax= 1.02D-06

 Cycle  11  Pass 1  IDiag  1:
 E= -191.871912589130     Delta-E=       -0.000000000003 Rises=F Damp=F
 DIIS: error= 2.94D-08 at cycle  11 NSaved=  11.
 NSaved=11 IEnMin=11 EnMin= -191.871912589130     IErMin=11 ErrMin= 2.94D-08
 ErrMax= 2.94D-08  0.00D+00 EMaxC= 1.00D-01 BMatC= 1.28D-13 BMatP= 1.96D-12
 IDIUse=1 WtCom= 1.00D+00 WtEn= 0.00D+00
 Coeff-Com: -0.283D-06 0.123D-05 0.407D-06-0.209D-05-0.257D-04-0.718D-04
 Coeff-Com: -0.320D-03-0.292D-02-0.516D-02 0.107D+00 0.902D+00
 Coeff:     -0.283D-06 0.123D-05 0.407D-06-0.209D-05-0.257D-04-0.718D-04
 Coeff:     -0.320D-03-0.292D-02-0.516D-02 0.107D+00 0.902D+00
 Gap=     0.176 Goal=   None    Shift=    0.000
 RMSDP=7.43D-09 MaxDP=1.09D-07 DE=-3.01D-12 OVMax= 9.68D-08

 Error on total polarization charges =  0.00468
 SCF Done:  E(RB3LYP) =  -191.871912589     A.U. after   11 cycles
            NFock= 11  Conv=0.74D-08     -V/T= 2.0035
 KE= 1.912026458854D+02 PE=-6.602278571567D+02 EE= 1.711991583115D+02
 Leave Link  502 at Fri Sep 22 16:36:09 2023, MaxMem=   268435456 cpu:              21.4 elap:              10.8
 (Enter /share/apps/gaussian/g16/l601.exe)
 Copying SCF densities to generalized density rwf, IOpCl= 0 IROHF=0.

 **********************************************************************

            Population analysis using the SCF density.

 **********************************************************************

 Orbital symmetries:
       Occupied  (A) (A) (A) (A) (A) (A) (A) (A) (A) (A) (A) (A)
                 (A) (A) (A)
       Virtual   (A) (A) (A) (A) (A) (A) (A) (A) (A) (A) (A) (A)
                 (A) (A) (A) (A) (A) (A) (A) (A) (A) (A) (A) (A)
                 (A) (A) (A) (A) (A) (A) (A) (A) (A) (A) (A) (A)
                 (A) (A) (A) (A) (A) (A) (A) (A) (A) (A) (A) (A)
                 (A) (A) (A) (A) (A) (A) (A) (A) (A) (A) (A) (A)
                 (A)
 The electronic state is 1-A.
 Alpha  occ. eigenvalues --  -19.11905 -10.26361 -10.20968 -10.19576  -1.05795
 Alpha  occ. eigenvalues --   -0.79558  -0.67898  -0.56113  -0.52956  -0.45866
 Alpha  occ. eigenvalues --   -0.43062  -0.41151  -0.40673  -0.28271  -0.26885
 Alpha virt. eigenvalues --   -0.09332   0.04902   0.06411   0.08281   0.11075
 Alpha virt. eigenvalues --    0.13571   0.21788   0.24410   0.28919   0.40430
 Alpha virt. eigenvalues --    0.41967   0.46322   0.46808   0.48227   0.51473
 Alpha virt. eigenvalues --    0.52608   0.61285   0.63396   0.64800   0.67033
 Alpha virt. eigenvalues --    0.72370   0.74943   0.84280   0.90419   0.94104
 Alpha virt. eigenvalues --    0.95784   1.02520   1.13381   1.27601   1.31257
 Alpha virt. eigenvalues --    1.37234   1.50597   1.67178   1.70965   1.75860
 Alpha virt. eigenvalues --    1.81035   1.82236   1.86527   1.90023   1.92805
 Alpha virt. eigenvalues --    2.04979   2.08561   2.12282   2.21122   2.26608
 Alpha virt. eigenvalues --    2.27522   2.30141   2.38072   2.42437   2.45507
 Alpha virt. eigenvalues --    2.62377   2.67930   2.69933   2.84166   2.85829
 Alpha virt. eigenvalues --    3.04455   3.17830   3.22880   3.31614   3.45042
 Alpha virt. eigenvalues --    3.66921
          Condensed to atoms (all electrons):
               1          2          3          4          5          6
     1  C    4.456319   0.284539  -0.062400   0.640528   0.424200  -0.035042
     2  C    0.284539   5.291808   0.578522  -0.132795  -0.118267   0.407907
     3  C   -0.062400   0.578522   4.690229  -0.001831   0.013178  -0.031965
     4  O    0.640528  -0.132795  -0.001831   7.892886  -0.053121   0.004879
     5  H    0.424200  -0.118267   0.013178  -0.053121   0.682254  -0.005733
     6  H   -0.035042   0.407907  -0.031965   0.004879  -0.005733   0.606518
     7  H    0.009582  -0.027169   0.396184   0.000863  -0.000005  -0.012467
     8  H   -0.018828  -0.032885   0.403529   0.023233   0.001989   0.009180
               7          8
     1  C    0.009582  -0.018828
     2  C   -0.027169  -0.032885
     3  C    0.396184   0.403529
     4  O    0.000863   0.023233
     5  H   -0.000005   0.001989
     6  H   -0.012467   0.009180
     7  H    0.568467  -0.037682
     8  H   -0.037682   0.555276
 Mulliken charges:
               1
     1  C    0.301103
     2  C   -0.251660
     3  C    0.014554
     4  O   -0.374643
     5  H    0.055505
     6  H    0.056725
     7  H    0.102227
     8  H    0.096189
 Sum of Mulliken charges =  -0.00000
 Mulliken charges with hydrogens summed into heavy atoms:
               1
     1  C    0.356608
     2  C   -0.194935
     3  C    0.212970
     4  O   -0.374643
 Electronic spatial extent (au):  <R**2>=            257.9963
 Charge=             -0.0000 electrons
 Dipole moment (field-independent basis, Debye):
    X=             -2.3397    Y=              2.0220    Z=              0.0120  Tot=              3.0924
 Quadrupole moment (field-independent basis, Debye-Ang):
   XX=            -23.6959   YY=            -22.5530   ZZ=            -25.0144
   XY=              3.4542   XZ=             -0.0767   YZ=              0.0371
 Traceless Quadrupole moment (field-independent basis, Debye-Ang):
   XX=              0.0585   YY=              1.2015   ZZ=             -1.2600
   XY=              3.4542   XZ=             -0.0767   YZ=              0.0371
 Octapole moment (field-independent basis, Debye-Ang**2):
  XXX=             -6.6158  YYY=             -0.0864  ZZZ=              0.0636  XYY=             -0.6964
  XXY=              2.9733  XXZ=              0.1466  XZZ=              3.2734  YZZ=             -1.0636
  YYZ=              0.0345  XYZ=             -0.0150
 Hexadecapole moment (field-independent basis, Debye-Ang**3):
 XXXX=           -208.5192 YYYY=            -86.9182 ZZZZ=            -26.5629 XXXY=              5.2317
 XXXZ=             -0.4515 YYYX=             -0.7794 YYYZ=              0.1035 ZZZX=             -0.0706
 ZZZY=              0.0207 XXYY=            -50.9578 XXZZ=            -42.5018 YYZZ=            -20.2456
 XXYZ=              0.0278 YYXZ=             -0.0517 ZZXY=             -0.3965
 N-N= 1.059541403707D+02 E-N=-6.602278572355D+02  KE= 1.912026458854D+02
 There are a total of      177562 grid points.
 ElSum from          density=       30.0000055133
 ElSum from atomic densities=       30.0000012511
 Hirshfeld populations at iteration   1 (CA, CB, DipXYZ):
               1          2          3          4          5
     1  C    2.937408   2.937408   0.004161   0.073613  -0.001379
     2  C    3.020168   3.020168   0.048604   0.079091   0.000280
     3  C    3.002928   3.002928  -0.082585  -0.081293  -0.000331
     4  O    4.131099   4.131099  -0.103280   0.130491  -0.000807
     5  H    0.478010   0.478010   0.074724   0.108051   0.000515
     6  H    0.479679   0.479679  -0.058946   0.146270   0.002928
     7  H    0.473815   0.473815  -0.159483   0.019262   0.004795
     8  H    0.476896   0.476896   0.025072  -0.147882  -0.001024
       Tot  15.000003  15.000003  -0.251732   0.327603   0.004977

 Dip from Atomic Chgs             -0.668764   0.467935  -0.000258
         Total Dipole             -0.920497   0.795538   0.004719

 Hirshfeld charges, spin densities, dipoles, and CM5 charges using IRadAn=      5:
              Q-H        S-H        Dx         Dy         Dz        Q-CM5   
     1  C    0.125184   0.000000   0.004161   0.073613  -0.001379   0.108800
     2  C   -0.040336   0.000000   0.048604   0.079091   0.000280  -0.104926
     3  C   -0.005856   0.000000  -0.082585  -0.081293  -0.000331  -0.120365
     4  O   -0.262199   0.000000  -0.103280   0.130491  -0.000807  -0.319885
     5  H    0.043980   0.000000   0.074724   0.108051   0.000515   0.108276
     6  H    0.040643   0.000000  -0.058946   0.146270   0.002928   0.104895
     7  H    0.052371   0.000000  -0.159483   0.019262   0.004795   0.112101
     8  H    0.046208   0.000000   0.025072  -0.147882  -0.001024   0.111098
       Tot  -0.000006   0.000000  -0.251732   0.327603   0.004977  -0.000006
 Hirshfeld charges with hydrogens summed into heavy atoms:
              Q-H       Q-CM5   
     1  C    0.169164   0.217076
     2  C    0.000307  -0.000031
     3  C    0.092723   0.102835
     4  O   -0.262199  -0.319885
 
 EQQ= 0.000000000000E+00 EQD= 0.000000000000E+00 EDD= 0.540642851366E-02
 EQQ+QD+DD= 0.540642851366E-02
 
 No NMR shielding tensors so no spin-rotation constants.
 Leave Link  601 at Fri Sep 22 16:36:09 2023, MaxMem=   268435456 cpu:               1.2 elap:               0.6
 (Enter /share/apps/gaussian/g16/l9999.exe)
 1\1\GINC-NODE99\SP\RB3LYP\Gen\C3H4O1\YANZ\22-Sep-2023\0\\#p b3lyp/gen 
 scrf=(cpcm,solvent=toluene) pop=hirshfeld empiricaldispersion=gd3bj\\t
 mpdir/M2_conf_0_308.gjf\\0,1\C,0,0.,0.,0.\C,0,1.4217,0.,0.\C,0,2.11825
 ,0.,1.24992\O,0,-0.61379,-0.0082,1.04447\H,0,-0.525,-0.00183,-0.95261\
 H,0,1.9586,-0.01535,-0.87053\H,0,3.14587,-0.0257,1.23897\H,0,1.57173,0
 .00817,2.1195\\Version=ES64L-G16RevA.03\State=1-A\HF=-191.8719126\RMSD
 =7.431e-09\Dipole=1.0228283,-0.0037114,-0.6588061\Quadrupole=-0.651875
 5,-0.9368602,1.5887358,-0.0619398,2.349548,0.018651\PG=C01 [X(C3H4O1)]
 \\@


 IF GOD HAD MEANT MAN TO SEE THE SUN RISE, HE
 WOULD HAVE SCHEDULED IT FOR A LATER HOUR.
 Job cpu time:       0 days  0 hours  0 minutes 25.1 seconds.
 Elapsed time:       0 days  0 hours  0 minutes 12.7 seconds.
 File lengths (MBytes):  RWF=     13 Int=      0 D2E=      0 Chk=      2 Scr=      1
 Normal termination of Gaussian 16 at Fri Sep 22 16:36:09 2023.
