 Entering Gaussian System, Link 0=g16
 Initial command:
 /share/apps/gaussian/g16/l1.exe "/tmp/55556.mgr/Gau-86643.inp" -scrdir="/tmp/55556.mgr/"
 Entering Link 1 = /share/apps/gaussian/g16/l1.exe PID=     86645.
  
 Copyright (c) 1988,1990,1992,1993,1995,1998,2003,2009,2016,
            Gaussian, Inc.  All Rights Reserved.
  
 This is part of the Gaussian(R) 16 program.  It is based on
 the Gaussian(R) 09 system (copyright 2009, Gaussian, Inc.),
 the Gaussian(R) 03 system (copyright 2003, Gaussian, Inc.),
 the Gaussian(R) 98 system (copyright 1998, Gaussian, Inc.),
 the Gaussian(R) 94 system (copyright 1995, Gaussian, Inc.),
 the Gaussian 92(TM) system (copyright 1992, Gaussian, Inc.),
 the Gaussian 90(TM) system (copyright 1990, Gaussian, Inc.),
 the Gaussian 88(TM) system (copyright 1988, Gaussian, Inc.),
 the Gaussian 86(TM) system (copyright 1986, Carnegie Mellon
 University), and the Gaussian 82(TM) system (copyright 1983,
 Carnegie Mellon University). Gaussian is a federally registered
 trademark of Gaussian, Inc.
  
 This software contains proprietary and confidential information,
 including trade secrets, belonging to Gaussian, Inc.
  
 This software is provided under written license and may be
 used, copied, transmitted, or stored only in accord with that
 written license.
  
 The following legend is applicable only to US Government
 contracts under FAR:
  
                    RESTRICTED RIGHTS LEGEND
  
 Use, reproduction and disclosure by the US Government is
 subject to restrictions as set forth in subparagraphs (a)
 and (c) of the Commercial Computer Software - Restricted
 Rights clause in FAR 52.227-19.
  
 Gaussian, Inc.
 340 Quinnipiac St., Bldg. 40, Wallingford CT 06492
  
  
 ---------------------------------------------------------------
 Warning -- This program may not be used in any manner that
 competes with the business of Gaussian, Inc. or will provide
 assistance to any competitor of Gaussian, Inc.  The licensee
 of this program is prohibited from giving any competitor of
 Gaussian, Inc. access to this program.  By using this program,
 the user acknowledges that Gaussian, Inc. is engaged in the
 business of creating and licensing software in the field of
 computational chemistry and represents and warrants to the
 licensee that it is not a competitor of Gaussian, Inc. and that
 it will not use this program in any manner prohibited above.
 ---------------------------------------------------------------
  

 Cite this work as:
 Gaussian 16, Revision A.03,
 M. J. Frisch, G. W. Trucks, H. B. Schlegel, G. E. Scuseria, 
 M. A. Robb, J. R. Cheeseman, G. Scalmani, V. Barone, 
 G. A. Petersson, H. Nakatsuji, X. Li, M. Caricato, A. V. Marenich, 
 J. Bloino, B. G. Janesko, R. Gomperts, B. Mennucci, H. P. Hratchian, 
 J. V. Ortiz, A. F. Izmaylov, J. L. Sonnenberg, D. Williams-Young, 
 F. Ding, F. Lipparini, F. Egidi, J. Goings, B. Peng, A. Petrone, 
 T. Henderson, D. Ranasinghe, V. G. Zakrzewski, J. Gao, N. Rega, 
 G. Zheng, W. Liang, M. Hada, M. Ehara, K. Toyota, R. Fukuda, 
 J. Hasegawa, M. Ishida, T. Nakajima, Y. Honda, O. Kitao, H. Nakai, 
 T. Vreven, K. Throssell, J. A. Montgomery, Jr., J. E. Peralta, 
 F. Ogliaro, M. J. Bearpark, J. J. Heyd, E. N. Brothers, K. N. Kudin, 
 V. N. Staroverov, T. A. Keith, R. Kobayashi, J. Normand, 
 K. Raghavachari, A. P. Rendell, J. C. Burant, S. S. Iyengar, 
 J. Tomasi, M. Cossi, J. M. Millam, M. Klene, C. Adamo, R. Cammi, 
 J. W. Ochterski, R. L. Martin, K. Morokuma, O. Farkas, 
 J. B. Foresman, and D. J. Fox, Gaussian, Inc., Wallingford CT, 2016.
 
 ******************************************
 Gaussian 16:  ES64L-G16RevA.03 25-Dec-2016
                22-Sep-2023 
 ******************************************
 %nprocshared=2
 Will use up to    2 processors via shared memory.
 %mem=2GB
 ----------------------------------------------------------------------
 #p b3lyp/gen scrf=(cpcm,solvent=toluene) pop=hirshfeld empiricaldisper
 sion=gd3bj
 ----------------------------------------------------------------------
 1/38=1,172=1/1;
 2/12=2,17=6,18=5,40=1/2;
 3/5=7,11=2,25=1,30=1,70=2101,72=13,74=-5,124=41/1,2,3;
 4//1;
 5/5=2,38=5,53=13/2;
 6/7=2,8=2,9=2,10=2,28=1,79=1/1;
 99/5=1,9=1/99;
 Leave Link    1 at Fri Sep 22 16:35:20 2023, MaxMem=   268435456 cpu:               0.1 elap:               0.0
 (Enter /share/apps/gaussian/g16/l101.exe)
 ------------------------
 tmpdir/M2_conf_0_231.gjf
 ------------------------
 Symbolic Z-matrix:
 Charge =  0 Multiplicity = 1
 N                     0.        0.        0. 
 C                     1.4022    0.        0. 
 H                    -0.31991   0.       -0.91403 
 H                    -0.60207   0.22611   0.8071 
 O                     1.76791  -0.01128  -1.1542 
 H                     2.03025  -0.02119   0.87958 
 
 ITRead=  0  0  0  0  0  0
 MicOpt= -1 -1 -1 -1 -1 -1
 NAtoms=      6 NQM=        6 NQMF=       0 NMMI=      0 NMMIF=      0
                NMic=       0 NMicF=      0.
                    Isotopes and Nuclear Properties:
 (Nuclear quadrupole moments (NQMom) in fm**2, nuclear magnetic moments (NMagM)
  in nuclear magnetons)

  Atom         1           2           3           4           5           6
 IAtWgt=          14          12           1           1          16           1
 AtmWgt=  14.0030740  12.0000000   1.0078250   1.0078250  15.9949146   1.0078250
 NucSpn=           2           0           1           1           0           1
 AtZEff=  -0.0000000  -0.0000000  -0.0000000  -0.0000000  -0.0000000  -0.0000000
 NQMom=    2.0440000   0.0000000   0.0000000   0.0000000   0.0000000   0.0000000
 NMagM=    0.4037610   0.0000000   2.7928460   2.7928460   0.0000000   2.7928460
 AtZNuc=   7.0000000   6.0000000   1.0000000   1.0000000   8.0000000   1.0000000
 Leave Link  101 at Fri Sep 22 16:35:20 2023, MaxMem=   268435456 cpu:               0.2 elap:               0.1
 (Enter /share/apps/gaussian/g16/l202.exe)
                          Input orientation:                          
 ---------------------------------------------------------------------
 Center     Atomic      Atomic             Coordinates (Angstroms)
 Number     Number       Type             X           Y           Z
 ---------------------------------------------------------------------
      1          7           0        0.000000    0.000000    0.000000
      2          6           0        1.402200    0.000000    0.000000
      3          1           0       -0.319910    0.000000   -0.914030
      4          1           0       -0.602070    0.226110    0.807100
      5          8           0        1.767910   -0.011280   -1.154200
      6          1           0        2.030250   -0.021190    0.879580
 ---------------------------------------------------------------------
                    Distance matrix (angstroms):
                    1          2          3          4          5
     1  N    0.000000
     2  C    1.402200   0.000000
     3  H    0.968397   1.949645   0.000000
     4  H    1.032000   2.172472   1.758701   0.000000
     5  O    2.111353   1.210805   2.101619   3.085427   0.000000
     6  H    2.212696   1.080998   2.956474   2.644904   2.050654
                    6
     6  H    0.000000
 Stoichiometry    CH3NO
 Framework group  C1[X(CH3NO)]
 Deg. of freedom    12
 Full point group                 C1      NOp   1
 Largest Abelian subgroup         C1      NOp   1
 Largest concise Abelian subgroup C1      NOp   1
                         Standard orientation:                         
 ---------------------------------------------------------------------
 Center     Atomic      Atomic             Coordinates (Angstroms)
 Number     Number       Type             X           Y           Z
 ---------------------------------------------------------------------
      1          7           0        1.033479   -0.166170   -0.029549
      2          6           0       -0.194997    0.509375   -0.004055
      3          1           0        0.873690   -1.121219   -0.017619
      4          1           0        1.955256    0.252861    0.169864
      5          8           0       -1.071378   -0.325902    0.013728
      6          1           0       -0.322293    1.582516   -0.030896
 ---------------------------------------------------------------------
 Rotational constants (GHZ):          55.8094963          13.1475861          10.6599504
 Leave Link  202 at Fri Sep 22 16:35:20 2023, MaxMem=   268435456 cpu:               0.0 elap:               0.0
 (Enter /share/apps/gaussian/g16/l301.exe)
 General basis read from cards:  (5D, 7F)
 Centers:       3      4      6
 S 3 1.00
     Exponent=  1.2251800000D+01 Coefficients=  2.3337100000D-02
     Exponent=  1.8687100000D+00 Coefficients=  1.5915000000D-01
     Exponent=  4.1820800000D-01 Coefficients=  5.0000000000D-01
 S 1 1.00
     Exponent=  1.0610000000D-01 Coefficients=  1.0000000000D+00
 P 1 1.00
     Exponent=  1.0000000000D+00 Coefficients=  1.0000000000D+00
 ****
 Centers:       2
 S 5 1.00
     Exponent=  1.2432000000D+03 Coefficients=  6.0336600000D-03
     Exponent=  1.8714500000D+02 Coefficients=  4.4957600000D-02
     Exponent=  4.2512600000D+01 Coefficients=  1.9790100000D-01
     Exponent=  1.1739300000D+01 Coefficients=  5.0000000000D-01
     Exponent=  3.5054800000D+00 Coefficients=  4.8036400000D-01
 S 2 1.00
     Exponent=  5.3908900000D+00 Coefficients= -7.0398000000D-02
     Exponent=  4.9334100000D-01 Coefficients=  5.0000000000D-01
 S 1 1.00
     Exponent=  1.4974100000D-01 Coefficients=  1.0000000000D+00
 P 3 1.00
     Exponent=  9.1805600000D+00 Coefficients=  4.3170100000D-02
     Exponent=  1.9365800000D+00 Coefficients=  2.2499900000D-01
     Exponent=  5.2629600000D-01 Coefficients=  5.0000000000D-01
 P 1 1.00
     Exponent=  1.3631900000D-01 Coefficients=  1.0000000000D+00
 D 1 1.00
     Exponent=  8.0000000000D-01 Coefficients=  1.0000000000D+00
 ****
 Centers:       1
 S 5 1.00
     Exponent=  1.7263200000D+03 Coefficients=  5.9307700000D-03
     Exponent=  2.5982700000D+02 Coefficients=  4.4253900000D-02
     Exponent=  5.9033500000D+01 Coefficients=  1.9609600000D-01
     Exponent=  1.6350900000D+01 Coefficients=  5.0000000000D-01
     Exponent=  4.9108400000D+00 Coefficients=  4.8298700000D-01
 S 2 1.00
     Exponent=  7.7589400000D+00 Coefficients= -7.0335600000D-02
     Exponent=  7.0557300000D-01 Coefficients=  5.0000000000D-01
 S 1 1.00
     Exponent=  2.0928600000D-01 Coefficients=  1.0000000000D+00
 P 3 1.00
     Exponent=  1.3184400000D+01 Coefficients=  4.4074700000D-02
     Exponent=  2.8186000000D+00 Coefficients=  2.3047800000D-01
     Exponent=  7.6557100000D-01 Coefficients=  5.0000000000D-01
 P 1 1.00
     Exponent=  1.9594900000D-01 Coefficients=  1.0000000000D+00
 D 1 1.00
     Exponent=  9.0000000000D-01 Coefficients=  1.0000000000D+00
 ****
 Centers:       5
 S 5 1.00
     Exponent=  2.2886400000D+03 Coefficients=  5.8546800000D-03
     Exponent=  3.4441600000D+02 Coefficients=  4.3733300000D-02
     Exponent=  7.8253800000D+01 Coefficients=  1.9479600000D-01
     Exponent=  2.1719500000D+01 Coefficients=  5.0000000000D-01
     Exponent=  6.5590700000D+00 Coefficients=  4.8461400000D-01
 S 2 1.00
     Exponent=  1.0465600000D+01 Coefficients= -7.1334300000D-02
     Exponent=  9.6435100000D-01 Coefficients=  5.0000000000D-01
 S 1 1.00
     Exponent=  2.8512700000D-01 Coefficients=  1.0000000000D+00
 P 3 1.00
     Exponent=  1.7059000000D+01 Coefficients=  4.7443900000D-02
     Exponent=  3.6899900000D+00 Coefficients=  2.4268900000D-01
     Exponent=  9.9299600000D-01 Coefficients=  5.0000000000D-01
 P 1 1.00
     Exponent=  2.4492400000D-01 Coefficients=  1.0000000000D+00
 D 1 1.00
     Exponent=  1.0000000000D+00 Coefficients=  1.0000000000D+00
 ****
 Ernie: Thresh=  0.10000D-02 Tol=  0.10000D-05 Strict=F.
 There are    60 symmetry adapted cartesian basis functions of A   symmetry.
 There are    57 symmetry adapted basis functions of A   symmetry.
    57 basis functions,    99 primitive gaussians,    60 cartesian basis functions
    12 alpha electrons       12 beta electrons
       nuclear repulsion energy        72.1107087709 Hartrees.
 IExCor=  402 DFT=T Ex+Corr=B3LYP ExCW=0 ScaHFX=  0.200000
 ScaDFX=  0.800000  0.720000  1.000000  0.810000 ScalE2=  1.000000  1.000000
 IRadAn=      5 IRanWt=     -1 IRanGd=            0 ICorTp=0 IEmpDi=141
 NAtoms=    6 NActive=    6 NUniq=    6 SFac= 1.00D+00 NAtFMM=   60 NAOKFM=F Big=F
 Integral buffers will be    131072 words long.
 Raffenetti 2 integral format.
 Two-electron integral symmetry is turned on.
 R6Disp:  Grimme-D3(BJ) Dispersion energy=       -0.0043221780 Hartrees.
 Nuclear repulsion after empirical dispersion term =       72.1063865929 Hartrees.
 ------------------------------------------------------------------------------
 Polarizable Continuum Model (PCM)
 =================================
 Model                : C-PCM.
 Atomic radii         : UFF (Universal Force Field).
 Polarization charges : Total charges.
 Charge compensation  : None.
 Solution method      : On-the-fly selection.
 Cavity type          : Scaled VdW (van der Waals Surface) (Alpha=1.100).
 Cavity algorithm     : GePol (No added spheres)
                        Default sphere list used, NSphG=    6.
                        Lebedev-Laikov grids with approx.  5.0 points / Ang**2.
                        Smoothing algorithm: York/Karplus (Gamma=1.0000).
                        Polarization charges: spherical gaussians, with
                                              point-specific exponents (IZeta= 3).
                        Self-potential: point-specific (ISelfS= 7).
                        Self-field    : sphere-specific E.n sum rule (ISelfD= 2).
 Solvent              : Toluene, Eps=   2.374100 Eps(inf)=   2.238315
 ------------------------------------------------------------------------------
 Spheres list:
 ISph  on   Nord     Re0    Alpha      Xe            Ye            Ze
    1   N      1    1.8300  1.100      1.033479     -0.166170     -0.029549
    2   C      2    1.9255  1.100     -0.194997      0.509375     -0.004055
    3   H      3    1.4430  1.100      0.873690     -1.121219     -0.017619
    4   H      4    1.4430  1.100      1.955256      0.252861      0.169864
    5   O      5    1.7500  1.100     -1.071378     -0.325902      0.013728
    6   H      6    1.4430  1.100     -0.322293      1.582516     -0.030896
 ------------------------------------------------------------------------------
 GePol: Number of generator spheres                  =       6
 GePol: Total number of spheres                      =       6
 GePol: Number of exposed spheres                    =       6 (100.00%)
 GePol: Number of points                             =     666
 GePol: Average weight of points                     =       0.14
 GePol: Minimum weight of points                     =   0.28D-08
 GePol: Maximum weight of points                     =    0.20322
 GePol: Number of points with low weight             =      23
 GePol: Fraction of low-weight points (<1% of avg)   =       3.45%
 GePol: Cavity surface area                          =     91.670 Ang**2
 GePol: Cavity volume                                =     74.198 Ang**3
 Leave Link  301 at Fri Sep 22 16:35:21 2023, MaxMem=   268435456 cpu:               0.2 elap:               0.1
 (Enter /share/apps/gaussian/g16/l302.exe)
 NPDir=0 NMtPBC=     1 NCelOv=     1 NCel=       1 NClECP=     1 NCelD=      1
         NCelK=      1 NCelE2=     1 NClLst=     1 CellRange=     0.0.
 One-electron integrals computed using PRISM.
 One-electron integral symmetry used in STVInt
 NBasis=    57 RedAO= T EigKep=  1.04D-02  NBF=    57
 NBsUse=    57 1.00D-06 EigRej= -1.00D+00 NBFU=    57
 Precomputing XC quadrature grid using
 IXCGrd= 4 IRadAn=           5 IRanWt=          -1 IRanGd=           0 AccXCQ= 0.00D+00.
 Generated NRdTot=       0 NPtTot=           0 NUsed=           0 NTot=          32
 NSgBfM=    60    60    60    60    60 MxSgAt=     6 MxSgA2=     6.
 Leave Link  302 at Fri Sep 22 16:35:21 2023, MaxMem=   268435456 cpu:               0.3 elap:               0.1
 (Enter /share/apps/gaussian/g16/l303.exe)
 DipDrv:  MaxL=1.
 Leave Link  303 at Fri Sep 22 16:35:21 2023, MaxMem=   268435456 cpu:               0.1 elap:               0.0
 (Enter /share/apps/gaussian/g16/l401.exe)
 ExpMin= 1.06D-01 ExpMax= 2.29D+03 ExpMxC= 3.44D+02 IAcc=3 IRadAn=         5 AccDes= 0.00D+00
 Harris functional with IExCor=  402 and IRadAn=       5 diagonalized for initial guess.
 HarFok:  IExCor=  402 AccDes= 0.00D+00 IRadAn=         5 IDoV= 1 UseB2=F ITyADJ=14
 ICtDFT=  3500011 ScaDFX=  1.000000  1.000000  1.000000  1.000000
 FoFCou: FMM=F IPFlag=           0 FMFlag=      100000 FMFlg1=           0
         NFxFlg=           0 DoJE=T BraDBF=F KetDBF=T FulRan=T
         wScrn=  0.000000 ICntrl=       500 IOpCl=  0 I1Cent=   200000004 NGrid=           0
         NMat0=    1 NMatS0=      1 NMatT0=    0 NMatD0=    1 NMtDS0=    0 NMtDT0=    0
 Petite list used in FoFCou.
 Harris En= -169.870315322062    
 JPrj=0 DoOrth=F DoCkMO=F.
 Leave Link  401 at Fri Sep 22 16:35:21 2023, MaxMem=   268435456 cpu:               0.9 elap:               0.5
 (Enter /share/apps/gaussian/g16/l502.exe)
 Keep R1 ints in memory in canonical form, NReq=3135181.
 FoFCou: FMM=F IPFlag=           0 FMFlag=           0 FMFlg1=           0
         NFxFlg=           0 DoJE=F BraDBF=F KetDBF=F FulRan=T
         wScrn=  0.000000 ICntrl=       600 IOpCl=  0 I1Cent=           0 NGrid=           0
         NMat0=    1 NMatS0=   1653 NMatT0=    0 NMatD0=    1 NMtDS0=    0 NMtDT0=    0
 Symmetry not used in FoFCou.
 Two-electron integral symmetry not used.
 Closed shell SCF:
 Using DIIS extrapolation, IDIIS=  1040.
 NGot=   268435456 LenX=   267060075 LenY=   267056034
 Requested convergence on RMS density matrix=1.00D-08 within 128 cycles.
 Requested convergence on MAX density matrix=1.00D-06.
 Requested convergence on             energy=1.00D-06.
 No special actions if energy rises.

 Cycle   1  Pass 1  IDiag  1:
 Inv3:  Mode=1 IEnd=     1330668.
 Iteration    1 A*A^-1 deviation from unit magnitude is 3.55D-15 for    656.
 Iteration    1 A*A^-1 deviation from orthogonality  is 1.18D-15 for    564    474.
 Iteration    1 A^-1*A deviation from unit magnitude is 3.55D-15 for    656.
 Iteration    1 A^-1*A deviation from orthogonality  is 1.23D-15 for    662    343.
 E= -169.745664547944    
 DIIS: error= 4.44D-02 at cycle   1 NSaved=   1.
 NSaved= 1 IEnMin= 1 EnMin= -169.745664547944     IErMin= 1 ErrMin= 4.44D-02
 ErrMax= 4.44D-02  0.00D+00 EMaxC= 1.00D-01 BMatC= 1.39D-01 BMatP= 1.39D-01
 IDIUse=3 WtCom= 5.56D-01 WtEn= 4.44D-01
 Coeff-Com:  0.100D+01
 Coeff-En:   0.100D+01
 Coeff:      0.100D+01
 Gap=     0.201 Goal=   None    Shift=    0.000
 GapD=    0.201 DampG=1.000 DampE=0.500 DampFc=0.5000 IDamp=-1.
 Damping current iteration by 5.00D-01
 RMSDP=1.41D-02 MaxDP=2.17D-01              OVMax= 2.33D-01

 Cycle   2  Pass 1  IDiag  1:
 E= -169.764275246716     Delta-E=       -0.018610698772 Rises=F Damp=T
 DIIS: error= 1.49D-02 at cycle   2 NSaved=   2.
 NSaved= 2 IEnMin= 2 EnMin= -169.764275246716     IErMin= 2 ErrMin= 1.49D-02
 ErrMax= 1.49D-02  0.00D+00 EMaxC= 1.00D-01 BMatC= 2.35D-02 BMatP= 1.39D-01
 IDIUse=3 WtCom= 8.51D-01 WtEn= 1.49D-01
 Coeff-Com:  0.263D+00 0.737D+00
 Coeff-En:   0.423D+00 0.577D+00
 Coeff:      0.287D+00 0.713D+00
 Gap=     0.320 Goal=   None    Shift=    0.000
 RMSDP=3.73D-03 MaxDP=4.14D-02 DE=-1.86D-02 OVMax= 1.93D-01

 Cycle   3  Pass 1  IDiag  1:
 E= -169.844866766125     Delta-E=       -0.080591519409 Rises=F Damp=F
 DIIS: error= 1.40D-02 at cycle   3 NSaved=   3.
 NSaved= 3 IEnMin= 3 EnMin= -169.844866766125     IErMin= 3 ErrMin= 1.40D-02
 ErrMax= 1.40D-02  0.00D+00 EMaxC= 1.00D-01 BMatC= 1.22D-02 BMatP= 2.35D-02
 IDIUse=3 WtCom= 8.60D-01 WtEn= 1.40D-01
 Coeff-Com:  0.134D+00 0.446D+00 0.419D+00
 Coeff-En:   0.000D+00 0.000D+00 0.100D+01
 Coeff:      0.115D+00 0.384D+00 0.501D+00
 Gap=     0.272 Goal=   None    Shift=    0.000
 RMSDP=1.91D-03 MaxDP=3.75D-02 DE=-8.06D-02 OVMax= 5.82D-02

 Cycle   4  Pass 1  IDiag  1:
 E= -169.853538221482     Delta-E=       -0.008671455356 Rises=F Damp=F
 DIIS: error= 6.08D-03 at cycle   4 NSaved=   4.
 NSaved= 4 IEnMin= 4 EnMin= -169.853538221482     IErMin= 4 ErrMin= 6.08D-03
 ErrMax= 6.08D-03  0.00D+00 EMaxC= 1.00D-01 BMatC= 2.14D-03 BMatP= 1.22D-02
 IDIUse=3 WtCom= 9.39D-01 WtEn= 6.08D-02
 Coeff-Com:  0.260D-01 0.928D-01 0.303D+00 0.578D+00
 Coeff-En:   0.000D+00 0.000D+00 0.166D+00 0.834D+00
 Coeff:      0.244D-01 0.871D-01 0.295D+00 0.594D+00
 Gap=     0.264 Goal=   None    Shift=    0.000
 RMSDP=6.65D-04 MaxDP=1.28D-02 DE=-8.67D-03 OVMax= 1.68D-02

 Cycle   5  Pass 1  IDiag  1:
 E= -169.855198065432     Delta-E=       -0.001659843950 Rises=F Damp=F
 DIIS: error= 8.00D-04 at cycle   5 NSaved=   5.
 NSaved= 5 IEnMin= 5 EnMin= -169.855198065432     IErMin= 5 ErrMin= 8.00D-04
 ErrMax= 8.00D-04  0.00D+00 EMaxC= 1.00D-01 BMatC= 8.37D-05 BMatP= 2.14D-03
 IDIUse=3 WtCom= 9.92D-01 WtEn= 8.00D-03
 Coeff-Com:  0.120D-02 0.576D-02 0.106D+00 0.298D+00 0.590D+00
 Coeff-En:   0.000D+00 0.000D+00 0.000D+00 0.000D+00 0.100D+01
 Coeff:      0.119D-02 0.572D-02 0.105D+00 0.296D+00 0.593D+00
 Gap=     0.263 Goal=   None    Shift=    0.000
 RMSDP=1.48D-04 MaxDP=1.76D-03 DE=-1.66D-03 OVMax= 3.09D-03

 Cycle   6  Pass 1  IDiag  1:
 E= -169.855277494619     Delta-E=       -0.000079429187 Rises=F Damp=F
 DIIS: error= 1.14D-04 at cycle   6 NSaved=   6.
 NSaved= 6 IEnMin= 6 EnMin= -169.855277494619     IErMin= 6 ErrMin= 1.14D-04
 ErrMax= 1.14D-04  0.00D+00 EMaxC= 1.00D-01 BMatC= 2.06D-06 BMatP= 8.37D-05
 IDIUse=3 WtCom= 9.99D-01 WtEn= 1.14D-03
 Coeff-Com: -0.468D-03-0.339D-02 0.176D-01 0.516D-01 0.184D+00 0.751D+00
 Coeff-En:   0.000D+00 0.000D+00 0.000D+00 0.000D+00 0.000D+00 0.100D+01
 Coeff:     -0.467D-03-0.339D-02 0.176D-01 0.515D-01 0.183D+00 0.751D+00
 Gap=     0.263 Goal=   None    Shift=    0.000
 RMSDP=2.08D-05 MaxDP=2.18D-04 DE=-7.94D-05 OVMax= 3.45D-04

 Cycle   7  Pass 1  IDiag  1:
 E= -169.855279218699     Delta-E=       -0.000001724080 Rises=F Damp=F
 DIIS: error= 2.33D-05 at cycle   7 NSaved=   7.
 NSaved= 7 IEnMin= 7 EnMin= -169.855279218699     IErMin= 7 ErrMin= 2.33D-05
 ErrMax= 2.33D-05  0.00D+00 EMaxC= 1.00D-01 BMatC= 4.85D-08 BMatP= 2.06D-06
 IDIUse=1 WtCom= 1.00D+00 WtEn= 0.00D+00
 Coeff-Com:  0.642D-04-0.761D-03 0.173D-02 0.221D-02 0.201D-01 0.867D-01
 Coeff-Com:  0.890D+00
 Coeff:      0.642D-04-0.761D-03 0.173D-02 0.221D-02 0.201D-01 0.867D-01
 Coeff:      0.890D+00
 Gap=     0.263 Goal=   None    Shift=    0.000
 RMSDP=3.43D-06 MaxDP=3.70D-05 DE=-1.72D-06 OVMax= 6.03D-05

 Cycle   8  Pass 1  IDiag  1:
 E= -169.855279257441     Delta-E=       -0.000000038742 Rises=F Damp=F
 DIIS: error= 3.39D-06 at cycle   8 NSaved=   8.
 NSaved= 8 IEnMin= 8 EnMin= -169.855279257441     IErMin= 8 ErrMin= 3.39D-06
 ErrMax= 3.39D-06  0.00D+00 EMaxC= 1.00D-01 BMatC= 1.37D-09 BMatP= 4.85D-08
 IDIUse=1 WtCom= 1.00D+00 WtEn= 0.00D+00
 Coeff-Com:  0.433D-04 0.184D-04-0.309D-03-0.175D-02-0.406D-02-0.229D-01
 Coeff-Com:  0.100D+00 0.929D+00
 Coeff:      0.433D-04 0.184D-04-0.309D-03-0.175D-02-0.406D-02-0.229D-01
 Coeff:      0.100D+00 0.929D+00
 Gap=     0.263 Goal=   None    Shift=    0.000
 RMSDP=8.54D-07 MaxDP=1.10D-05 DE=-3.87D-08 OVMax= 1.23D-05

 Cycle   9  Pass 1  IDiag  1:
 E= -169.855279258644     Delta-E=       -0.000000001203 Rises=F Damp=F
 DIIS: error= 2.42D-07 at cycle   9 NSaved=   9.
 NSaved= 9 IEnMin= 9 EnMin= -169.855279258644     IErMin= 9 ErrMin= 2.42D-07
 ErrMax= 2.42D-07  0.00D+00 EMaxC= 1.00D-01 BMatC= 4.76D-12 BMatP= 1.37D-09
 IDIUse=1 WtCom= 1.00D+00 WtEn= 0.00D+00
 Coeff-Com:  0.937D-07 0.131D-04-0.542D-04-0.199D-03-0.728D-03-0.345D-02
 Coeff-Com: -0.548D-02 0.865D-01 0.923D+00
 Coeff:      0.937D-07 0.131D-04-0.542D-04-0.199D-03-0.728D-03-0.345D-02
 Coeff:     -0.548D-02 0.865D-01 0.923D+00
 Gap=     0.263 Goal=   None    Shift=    0.000
 RMSDP=6.35D-08 MaxDP=8.61D-07 DE=-1.20D-09 OVMax= 1.59D-06

 Cycle  10  Pass 1  IDiag  1:
 E= -169.855279258651     Delta-E=       -0.000000000007 Rises=F Damp=F
 DIIS: error= 4.71D-08 at cycle  10 NSaved=  10.
 NSaved=10 IEnMin=10 EnMin= -169.855279258651     IErMin=10 ErrMin= 4.71D-08
 ErrMax= 4.71D-08  0.00D+00 EMaxC= 1.00D-01 BMatC= 2.69D-13 BMatP= 4.76D-12
 IDIUse=1 WtCom= 1.00D+00 WtEn= 0.00D+00
 Coeff-Com: -0.652D-06 0.765D-06 0.196D-05 0.721D-05 0.581D-06 0.665D-04
 Coeff-Com: -0.195D-02-0.992D-02 0.937D-01 0.918D+00
 Coeff:     -0.652D-06 0.765D-06 0.196D-05 0.721D-05 0.581D-06 0.665D-04
 Coeff:     -0.195D-02-0.992D-02 0.937D-01 0.918D+00
 Gap=     0.263 Goal=   None    Shift=    0.000
 RMSDP=9.91D-09 MaxDP=1.08D-07 DE=-6.99D-12 OVMax= 1.67D-07

 Error on total polarization charges =  0.00271
 SCF Done:  E(RB3LYP) =  -169.855279259     A.U. after   10 cycles
            NFock= 10  Conv=0.99D-08     -V/T= 2.0037
 KE= 1.692238862525D+02 PE=-5.429473581110D+02 EE= 1.317618060069D+02
 Leave Link  502 at Fri Sep 22 16:35:26 2023, MaxMem=   268435456 cpu:              10.5 elap:               5.3
 (Enter /share/apps/gaussian/g16/l601.exe)
 Copying SCF densities to generalized density rwf, IOpCl= 0 IROHF=0.

 **********************************************************************

            Population analysis using the SCF density.

 **********************************************************************

 Orbital symmetries:
       Occupied  (A) (A) (A) (A) (A) (A) (A) (A) (A) (A) (A) (A)
       Virtual   (A) (A) (A) (A) (A) (A) (A) (A) (A) (A) (A) (A)
                 (A) (A) (A) (A) (A) (A) (A) (A) (A) (A) (A) (A)
                 (A) (A) (A) (A) (A) (A) (A) (A) (A) (A) (A) (A)
                 (A) (A) (A) (A) (A) (A) (A) (A) (A)
 The electronic state is 1-A.
 Alpha  occ. eigenvalues --  -19.09554 -14.33041 -10.28787  -1.06098  -0.88743
 Alpha  occ. eigenvalues --   -0.62858  -0.55271  -0.49111  -0.42989  -0.41313
 Alpha  occ. eigenvalues --   -0.27511  -0.26403
 Alpha virt. eigenvalues --   -0.00055   0.05394   0.07226   0.11916   0.19991
 Alpha virt. eigenvalues --    0.26945   0.41053   0.41701   0.49212   0.53631
 Alpha virt. eigenvalues --    0.63981   0.67110   0.67419   0.71565   0.75143
 Alpha virt. eigenvalues --    0.80630   0.89636   0.98726   1.07766   1.21322
 Alpha virt. eigenvalues --    1.36239   1.44320   1.51684   1.63419   1.75584
 Alpha virt. eigenvalues --    1.80827   1.87153   1.96771   2.00525   2.09472
 Alpha virt. eigenvalues --    2.12991   2.24928   2.28210   2.34628   2.45549
 Alpha virt. eigenvalues --    2.56619   2.62898   2.72199   2.73987   2.86262
 Alpha virt. eigenvalues --    2.98201   3.10901   3.21117   3.43539   3.67003
          Condensed to atoms (all electrons):
               1          2          3          4          5          6
     1  N    6.484366   0.388670   0.368941   0.340773  -0.160112  -0.063831
     2  C    0.388670   4.268461  -0.014589  -0.009876   0.623515   0.395191
     3  H    0.368941  -0.014589   0.472921  -0.019758   0.014120   0.008801
     4  H    0.340773  -0.009876  -0.019758   0.490781   0.007656   0.001180
     5  O   -0.160112   0.623515   0.014120   0.007656   7.994386  -0.037591
     6  H   -0.063831   0.395191   0.008801   0.001180  -0.037591   0.602904
 Mulliken charges:
               1
     1  N   -0.358807
     2  C    0.348629
     3  H    0.169564
     4  H    0.189243
     5  O   -0.441974
     6  H    0.093345
 Sum of Mulliken charges =   0.00000
 Mulliken charges with hydrogens summed into heavy atoms:
               1
     1  N   -0.000000
     2  C    0.441974
     5  O   -0.441974
 Electronic spatial extent (au):  <R**2>=            138.5311
 Charge=              0.0000 electrons
 Dipole moment (field-independent basis, Debye):
    X=              3.3272    Y=              1.7246    Z=              0.3319  Tot=              3.7623
 Quadrupole moment (field-independent basis, Debye-Ang):
   XX=            -18.2102   YY=            -14.7112   ZZ=            -18.7221
   XY=             -1.5532   XZ=              0.8119   YZ=              0.1058
 Traceless Quadrupole moment (field-independent basis, Debye-Ang):
   XX=             -0.9957   YY=              2.5033   ZZ=             -1.5076
   XY=             -1.5532   XZ=              0.8119   YZ=              0.1058
 Octapole moment (field-independent basis, Debye-Ang**2):
  XXX=             11.8168  YYY=             -0.1038  ZZZ=              0.3883  XYY=              1.2241
  XXY=              1.7063  XXZ=              1.4623  XZZ=             -1.2636  YZZ=             -0.1097
  YYZ=             -0.0057  XYZ=              0.1734
 Hexadecapole moment (field-independent basis, Debye-Ang**3):
 XXXX=            -96.4160 YYYY=            -35.1766 ZZZZ=            -17.2195 XXXY=              1.8871
 XXXZ=              3.0456 YYYX=             -3.0629 YYYZ=              0.0133 ZZZX=              0.6035
 ZZZY=              0.0483 XXYY=            -23.3074 XXZZ=            -22.1600 YYZZ=             -9.9711
 XXYZ=              0.3275 YYXZ=              0.1950 ZZXY=              0.2261
 N-N= 7.210638659291D+01 E-N=-5.429473575561D+02  KE= 1.692238862525D+02
 There are a total of      133398 grid points.
 ElSum from          density=       24.0000010207
 ElSum from atomic densities=       24.0000002806
 Hirshfeld populations at iteration   1 (CA, CB, DipXYZ):
               1          2          3          4          5
     1  N    3.576514   3.576514   0.022197  -0.002271   0.054513
     2  C    2.919750   2.919750   0.053216   0.107965   0.006151
     3  H    0.443271   0.443271   0.005103  -0.189871   0.004677
     4  H    0.436656   0.436656   0.174893   0.077858   0.041135
     5  O    4.161777   4.161777   0.171218   0.082675  -0.004297
     6  H    0.462033   0.462033  -0.023849   0.153112  -0.002989
       Tot  12.000001  12.000001   0.402777   0.229469   0.099189

 Dip from Atomic Chgs              0.906239   0.449038   0.031377
         Total Dipole              1.309016   0.678506   0.130565

 Hirshfeld charges, spin densities, dipoles, and CM5 charges using IRadAn=      5:
              Q-H        S-H        Dx         Dy         Dz        Q-CM5   
     1  N   -0.153029   0.000000   0.022197  -0.002271   0.054513  -0.609101
     2  C    0.160500   0.000000   0.053216   0.107965   0.006151   0.203271
     3  H    0.113458   0.000000   0.005103  -0.189871   0.004677   0.332532
     4  H    0.126688   0.000000   0.174893   0.077858   0.041135   0.304678
     5  O   -0.323553   0.000000   0.171218   0.082675  -0.004297  -0.376783
     6  H    0.075934   0.000000  -0.023849   0.153112  -0.002989   0.145402
       Tot  -0.000001   0.000000   0.402777   0.229469   0.099189  -0.000001
 Hirshfeld charges with hydrogens summed into heavy atoms:
              Q-H       Q-CM5   
     1  N    0.087118   0.028109
     2  C    0.236434   0.348673
     5  O   -0.323553  -0.376783
 
 EQQ= 0.000000000000E+00 EQD= 0.000000000000E+00 EDD= 0.380078916812E-02
 EQQ+QD+DD= 0.380078916812E-02
 
 No NMR shielding tensors so no spin-rotation constants.
 Leave Link  601 at Fri Sep 22 16:35:27 2023, MaxMem=   268435456 cpu:               0.7 elap:               0.4
 (Enter /share/apps/gaussian/g16/l9999.exe)
 1\1\GINC-NODE99\SP\RB3LYP\Gen\C1H3N1O1\YANZ\22-Sep-2023\0\\#p b3lyp/ge
 n scrf=(cpcm,solvent=toluene) pop=hirshfeld empiricaldispersion=gd3bj\
 \tmpdir/M2_conf_0_231.gjf\\0,1\N,0,0.,0.,0.\C,0,1.4022,0.,0.\H,0,-0.31
 991,0.,-0.91403\H,0,-0.60207,0.22611,0.8071\O,0,1.76791,-0.01128,-1.15
 42\H,0,2.03025,-0.02119,0.87958\\Version=ES64L-G16RevA.03\State=1-A\HF
 =-169.8552793\RMSD=9.909e-09\Dipole=-0.8175779,0.169221,1.2222414\Quad
 rupole=0.8203644,-1.0891235,0.2687591,-0.4927514,1.7330649,0.3550974\P
 G=C01 [X(C1H3N1O1)]\\@


 THAT'S WHAT MAKES US A GREAT COUNTRY.
 THE LITTLE THINGS ARE SERIOUS AND THE BIG ONES ARE NOT.
           WILL ROGERS
 Job cpu time:       0 days  0 hours  0 minutes 13.1 seconds.
 Elapsed time:       0 days  0 hours  0 minutes  6.6 seconds.
 File lengths (MBytes):  RWF=     10 Int=      0 D2E=      0 Chk=      2 Scr=      1
 Normal termination of Gaussian 16 at Fri Sep 22 16:35:27 2023.
