 Entering Gaussian System, Link 0=g16
 Initial command:
 /share/apps/gaussian/g16/l1.exe "/tmp/55556.mgr/Gau-87872.inp" -scrdir="/tmp/55556.mgr/"
 Entering Link 1 = /share/apps/gaussian/g16/l1.exe PID=     87874.
  
 Copyright (c) 1988,1990,1992,1993,1995,1998,2003,2009,2016,
            Gaussian, Inc.  All Rights Reserved.
  
 This is part of the Gaussian(R) 16 program.  It is based on
 the Gaussian(R) 09 system (copyright 2009, Gaussian, Inc.),
 the Gaussian(R) 03 system (copyright 2003, Gaussian, Inc.),
 the Gaussian(R) 98 system (copyright 1998, Gaussian, Inc.),
 the Gaussian(R) 94 system (copyright 1995, Gaussian, Inc.),
 the Gaussian 92(TM) system (copyright 1992, Gaussian, Inc.),
 the Gaussian 90(TM) system (copyright 1990, Gaussian, Inc.),
 the Gaussian 88(TM) system (copyright 1988, Gaussian, Inc.),
 the Gaussian 86(TM) system (copyright 1986, Carnegie Mellon
 University), and the Gaussian 82(TM) system (copyright 1983,
 Carnegie Mellon University). Gaussian is a federally registered
 trademark of Gaussian, Inc.
  
 This software contains proprietary and confidential information,
 including trade secrets, belonging to Gaussian, Inc.
  
 This software is provided under written license and may be
 used, copied, transmitted, or stored only in accord with that
 written license.
  
 The following legend is applicable only to US Government
 contracts under FAR:
  
                    RESTRICTED RIGHTS LEGEND
  
 Use, reproduction and disclosure by the US Government is
 subject to restrictions as set forth in subparagraphs (a)
 and (c) of the Commercial Computer Software - Restricted
 Rights clause in FAR 52.227-19.
  
 Gaussian, Inc.
 340 Quinnipiac St., Bldg. 40, Wallingford CT 06492
  
  
 ---------------------------------------------------------------
 Warning -- This program may not be used in any manner that
 competes with the business of Gaussian, Inc. or will provide
 assistance to any competitor of Gaussian, Inc.  The licensee
 of this program is prohibited from giving any competitor of
 Gaussian, Inc. access to this program.  By using this program,
 the user acknowledges that Gaussian, Inc. is engaged in the
 business of creating and licensing software in the field of
 computational chemistry and represents and warrants to the
 licensee that it is not a competitor of Gaussian, Inc. and that
 it will not use this program in any manner prohibited above.
 ---------------------------------------------------------------
  

 Cite this work as:
 Gaussian 16, Revision A.03,
 M. J. Frisch, G. W. Trucks, H. B. Schlegel, G. E. Scuseria, 
 M. A. Robb, J. R. Cheeseman, G. Scalmani, V. Barone, 
 G. A. Petersson, H. Nakatsuji, X. Li, M. Caricato, A. V. Marenich, 
 J. Bloino, B. G. Janesko, R. Gomperts, B. Mennucci, H. P. Hratchian, 
 J. V. Ortiz, A. F. Izmaylov, J. L. Sonnenberg, D. Williams-Young, 
 F. Ding, F. Lipparini, F. Egidi, J. Goings, B. Peng, A. Petrone, 
 T. Henderson, D. Ranasinghe, V. G. Zakrzewski, J. Gao, N. Rega, 
 G. Zheng, W. Liang, M. Hada, M. Ehara, K. Toyota, R. Fukuda, 
 J. Hasegawa, M. Ishida, T. Nakajima, Y. Honda, O. Kitao, H. Nakai, 
 T. Vreven, K. Throssell, J. A. Montgomery, Jr., J. E. Peralta, 
 F. Ogliaro, M. J. Bearpark, J. J. Heyd, E. N. Brothers, K. N. Kudin, 
 V. N. Staroverov, T. A. Keith, R. Kobayashi, J. Normand, 
 K. Raghavachari, A. P. Rendell, J. C. Burant, S. S. Iyengar, 
 J. Tomasi, M. Cossi, J. M. Millam, M. Klene, C. Adamo, R. Cammi, 
 J. W. Ochterski, R. L. Martin, K. Morokuma, O. Farkas, 
 J. B. Foresman, and D. J. Fox, Gaussian, Inc., Wallingford CT, 2016.
 
 ******************************************
 Gaussian 16:  ES64L-G16RevA.03 25-Dec-2016
                22-Sep-2023 
 ******************************************
 %nprocshared=2
 Will use up to    2 processors via shared memory.
 %mem=2GB
 ----------------------------------------------------------------------
 #p b3lyp/gen scrf=(cpcm,solvent=toluene) pop=hirshfeld empiricaldisper
 sion=gd3bj
 ----------------------------------------------------------------------
 1/38=1,172=1/1;
 2/12=2,17=6,18=5,40=1/2;
 3/5=7,11=2,25=1,30=1,70=2101,72=13,74=-5,124=41/1,2,3;
 4//1;
 5/5=2,38=5,53=13/2;
 6/7=2,8=2,9=2,10=2,28=1,79=1/1;
 99/5=1,9=1/99;
 Leave Link    1 at Fri Sep 22 16:36:26 2023, MaxMem=   268435456 cpu:               0.1 elap:               0.0
 (Enter /share/apps/gaussian/g16/l101.exe)
 ------------------------
 tmpdir/M2_conf_0_321.gjf
 ------------------------
 Symbolic Z-matrix:
 Charge =  0 Multiplicity = 1
 C                     0.        0.        0. 
 C                     1.4309    0.        0. 
 C                     2.11463   0.        1.24318 
 H                    -0.49576  -0.00734  -0.8947 
 H                    -0.5043   -0.00814   0.89714 
 H                     1.92158  -0.0175   -0.90317 
 O                     1.49932  -0.02203   2.28842 
 H                     3.2021    0.00815   1.24225 
 
 ITRead=  0  0  0  0  0  0  0  0
 MicOpt= -1 -1 -1 -1 -1 -1 -1 -1
 NAtoms=      8 NQM=        8 NQMF=       0 NMMI=      0 NMMIF=      0
                NMic=       0 NMicF=      0.
                    Isotopes and Nuclear Properties:
 (Nuclear quadrupole moments (NQMom) in fm**2, nuclear magnetic moments (NMagM)
  in nuclear magnetons)

  Atom         1           2           3           4           5           6           7           8
 IAtWgt=          12          12          12           1           1           1          16           1
 AtmWgt=  12.0000000  12.0000000  12.0000000   1.0078250   1.0078250   1.0078250  15.9949146   1.0078250
 NucSpn=           0           0           0           1           1           1           0           1
 AtZEff=  -0.0000000  -0.0000000  -0.0000000  -0.0000000  -0.0000000  -0.0000000  -0.0000000  -0.0000000
 NQMom=    0.0000000   0.0000000   0.0000000   0.0000000   0.0000000   0.0000000   0.0000000   0.0000000
 NMagM=    0.0000000   0.0000000   0.0000000   2.7928460   2.7928460   2.7928460   0.0000000   2.7928460
 AtZNuc=   6.0000000   6.0000000   6.0000000   1.0000000   1.0000000   1.0000000   8.0000000   1.0000000
 Leave Link  101 at Fri Sep 22 16:36:26 2023, MaxMem=   268435456 cpu:               0.2 elap:               0.1
 (Enter /share/apps/gaussian/g16/l202.exe)
                          Input orientation:                          
 ---------------------------------------------------------------------
 Center     Atomic      Atomic             Coordinates (Angstroms)
 Number     Number       Type             X           Y           Z
 ---------------------------------------------------------------------
      1          6           0        0.000000    0.000000    0.000000
      2          6           0        1.430900    0.000000    0.000000
      3          6           0        2.114630    0.000000    1.243180
      4          1           0       -0.495760   -0.007340   -0.894700
      5          1           0       -0.504300   -0.008140    0.897140
      6          1           0        1.921580   -0.017500   -0.903170
      7          8           0        1.499320   -0.022030    2.288420
      8          1           0        3.202100    0.008150    1.242250
 ---------------------------------------------------------------------
                    Distance matrix (angstroms):
                    1          2          3          4          5
     1  C    0.000000
     2  C    1.430900   0.000000
     3  C    2.452989   1.418796   0.000000
     4  H    1.022898   2.124279   3.374125   0.000000
     5  H    1.029196   2.133055   2.641705   1.791861   0.000000
     6  H    2.123321   1.028003   2.155085   2.417376   3.020943
     7  O    2.735930   2.289549   1.213103   3.756702   2.439333
     8  H    3.434632   2.163423   1.087501   4.270944   3.722468
                    6          7          8
     6  H    0.000000
     7  O    3.219405   0.000000
     8  H    2.498643   1.998710   0.000000
 Stoichiometry    C3H4O
 Framework group  C1[X(C3H4O)]
 Deg. of freedom    18
 Full point group                 C1      NOp   1
 Largest Abelian subgroup         C1      NOp   1
 Largest concise Abelian subgroup C1      NOp   1
                         Standard orientation:                         
 ---------------------------------------------------------------------
 Center     Atomic      Atomic             Coordinates (Angstroms)
 Number     Number       Type             X           Y           Z
 ---------------------------------------------------------------------
      1          6           0        1.444580   -0.473324   -0.004317
      2          6           0        0.584779    0.670439    0.000565
      3          6           0       -0.819770    0.470004   -0.006584
      4          1           0        2.457602   -0.332076    0.008155
      5          1           0        1.030463   -1.415529   -0.004740
      6          1           0        1.011796    1.605193    0.026627
      7          8           0       -1.285620   -0.650022    0.005374
      8          1           0       -1.472435    1.339871   -0.011017
 ---------------------------------------------------------------------
 Rotational constants (GHZ):          21.1663616           6.8303056           5.1641418
 Leave Link  202 at Fri Sep 22 16:36:26 2023, MaxMem=   268435456 cpu:               0.0 elap:               0.0
 (Enter /share/apps/gaussian/g16/l301.exe)
 General basis read from cards:  (5D, 7F)
 Centers:       4      5      6      8
 S 3 1.00
     Exponent=  1.2251800000D+01 Coefficients=  2.3337100000D-02
     Exponent=  1.8687100000D+00 Coefficients=  1.5915000000D-01
     Exponent=  4.1820800000D-01 Coefficients=  5.0000000000D-01
 S 1 1.00
     Exponent=  1.0610000000D-01 Coefficients=  1.0000000000D+00
 P 1 1.00
     Exponent=  1.0000000000D+00 Coefficients=  1.0000000000D+00
 ****
 Centers:       1      2      3
 S 5 1.00
     Exponent=  1.2432000000D+03 Coefficients=  6.0336600000D-03
     Exponent=  1.8714500000D+02 Coefficients=  4.4957600000D-02
     Exponent=  4.2512600000D+01 Coefficients=  1.9790100000D-01
     Exponent=  1.1739300000D+01 Coefficients=  5.0000000000D-01
     Exponent=  3.5054800000D+00 Coefficients=  4.8036400000D-01
 S 2 1.00
     Exponent=  5.3908900000D+00 Coefficients= -7.0398000000D-02
     Exponent=  4.9334100000D-01 Coefficients=  5.0000000000D-01
 S 1 1.00
     Exponent=  1.4974100000D-01 Coefficients=  1.0000000000D+00
 P 3 1.00
     Exponent=  9.1805600000D+00 Coefficients=  4.3170100000D-02
     Exponent=  1.9365800000D+00 Coefficients=  2.2499900000D-01
     Exponent=  5.2629600000D-01 Coefficients=  5.0000000000D-01
 P 1 1.00
     Exponent=  1.3631900000D-01 Coefficients=  1.0000000000D+00
 D 1 1.00
     Exponent=  8.0000000000D-01 Coefficients=  1.0000000000D+00
 ****
 Centers:       7
 S 5 1.00
     Exponent=  2.2886400000D+03 Coefficients=  5.8546800000D-03
     Exponent=  3.4441600000D+02 Coefficients=  4.3733300000D-02
     Exponent=  7.8253800000D+01 Coefficients=  1.9479600000D-01
     Exponent=  2.1719500000D+01 Coefficients=  5.0000000000D-01
     Exponent=  6.5590700000D+00 Coefficients=  4.8461400000D-01
 S 2 1.00
     Exponent=  1.0465600000D+01 Coefficients= -7.1334300000D-02
     Exponent=  9.6435100000D-01 Coefficients=  5.0000000000D-01
 S 1 1.00
     Exponent=  2.8512700000D-01 Coefficients=  1.0000000000D+00
 P 3 1.00
     Exponent=  1.7059000000D+01 Coefficients=  4.7443900000D-02
     Exponent=  3.6899900000D+00 Coefficients=  2.4268900000D-01
     Exponent=  9.9299600000D-01 Coefficients=  5.0000000000D-01
 P 1 1.00
     Exponent=  2.4492400000D-01 Coefficients=  1.0000000000D+00
 D 1 1.00
     Exponent=  1.0000000000D+00 Coefficients=  1.0000000000D+00
 ****
 Ernie: Thresh=  0.10000D-02 Tol=  0.10000D-05 Strict=F.
 There are    80 symmetry adapted cartesian basis functions of A   symmetry.
 There are    76 symmetry adapted basis functions of A   symmetry.
    76 basis functions,   132 primitive gaussians,    80 cartesian basis functions
    15 alpha electrons       15 beta electrons
       nuclear repulsion energy       105.9700520618 Hartrees.
 IExCor=  402 DFT=T Ex+Corr=B3LYP ExCW=0 ScaHFX=  0.200000
 ScaDFX=  0.800000  0.720000  1.000000  0.810000 ScalE2=  1.000000  1.000000
 IRadAn=      5 IRanWt=     -1 IRanGd=            0 ICorTp=0 IEmpDi=141
 NAtoms=    8 NActive=    8 NUniq=    8 SFac= 1.00D+00 NAtFMM=   60 NAOKFM=F Big=F
 Integral buffers will be    131072 words long.
 Raffenetti 2 integral format.
 Two-electron integral symmetry is turned on.
 R6Disp:  Grimme-D3(BJ) Dispersion energy=       -0.0082536835 Hartrees.
 Nuclear repulsion after empirical dispersion term =      105.9617983783 Hartrees.
 ------------------------------------------------------------------------------
 Polarizable Continuum Model (PCM)
 =================================
 Model                : C-PCM.
 Atomic radii         : UFF (Universal Force Field).
 Polarization charges : Total charges.
 Charge compensation  : None.
 Solution method      : On-the-fly selection.
 Cavity type          : Scaled VdW (van der Waals Surface) (Alpha=1.100).
 Cavity algorithm     : GePol (No added spheres)
                        Default sphere list used, NSphG=    8.
                        Lebedev-Laikov grids with approx.  5.0 points / Ang**2.
                        Smoothing algorithm: York/Karplus (Gamma=1.0000).
                        Polarization charges: spherical gaussians, with
                                              point-specific exponents (IZeta= 3).
                        Self-potential: point-specific (ISelfS= 7).
                        Self-field    : sphere-specific E.n sum rule (ISelfD= 2).
 Solvent              : Toluene, Eps=   2.374100 Eps(inf)=   2.238315
 ------------------------------------------------------------------------------
 Spheres list:
 ISph  on   Nord     Re0    Alpha      Xe            Ye            Ze
    1   C      1    1.9255  1.100      1.444580     -0.473324     -0.004317
    2   C      2    1.9255  1.100      0.584779      0.670439      0.000565
    3   C      3    1.9255  1.100     -0.819770      0.470004     -0.006584
    4   H      4    1.4430  1.100      2.457602     -0.332076      0.008155
    5   H      5    1.4430  1.100      1.030463     -1.415529     -0.004740
    6   H      6    1.4430  1.100      1.011796      1.605193      0.026627
    7   O      7    1.7500  1.100     -1.285620     -0.650022      0.005374
    8   H      8    1.4430  1.100     -1.472435      1.339871     -0.011017
 ------------------------------------------------------------------------------
 GePol: Number of generator spheres                  =       8
 GePol: Total number of spheres                      =       8
 GePol: Number of exposed spheres                    =       8 (100.00%)
 GePol: Number of points                             =     835
 GePol: Average weight of points                     =       0.14
 GePol: Minimum weight of points                     =   0.62D-08
 GePol: Maximum weight of points                     =    0.20577
 GePol: Number of points with low weight             =      45
 GePol: Fraction of low-weight points (<1% of avg)   =       5.39%
 GePol: Cavity surface area                          =    113.144 Ang**2
 GePol: Cavity volume                                =     98.025 Ang**3
 Leave Link  301 at Fri Sep 22 16:36:26 2023, MaxMem=   268435456 cpu:               0.2 elap:               0.1
 (Enter /share/apps/gaussian/g16/l302.exe)
 NPDir=0 NMtPBC=     1 NCelOv=     1 NCel=       1 NClECP=     1 NCelD=      1
         NCelK=      1 NCelE2=     1 NClLst=     1 CellRange=     0.0.
 One-electron integrals computed using PRISM.
 One-electron integral symmetry used in STVInt
 NBasis=    76 RedAO= T EigKep=  3.32D-03  NBF=    76
 NBsUse=    76 1.00D-06 EigRej= -1.00D+00 NBFU=    76
 Precomputing XC quadrature grid using
 IXCGrd= 4 IRadAn=           5 IRanWt=          -1 IRanGd=           0 AccXCQ= 0.00D+00.
 Generated NRdTot=       0 NPtTot=           0 NUsed=           0 NTot=          32
 NSgBfM=    80    80    80    80    80 MxSgAt=     8 MxSgA2=     8.
 Leave Link  302 at Fri Sep 22 16:36:26 2023, MaxMem=   268435456 cpu:               0.3 elap:               0.2
 (Enter /share/apps/gaussian/g16/l303.exe)
 DipDrv:  MaxL=1.
 Leave Link  303 at Fri Sep 22 16:36:26 2023, MaxMem=   268435456 cpu:               0.1 elap:               0.0
 (Enter /share/apps/gaussian/g16/l401.exe)
 ExpMin= 1.06D-01 ExpMax= 2.29D+03 ExpMxC= 3.44D+02 IAcc=3 IRadAn=         5 AccDes= 0.00D+00
 Harris functional with IExCor=  402 and IRadAn=       5 diagonalized for initial guess.
 HarFok:  IExCor=  402 AccDes= 0.00D+00 IRadAn=         5 IDoV= 1 UseB2=F ITyADJ=14
 ICtDFT=  3500011 ScaDFX=  1.000000  1.000000  1.000000  1.000000
 FoFCou: FMM=F IPFlag=           0 FMFlag=      100000 FMFlg1=           0
         NFxFlg=           0 DoJE=T BraDBF=F KetDBF=T FulRan=T
         wScrn=  0.000000 ICntrl=       500 IOpCl=  0 I1Cent=   200000004 NGrid=           0
         NMat0=    1 NMatS0=      1 NMatT0=    0 NMatD0=    1 NMtDS0=    0 NMtDT0=    0
 Petite list used in FoFCou.
 Harris En= -191.894205273417    
 JPrj=0 DoOrth=F DoCkMO=F.
 Leave Link  401 at Fri Sep 22 16:36:27 2023, MaxMem=   268435456 cpu:               1.5 elap:               0.8
 (Enter /share/apps/gaussian/g16/l502.exe)
 Keep R1 ints in memory in canonical form, NReq=6092111.
 FoFCou: FMM=F IPFlag=           0 FMFlag=           0 FMFlg1=           0
         NFxFlg=           0 DoJE=F BraDBF=F KetDBF=F FulRan=T
         wScrn=  0.000000 ICntrl=       600 IOpCl=  0 I1Cent=           0 NGrid=           0
         NMat0=    1 NMatS0=   2926 NMatT0=    0 NMatD0=    1 NMtDS0=    0 NMtDT0=    0
 Symmetry not used in FoFCou.
 Two-electron integral symmetry not used.
 Closed shell SCF:
 Using DIIS extrapolation, IDIIS=  1040.
 NGot=   268435456 LenX=   264138979 LenY=   264132138
 Requested convergence on RMS density matrix=1.00D-08 within 128 cycles.
 Requested convergence on MAX density matrix=1.00D-06.
 Requested convergence on             energy=1.00D-06.
 No special actions if energy rises.

 Cycle   1  Pass 1  IDiag  1:
 Inv3:  Mode=1 IEnd=     2091675.
 Iteration    1 A*A^-1 deviation from unit magnitude is 2.89D-15 for    831.
 Iteration    1 A*A^-1 deviation from orthogonality  is 1.40D-15 for    682    520.
 Iteration    1 A^-1*A deviation from unit magnitude is 2.89D-15 for    831.
 Iteration    1 A^-1*A deviation from orthogonality  is 1.78D-15 for    809    660.
 E= -191.774061886445    
 DIIS: error= 3.46D-02 at cycle   1 NSaved=   1.
 NSaved= 1 IEnMin= 1 EnMin= -191.774061886445     IErMin= 1 ErrMin= 3.46D-02
 ErrMax= 3.46D-02  0.00D+00 EMaxC= 1.00D-01 BMatC= 1.01D-01 BMatP= 1.01D-01
 IDIUse=3 WtCom= 6.54D-01 WtEn= 3.46D-01
 Coeff-Com:  0.100D+01
 Coeff-En:   0.100D+01
 Coeff:      0.100D+01
 Gap=     0.127 Goal=   None    Shift=    0.000
 GapD=    0.127 DampG=1.000 DampE=0.500 DampFc=0.5000 IDamp=-1.
 Damping current iteration by 5.00D-01
 RMSDP=1.11D-02 MaxDP=2.30D-01              OVMax= 2.00D-01

 Cycle   2  Pass 1  IDiag  1:
 E= -191.804079178465     Delta-E=       -0.030017292020 Rises=F Damp=T
 DIIS: error= 1.33D-02 at cycle   2 NSaved=   2.
 NSaved= 2 IEnMin= 2 EnMin= -191.804079178465     IErMin= 2 ErrMin= 1.33D-02
 ErrMax= 1.33D-02  0.00D+00 EMaxC= 1.00D-01 BMatC= 1.55D-02 BMatP= 1.01D-01
 IDIUse=3 WtCom= 8.67D-01 WtEn= 1.33D-01
 Coeff-Com:  0.221D+00 0.779D+00
 Coeff-En:   0.305D+00 0.695D+00
 Coeff:      0.232D+00 0.768D+00
 Gap=     0.192 Goal=   None    Shift=    0.000
 RMSDP=3.30D-03 MaxDP=5.40D-02 DE=-3.00D-02 OVMax= 1.84D-01

 Cycle   3  Pass 1  IDiag  1:
 E= -191.859572183554     Delta-E=       -0.055493005089 Rises=F Damp=F
 DIIS: error= 1.56D-02 at cycle   3 NSaved=   3.
 NSaved= 3 IEnMin= 3 EnMin= -191.859572183554     IErMin= 2 ErrMin= 1.33D-02
 ErrMax= 1.56D-02  0.00D+00 EMaxC= 1.00D-01 BMatC= 1.33D-02 BMatP= 1.55D-02
 IDIUse=3 WtCom= 8.44D-01 WtEn= 1.56D-01
 Coeff-Com:  0.603D-01 0.481D+00 0.459D+00
 Coeff-En:   0.000D+00 0.000D+00 0.100D+01
 Coeff:      0.508D-01 0.405D+00 0.544D+00
 Gap=     0.191 Goal=   None    Shift=    0.000
 RMSDP=1.86D-03 MaxDP=3.79D-02 DE=-5.55D-02 OVMax= 6.32D-02

 Cycle   4  Pass 1  IDiag  1:
 E= -191.870100878939     Delta-E=       -0.010528695385 Rises=F Damp=F
 DIIS: error= 6.09D-03 at cycle   4 NSaved=   4.
 NSaved= 4 IEnMin= 4 EnMin= -191.870100878939     IErMin= 4 ErrMin= 6.09D-03
 ErrMax= 6.09D-03  0.00D+00 EMaxC= 1.00D-01 BMatC= 2.24D-03 BMatP= 1.33D-02
 IDIUse=3 WtCom= 9.39D-01 WtEn= 6.09D-02
 Coeff-Com:  0.187D-01 0.477D-01 0.290D+00 0.644D+00
 Coeff-En:   0.000D+00 0.000D+00 0.155D+00 0.845D+00
 Coeff:      0.176D-01 0.448D-01 0.281D+00 0.656D+00
 Gap=     0.176 Goal=   None    Shift=    0.000
 RMSDP=6.25D-04 MaxDP=1.18D-02 DE=-1.05D-02 OVMax= 2.22D-02

 Cycle   5  Pass 1  IDiag  1:
 E= -191.871954512818     Delta-E=       -0.001853633879 Rises=F Damp=F
 DIIS: error= 8.53D-04 at cycle   5 NSaved=   5.
 NSaved= 5 IEnMin= 5 EnMin= -191.871954512818     IErMin= 5 ErrMin= 8.53D-04
 ErrMax= 8.53D-04  0.00D+00 EMaxC= 1.00D-01 BMatC= 5.39D-05 BMatP= 2.24D-03
 IDIUse=3 WtCom= 9.91D-01 WtEn= 8.53D-03
 Coeff-Com:  0.651D-02 0.380D-02 0.126D+00 0.341D+00 0.523D+00
 Coeff-En:   0.000D+00 0.000D+00 0.000D+00 0.000D+00 0.100D+01
 Coeff:      0.646D-02 0.377D-02 0.125D+00 0.338D+00 0.527D+00
 Gap=     0.175 Goal=   None    Shift=    0.000
 RMSDP=1.33D-04 MaxDP=3.20D-03 DE=-1.85D-03 OVMax= 7.37D-03

 Cycle   6  Pass 1  IDiag  1:
 E= -191.872000563713     Delta-E=       -0.000046050896 Rises=F Damp=F
 DIIS: error= 4.25D-04 at cycle   6 NSaved=   6.
 NSaved= 6 IEnMin= 6 EnMin= -191.872000563713     IErMin= 6 ErrMin= 4.25D-04
 ErrMax= 4.25D-04  0.00D+00 EMaxC= 1.00D-01 BMatC= 1.38D-05 BMatP= 5.39D-05
 IDIUse=3 WtCom= 9.96D-01 WtEn= 4.25D-03
 Coeff-Com:  0.160D-02-0.464D-02 0.362D-01 0.113D+00 0.356D+00 0.498D+00
 Coeff-En:   0.000D+00 0.000D+00 0.000D+00 0.000D+00 0.230D+00 0.770D+00
 Coeff:      0.159D-02-0.462D-02 0.360D-01 0.112D+00 0.356D+00 0.499D+00
 Gap=     0.175 Goal=   None    Shift=    0.000
 RMSDP=4.44D-05 MaxDP=1.19D-03 DE=-4.61D-05 OVMax= 2.50D-03

 Cycle   7  Pass 1  IDiag  1:
 E= -191.872015345909     Delta-E=       -0.000014782196 Rises=F Damp=F
 DIIS: error= 6.34D-05 at cycle   7 NSaved=   7.
 NSaved= 7 IEnMin= 7 EnMin= -191.872015345909     IErMin= 7 ErrMin= 6.34D-05
 ErrMax= 6.34D-05  0.00D+00 EMaxC= 1.00D-01 BMatC= 4.31D-07 BMatP= 1.38D-05
 IDIUse=1 WtCom= 1.00D+00 WtEn= 0.00D+00
 Coeff-Com:  0.434D-03-0.276D-02 0.988D-02 0.326D-01 0.148D+00 0.240D+00
 Coeff-Com:  0.571D+00
 Coeff:      0.434D-03-0.276D-02 0.988D-02 0.326D-01 0.148D+00 0.240D+00
 Coeff:      0.571D+00
 Gap=     0.175 Goal=   None    Shift=    0.000
 RMSDP=9.79D-06 MaxDP=1.59D-04 DE=-1.48D-05 OVMax= 2.05D-04

 Cycle   8  Pass 1  IDiag  1:
 E= -191.872015744773     Delta-E=       -0.000000398864 Rises=F Damp=F
 DIIS: error= 1.00D-05 at cycle   8 NSaved=   8.
 NSaved= 8 IEnMin= 8 EnMin= -191.872015744773     IErMin= 8 ErrMin= 1.00D-05
 ErrMax= 1.00D-05  0.00D+00 EMaxC= 1.00D-01 BMatC= 1.17D-08 BMatP= 4.31D-07
 IDIUse=1 WtCom= 1.00D+00 WtEn= 0.00D+00
 Coeff-Com:  0.446D-04-0.435D-03 0.152D-03 0.194D-03 0.150D-01 0.206D-01
 Coeff-Com:  0.141D+00 0.824D+00
 Coeff:      0.446D-04-0.435D-03 0.152D-03 0.194D-03 0.150D-01 0.206D-01
 Coeff:      0.141D+00 0.824D+00
 Gap=     0.175 Goal=   None    Shift=    0.000
 RMSDP=1.53D-06 MaxDP=2.17D-05 DE=-3.99D-07 OVMax= 5.11D-05

 Cycle   9  Pass 1  IDiag  1:
 E= -191.872015756161     Delta-E=       -0.000000011388 Rises=F Damp=F
 DIIS: error= 1.04D-06 at cycle   9 NSaved=   9.
 NSaved= 9 IEnMin= 9 EnMin= -191.872015756161     IErMin= 9 ErrMin= 1.04D-06
 ErrMax= 1.04D-06  0.00D+00 EMaxC= 1.00D-01 BMatC= 1.20D-10 BMatP= 1.17D-08
 IDIUse=1 WtCom= 1.00D+00 WtEn= 0.00D+00
 Coeff-Com: -0.222D-05 0.209D-04-0.212D-03-0.838D-03-0.220D-02-0.426D-02
 Coeff-Com: -0.403D-02 0.881D-01 0.923D+00
 Coeff:     -0.222D-05 0.209D-04-0.212D-03-0.838D-03-0.220D-02-0.426D-02
 Coeff:     -0.403D-02 0.881D-01 0.923D+00
 Gap=     0.175 Goal=   None    Shift=    0.000
 RMSDP=3.60D-07 MaxDP=7.00D-06 DE=-1.14D-08 OVMax= 4.74D-06

 Cycle  10  Pass 1  IDiag  1:
 E= -191.872015756298     Delta-E=       -0.000000000137 Rises=F Damp=F
 DIIS: error= 1.59D-07 at cycle  10 NSaved=  10.
 NSaved=10 IEnMin=10 EnMin= -191.872015756298     IErMin=10 ErrMin= 1.59D-07
 ErrMax= 1.59D-07  0.00D+00 EMaxC= 1.00D-01 BMatC= 1.90D-12 BMatP= 1.20D-10
 IDIUse=1 WtCom= 1.00D+00 WtEn= 0.00D+00
 Coeff-Com: -0.162D-05 0.119D-04-0.321D-04-0.131D-03-0.583D-03-0.103D-02
 Coeff-Com: -0.312D-02-0.334D-02 0.146D+00 0.863D+00
 Coeff:     -0.162D-05 0.119D-04-0.321D-04-0.131D-03-0.583D-03-0.103D-02
 Coeff:     -0.312D-02-0.334D-02 0.146D+00 0.863D+00
 Gap=     0.175 Goal=   None    Shift=    0.000
 RMSDP=3.01D-08 MaxDP=3.46D-07 DE=-1.37D-10 OVMax= 1.02D-06

 Cycle  11  Pass 1  IDiag  1:
 E= -191.872015756299     Delta-E=       -0.000000000002 Rises=F Damp=F
 DIIS: error= 2.83D-08 at cycle  11 NSaved=  11.
 NSaved=11 IEnMin=11 EnMin= -191.872015756299     IErMin=11 ErrMin= 2.83D-08
 ErrMax= 2.83D-08  0.00D+00 EMaxC= 1.00D-01 BMatC= 1.23D-13 BMatP= 1.90D-12
 IDIUse=1 WtCom= 1.00D+00 WtEn= 0.00D+00
 Coeff-Com: -0.291D-06 0.125D-05 0.369D-06-0.214D-05-0.254D-04-0.707D-04
 Coeff-Com: -0.334D-03-0.291D-02-0.523D-02 0.107D+00 0.902D+00
 Coeff:     -0.291D-06 0.125D-05 0.369D-06-0.214D-05-0.254D-04-0.707D-04
 Coeff:     -0.334D-03-0.291D-02-0.523D-02 0.107D+00 0.902D+00
 Gap=     0.175 Goal=   None    Shift=    0.000
 RMSDP=7.39D-09 MaxDP=1.11D-07 DE=-1.88D-12 OVMax= 9.41D-08

 Error on total polarization charges =  0.00467
 SCF Done:  E(RB3LYP) =  -191.872015756     A.U. after   11 cycles
            NFock= 11  Conv=0.74D-08     -V/T= 2.0035
 KE= 1.911991809078D+02 PE=-6.602419259224D+02 EE= 1.712089308800D+02
 Leave Link  502 at Fri Sep 22 16:36:38 2023, MaxMem=   268435456 cpu:              21.7 elap:              10.9
 (Enter /share/apps/gaussian/g16/l601.exe)
 Copying SCF densities to generalized density rwf, IOpCl= 0 IROHF=0.

 **********************************************************************

            Population analysis using the SCF density.

 **********************************************************************

 Orbital symmetries:
       Occupied  (A) (A) (A) (A) (A) (A) (A) (A) (A) (A) (A) (A)
                 (A) (A) (A)
       Virtual   (A) (A) (A) (A) (A) (A) (A) (A) (A) (A) (A) (A)
                 (A) (A) (A) (A) (A) (A) (A) (A) (A) (A) (A) (A)
                 (A) (A) (A) (A) (A) (A) (A) (A) (A) (A) (A) (A)
                 (A) (A) (A) (A) (A) (A) (A) (A) (A) (A) (A) (A)
                 (A) (A) (A) (A) (A) (A) (A) (A) (A) (A) (A) (A)
                 (A)
 The electronic state is 1-A.
 Alpha  occ. eigenvalues --  -19.11887 -10.26363 -10.20954 -10.19646  -1.05695
 Alpha  occ. eigenvalues --   -0.79602  -0.67944  -0.56147  -0.52957  -0.45820
 Alpha  occ. eigenvalues --   -0.43059  -0.41127  -0.40615  -0.28284  -0.26887
 Alpha virt. eigenvalues --   -0.09371   0.04906   0.06406   0.08284   0.11030
 Alpha virt. eigenvalues --    0.13588   0.21690   0.24554   0.28961   0.40430
 Alpha virt. eigenvalues --    0.42098   0.46323   0.46633   0.48177   0.51425
 Alpha virt. eigenvalues --    0.52664   0.61244   0.63356   0.64868   0.67012
 Alpha virt. eigenvalues --    0.72395   0.74960   0.84208   0.90456   0.94088
 Alpha virt. eigenvalues --    0.95644   1.02250   1.13280   1.27589   1.31232
 Alpha virt. eigenvalues --    1.37364   1.50536   1.67384   1.70627   1.75991
 Alpha virt. eigenvalues --    1.81021   1.83230   1.86492   1.90324   1.92646
 Alpha virt. eigenvalues --    2.04683   2.08544   2.12374   2.21121   2.26802
 Alpha virt. eigenvalues --    2.26906   2.30116   2.37973   2.42418   2.45329
 Alpha virt. eigenvalues --    2.62341   2.68779   2.70045   2.83985   2.86021
 Alpha virt. eigenvalues --    3.04372   3.16488   3.22948   3.32473   3.44169
 Alpha virt. eigenvalues --    3.66862
          Condensed to atoms (all electrons):
               1          2          3          4          5          6
     1  C    4.691386   0.577798  -0.063229   0.396652   0.404059  -0.031951
     2  C    0.577798   5.297466   0.280491  -0.026576  -0.032728   0.408338
     3  C   -0.063229   0.280491   4.456820   0.009666  -0.018588  -0.034911
     4  H    0.396652  -0.026576   0.009666   0.570617  -0.038163  -0.012422
     5  H    0.404059  -0.032728  -0.018588  -0.038163   0.554292   0.009018
     6  H   -0.031951   0.408338  -0.034911  -0.012422   0.009018   0.602834
     7  O   -0.001591  -0.132111   0.640592   0.000923   0.022845   0.004711
     8  H    0.013474  -0.119568   0.425375   0.000001   0.001979  -0.005826
               7          8
     1  C   -0.001591   0.013474
     2  C   -0.132111  -0.119568
     3  C    0.640592   0.425375
     4  H    0.000923   0.000001
     5  H    0.022845   0.001979
     6  H    0.004711  -0.005826
     7  O    7.894396  -0.053466
     8  H   -0.053466   0.682604
 Mulliken charges:
               1
     1  C    0.013402
     2  C   -0.253110
     3  C    0.303783
     4  H    0.099302
     5  H    0.097286
     6  H    0.060208
     7  O   -0.376299
     8  H    0.055428
 Sum of Mulliken charges =  -0.00000
 Mulliken charges with hydrogens summed into heavy atoms:
               1
     1  C    0.209990
     2  C   -0.192902
     3  C    0.359211
     7  O   -0.376299
 Electronic spatial extent (au):  <R**2>=            257.7893
 Charge=             -0.0000 electrons
 Dipole moment (field-independent basis, Debye):
    X=              2.3774    Y=              2.0103    Z=              0.0045  Tot=              3.1134
 Quadrupole moment (field-independent basis, Debye-Ang):
   XX=            -23.7032   YY=            -22.5328   ZZ=            -25.0114
   XY=             -3.4602   XZ=              0.0717   YZ=              0.0473
 Traceless Quadrupole moment (field-independent basis, Debye-Ang):
   XX=              0.0459   YY=              1.2164   ZZ=             -1.2623
   XY=             -3.4602   XZ=              0.0717   YZ=              0.0473
 Octapole moment (field-independent basis, Debye-Ang**2):
  XXX=              6.6876  YYY=             -0.1435  ZZZ=              0.0627  XYY=              0.8089
  XXY=              2.9041  XXZ=              0.0729  XZZ=             -3.2398  YZZ=             -1.0746
  YYZ=              0.0804  XYZ=              0.0358
 Hexadecapole moment (field-independent basis, Debye-Ang**3):
 XXXX=           -208.1701 YYYY=            -87.1541 ZZZZ=            -26.5524 XXXY=             -5.3894
 XXXZ=              0.2398 YYYX=              0.7772 YYYZ=              0.1341 ZZZX=              0.0452
 ZZZY=              0.0253 XXYY=            -50.6937 XXZZ=            -42.3688 YYZZ=            -20.2977
 XXYZ=              0.0496 YYXZ=              0.1117 ZZXY=              0.3766
 N-N= 1.059617983783D+02 E-N=-6.602419259667D+02  KE= 1.911991809078D+02
 There are a total of      177562 grid points.
 ElSum from          density=       30.0000056074
 ElSum from atomic densities=       30.0000011139
 Hirshfeld populations at iteration   1 (CA, CB, DipXYZ):
               1          2          3          4          5
     1  C    3.002542   3.002542   0.082292  -0.080722  -0.000770
     2  C    3.019906   3.019906  -0.048604   0.080328   0.000886
     3  C    2.937757   2.937757  -0.003676   0.072273  -0.002357
     4  H    0.474154   0.474154   0.159689   0.016016   0.002335
     5  H    0.476787   0.476787  -0.023018  -0.148484   0.000651
     6  H    0.479157   0.479157   0.062652   0.144921   0.004893
     7  O    4.131462   4.131462   0.103575   0.130813  -0.001121
     8  H    0.478238   0.478238  -0.074669   0.108094  -0.000089
       Tot  15.000003  15.000003   0.258241   0.323240   0.004429

 Dip from Atomic Chgs              0.677111   0.467666  -0.002648
         Total Dipole              0.935352   0.790906   0.001781

 Hirshfeld charges, spin densities, dipoles, and CM5 charges using IRadAn=      5:
              Q-H        S-H        Dx         Dy         Dz        Q-CM5   
     1  C   -0.005083   0.000000   0.082292  -0.080722  -0.000770  -0.120033
     2  C   -0.039812   0.000000  -0.048604   0.080328   0.000886  -0.103653
     3  C    0.124486   0.000000  -0.003676   0.072273  -0.002357   0.108038
     4  H    0.051691   0.000000   0.159689   0.016016   0.002335   0.112126
     5  H    0.046426   0.000000  -0.023018  -0.148484   0.000651   0.110905
     6  H    0.041686   0.000000   0.062652   0.144921   0.004893   0.105139
     7  O   -0.262923   0.000000   0.103575   0.130813  -0.001121  -0.320418
     8  H    0.043525   0.000000  -0.074669   0.108094  -0.000089   0.107891
       Tot  -0.000006   0.000000   0.258241   0.323240   0.004429  -0.000006
 Hirshfeld charges with hydrogens summed into heavy atoms:
              Q-H       Q-CM5   
     1  C    0.093033   0.102998
     2  C    0.001874   0.001486
     3  C    0.168010   0.215929
     7  O   -0.262923  -0.320418
 
 EQQ= 0.000000000000E+00 EQD= 0.000000000000E+00 EDD= 0.542415673643E-02
 EQQ+QD+DD= 0.542415673643E-02
 
 No NMR shielding tensors so no spin-rotation constants.
 Leave Link  601 at Fri Sep 22 16:36:38 2023, MaxMem=   268435456 cpu:               1.2 elap:               0.6
 (Enter /share/apps/gaussian/g16/l9999.exe)
 1\1\GINC-NODE99\SP\RB3LYP\Gen\C3H4O1\YANZ\22-Sep-2023\0\\#p b3lyp/gen 
 scrf=(cpcm,solvent=toluene) pop=hirshfeld empiricaldispersion=gd3bj\\t
 mpdir/M2_conf_0_321.gjf\\0,1\C,0,0.,0.,0.\C,0,1.4309,0.,0.\C,0,2.11463
 ,0.,1.24318\H,0,-0.49576,-0.00734,-0.8947\H,0,-0.5043,-0.00814,0.89714
 \H,0,1.92158,-0.0175,-0.90317\O,0,1.49932,-0.02203,2.28842\H,0,3.2021,
 0.00815,1.24225\\Version=ES64L-G16RevA.03\State=1-A\HF=-191.8720158\RM
 SD=7.392e-09\Dipole=0.0701599,0.0077827,-1.2228802\Quadrupole=3.061359
 2,-0.9394616,-2.1218977,0.015275,0.2967949,0.073788\PG=C01 [X(C3H4O1)]
 \\@


 Once you get people laughing, they're
 listening and you can tell them almost anything.
                                 -- Herb Gardner
 Job cpu time:       0 days  0 hours  0 minutes 25.4 seconds.
 Elapsed time:       0 days  0 hours  0 minutes 12.8 seconds.
 File lengths (MBytes):  RWF=     13 Int=      0 D2E=      0 Chk=      2 Scr=      1
 Normal termination of Gaussian 16 at Fri Sep 22 16:36:38 2023.
