 Entering Gaussian System, Link 0=g16
 Initial command:
 /share/apps/gaussian/g16/l1.exe "/tmp/55556.mgr/Gau-86232.inp" -scrdir="/tmp/55556.mgr/"
 Entering Link 1 = /share/apps/gaussian/g16/l1.exe PID=     86233.
  
 Copyright (c) 1988,1990,1992,1993,1995,1998,2003,2009,2016,
            Gaussian, Inc.  All Rights Reserved.
  
 This is part of the Gaussian(R) 16 program.  It is based on
 the Gaussian(R) 09 system (copyright 2009, Gaussian, Inc.),
 the Gaussian(R) 03 system (copyright 2003, Gaussian, Inc.),
 the Gaussian(R) 98 system (copyright 1998, Gaussian, Inc.),
 the Gaussian(R) 94 system (copyright 1995, Gaussian, Inc.),
 the Gaussian 92(TM) system (copyright 1992, Gaussian, Inc.),
 the Gaussian 90(TM) system (copyright 1990, Gaussian, Inc.),
 the Gaussian 88(TM) system (copyright 1988, Gaussian, Inc.),
 the Gaussian 86(TM) system (copyright 1986, Carnegie Mellon
 University), and the Gaussian 82(TM) system (copyright 1983,
 Carnegie Mellon University). Gaussian is a federally registered
 trademark of Gaussian, Inc.
  
 This software contains proprietary and confidential information,
 including trade secrets, belonging to Gaussian, Inc.
  
 This software is provided under written license and may be
 used, copied, transmitted, or stored only in accord with that
 written license.
  
 The following legend is applicable only to US Government
 contracts under FAR:
  
                    RESTRICTED RIGHTS LEGEND
  
 Use, reproduction and disclosure by the US Government is
 subject to restrictions as set forth in subparagraphs (a)
 and (c) of the Commercial Computer Software - Restricted
 Rights clause in FAR 52.227-19.
  
 Gaussian, Inc.
 340 Quinnipiac St., Bldg. 40, Wallingford CT 06492
  
  
 ---------------------------------------------------------------
 Warning -- This program may not be used in any manner that
 competes with the business of Gaussian, Inc. or will provide
 assistance to any competitor of Gaussian, Inc.  The licensee
 of this program is prohibited from giving any competitor of
 Gaussian, Inc. access to this program.  By using this program,
 the user acknowledges that Gaussian, Inc. is engaged in the
 business of creating and licensing software in the field of
 computational chemistry and represents and warrants to the
 licensee that it is not a competitor of Gaussian, Inc. and that
 it will not use this program in any manner prohibited above.
 ---------------------------------------------------------------
  

 Cite this work as:
 Gaussian 16, Revision A.03,
 M. J. Frisch, G. W. Trucks, H. B. Schlegel, G. E. Scuseria, 
 M. A. Robb, J. R. Cheeseman, G. Scalmani, V. Barone, 
 G. A. Petersson, H. Nakatsuji, X. Li, M. Caricato, A. V. Marenich, 
 J. Bloino, B. G. Janesko, R. Gomperts, B. Mennucci, H. P. Hratchian, 
 J. V. Ortiz, A. F. Izmaylov, J. L. Sonnenberg, D. Williams-Young, 
 F. Ding, F. Lipparini, F. Egidi, J. Goings, B. Peng, A. Petrone, 
 T. Henderson, D. Ranasinghe, V. G. Zakrzewski, J. Gao, N. Rega, 
 G. Zheng, W. Liang, M. Hada, M. Ehara, K. Toyota, R. Fukuda, 
 J. Hasegawa, M. Ishida, T. Nakajima, Y. Honda, O. Kitao, H. Nakai, 
 T. Vreven, K. Throssell, J. A. Montgomery, Jr., J. E. Peralta, 
 F. Ogliaro, M. J. Bearpark, J. J. Heyd, E. N. Brothers, K. N. Kudin, 
 V. N. Staroverov, T. A. Keith, R. Kobayashi, J. Normand, 
 K. Raghavachari, A. P. Rendell, J. C. Burant, S. S. Iyengar, 
 J. Tomasi, M. Cossi, J. M. Millam, M. Klene, C. Adamo, R. Cammi, 
 J. W. Ochterski, R. L. Martin, K. Morokuma, O. Farkas, 
 J. B. Foresman, and D. J. Fox, Gaussian, Inc., Wallingford CT, 2016.
 
 ******************************************
 Gaussian 16:  ES64L-G16RevA.03 25-Dec-2016
                22-Sep-2023 
 ******************************************
 %nprocshared=2
 Will use up to    2 processors via shared memory.
 %mem=2GB
 ----------------------------------------------------------------------
 #p b3lyp/gen scrf=(cpcm,solvent=toluene) pop=hirshfeld empiricaldisper
 sion=gd3bj
 ----------------------------------------------------------------------
 1/38=1,172=1/1;
 2/12=2,17=6,18=5,40=1/2;
 3/5=7,11=2,25=1,30=1,70=2101,72=13,74=-5,124=41/1,2,3;
 4//1;
 5/5=2,38=5,53=13/2;
 6/7=2,8=2,9=2,10=2,28=1,79=1/1;
 99/5=1,9=1/99;
 Leave Link    1 at Fri Sep 22 16:34:59 2023, MaxMem=   268435456 cpu:               0.1 elap:               0.0
 (Enter /share/apps/gaussian/g16/l101.exe)
 ------------------------
 tmpdir/M2_conf_0_229.gjf
 ------------------------
 Symbolic Z-matrix:
 Charge =  0 Multiplicity = 1
 C                     0.        0.        0. 
 C                     1.4215    0.        0. 
 C                     2.18754   0.        1.19506 
 H                    -0.51121  -0.01147  -0.85309 
 H                    -0.53081   0.03752   0.95059 
 H                     1.91205   0.0156   -0.91168 
 O                     3.39913   0.05556   1.15287 
 H                     1.66977  -0.06678   2.14826 
 
 ITRead=  0  0  0  0  0  0  0  0
 MicOpt= -1 -1 -1 -1 -1 -1 -1 -1
 NAtoms=      8 NQM=        8 NQMF=       0 NMMI=      0 NMMIF=      0
                NMic=       0 NMicF=      0.
                    Isotopes and Nuclear Properties:
 (Nuclear quadrupole moments (NQMom) in fm**2, nuclear magnetic moments (NMagM)
  in nuclear magnetons)

  Atom         1           2           3           4           5           6           7           8
 IAtWgt=          12          12          12           1           1           1          16           1
 AtmWgt=  12.0000000  12.0000000  12.0000000   1.0078250   1.0078250   1.0078250  15.9949146   1.0078250
 NucSpn=           0           0           0           1           1           1           0           1
 AtZEff=  -0.0000000  -0.0000000  -0.0000000  -0.0000000  -0.0000000  -0.0000000  -0.0000000  -0.0000000
 NQMom=    0.0000000   0.0000000   0.0000000   0.0000000   0.0000000   0.0000000   0.0000000   0.0000000
 NMagM=    0.0000000   0.0000000   0.0000000   2.7928460   2.7928460   2.7928460   0.0000000   2.7928460
 AtZNuc=   6.0000000   6.0000000   6.0000000   1.0000000   1.0000000   1.0000000   8.0000000   1.0000000
 Leave Link  101 at Fri Sep 22 16:34:59 2023, MaxMem=   268435456 cpu:               0.2 elap:               0.1
 (Enter /share/apps/gaussian/g16/l202.exe)
                          Input orientation:                          
 ---------------------------------------------------------------------
 Center     Atomic      Atomic             Coordinates (Angstroms)
 Number     Number       Type             X           Y           Z
 ---------------------------------------------------------------------
      1          6           0        0.000000    0.000000    0.000000
      2          6           0        1.421500    0.000000    0.000000
      3          6           0        2.187540    0.000000    1.195060
      4          1           0       -0.511210   -0.011470   -0.853090
      5          1           0       -0.530810    0.037520    0.950590
      6          1           0        1.912050    0.015600   -0.911680
      7          8           0        3.399130    0.055560    1.152870
      8          1           0        1.669770   -0.066780    2.148260
 ---------------------------------------------------------------------
                    Distance matrix (angstroms):
                    1          2          3          4          5
     1  C    0.000000
     2  C    1.421500   0.000000
     3  C    2.492689   1.419502   0.000000
     4  H    0.994600   2.112643   3.387964   0.000000
     5  H    1.089398   2.171760   2.729579   1.804452   0.000000
     6  H    2.118334   1.035395   2.124733   2.424119   3.071823
     7  O    3.589747   2.289807   1.213597   4.395353   3.935184
     8  H    2.721693   2.163589   1.086801   3.710503   2.507557
                    6          7          8
     6  H    0.000000
     7  O    2.544675   0.000000
     8  H    3.070622   1.999113   0.000000
 Stoichiometry    C3H4O
 Framework group  C1[X(C3H4O)]
 Deg. of freedom    18
 Full point group                 C1      NOp   1
 Largest Abelian subgroup         C1      NOp   1
 Largest concise Abelian subgroup C1      NOp   1
                         Standard orientation:                         
 ---------------------------------------------------------------------
 Center     Atomic      Atomic             Coordinates (Angstroms)
 Number     Number       Type             X           Y           Z
 ---------------------------------------------------------------------
      1          6           0        1.808338    0.115066    0.009019
      2          6           0        0.496833   -0.432690   -0.015019
      3          6           0       -0.670664    0.374736   -0.015897
      4          1           0        2.609018   -0.474859   -0.002425
      5          1           0        1.931154    1.196065    0.065115
      6          1           0        0.395539   -1.463117   -0.016931
      7          8           0       -1.772887   -0.131941    0.018737
      8          1           0       -0.559664    1.454770   -0.064275
 ---------------------------------------------------------------------
 Rotational constants (GHZ):          48.8773060           4.6512905           4.2486123
 Leave Link  202 at Fri Sep 22 16:34:59 2023, MaxMem=   268435456 cpu:               0.0 elap:               0.0
 (Enter /share/apps/gaussian/g16/l301.exe)
 General basis read from cards:  (5D, 7F)
 Centers:       4      5      6      8
 S 3 1.00
     Exponent=  1.2251800000D+01 Coefficients=  2.3337100000D-02
     Exponent=  1.8687100000D+00 Coefficients=  1.5915000000D-01
     Exponent=  4.1820800000D-01 Coefficients=  5.0000000000D-01
 S 1 1.00
     Exponent=  1.0610000000D-01 Coefficients=  1.0000000000D+00
 P 1 1.00
     Exponent=  1.0000000000D+00 Coefficients=  1.0000000000D+00
 ****
 Centers:       1      2      3
 S 5 1.00
     Exponent=  1.2432000000D+03 Coefficients=  6.0336600000D-03
     Exponent=  1.8714500000D+02 Coefficients=  4.4957600000D-02
     Exponent=  4.2512600000D+01 Coefficients=  1.9790100000D-01
     Exponent=  1.1739300000D+01 Coefficients=  5.0000000000D-01
     Exponent=  3.5054800000D+00 Coefficients=  4.8036400000D-01
 S 2 1.00
     Exponent=  5.3908900000D+00 Coefficients= -7.0398000000D-02
     Exponent=  4.9334100000D-01 Coefficients=  5.0000000000D-01
 S 1 1.00
     Exponent=  1.4974100000D-01 Coefficients=  1.0000000000D+00
 P 3 1.00
     Exponent=  9.1805600000D+00 Coefficients=  4.3170100000D-02
     Exponent=  1.9365800000D+00 Coefficients=  2.2499900000D-01
     Exponent=  5.2629600000D-01 Coefficients=  5.0000000000D-01
 P 1 1.00
     Exponent=  1.3631900000D-01 Coefficients=  1.0000000000D+00
 D 1 1.00
     Exponent=  8.0000000000D-01 Coefficients=  1.0000000000D+00
 ****
 Centers:       7
 S 5 1.00
     Exponent=  2.2886400000D+03 Coefficients=  5.8546800000D-03
     Exponent=  3.4441600000D+02 Coefficients=  4.3733300000D-02
     Exponent=  7.8253800000D+01 Coefficients=  1.9479600000D-01
     Exponent=  2.1719500000D+01 Coefficients=  5.0000000000D-01
     Exponent=  6.5590700000D+00 Coefficients=  4.8461400000D-01
 S 2 1.00
     Exponent=  1.0465600000D+01 Coefficients= -7.1334300000D-02
     Exponent=  9.6435100000D-01 Coefficients=  5.0000000000D-01
 S 1 1.00
     Exponent=  2.8512700000D-01 Coefficients=  1.0000000000D+00
 P 3 1.00
     Exponent=  1.7059000000D+01 Coefficients=  4.7443900000D-02
     Exponent=  3.6899900000D+00 Coefficients=  2.4268900000D-01
     Exponent=  9.9299600000D-01 Coefficients=  5.0000000000D-01
 P 1 1.00
     Exponent=  2.4492400000D-01 Coefficients=  1.0000000000D+00
 D 1 1.00
     Exponent=  1.0000000000D+00 Coefficients=  1.0000000000D+00
 ****
 Ernie: Thresh=  0.10000D-02 Tol=  0.10000D-05 Strict=F.
 There are    80 symmetry adapted cartesian basis functions of A   symmetry.
 There are    76 symmetry adapted basis functions of A   symmetry.
    76 basis functions,   132 primitive gaussians,    80 cartesian basis functions
    15 alpha electrons       15 beta electrons
       nuclear repulsion energy       103.3805596171 Hartrees.
 IExCor=  402 DFT=T Ex+Corr=B3LYP ExCW=0 ScaHFX=  0.200000
 ScaDFX=  0.800000  0.720000  1.000000  0.810000 ScalE2=  1.000000  1.000000
 IRadAn=      5 IRanWt=     -1 IRanGd=            0 ICorTp=0 IEmpDi=141
 NAtoms=    8 NActive=    8 NUniq=    8 SFac= 1.00D+00 NAtFMM=   60 NAOKFM=F Big=F
 Integral buffers will be    131072 words long.
 Raffenetti 2 integral format.
 Two-electron integral symmetry is turned on.
 R6Disp:  Grimme-D3(BJ) Dispersion energy=       -0.0080538009 Hartrees.
 Nuclear repulsion after empirical dispersion term =      103.3725058162 Hartrees.
 ------------------------------------------------------------------------------
 Polarizable Continuum Model (PCM)
 =================================
 Model                : C-PCM.
 Atomic radii         : UFF (Universal Force Field).
 Polarization charges : Total charges.
 Charge compensation  : None.
 Solution method      : On-the-fly selection.
 Cavity type          : Scaled VdW (van der Waals Surface) (Alpha=1.100).
 Cavity algorithm     : GePol (No added spheres)
                        Default sphere list used, NSphG=    8.
                        Lebedev-Laikov grids with approx.  5.0 points / Ang**2.
                        Smoothing algorithm: York/Karplus (Gamma=1.0000).
                        Polarization charges: spherical gaussians, with
                                              point-specific exponents (IZeta= 3).
                        Self-potential: point-specific (ISelfS= 7).
                        Self-field    : sphere-specific E.n sum rule (ISelfD= 2).
 Solvent              : Toluene, Eps=   2.374100 Eps(inf)=   2.238315
 ------------------------------------------------------------------------------
 Spheres list:
 ISph  on   Nord     Re0    Alpha      Xe            Ye            Ze
    1   C      1    1.9255  1.100      1.808338      0.115066      0.009019
    2   C      2    1.9255  1.100      0.496833     -0.432690     -0.015019
    3   C      3    1.9255  1.100     -0.670664      0.374736     -0.015897
    4   H      4    1.4430  1.100      2.609018     -0.474859     -0.002425
    5   H      5    1.4430  1.100      1.931154      1.196065      0.065115
    6   H      6    1.4430  1.100      0.395539     -1.463117     -0.016931
    7   O      7    1.7500  1.100     -1.772887     -0.131941      0.018737
    8   H      8    1.4430  1.100     -0.559664      1.454770     -0.064275
 ------------------------------------------------------------------------------
 GePol: Number of generator spheres                  =       8
 GePol: Total number of spheres                      =       8
 GePol: Number of exposed spheres                    =       8 (100.00%)
 GePol: Number of points                             =     843
 GePol: Average weight of points                     =       0.14
 GePol: Minimum weight of points                     =   0.10D-08
 GePol: Maximum weight of points                     =    0.20577
 GePol: Number of points with low weight             =      50
 GePol: Fraction of low-weight points (<1% of avg)   =       5.93%
 GePol: Cavity surface area                          =    115.242 Ang**2
 GePol: Cavity volume                                =     98.980 Ang**3
 Leave Link  301 at Fri Sep 22 16:34:59 2023, MaxMem=   268435456 cpu:               0.2 elap:               0.1
 (Enter /share/apps/gaussian/g16/l302.exe)
 NPDir=0 NMtPBC=     1 NCelOv=     1 NCel=       1 NClECP=     1 NCelD=      1
         NCelK=      1 NCelE2=     1 NClLst=     1 CellRange=     0.0.
 One-electron integrals computed using PRISM.
 One-electron integral symmetry used in STVInt
 NBasis=    76 RedAO= T EigKep=  3.37D-03  NBF=    76
 NBsUse=    76 1.00D-06 EigRej= -1.00D+00 NBFU=    76
 Precomputing XC quadrature grid using
 IXCGrd= 4 IRadAn=           5 IRanWt=          -1 IRanGd=           0 AccXCQ= 0.00D+00.
 Generated NRdTot=       0 NPtTot=           0 NUsed=           0 NTot=          32
 NSgBfM=    80    80    80    80    80 MxSgAt=     8 MxSgA2=     8.
 Leave Link  302 at Fri Sep 22 16:35:00 2023, MaxMem=   268435456 cpu:               0.3 elap:               0.2
 (Enter /share/apps/gaussian/g16/l303.exe)
 DipDrv:  MaxL=1.
 Leave Link  303 at Fri Sep 22 16:35:00 2023, MaxMem=   268435456 cpu:               0.1 elap:               0.1
 (Enter /share/apps/gaussian/g16/l401.exe)
 ExpMin= 1.06D-01 ExpMax= 2.29D+03 ExpMxC= 3.44D+02 IAcc=3 IRadAn=         5 AccDes= 0.00D+00
 Harris functional with IExCor=  402 and IRadAn=       5 diagonalized for initial guess.
 HarFok:  IExCor=  402 AccDes= 0.00D+00 IRadAn=         5 IDoV= 1 UseB2=F ITyADJ=14
 ICtDFT=  3500011 ScaDFX=  1.000000  1.000000  1.000000  1.000000
 FoFCou: FMM=F IPFlag=           0 FMFlag=      100000 FMFlg1=           0
         NFxFlg=           0 DoJE=T BraDBF=F KetDBF=T FulRan=T
         wScrn=  0.000000 ICntrl=       500 IOpCl=  0 I1Cent=   200000004 NGrid=           0
         NMat0=    1 NMatS0=      1 NMatT0=    0 NMatD0=    1 NMtDS0=    0 NMtDT0=    0
 Petite list used in FoFCou.
 Harris En= -191.897419086120    
 JPrj=0 DoOrth=F DoCkMO=F.
 Leave Link  401 at Fri Sep 22 16:35:01 2023, MaxMem=   268435456 cpu:               1.6 elap:               0.8
 (Enter /share/apps/gaussian/g16/l502.exe)
 Keep R1 ints in memory in canonical form, NReq=6092111.
 FoFCou: FMM=F IPFlag=           0 FMFlag=           0 FMFlg1=           0
         NFxFlg=           0 DoJE=F BraDBF=F KetDBF=F FulRan=T
         wScrn=  0.000000 ICntrl=       600 IOpCl=  0 I1Cent=           0 NGrid=           0
         NMat0=    1 NMatS0=   2926 NMatT0=    0 NMatD0=    1 NMtDS0=    0 NMtDT0=    0
 Symmetry not used in FoFCou.
 Two-electron integral symmetry not used.
 Closed shell SCF:
 Using DIIS extrapolation, IDIIS=  1040.
 NGot=   268435456 LenX=   264138979 LenY=   264132138
 Requested convergence on RMS density matrix=1.00D-08 within 128 cycles.
 Requested convergence on MAX density matrix=1.00D-06.
 Requested convergence on             energy=1.00D-06.
 No special actions if energy rises.

 Cycle   1  Pass 1  IDiag  1:
 Inv3:  Mode=1 IEnd=     2131947.
 Iteration    1 A*A^-1 deviation from unit magnitude is 4.44D-15 for    843.
 Iteration    1 A*A^-1 deviation from orthogonality  is 1.53D-15 for    835    785.
 Iteration    1 A^-1*A deviation from unit magnitude is 4.44D-15 for    843.
 Iteration    1 A^-1*A deviation from orthogonality  is 1.37D-15 for    839    685.
 E= -191.781451015035    
 DIIS: error= 3.51D-02 at cycle   1 NSaved=   1.
 NSaved= 1 IEnMin= 1 EnMin= -191.781451015035     IErMin= 1 ErrMin= 3.51D-02
 ErrMax= 3.51D-02  0.00D+00 EMaxC= 1.00D-01 BMatC= 9.77D-02 BMatP= 9.77D-02
 IDIUse=3 WtCom= 6.49D-01 WtEn= 3.51D-01
 Coeff-Com:  0.100D+01
 Coeff-En:   0.100D+01
 Coeff:      0.100D+01
 Gap=     0.133 Goal=   None    Shift=    0.000
 GapD=    0.133 DampG=1.000 DampE=0.500 DampFc=0.5000 IDamp=-1.
 Damping current iteration by 5.00D-01
 RMSDP=1.06D-02 MaxDP=2.25D-01              OVMax= 2.06D-01

 Cycle   2  Pass 1  IDiag  1:
 E= -191.812180394873     Delta-E=       -0.030729379837 Rises=F Damp=T
 DIIS: error= 1.23D-02 at cycle   2 NSaved=   2.
 NSaved= 2 IEnMin= 2 EnMin= -191.812180394873     IErMin= 2 ErrMin= 1.23D-02
 ErrMax= 1.23D-02  0.00D+00 EMaxC= 1.00D-01 BMatC= 1.44D-02 BMatP= 9.77D-02
 IDIUse=3 WtCom= 8.77D-01 WtEn= 1.23D-01
 Coeff-Com:  0.213D+00 0.787D+00
 Coeff-En:   0.289D+00 0.711D+00
 Coeff:      0.222D+00 0.778D+00
 Gap=     0.198 Goal=   None    Shift=    0.000
 RMSDP=3.11D-03 MaxDP=5.11D-02 DE=-3.07D-02 OVMax= 1.74D-01

 Cycle   3  Pass 1  IDiag  1:
 E= -191.863964263475     Delta-E=       -0.051783868602 Rises=F Damp=F
 DIIS: error= 1.51D-02 at cycle   3 NSaved=   3.
 NSaved= 3 IEnMin= 3 EnMin= -191.863964263475     IErMin= 2 ErrMin= 1.23D-02
 ErrMax= 1.51D-02  0.00D+00 EMaxC= 1.00D-01 BMatC= 1.38D-02 BMatP= 1.44D-02
 IDIUse=3 WtCom= 8.49D-01 WtEn= 1.51D-01
 Coeff-Com:  0.568D-01 0.493D+00 0.450D+00
 Coeff-En:   0.000D+00 0.000D+00 0.100D+01
 Coeff:      0.482D-01 0.419D+00 0.533D+00
 Gap=     0.205 Goal=   None    Shift=    0.000
 RMSDP=1.91D-03 MaxDP=3.86D-02 DE=-5.18D-02 OVMax= 7.17D-02

 Cycle   4  Pass 1  IDiag  1:
 E= -191.874916694294     Delta-E=       -0.010952430819 Rises=F Damp=F
 DIIS: error= 5.82D-03 at cycle   4 NSaved=   4.
 NSaved= 4 IEnMin= 4 EnMin= -191.874916694294     IErMin= 4 ErrMin= 5.82D-03
 ErrMax= 5.82D-03  0.00D+00 EMaxC= 1.00D-01 BMatC= 2.43D-03 BMatP= 1.38D-02
 IDIUse=3 WtCom= 9.42D-01 WtEn= 5.82D-02
 Coeff-Com:  0.192D-01 0.480D-01 0.292D+00 0.640D+00
 Coeff-En:   0.000D+00 0.000D+00 0.171D+00 0.829D+00
 Coeff:      0.181D-01 0.452D-01 0.285D+00 0.651D+00
 Gap=     0.183 Goal=   None    Shift=    0.000
 RMSDP=6.81D-04 MaxDP=1.20D-02 DE=-1.10D-02 OVMax= 2.73D-02

 Cycle   5  Pass 1  IDiag  1:
 E= -191.876971102248     Delta-E=       -0.002054407955 Rises=F Damp=F
 DIIS: error= 9.57D-04 at cycle   5 NSaved=   5.
 NSaved= 5 IEnMin= 5 EnMin= -191.876971102248     IErMin= 5 ErrMin= 9.57D-04
 ErrMax= 9.57D-04  0.00D+00 EMaxC= 1.00D-01 BMatC= 1.02D-04 BMatP= 2.43D-03
 IDIUse=3 WtCom= 9.90D-01 WtEn= 9.57D-03
 Coeff-Com:  0.807D-02 0.155D-02 0.146D+00 0.388D+00 0.456D+00
 Coeff-En:   0.000D+00 0.000D+00 0.000D+00 0.000D+00 0.100D+01
 Coeff:      0.799D-02 0.153D-02 0.144D+00 0.384D+00 0.462D+00
 Gap=     0.181 Goal=   None    Shift=    0.000
 RMSDP=1.53D-04 MaxDP=3.75D-03 DE=-2.05D-03 OVMax= 8.38D-03

 Cycle   6  Pass 1  IDiag  1:
 E= -191.877075978498     Delta-E=       -0.000104876250 Rises=F Damp=F
 DIIS: error= 2.84D-04 at cycle   6 NSaved=   6.
 NSaved= 6 IEnMin= 6 EnMin= -191.877075978498     IErMin= 6 ErrMin= 2.84D-04
 ErrMax= 2.84D-04  0.00D+00 EMaxC= 1.00D-01 BMatC= 9.83D-06 BMatP= 1.02D-04
 IDIUse=3 WtCom= 9.97D-01 WtEn= 2.84D-03
 Coeff-Com:  0.214D-02-0.558D-02 0.408D-01 0.118D+00 0.268D+00 0.576D+00
 Coeff-En:   0.000D+00 0.000D+00 0.000D+00 0.000D+00 0.719D-01 0.928D+00
 Coeff:      0.214D-02-0.557D-02 0.406D-01 0.118D+00 0.268D+00 0.577D+00
 Gap=     0.181 Goal=   None    Shift=    0.000
 RMSDP=3.94D-05 MaxDP=9.90D-04 DE=-1.05D-04 OVMax= 2.02D-03

 Cycle   7  Pass 1  IDiag  1:
 E= -191.877086102697     Delta-E=       -0.000010124199 Rises=F Damp=F
 DIIS: error= 6.33D-05 at cycle   7 NSaved=   7.
 NSaved= 7 IEnMin= 7 EnMin= -191.877086102697     IErMin= 7 ErrMin= 6.33D-05
 ErrMax= 6.33D-05  0.00D+00 EMaxC= 1.00D-01 BMatC= 6.03D-07 BMatP= 9.83D-06
 IDIUse=1 WtCom= 1.00D+00 WtEn= 0.00D+00
 Coeff-Com:  0.426D-03-0.304D-02 0.736D-02 0.224D-01 0.979D-01 0.288D+00
 Coeff-Com:  0.587D+00
 Coeff:      0.426D-03-0.304D-02 0.736D-02 0.224D-01 0.979D-01 0.288D+00
 Coeff:      0.587D+00
 Gap=     0.181 Goal=   None    Shift=    0.000
 RMSDP=1.07D-05 MaxDP=1.72D-04 DE=-1.01D-05 OVMax= 2.09D-04

 Cycle   8  Pass 1  IDiag  1:
 E= -191.877086674463     Delta-E=       -0.000000571766 Rises=F Damp=F
 DIIS: error= 5.09D-06 at cycle   8 NSaved=   8.
 NSaved= 8 IEnMin= 8 EnMin= -191.877086674463     IErMin= 8 ErrMin= 5.09D-06
 ErrMax= 5.09D-06  0.00D+00 EMaxC= 1.00D-01 BMatC= 3.71D-09 BMatP= 6.03D-07
 IDIUse=1 WtCom= 1.00D+00 WtEn= 0.00D+00
 Coeff-Com:  0.772D-05-0.121D-03-0.440D-03-0.180D-02 0.199D-02 0.411D-02
 Coeff-Com:  0.433D-01 0.953D+00
 Coeff:      0.772D-05-0.121D-03-0.440D-03-0.180D-02 0.199D-02 0.411D-02
 Coeff:      0.433D-01 0.953D+00
 Gap=     0.181 Goal=   None    Shift=    0.000
 RMSDP=1.36D-06 MaxDP=2.42D-05 DE=-5.72D-07 OVMax= 2.93D-05

 Cycle   9  Pass 1  IDiag  1:
 E= -191.877086678453     Delta-E=       -0.000000003990 Rises=F Damp=F
 DIIS: error= 5.77D-07 at cycle   9 NSaved=   9.
 NSaved= 9 IEnMin= 9 EnMin= -191.877086678453     IErMin= 9 ErrMin= 5.77D-07
 ErrMax= 5.77D-07  0.00D+00 EMaxC= 1.00D-01 BMatC= 4.56D-11 BMatP= 3.71D-09
 IDIUse=1 WtCom= 1.00D+00 WtEn= 0.00D+00
 Coeff-Com: -0.988D-05 0.425D-04-0.214D-03-0.742D-03-0.144D-02-0.503D-02
 Coeff-Com: -0.479D-02 0.150D+00 0.862D+00
 Coeff:     -0.988D-05 0.425D-04-0.214D-03-0.742D-03-0.144D-02-0.503D-02
 Coeff:     -0.479D-02 0.150D+00 0.862D+00
 Gap=     0.181 Goal=   None    Shift=    0.000
 RMSDP=1.72D-07 MaxDP=1.94D-06 DE=-3.99D-09 OVMax= 3.15D-06

 Cycle  10  Pass 1  IDiag  1:
 E= -191.877086678507     Delta-E=       -0.000000000054 Rises=F Damp=F
 DIIS: error= 1.32D-07 at cycle  10 NSaved=  10.
 NSaved=10 IEnMin=10 EnMin= -191.877086678507     IErMin=10 ErrMin= 1.32D-07
 ErrMax= 1.32D-07  0.00D+00 EMaxC= 1.00D-01 BMatC= 1.77D-12 BMatP= 4.56D-11
 IDIUse=1 WtCom= 1.00D+00 WtEn= 0.00D+00
 Coeff-Com: -0.182D-05 0.947D-05-0.168D-04-0.682D-04-0.248D-03-0.888D-03
 Coeff-Com: -0.166D-02-0.375D-02 0.120D+00 0.886D+00
 Coeff:     -0.182D-05 0.947D-05-0.168D-04-0.682D-04-0.248D-03-0.888D-03
 Coeff:     -0.166D-02-0.375D-02 0.120D+00 0.886D+00
 Gap=     0.181 Goal=   None    Shift=    0.000
 RMSDP=3.07D-08 MaxDP=4.64D-07 DE=-5.38D-11 OVMax= 6.91D-07

 Cycle  11  Pass 1  IDiag  1:
 E= -191.877086678511     Delta-E=       -0.000000000004 Rises=F Damp=F
 DIIS: error= 3.46D-08 at cycle  11 NSaved=  11.
 NSaved=11 IEnMin=11 EnMin= -191.877086678511     IErMin=11 ErrMin= 3.46D-08
 ErrMax= 3.46D-08  0.00D+00 EMaxC= 1.00D-01 BMatC= 1.13D-13 BMatP= 1.77D-12
 IDIUse=1 WtCom= 1.00D+00 WtEn= 0.00D+00
 Coeff-Com: -0.282D-07 0.216D-06 0.263D-05 0.366D-05-0.115D-06-0.295D-04
 Coeff-Com: -0.146D-03-0.417D-02-0.457D-02 0.127D+00 0.882D+00
 Coeff:     -0.282D-07 0.216D-06 0.263D-05 0.366D-05-0.115D-06-0.295D-04
 Coeff:     -0.146D-03-0.417D-02-0.457D-02 0.127D+00 0.882D+00
 Gap=     0.181 Goal=   None    Shift=    0.000
 RMSDP=6.16D-09 MaxDP=1.07D-07 DE=-4.26D-12 OVMax= 9.21D-08

 Error on total polarization charges =  0.00462
 SCF Done:  E(RB3LYP) =  -191.877086679     A.U. after   11 cycles
            NFock= 11  Conv=0.62D-08     -V/T= 2.0038
 KE= 1.911440824312D+02 PE=-6.548962414660D+02 EE= 1.685025665401D+02
 Leave Link  502 at Fri Sep 22 16:35:12 2023, MaxMem=   268435456 cpu:              22.4 elap:              11.3
 (Enter /share/apps/gaussian/g16/l601.exe)
 Copying SCF densities to generalized density rwf, IOpCl= 0 IROHF=0.

 **********************************************************************

            Population analysis using the SCF density.

 **********************************************************************

 Orbital symmetries:
       Occupied  (A) (A) (A) (A) (A) (A) (A) (A) (A) (A) (A) (A)
                 (A) (A) (A)
       Virtual   (A) (A) (A) (A) (A) (A) (A) (A) (A) (A) (A) (A)
                 (A) (A) (A) (A) (A) (A) (A) (A) (A) (A) (A) (A)
                 (A) (A) (A) (A) (A) (A) (A) (A) (A) (A) (A) (A)
                 (A) (A) (A) (A) (A) (A) (A) (A) (A) (A) (A) (A)
                 (A) (A) (A) (A) (A) (A) (A) (A) (A) (A) (A) (A)
                 (A)
 The electronic state is 1-A.
 Alpha  occ. eigenvalues --  -19.12235 -10.26531 -10.21670 -10.20173  -1.05812
 Alpha  occ. eigenvalues --   -0.80411  -0.67178  -0.58863  -0.49227  -0.48608
 Alpha  occ. eigenvalues --   -0.43042  -0.41244  -0.40870  -0.29105  -0.26965
 Alpha virt. eigenvalues --   -0.08819   0.03819   0.06248   0.07296   0.10697
 Alpha virt. eigenvalues --    0.13315   0.20975   0.25422   0.29321   0.39697
 Alpha virt. eigenvalues --    0.41386   0.45448   0.46713   0.49452   0.50831
 Alpha virt. eigenvalues --    0.52511   0.61620   0.62131   0.64410   0.66877
 Alpha virt. eigenvalues --    0.71768   0.72602   0.84460   0.89578   0.92313
 Alpha virt. eigenvalues --    0.93749   1.03660   1.12010   1.27451   1.31356
 Alpha virt. eigenvalues --    1.38333   1.49161   1.67197   1.69534   1.80210
 Alpha virt. eigenvalues --    1.80336   1.82640   1.86177   1.87059   1.92338
 Alpha virt. eigenvalues --    1.98457   2.06014   2.12307   2.18501   2.26302
 Alpha virt. eigenvalues --    2.29292   2.34389   2.35581   2.42582   2.53171
 Alpha virt. eigenvalues --    2.55388   2.64286   2.66856   2.82310   2.84675
 Alpha virt. eigenvalues --    2.98219   3.16135   3.27237   3.30520   3.45905
 Alpha virt. eigenvalues --    3.61056
          Condensed to atoms (all electrons):
               1          2          3          4          5          6
     1  C    4.770523   0.528864  -0.052675   0.392981   0.397812  -0.028338
     2  C    0.528864   5.176178   0.344473  -0.005896  -0.038028   0.401130
     3  C   -0.052675   0.344473   4.437389   0.006727  -0.008596  -0.029975
     4  H    0.392981  -0.005896   0.006727   0.570292  -0.039378  -0.011561
     5  H    0.397812  -0.038028  -0.008596  -0.039378   0.554591   0.008024
     6  H   -0.028338   0.401130  -0.029975  -0.011561   0.008024   0.577022
     7  O    0.006575  -0.080010   0.593978  -0.000297   0.000232   0.003535
     8  H    0.009427  -0.115381   0.421288  -0.000021   0.006321   0.008917
               7          8
     1  C    0.006575   0.009427
     2  C   -0.080010  -0.115381
     3  C    0.593978   0.421288
     4  H   -0.000297  -0.000021
     5  H    0.000232   0.006321
     6  H    0.003535   0.008917
     7  O    7.905846  -0.051670
     8  H   -0.051670   0.671243
 Mulliken charges:
               1
     1  C   -0.025170
     2  C   -0.211331
     3  C    0.287391
     4  H    0.087153
     5  H    0.119023
     6  H    0.071246
     7  O   -0.378189
     8  H    0.049876
 Sum of Mulliken charges =  -0.00000
 Mulliken charges with hydrogens summed into heavy atoms:
               1
     1  C    0.181006
     2  C   -0.140084
     3  C    0.337267
     7  O   -0.378189
 Electronic spatial extent (au):  <R**2>=            297.9739
 Charge=             -0.0000 electrons
 Dipole moment (field-independent basis, Debye):
    X=              3.8035    Y=              0.8958    Z=             -0.0448  Tot=              3.9078
 Quadrupole moment (field-independent basis, Debye-Ang):
   XX=            -27.1198   YY=            -21.6516   ZZ=            -25.0888
   XY=             -1.0069   XZ=              0.1899   YZ=              0.0660
 Traceless Quadrupole moment (field-independent basis, Debye-Ang):
   XX=             -2.4998   YY=              2.9685   ZZ=             -0.4687
   XY=             -1.0069   XZ=              0.1899   YZ=              0.0660
 Octapole moment (field-independent basis, Debye-Ang**2):
  XXX=             16.3263  YYY=              0.2332  ZZZ=              0.0930  XYY=             -0.0721
  XXY=              0.8508  XXZ=             -0.0317  XZZ=             -4.1399  YZZ=              0.1459
  YYZ=              0.0275  XYZ=              0.1492
 Hexadecapole moment (field-independent basis, Debye-Ang**3):
 XXXX=           -301.8876 YYYY=            -54.2362 ZZZZ=            -26.7879 XXXY=             -3.2673
 XXXZ=              0.4324 YYYX=              0.3391 YYYZ=              0.0985 ZZZX=             -0.0243
 ZZZY=              0.0391 XXYY=            -56.7728 XXZZ=            -56.1592 YYZZ=            -14.9119
 XXYZ=              0.3288 YYXZ=              0.1976 ZZXY=              0.2876
 N-N= 1.033725058162D+02 E-N=-6.548962417752D+02  KE= 1.911440824312D+02
 There are a total of      177562 grid points.
 ElSum from          density=       29.9999987565
 ElSum from atomic densities=       29.9999971365
 Hirshfeld populations at iteration   1 (CA, CB, DipXYZ):
               1          2          3          4          5
     1  C    3.007149   3.007149   0.102045   0.022684   0.001215
     2  C    3.015194   3.015194  -0.060136  -0.030763  -0.001421
     3  C    2.939366   2.939366   0.030292   0.043059  -0.000827
     4  H    0.474539   0.474539   0.135154  -0.095276  -0.002061
     5  H    0.473740   0.473740   0.028938   0.150379   0.009391
     6  H    0.477034   0.477034  -0.006730  -0.158500   0.000218
     7  O    4.134159   4.134159   0.157783   0.053575  -0.005166
     8  H    0.478819   0.478819   0.008942   0.130300  -0.006063
       Tot  14.999999  14.999999   0.396288   0.115458  -0.004713

 Dip from Atomic Chgs              1.100114   0.236992  -0.012911
         Total Dipole              1.496402   0.352450  -0.017624

 Hirshfeld charges, spin densities, dipoles, and CM5 charges using IRadAn=      5:
              Q-H        S-H        Dx         Dy         Dz        Q-CM5   
     1  C   -0.014298   0.000000   0.102045   0.022684   0.001215  -0.127135
     2  C   -0.030387   0.000000  -0.060136  -0.030763  -0.001421  -0.092997
     3  C    0.121269   0.000000   0.030292   0.043059  -0.000827   0.104633
     4  H    0.050922   0.000000   0.135154  -0.095276  -0.002061   0.115419
     5  H    0.052520   0.000000   0.028938   0.150379   0.009391   0.104589
     6  H    0.045931   0.000000  -0.006730  -0.158500   0.000218   0.111378
     7  O   -0.268318   0.000000   0.157783   0.053575  -0.005166  -0.323383
     8  H    0.042363   0.000000   0.008942   0.130300  -0.006063   0.107497
       Tot   0.000001   0.000000   0.396288   0.115458  -0.004713   0.000001
 Hirshfeld charges with hydrogens summed into heavy atoms:
              Q-H       Q-CM5   
     1  C    0.089145   0.092873
     2  C    0.015544   0.018381
     3  C    0.163631   0.212130
     7  O   -0.268318  -0.323383
 
 EQQ= 0.000000000000E+00 EQD= 0.000000000000E+00 EDD= 0.350032244785E-02
 EQQ+QD+DD= 0.350032244785E-02
 
 No NMR shielding tensors so no spin-rotation constants.
 Leave Link  601 at Fri Sep 22 16:35:12 2023, MaxMem=   268435456 cpu:               1.2 elap:               0.6
 (Enter /share/apps/gaussian/g16/l9999.exe)
 1\1\GINC-NODE99\SP\RB3LYP\Gen\C3H4O1\YANZ\22-Sep-2023\0\\#p b3lyp/gen 
 scrf=(cpcm,solvent=toluene) pop=hirshfeld empiricaldispersion=gd3bj\\t
 mpdir/M2_conf_0_229.gjf\\0,1\C,0,0.,0.,0.\C,0,1.4215,0.,0.\C,0,2.18754
 ,0.,1.19506\H,0,-0.51121,-0.01147,-0.85309\H,0,-0.53081,0.03752,0.9505
 9\H,0,1.91205,0.0156,-0.91168\O,0,3.39913,0.05556,1.15287\H,0,1.66977,
 -0.06678,2.14826\\Version=ES64L-G16RevA.03\State=1-A\HF=-191.8770867\R
 MSD=6.160e-09\Dipole=-1.5161274,-0.0407333,-0.2519043\Quadrupole=-1.78
 16641,-0.3531764,2.1348405,-0.1641369,-0.9209556,-0.0498685\PG=C01 [X(
 C3H4O1)]\\@


 A true friend is someone who is there for
 you when he'd rather be anywhere else.
                               -- Len Wein
 Job cpu time:       0 days  0 hours  0 minutes 26.2 seconds.
 Elapsed time:       0 days  0 hours  0 minutes 13.3 seconds.
 File lengths (MBytes):  RWF=     13 Int=      0 D2E=      0 Chk=      2 Scr=      1
 Normal termination of Gaussian 16 at Fri Sep 22 16:35:13 2023.
