 Entering Gaussian System, Link 0=g16
 Initial command:
 /share/apps/gaussian/g16/l1.exe "/tmp/55556.mgr/Gau-88384.inp" -scrdir="/tmp/55556.mgr/"
 Entering Link 1 = /share/apps/gaussian/g16/l1.exe PID=     88385.
  
 Copyright (c) 1988,1990,1992,1993,1995,1998,2003,2009,2016,
            Gaussian, Inc.  All Rights Reserved.
  
 This is part of the Gaussian(R) 16 program.  It is based on
 the Gaussian(R) 09 system (copyright 2009, Gaussian, Inc.),
 the Gaussian(R) 03 system (copyright 2003, Gaussian, Inc.),
 the Gaussian(R) 98 system (copyright 1998, Gaussian, Inc.),
 the Gaussian(R) 94 system (copyright 1995, Gaussian, Inc.),
 the Gaussian 92(TM) system (copyright 1992, Gaussian, Inc.),
 the Gaussian 90(TM) system (copyright 1990, Gaussian, Inc.),
 the Gaussian 88(TM) system (copyright 1988, Gaussian, Inc.),
 the Gaussian 86(TM) system (copyright 1986, Carnegie Mellon
 University), and the Gaussian 82(TM) system (copyright 1983,
 Carnegie Mellon University). Gaussian is a federally registered
 trademark of Gaussian, Inc.
  
 This software contains proprietary and confidential information,
 including trade secrets, belonging to Gaussian, Inc.
  
 This software is provided under written license and may be
 used, copied, transmitted, or stored only in accord with that
 written license.
  
 The following legend is applicable only to US Government
 contracts under FAR:
  
                    RESTRICTED RIGHTS LEGEND
  
 Use, reproduction and disclosure by the US Government is
 subject to restrictions as set forth in subparagraphs (a)
 and (c) of the Commercial Computer Software - Restricted
 Rights clause in FAR 52.227-19.
  
 Gaussian, Inc.
 340 Quinnipiac St., Bldg. 40, Wallingford CT 06492
  
  
 ---------------------------------------------------------------
 Warning -- This program may not be used in any manner that
 competes with the business of Gaussian, Inc. or will provide
 assistance to any competitor of Gaussian, Inc.  The licensee
 of this program is prohibited from giving any competitor of
 Gaussian, Inc. access to this program.  By using this program,
 the user acknowledges that Gaussian, Inc. is engaged in the
 business of creating and licensing software in the field of
 computational chemistry and represents and warrants to the
 licensee that it is not a competitor of Gaussian, Inc. and that
 it will not use this program in any manner prohibited above.
 ---------------------------------------------------------------
  

 Cite this work as:
 Gaussian 16, Revision A.03,
 M. J. Frisch, G. W. Trucks, H. B. Schlegel, G. E. Scuseria, 
 M. A. Robb, J. R. Cheeseman, G. Scalmani, V. Barone, 
 G. A. Petersson, H. Nakatsuji, X. Li, M. Caricato, A. V. Marenich, 
 J. Bloino, B. G. Janesko, R. Gomperts, B. Mennucci, H. P. Hratchian, 
 J. V. Ortiz, A. F. Izmaylov, J. L. Sonnenberg, D. Williams-Young, 
 F. Ding, F. Lipparini, F. Egidi, J. Goings, B. Peng, A. Petrone, 
 T. Henderson, D. Ranasinghe, V. G. Zakrzewski, J. Gao, N. Rega, 
 G. Zheng, W. Liang, M. Hada, M. Ehara, K. Toyota, R. Fukuda, 
 J. Hasegawa, M. Ishida, T. Nakajima, Y. Honda, O. Kitao, H. Nakai, 
 T. Vreven, K. Throssell, J. A. Montgomery, Jr., J. E. Peralta, 
 F. Ogliaro, M. J. Bearpark, J. J. Heyd, E. N. Brothers, K. N. Kudin, 
 V. N. Staroverov, T. A. Keith, R. Kobayashi, J. Normand, 
 K. Raghavachari, A. P. Rendell, J. C. Burant, S. S. Iyengar, 
 J. Tomasi, M. Cossi, J. M. Millam, M. Klene, C. Adamo, R. Cammi, 
 J. W. Ochterski, R. L. Martin, K. Morokuma, O. Farkas, 
 J. B. Foresman, and D. J. Fox, Gaussian, Inc., Wallingford CT, 2016.
 
 ******************************************
 Gaussian 16:  ES64L-G16RevA.03 25-Dec-2016
                22-Sep-2023 
 ******************************************
 %nprocshared=2
 Will use up to    2 processors via shared memory.
 %mem=2GB
 ----------------------------------------------------------------------
 #p b3lyp/gen scrf=(cpcm,solvent=toluene) pop=hirshfeld empiricaldisper
 sion=gd3bj
 ----------------------------------------------------------------------
 1/38=1,172=1/1;
 2/12=2,17=6,18=5,40=1/2;
 3/5=7,11=2,25=1,30=1,70=2101,72=13,74=-5,124=41/1,2,3;
 4//1;
 5/5=2,38=5,53=13/2;
 6/7=2,8=2,9=2,10=2,28=1,79=1/1;
 99/5=1,9=1/99;
 Leave Link    1 at Fri Sep 22 16:37:03 2023, MaxMem=   268435456 cpu:               0.1 elap:               0.1
 (Enter /share/apps/gaussian/g16/l101.exe)
 ------------------------
 tmpdir/M2_conf_0_393.gjf
 ------------------------
 Symbolic Z-matrix:
 Charge =  0 Multiplicity = 1
 C                     0.        0.        0. 
 C                     1.4155    0.        0. 
 C                     2.11008   0.        1.18864 
 O                    -0.61467  -0.01954   1.04624 
 H                    -0.53552   0.02331  -0.94702 
 H                     1.95398   0.00892  -0.94593 
 H                     1.61126  -0.01467   2.0883 
 H                     3.19937   0.01508   1.19174 
 
 ITRead=  0  0  0  0  0  0  0  0
 MicOpt= -1 -1 -1 -1 -1 -1 -1 -1
 NAtoms=      8 NQM=        8 NQMF=       0 NMMI=      0 NMMIF=      0
                NMic=       0 NMicF=      0.
                    Isotopes and Nuclear Properties:
 (Nuclear quadrupole moments (NQMom) in fm**2, nuclear magnetic moments (NMagM)
  in nuclear magnetons)

  Atom         1           2           3           4           5           6           7           8
 IAtWgt=          12          12          12          16           1           1           1           1
 AtmWgt=  12.0000000  12.0000000  12.0000000  15.9949146   1.0078250   1.0078250   1.0078250   1.0078250
 NucSpn=           0           0           0           0           1           1           1           1
 AtZEff=  -0.0000000  -0.0000000  -0.0000000  -0.0000000  -0.0000000  -0.0000000  -0.0000000  -0.0000000
 NQMom=    0.0000000   0.0000000   0.0000000   0.0000000   0.0000000   0.0000000   0.0000000   0.0000000
 NMagM=    0.0000000   0.0000000   0.0000000   0.0000000   2.7928460   2.7928460   2.7928460   2.7928460
 AtZNuc=   6.0000000   6.0000000   6.0000000   8.0000000   1.0000000   1.0000000   1.0000000   1.0000000
 Leave Link  101 at Fri Sep 22 16:37:03 2023, MaxMem=   268435456 cpu:               0.2 elap:               0.1
 (Enter /share/apps/gaussian/g16/l202.exe)
                          Input orientation:                          
 ---------------------------------------------------------------------
 Center     Atomic      Atomic             Coordinates (Angstroms)
 Number     Number       Type             X           Y           Z
 ---------------------------------------------------------------------
      1          6           0        0.000000    0.000000    0.000000
      2          6           0        1.415500    0.000000    0.000000
      3          6           0        2.110080    0.000000    1.188640
      4          8           0       -0.614670   -0.019540    1.046240
      5          1           0       -0.535520    0.023310   -0.947020
      6          1           0        1.953980    0.008920   -0.945930
      7          1           0        1.611260   -0.014670    2.088300
      8          1           0        3.199370    0.015080    1.191740
 ---------------------------------------------------------------------
                    Distance matrix (angstroms):
                    1          2          3          4          5
     1  C    0.000000
     2  C    1.415500   0.000000
     3  C    2.421839   1.376701   0.000000
     4  O    1.213598   2.283986   2.728538   0.000000
     5  H    1.088197   2.168841   3.400116   1.995291   0.000000
     6  H    2.170922   1.088496   2.140289   3.250771   2.489542
     7  H    2.637683   2.097507   1.028798   2.457779   3.717966
     8  H    3.414153   2.145382   1.089399   3.816971   4.303924
                    6          7          8
     6  H    0.000000
     7  H    3.053615   0.000000
     8  H    2.473998   1.823951   0.000000
 Stoichiometry    C3H4O
 Framework group  C1[X(C3H4O)]
 Deg. of freedom    18
 Full point group                 C1      NOp   1
 Largest Abelian subgroup         C1      NOp   1
 Largest concise Abelian subgroup C1      NOp   1
                         Standard orientation:                         
 ---------------------------------------------------------------------
 Center     Atomic      Atomic             Coordinates (Angstroms)
 Number     Number       Type             X           Y           Z
 ---------------------------------------------------------------------
      1          6           0       -0.808152    0.473907    0.002864
      2          6           0        0.598089    0.635323   -0.005577
      3          6           0        1.423740   -0.466287    0.002366
      4          8           0       -1.299527   -0.635752   -0.002372
      5          1           0       -1.448105    1.353877    0.019738
      6          1           0        1.025167    1.636529   -0.009485
      7          1           0        1.030756   -1.417066   -0.000182
      8          1           0        2.506330   -0.344986    0.010981
 ---------------------------------------------------------------------
 Rotational constants (GHZ):          21.8279681           6.8297560           5.2022081
 Leave Link  202 at Fri Sep 22 16:37:03 2023, MaxMem=   268435456 cpu:               0.0 elap:               0.0
 (Enter /share/apps/gaussian/g16/l301.exe)
 General basis read from cards:  (5D, 7F)
 Centers:       5      6      7      8
 S 3 1.00
     Exponent=  1.2251800000D+01 Coefficients=  2.3337100000D-02
     Exponent=  1.8687100000D+00 Coefficients=  1.5915000000D-01
     Exponent=  4.1820800000D-01 Coefficients=  5.0000000000D-01
 S 1 1.00
     Exponent=  1.0610000000D-01 Coefficients=  1.0000000000D+00
 P 1 1.00
     Exponent=  1.0000000000D+00 Coefficients=  1.0000000000D+00
 ****
 Centers:       1      2      3
 S 5 1.00
     Exponent=  1.2432000000D+03 Coefficients=  6.0336600000D-03
     Exponent=  1.8714500000D+02 Coefficients=  4.4957600000D-02
     Exponent=  4.2512600000D+01 Coefficients=  1.9790100000D-01
     Exponent=  1.1739300000D+01 Coefficients=  5.0000000000D-01
     Exponent=  3.5054800000D+00 Coefficients=  4.8036400000D-01
 S 2 1.00
     Exponent=  5.3908900000D+00 Coefficients= -7.0398000000D-02
     Exponent=  4.9334100000D-01 Coefficients=  5.0000000000D-01
 S 1 1.00
     Exponent=  1.4974100000D-01 Coefficients=  1.0000000000D+00
 P 3 1.00
     Exponent=  9.1805600000D+00 Coefficients=  4.3170100000D-02
     Exponent=  1.9365800000D+00 Coefficients=  2.2499900000D-01
     Exponent=  5.2629600000D-01 Coefficients=  5.0000000000D-01
 P 1 1.00
     Exponent=  1.3631900000D-01 Coefficients=  1.0000000000D+00
 D 1 1.00
     Exponent=  8.0000000000D-01 Coefficients=  1.0000000000D+00
 ****
 Centers:       4
 S 5 1.00
     Exponent=  2.2886400000D+03 Coefficients=  5.8546800000D-03
     Exponent=  3.4441600000D+02 Coefficients=  4.3733300000D-02
     Exponent=  7.8253800000D+01 Coefficients=  1.9479600000D-01
     Exponent=  2.1719500000D+01 Coefficients=  5.0000000000D-01
     Exponent=  6.5590700000D+00 Coefficients=  4.8461400000D-01
 S 2 1.00
     Exponent=  1.0465600000D+01 Coefficients= -7.1334300000D-02
     Exponent=  9.6435100000D-01 Coefficients=  5.0000000000D-01
 S 1 1.00
     Exponent=  2.8512700000D-01 Coefficients=  1.0000000000D+00
 P 3 1.00
     Exponent=  1.7059000000D+01 Coefficients=  4.7443900000D-02
     Exponent=  3.6899900000D+00 Coefficients=  2.4268900000D-01
     Exponent=  9.9299600000D-01 Coefficients=  5.0000000000D-01
 P 1 1.00
     Exponent=  2.4492400000D-01 Coefficients=  1.0000000000D+00
 D 1 1.00
     Exponent=  1.0000000000D+00 Coefficients=  1.0000000000D+00
 ****
 Ernie: Thresh=  0.10000D-02 Tol=  0.10000D-05 Strict=F.
 There are    80 symmetry adapted cartesian basis functions of A   symmetry.
 There are    76 symmetry adapted basis functions of A   symmetry.
    76 basis functions,   132 primitive gaussians,    80 cartesian basis functions
    15 alpha electrons       15 beta electrons
       nuclear repulsion energy       106.2396648855 Hartrees.
 IExCor=  402 DFT=T Ex+Corr=B3LYP ExCW=0 ScaHFX=  0.200000
 ScaDFX=  0.800000  0.720000  1.000000  0.810000 ScalE2=  1.000000  1.000000
 IRadAn=      5 IRanWt=     -1 IRanGd=            0 ICorTp=0 IEmpDi=141
 NAtoms=    8 NActive=    8 NUniq=    8 SFac= 1.00D+00 NAtFMM=   60 NAOKFM=F Big=F
 Integral buffers will be    131072 words long.
 Raffenetti 2 integral format.
 Two-electron integral symmetry is turned on.
 R6Disp:  Grimme-D3(BJ) Dispersion energy=       -0.0082422661 Hartrees.
 Nuclear repulsion after empirical dispersion term =      106.2314226194 Hartrees.
 ------------------------------------------------------------------------------
 Polarizable Continuum Model (PCM)
 =================================
 Model                : C-PCM.
 Atomic radii         : UFF (Universal Force Field).
 Polarization charges : Total charges.
 Charge compensation  : None.
 Solution method      : On-the-fly selection.
 Cavity type          : Scaled VdW (van der Waals Surface) (Alpha=1.100).
 Cavity algorithm     : GePol (No added spheres)
                        Default sphere list used, NSphG=    8.
                        Lebedev-Laikov grids with approx.  5.0 points / Ang**2.
                        Smoothing algorithm: York/Karplus (Gamma=1.0000).
                        Polarization charges: spherical gaussians, with
                                              point-specific exponents (IZeta= 3).
                        Self-potential: point-specific (ISelfS= 7).
                        Self-field    : sphere-specific E.n sum rule (ISelfD= 2).
 Solvent              : Toluene, Eps=   2.374100 Eps(inf)=   2.238315
 ------------------------------------------------------------------------------
 Spheres list:
 ISph  on   Nord     Re0    Alpha      Xe            Ye            Ze
    1   C      1    1.9255  1.100     -0.808152      0.473907      0.002864
    2   C      2    1.9255  1.100      0.598089      0.635323     -0.005577
    3   C      3    1.9255  1.100      1.423740     -0.466287      0.002366
    4   O      4    1.7500  1.100     -1.299527     -0.635752     -0.002372
    5   H      5    1.4430  1.100     -1.448105      1.353877      0.019738
    6   H      6    1.4430  1.100      1.025167      1.636529     -0.009485
    7   H      7    1.4430  1.100      1.030756     -1.417066     -0.000182
    8   H      8    1.4430  1.100      2.506330     -0.344986      0.010981
 ------------------------------------------------------------------------------
 GePol: Number of generator spheres                  =       8
 GePol: Total number of spheres                      =       8
 GePol: Number of exposed spheres                    =       8 (100.00%)
 GePol: Number of points                             =     837
 GePol: Average weight of points                     =       0.14
 GePol: Minimum weight of points                     =   0.27D-06
 GePol: Maximum weight of points                     =    0.20577
 GePol: Number of points with low weight             =      41
 GePol: Fraction of low-weight points (<1% of avg)   =       4.90%
 GePol: Cavity surface area                          =    113.616 Ang**2
 GePol: Cavity volume                                =     98.284 Ang**3
 Leave Link  301 at Fri Sep 22 16:37:03 2023, MaxMem=   268435456 cpu:               0.2 elap:               0.1
 (Enter /share/apps/gaussian/g16/l302.exe)
 NPDir=0 NMtPBC=     1 NCelOv=     1 NCel=       1 NClECP=     1 NCelD=      1
         NCelK=      1 NCelE2=     1 NClLst=     1 CellRange=     0.0.
 One-electron integrals computed using PRISM.
 One-electron integral symmetry used in STVInt
 NBasis=    76 RedAO= T EigKep=  3.15D-03  NBF=    76
 NBsUse=    76 1.00D-06 EigRej= -1.00D+00 NBFU=    76
 Precomputing XC quadrature grid using
 IXCGrd= 4 IRadAn=           5 IRanWt=          -1 IRanGd=           0 AccXCQ= 0.00D+00.
 Generated NRdTot=       0 NPtTot=           0 NUsed=           0 NTot=          32
 NSgBfM=    80    80    80    80    80 MxSgAt=     8 MxSgA2=     8.
 Leave Link  302 at Fri Sep 22 16:37:03 2023, MaxMem=   268435456 cpu:               0.3 elap:               0.2
 (Enter /share/apps/gaussian/g16/l303.exe)
 DipDrv:  MaxL=1.
 Leave Link  303 at Fri Sep 22 16:37:03 2023, MaxMem=   268435456 cpu:               0.1 elap:               0.1
 (Enter /share/apps/gaussian/g16/l401.exe)
 ExpMin= 1.06D-01 ExpMax= 2.29D+03 ExpMxC= 3.44D+02 IAcc=3 IRadAn=         5 AccDes= 0.00D+00
 Harris functional with IExCor=  402 and IRadAn=       5 diagonalized for initial guess.
 HarFok:  IExCor=  402 AccDes= 0.00D+00 IRadAn=         5 IDoV= 1 UseB2=F ITyADJ=14
 ICtDFT=  3500011 ScaDFX=  1.000000  1.000000  1.000000  1.000000
 FoFCou: FMM=F IPFlag=           0 FMFlag=      100000 FMFlg1=           0
         NFxFlg=           0 DoJE=T BraDBF=F KetDBF=T FulRan=T
         wScrn=  0.000000 ICntrl=       500 IOpCl=  0 I1Cent=   200000004 NGrid=           0
         NMat0=    1 NMatS0=      1 NMatT0=    0 NMatD0=    1 NMtDS0=    0 NMtDT0=    0
 Petite list used in FoFCou.
 Harris En= -191.903920279194    
 JPrj=0 DoOrth=F DoCkMO=F.
 Leave Link  401 at Fri Sep 22 16:37:04 2023, MaxMem=   268435456 cpu:               1.8 elap:               0.9
 (Enter /share/apps/gaussian/g16/l502.exe)
 Keep R1 ints in memory in canonical form, NReq=6092111.
 FoFCou: FMM=F IPFlag=           0 FMFlag=           0 FMFlg1=           0
         NFxFlg=           0 DoJE=F BraDBF=F KetDBF=F FulRan=T
         wScrn=  0.000000 ICntrl=       600 IOpCl=  0 I1Cent=           0 NGrid=           0
         NMat0=    1 NMatS0=   2926 NMatT0=    0 NMatD0=    1 NMtDS0=    0 NMtDT0=    0
 Symmetry not used in FoFCou.
 Two-electron integral symmetry not used.
 Closed shell SCF:
 Using DIIS extrapolation, IDIIS=  1040.
 NGot=   268435456 LenX=   264138979 LenY=   264132138
 Requested convergence on RMS density matrix=1.00D-08 within 128 cycles.
 Requested convergence on MAX density matrix=1.00D-06.
 Requested convergence on             energy=1.00D-06.
 No special actions if energy rises.

 Cycle   1  Pass 1  IDiag  1:
 Inv3:  Mode=1 IEnd=     2101707.
 Iteration    1 A*A^-1 deviation from unit magnitude is 3.66D-15 for    821.
 Iteration    1 A*A^-1 deviation from orthogonality  is 2.07D-15 for    833    375.
 Iteration    1 A^-1*A deviation from unit magnitude is 3.66D-15 for    821.
 Iteration    1 A^-1*A deviation from orthogonality  is 2.04D-15 for    832    374.
 E= -191.782458521770    
 DIIS: error= 3.45D-02 at cycle   1 NSaved=   1.
 NSaved= 1 IEnMin= 1 EnMin= -191.782458521770     IErMin= 1 ErrMin= 3.45D-02
 ErrMax= 3.45D-02  0.00D+00 EMaxC= 1.00D-01 BMatC= 1.04D-01 BMatP= 1.04D-01
 IDIUse=3 WtCom= 6.55D-01 WtEn= 3.45D-01
 Coeff-Com:  0.100D+01
 Coeff-En:   0.100D+01
 Coeff:      0.100D+01
 Gap=     0.134 Goal=   None    Shift=    0.000
 GapD=    0.134 DampG=1.000 DampE=0.500 DampFc=0.5000 IDamp=-1.
 Damping current iteration by 5.00D-01
 RMSDP=1.14D-02 MaxDP=2.37D-01              OVMax= 2.02D-01

 Cycle   2  Pass 1  IDiag  1:
 E= -191.814068104425     Delta-E=       -0.031609582655 Rises=F Damp=T
 DIIS: error= 1.21D-02 at cycle   2 NSaved=   2.
 NSaved= 2 IEnMin= 2 EnMin= -191.814068104425     IErMin= 2 ErrMin= 1.21D-02
 ErrMax= 1.21D-02  0.00D+00 EMaxC= 1.00D-01 BMatC= 1.50D-02 BMatP= 1.04D-01
 IDIUse=3 WtCom= 8.79D-01 WtEn= 1.21D-01
 Coeff-Com:  0.218D+00 0.782D+00
 Coeff-En:   0.303D+00 0.697D+00
 Coeff:      0.228D+00 0.772D+00
 Gap=     0.195 Goal=   None    Shift=    0.000
 RMSDP=3.31D-03 MaxDP=5.80D-02 DE=-3.16D-02 OVMax= 1.82D-01

 Cycle   3  Pass 1  IDiag  1:
 E= -191.871510969757     Delta-E=       -0.057442865332 Rises=F Damp=F
 DIIS: error= 1.58D-02 at cycle   3 NSaved=   3.
 NSaved= 3 IEnMin= 3 EnMin= -191.871510969757     IErMin= 2 ErrMin= 1.21D-02
 ErrMax= 1.58D-02  0.00D+00 EMaxC= 1.00D-01 BMatC= 1.33D-02 BMatP= 1.50D-02
 IDIUse=3 WtCom= 8.42D-01 WtEn= 1.58D-01
 Coeff-Com:  0.665D-01 0.486D+00 0.447D+00
 Coeff-En:   0.000D+00 0.000D+00 0.100D+01
 Coeff:      0.560D-01 0.409D+00 0.535D+00
 Gap=     0.203 Goal=   None    Shift=    0.000
 RMSDP=1.87D-03 MaxDP=3.77D-02 DE=-5.74D-02 OVMax= 6.05D-02

 Cycle   4  Pass 1  IDiag  1:
 E= -191.881850825821     Delta-E=       -0.010339856064 Rises=F Damp=F
 DIIS: error= 6.27D-03 at cycle   4 NSaved=   4.
 NSaved= 4 IEnMin= 4 EnMin= -191.881850825821     IErMin= 4 ErrMin= 6.27D-03
 ErrMax= 6.27D-03  0.00D+00 EMaxC= 1.00D-01 BMatC= 2.33D-03 BMatP= 1.33D-02
 IDIUse=3 WtCom= 9.37D-01 WtEn= 6.27D-02
 Coeff-Com:  0.172D-01 0.440D-01 0.293D+00 0.646D+00
 Coeff-En:   0.000D+00 0.000D+00 0.164D+00 0.836D+00
 Coeff:      0.161D-01 0.413D-01 0.285D+00 0.658D+00
 Gap=     0.181 Goal=   None    Shift=    0.000
 RMSDP=6.31D-04 MaxDP=1.18D-02 DE=-1.03D-02 OVMax= 2.01D-02

 Cycle   5  Pass 1  IDiag  1:
 E= -191.883783164375     Delta-E=       -0.001932338553 Rises=F Damp=F
 DIIS: error= 6.71D-04 at cycle   5 NSaved=   5.
 NSaved= 5 IEnMin= 5 EnMin= -191.883783164375     IErMin= 5 ErrMin= 6.71D-04
 ErrMax= 6.71D-04  0.00D+00 EMaxC= 1.00D-01 BMatC= 3.62D-05 BMatP= 2.33D-03
 IDIUse=3 WtCom= 9.93D-01 WtEn= 6.71D-03
 Coeff-Com:  0.471D-02 0.681D-03 0.112D+00 0.305D+00 0.578D+00
 Coeff-En:   0.000D+00 0.000D+00 0.000D+00 0.000D+00 0.100D+01
 Coeff:      0.468D-02 0.676D-03 0.112D+00 0.302D+00 0.580D+00
 Gap=     0.180 Goal=   None    Shift=    0.000
 RMSDP=1.14D-04 MaxDP=2.39D-03 DE=-1.93D-03 OVMax= 5.60D-03

 Cycle   6  Pass 1  IDiag  1:
 E= -191.883812444036     Delta-E=       -0.000029279661 Rises=F Damp=F
 DIIS: error= 3.51D-04 at cycle   6 NSaved=   6.
 NSaved= 6 IEnMin= 6 EnMin= -191.883812444036     IErMin= 6 ErrMin= 3.51D-04
 ErrMax= 3.51D-04  0.00D+00 EMaxC= 1.00D-01 BMatC= 9.55D-06 BMatP= 3.62D-05
 IDIUse=3 WtCom= 9.96D-01 WtEn= 3.51D-03
 Coeff-Com:  0.122D-02-0.428D-02 0.360D-01 0.108D+00 0.372D+00 0.487D+00
 Coeff-En:   0.000D+00 0.000D+00 0.000D+00 0.000D+00 0.223D+00 0.777D+00
 Coeff:      0.121D-02-0.426D-02 0.359D-01 0.108D+00 0.371D+00 0.488D+00
 Gap=     0.180 Goal=   None    Shift=    0.000
 RMSDP=3.95D-05 MaxDP=1.03D-03 DE=-2.93D-05 OVMax= 2.11D-03

 Cycle   7  Pass 1  IDiag  1:
 E= -191.883822431144     Delta-E=       -0.000009987109 Rises=F Damp=F
 DIIS: error= 7.03D-05 at cycle   7 NSaved=   7.
 NSaved= 7 IEnMin= 7 EnMin= -191.883822431144     IErMin= 7 ErrMin= 7.03D-05
 ErrMax= 7.03D-05  0.00D+00 EMaxC= 1.00D-01 BMatC= 4.34D-07 BMatP= 9.55D-06
 IDIUse=1 WtCom= 1.00D+00 WtEn= 0.00D+00
 Coeff-Com:  0.325D-03-0.256D-02 0.101D-01 0.316D-01 0.154D+00 0.248D+00
 Coeff-Com:  0.558D+00
 Coeff:      0.325D-03-0.256D-02 0.101D-01 0.316D-01 0.154D+00 0.248D+00
 Coeff:      0.558D+00
 Gap=     0.180 Goal=   None    Shift=    0.000
 RMSDP=9.29D-06 MaxDP=1.81D-04 DE=-9.99D-06 OVMax= 2.59D-04

 Cycle   8  Pass 1  IDiag  1:
 E= -191.883822833173     Delta-E=       -0.000000402029 Rises=F Damp=F
 DIIS: error= 8.61D-06 at cycle   8 NSaved=   8.
 NSaved= 8 IEnMin= 8 EnMin= -191.883822833173     IErMin= 8 ErrMin= 8.61D-06
 ErrMax= 8.61D-06  0.00D+00 EMaxC= 1.00D-01 BMatC= 1.14D-08 BMatP= 4.34D-07
 IDIUse=1 WtCom= 1.00D+00 WtEn= 0.00D+00
 Coeff-Com:  0.444D-04-0.434D-03 0.257D-03 0.442D-03 0.156D-01 0.229D-01
 Coeff-Com:  0.145D+00 0.816D+00
 Coeff:      0.444D-04-0.434D-03 0.257D-03 0.442D-03 0.156D-01 0.229D-01
 Coeff:      0.145D+00 0.816D+00
 Gap=     0.180 Goal=   None    Shift=    0.000
 RMSDP=1.51D-06 MaxDP=2.21D-05 DE=-4.02D-07 OVMax= 4.87D-05

 Cycle   9  Pass 1  IDiag  1:
 E= -191.883822844020     Delta-E=       -0.000000010847 Rises=F Damp=F
 DIIS: error= 1.02D-06 at cycle   9 NSaved=   9.
 NSaved= 9 IEnMin= 9 EnMin= -191.883822844020     IErMin= 9 ErrMin= 1.02D-06
 ErrMax= 1.02D-06  0.00D+00 EMaxC= 1.00D-01 BMatC= 1.24D-10 BMatP= 1.14D-08
 IDIUse=1 WtCom= 1.00D+00 WtEn= 0.00D+00
 Coeff-Com:  0.972D-06 0.176D-04-0.207D-03-0.812D-03-0.239D-02-0.474D-02
 Coeff-Com: -0.232D-02 0.899D-01 0.921D+00
 Coeff:      0.972D-06 0.176D-04-0.207D-03-0.812D-03-0.239D-02-0.474D-02
 Coeff:     -0.232D-02 0.899D-01 0.921D+00
 Gap=     0.180 Goal=   None    Shift=    0.000
 RMSDP=3.64D-07 MaxDP=7.39D-06 DE=-1.08D-08 OVMax= 4.73D-06

 Cycle  10  Pass 1  IDiag  1:
 E= -191.883822844154     Delta-E=       -0.000000000134 Rises=F Damp=F
 DIIS: error= 1.51D-07 at cycle  10 NSaved=  10.
 NSaved=10 IEnMin=10 EnMin= -191.883822844154     IErMin=10 ErrMin= 1.51D-07
 ErrMax= 1.51D-07  0.00D+00 EMaxC= 1.00D-01 BMatC= 1.93D-12 BMatP= 1.24D-10
 IDIUse=1 WtCom= 1.00D+00 WtEn= 0.00D+00
 Coeff-Com: -0.110D-05 0.108D-04-0.318D-04-0.130D-03-0.618D-03-0.113D-02
 Coeff-Com: -0.276D-02-0.319D-02 0.145D+00 0.863D+00
 Coeff:     -0.110D-05 0.108D-04-0.318D-04-0.130D-03-0.618D-03-0.113D-02
 Coeff:     -0.276D-02-0.319D-02 0.145D+00 0.863D+00
 Gap=     0.180 Goal=   None    Shift=    0.000
 RMSDP=2.97D-08 MaxDP=3.55D-07 DE=-1.34D-10 OVMax= 9.35D-07

 Cycle  11  Pass 1  IDiag  1:
 E= -191.883822844155     Delta-E=       -0.000000000001 Rises=F Damp=F
 DIIS: error= 3.01D-08 at cycle  11 NSaved=  11.
 NSaved=11 IEnMin=11 EnMin= -191.883822844155     IErMin=11 ErrMin= 3.01D-08
 ErrMax= 3.01D-08  0.00D+00 EMaxC= 1.00D-01 BMatC= 1.21D-13 BMatP= 1.93D-12
 IDIUse=1 WtCom= 1.00D+00 WtEn= 0.00D+00
 Coeff-Com: -0.243D-06 0.101D-05 0.836D-06-0.714D-06-0.211D-04-0.662D-04
 Coeff-Com: -0.261D-03-0.298D-02-0.682D-02 0.105D+00 0.906D+00
 Coeff:     -0.243D-06 0.101D-05 0.836D-06-0.714D-06-0.211D-04-0.662D-04
 Coeff:     -0.261D-03-0.298D-02-0.682D-02 0.105D+00 0.906D+00
 Gap=     0.180 Goal=   None    Shift=    0.000
 RMSDP=7.52D-09 MaxDP=1.24D-07 DE=-1.25D-12 OVMax= 8.74D-08

 Error on total polarization charges =  0.00470
 SCF Done:  E(RB3LYP) =  -191.883822844     A.U. after   11 cycles
            NFock= 11  Conv=0.75D-08     -V/T= 2.0039
 KE= 1.911418463114D+02 PE=-6.607714477298D+02 EE= 1.715143559549D+02
 Leave Link  502 at Fri Sep 22 16:37:14 2023, MaxMem=   268435456 cpu:              19.1 elap:               9.6
 (Enter /share/apps/gaussian/g16/l601.exe)
 Copying SCF densities to generalized density rwf, IOpCl= 0 IROHF=0.

 **********************************************************************

            Population analysis using the SCF density.

 **********************************************************************

 Orbital symmetries:
       Occupied  (A) (A) (A) (A) (A) (A) (A) (A) (A) (A) (A) (A)
                 (A) (A) (A)
       Virtual   (A) (A) (A) (A) (A) (A) (A) (A) (A) (A) (A) (A)
                 (A) (A) (A) (A) (A) (A) (A) (A) (A) (A) (A) (A)
                 (A) (A) (A) (A) (A) (A) (A) (A) (A) (A) (A) (A)
                 (A) (A) (A) (A) (A) (A) (A) (A) (A) (A) (A) (A)
                 (A) (A) (A) (A) (A) (A) (A) (A) (A) (A) (A) (A)
                 (A)
 The electronic state is 1-A.
 Alpha  occ. eigenvalues --  -19.11982 -10.26390 -10.20857 -10.19626  -1.05783
 Alpha  occ. eigenvalues --   -0.80153  -0.67595  -0.55597  -0.52441  -0.46009
 Alpha  occ. eigenvalues --   -0.42922  -0.41287  -0.39693  -0.28951  -0.26931
 Alpha virt. eigenvalues --   -0.08898   0.05447   0.05632   0.08097   0.10789
 Alpha virt. eigenvalues --    0.13291   0.22046   0.25389   0.28909   0.40127
 Alpha virt. eigenvalues --    0.41775   0.45155   0.46141   0.48013   0.51679
 Alpha virt. eigenvalues --    0.52435   0.60443   0.63104   0.63850   0.67718
 Alpha virt. eigenvalues --    0.71819   0.75058   0.85044   0.90392   0.94928
 Alpha virt. eigenvalues --    0.95847   1.02209   1.12350   1.27320   1.31307
 Alpha virt. eigenvalues --    1.38300   1.50847   1.67106   1.69730   1.75278
 Alpha virt. eigenvalues --    1.81418   1.84291   1.86957   1.89688   1.92663
 Alpha virt. eigenvalues --    2.02603   2.08841   2.12088   2.20736   2.22245
 Alpha virt. eigenvalues --    2.24017   2.29609   2.36902   2.42259   2.45789
 Alpha virt. eigenvalues --    2.59280   2.65177   2.68605   2.84266   2.87117
 Alpha virt. eigenvalues --    3.02894   3.04667   3.19617   3.25383   3.39954
 Alpha virt. eigenvalues --    3.64200
          Condensed to atoms (all electrons):
               1          2          3          4          5          6
     1  C    4.454567   0.285231  -0.064019   0.641879   0.424458  -0.033633
     2  C    0.285231   5.329569   0.577410  -0.134830  -0.118057   0.396636
     3  C   -0.064019   0.577410   4.719678   0.000675   0.014727  -0.033791
     4  O    0.641879  -0.134830   0.000675   7.892665  -0.053806   0.004720
     5  H    0.424458  -0.118057   0.014727  -0.053806   0.680187  -0.004976
     6  H   -0.033633   0.396636  -0.033791   0.004720  -0.004976   0.585108
     7  H   -0.019461  -0.035093   0.406480   0.022719   0.002031   0.008783
     8  H    0.009236  -0.028173   0.390628   0.000671  -0.000035  -0.011751
               7          8
     1  C   -0.019461   0.009236
     2  C   -0.035093  -0.028173
     3  C    0.406480   0.390628
     4  O    0.022719   0.000671
     5  H    0.002031  -0.000035
     6  H    0.008783  -0.011751
     7  H    0.558773  -0.036201
     8  H   -0.036201   0.554537
 Mulliken charges:
               1
     1  C    0.301741
     2  C   -0.272692
     3  C   -0.011788
     4  O   -0.374693
     5  H    0.055473
     6  H    0.088903
     7  H    0.091968
     8  H    0.121087
 Sum of Mulliken charges =  -0.00000
 Mulliken charges with hydrogens summed into heavy atoms:
               1
     1  C    0.357214
     2  C   -0.183789
     3  C    0.201267
     4  O   -0.374693
 Electronic spatial extent (au):  <R**2>=            257.2857
 Charge=              0.0000 electrons
 Dipole moment (field-independent basis, Debye):
    X=              2.3478    Y=              1.9842    Z=              0.0198  Tot=              3.0740
 Quadrupole moment (field-independent basis, Debye-Ang):
   XX=            -23.9028   YY=            -22.5303   ZZ=            -24.9971
   XY=             -3.4921   XZ=              0.0024   YZ=             -0.0086
 Traceless Quadrupole moment (field-independent basis, Debye-Ang):
   XX=             -0.0927   YY=              1.2798   ZZ=             -1.1870
   XY=             -3.4921   XZ=              0.0024   YZ=             -0.0086
 Octapole moment (field-independent basis, Debye-Ang**2):
  XXX=              6.5929  YYY=             -0.1378  ZZZ=              0.0155  XYY=              0.6080
  XXY=              2.7316  XXZ=              0.0688  XZZ=             -3.3891  YZZ=             -1.0722
  YYZ=             -0.0017  XYZ=             -0.0230
 Hexadecapole moment (field-independent basis, Debye-Ang**3):
 XXXX=           -209.2289 YYYY=            -86.0926 ZZZZ=            -26.3640 XXXY=             -5.9294
 XXXZ=              0.1485 YYYX=              0.6985 YYYZ=             -0.0104 ZZZX=              0.0341
 ZZZY=              0.0040 XXYY=            -50.7147 XXZZ=            -42.7495 YYZZ=            -20.1672
 XXYZ=              0.0032 YYXZ=             -0.0479 ZZXY=              0.3331
 N-N= 1.062314226194D+02 E-N=-6.607714477548D+02  KE= 1.911418463114D+02
 There are a total of      177562 grid points.
 ElSum from          density=       30.0000020795
 ElSum from atomic densities=       29.9999959938
 Hirshfeld populations at iteration   1 (CA, CB, DipXYZ):
               1          2          3          4          5
     1  C    2.936782   2.936782  -0.000616   0.071538  -0.000274
     2  C    3.021016   3.021016  -0.055446   0.074082  -0.000561
     3  C    3.005619   3.005619   0.074091  -0.085297   0.001014
     4  O    4.130990   4.130990   0.105591   0.129758   0.000811
     5  H    0.477793   0.477793  -0.074757   0.108724   0.002095
     6  H    0.478096   0.478096   0.055698   0.141955  -0.000661
     7  H    0.477167   0.477167  -0.021666  -0.148779  -0.000430
     8  H    0.472539   0.472539   0.155878   0.010214   0.001538
       Tot  15.000001  15.000001   0.238774   0.302196   0.003532

 Dip from Atomic Chgs              0.684936   0.478431   0.004247
         Total Dipole              0.923710   0.780627   0.007779

 Hirshfeld charges, spin densities, dipoles, and CM5 charges using IRadAn=      5:
              Q-H        S-H        Dx         Dy         Dz        Q-CM5   
     1  C    0.126437   0.000000  -0.000616   0.071538  -0.000274   0.110165
     2  C   -0.042032   0.000000  -0.055446   0.074082  -0.000561  -0.098197
     3  C   -0.011237   0.000000   0.074091  -0.085297   0.001014  -0.117530
     4  O   -0.261980   0.000000   0.105591   0.129758   0.000811  -0.319328
     5  H    0.044413   0.000000  -0.074757   0.108724   0.002095   0.108774
     6  H    0.043809   0.000000   0.055698   0.141955  -0.000661   0.099190
     7  H    0.045665   0.000000  -0.021666  -0.148779  -0.000430   0.110350
     8  H    0.054923   0.000000   0.155878   0.010214   0.001538   0.106575
       Tot  -0.000002   0.000000   0.238774   0.302196   0.003532  -0.000002
 Hirshfeld charges with hydrogens summed into heavy atoms:
              Q-H       Q-CM5   
     1  C    0.170850   0.218938
     2  C    0.001777   0.000993
     3  C    0.089351   0.099395
     4  O   -0.261980  -0.319328
 
 EQQ= 0.000000000000E+00 EQD= 0.000000000000E+00 EDD= 0.464571361495E-02
 EQQ+QD+DD= 0.464571361495E-02
 
 No NMR shielding tensors so no spin-rotation constants.
 Leave Link  601 at Fri Sep 22 16:37:15 2023, MaxMem=   268435456 cpu:               1.4 elap:               0.7
 (Enter /share/apps/gaussian/g16/l9999.exe)
 1\1\GINC-NODE99\SP\RB3LYP\Gen\C3H4O1\YANZ\22-Sep-2023\0\\#p b3lyp/gen 
 scrf=(cpcm,solvent=toluene) pop=hirshfeld empiricaldispersion=gd3bj\\t
 mpdir/M2_conf_0_393.gjf\\0,1\C,0,0.,0.,0.\C,0,1.4155,0.,0.\C,0,2.11008
 ,0.,1.18864\O,0,-0.61467,-0.01954,1.04624\H,0,-0.53552,0.02331,-0.9470
 2\H,0,1.95398,0.00892,-0.94593\H,0,1.61126,-0.01467,2.0883\H,0,3.19937
 ,0.01508,1.19174\\Version=ES64L-G16RevA.03\State=1-A\HF=-191.8838228\R
 MSD=7.516e-09\Dipole=1.0066433,0.0205943,-0.6700206\Quadrupole=-0.6439
 783,-0.8826866,1.5266649,-0.0221035,2.4130134,-0.0035234\PG=C01 [X(C3H
 4O1)]\\@


 "I COULD HAVE DONE IT IN A MUCH MORE COMPLICATED WAY"
 SAID THE RED QUEEN, IMMENSELY PROUD.

                                      -- LEWIS CARROLL
 Job cpu time:       0 days  0 hours  0 minutes 23.4 seconds.
 Elapsed time:       0 days  0 hours  0 minutes 11.8 seconds.
 File lengths (MBytes):  RWF=     13 Int=      0 D2E=      0 Chk=      2 Scr=      1
 Normal termination of Gaussian 16 at Fri Sep 22 16:37:15 2023.
