 Entering Gaussian System, Link 0=g16
 Initial command:
 /share/apps/gaussian/g16/l1.exe "/tmp/55556.mgr/Gau-87548.inp" -scrdir="/tmp/55556.mgr/"
 Entering Link 1 = /share/apps/gaussian/g16/l1.exe PID=     87549.
  
 Copyright (c) 1988,1990,1992,1993,1995,1998,2003,2009,2016,
            Gaussian, Inc.  All Rights Reserved.
  
 This is part of the Gaussian(R) 16 program.  It is based on
 the Gaussian(R) 09 system (copyright 2009, Gaussian, Inc.),
 the Gaussian(R) 03 system (copyright 2003, Gaussian, Inc.),
 the Gaussian(R) 98 system (copyright 1998, Gaussian, Inc.),
 the Gaussian(R) 94 system (copyright 1995, Gaussian, Inc.),
 the Gaussian 92(TM) system (copyright 1992, Gaussian, Inc.),
 the Gaussian 90(TM) system (copyright 1990, Gaussian, Inc.),
 the Gaussian 88(TM) system (copyright 1988, Gaussian, Inc.),
 the Gaussian 86(TM) system (copyright 1986, Carnegie Mellon
 University), and the Gaussian 82(TM) system (copyright 1983,
 Carnegie Mellon University). Gaussian is a federally registered
 trademark of Gaussian, Inc.
  
 This software contains proprietary and confidential information,
 including trade secrets, belonging to Gaussian, Inc.
  
 This software is provided under written license and may be
 used, copied, transmitted, or stored only in accord with that
 written license.
  
 The following legend is applicable only to US Government
 contracts under FAR:
  
                    RESTRICTED RIGHTS LEGEND
  
 Use, reproduction and disclosure by the US Government is
 subject to restrictions as set forth in subparagraphs (a)
 and (c) of the Commercial Computer Software - Restricted
 Rights clause in FAR 52.227-19.
  
 Gaussian, Inc.
 340 Quinnipiac St., Bldg. 40, Wallingford CT 06492
  
  
 ---------------------------------------------------------------
 Warning -- This program may not be used in any manner that
 competes with the business of Gaussian, Inc. or will provide
 assistance to any competitor of Gaussian, Inc.  The licensee
 of this program is prohibited from giving any competitor of
 Gaussian, Inc. access to this program.  By using this program,
 the user acknowledges that Gaussian, Inc. is engaged in the
 business of creating and licensing software in the field of
 computational chemistry and represents and warrants to the
 licensee that it is not a competitor of Gaussian, Inc. and that
 it will not use this program in any manner prohibited above.
 ---------------------------------------------------------------
  

 Cite this work as:
 Gaussian 16, Revision A.03,
 M. J. Frisch, G. W. Trucks, H. B. Schlegel, G. E. Scuseria, 
 M. A. Robb, J. R. Cheeseman, G. Scalmani, V. Barone, 
 G. A. Petersson, H. Nakatsuji, X. Li, M. Caricato, A. V. Marenich, 
 J. Bloino, B. G. Janesko, R. Gomperts, B. Mennucci, H. P. Hratchian, 
 J. V. Ortiz, A. F. Izmaylov, J. L. Sonnenberg, D. Williams-Young, 
 F. Ding, F. Lipparini, F. Egidi, J. Goings, B. Peng, A. Petrone, 
 T. Henderson, D. Ranasinghe, V. G. Zakrzewski, J. Gao, N. Rega, 
 G. Zheng, W. Liang, M. Hada, M. Ehara, K. Toyota, R. Fukuda, 
 J. Hasegawa, M. Ishida, T. Nakajima, Y. Honda, O. Kitao, H. Nakai, 
 T. Vreven, K. Throssell, J. A. Montgomery, Jr., J. E. Peralta, 
 F. Ogliaro, M. J. Bearpark, J. J. Heyd, E. N. Brothers, K. N. Kudin, 
 V. N. Staroverov, T. A. Keith, R. Kobayashi, J. Normand, 
 K. Raghavachari, A. P. Rendell, J. C. Burant, S. S. Iyengar, 
 J. Tomasi, M. Cossi, J. M. Millam, M. Klene, C. Adamo, R. Cammi, 
 J. W. Ochterski, R. L. Martin, K. Morokuma, O. Farkas, 
 J. B. Foresman, and D. J. Fox, Gaussian, Inc., Wallingford CT, 2016.
 
 ******************************************
 Gaussian 16:  ES64L-G16RevA.03 25-Dec-2016
                22-Sep-2023 
 ******************************************
 %nprocshared=2
 Will use up to    2 processors via shared memory.
 %mem=2GB
 ----------------------------------------------------------------------
 #p b3lyp/gen scrf=(cpcm,solvent=toluene) pop=hirshfeld empiricaldisper
 sion=gd3bj
 ----------------------------------------------------------------------
 1/38=1,172=1/1;
 2/12=2,17=6,18=5,40=1/2;
 3/5=7,11=2,25=1,30=1,70=2101,72=13,74=-5,124=41/1,2,3;
 4//1;
 5/5=2,38=5,53=13/2;
 6/7=2,8=2,9=2,10=2,28=1,79=1/1;
 99/5=1,9=1/99;
 Leave Link    1 at Fri Sep 22 16:36:09 2023, MaxMem=   268435456 cpu:               0.1 elap:               0.0
 (Enter /share/apps/gaussian/g16/l101.exe)
 ------------------------
 tmpdir/M2_conf_0_309.gjf
 ------------------------
 Symbolic Z-matrix:
 Charge =  0 Multiplicity = 1
 C                     0.        0.        0. 
 C                     1.4208    0.        0. 
 C                    -0.70905   0.       -1.17913 
 H                    -0.52407   0.00848   0.95285 
 C                     2.10379   0.0226   -1.25718 
 H                     1.97659   0.00196   0.86373 
 
 ITRead=  0  0  0  0  0  0
 MicOpt= -1 -1 -1 -1 -1 -1
 NAtoms=      6 NQM=        6 NQMF=       0 NMMI=      0 NMMIF=      0
                NMic=       0 NMicF=      0.
                    Isotopes and Nuclear Properties:
 (Nuclear quadrupole moments (NQMom) in fm**2, nuclear magnetic moments (NMagM)
  in nuclear magnetons)

  Atom         1           2           3           4           5           6
 IAtWgt=          12          12          12           1          12           1
 AtmWgt=  12.0000000  12.0000000  12.0000000   1.0078250  12.0000000   1.0078250
 NucSpn=           0           0           0           1           0           1
 AtZEff=  -0.0000000  -0.0000000  -0.0000000  -0.0000000  -0.0000000  -0.0000000
 NQMom=    0.0000000   0.0000000   0.0000000   0.0000000   0.0000000   0.0000000
 NMagM=    0.0000000   0.0000000   0.0000000   2.7928460   0.0000000   2.7928460
 AtZNuc=   6.0000000   6.0000000   6.0000000   1.0000000   6.0000000   1.0000000
 Leave Link  101 at Fri Sep 22 16:36:10 2023, MaxMem=   268435456 cpu:               0.2 elap:               0.1
 (Enter /share/apps/gaussian/g16/l202.exe)
                          Input orientation:                          
 ---------------------------------------------------------------------
 Center     Atomic      Atomic             Coordinates (Angstroms)
 Number     Number       Type             X           Y           Z
 ---------------------------------------------------------------------
      1          6           0        0.000000    0.000000    0.000000
      2          6           0        1.420800    0.000000    0.000000
      3          6           0       -0.709050    0.000000   -1.179130
      4          1           0       -0.524070    0.008480    0.952850
      5          6           0        2.103790    0.022600   -1.257180
      6          1           0        1.976590    0.001960    0.863730
 ---------------------------------------------------------------------
                    Distance matrix (angstroms):
                    1          2          3          4          5
     1  C    0.000000
     2  C    1.420800   0.000000
     3  C    1.375900   2.434463   0.000000
     4  H    1.087495   2.165760   2.140007   0.000000
     5  C    2.450907   1.430904   2.814013   3.433669   0.000000
     6  H    2.157068   1.027101   3.374306   2.502256   2.124821
                    6
     6  H    0.000000
 Stoichiometry    C4H2
 Framework group  C1[X(C4H2)]
 Deg. of freedom    12
 Full point group                 C1      NOp   1
 Largest Abelian subgroup         C1      NOp   1
 Largest concise Abelian subgroup C1      NOp   1
                         Standard orientation:                         
 ---------------------------------------------------------------------
 Center     Atomic      Atomic             Coordinates (Angstroms)
 Number     Number       Type             X           Y           Z
 ---------------------------------------------------------------------
      1          6           0        0.720542    0.470260    0.001386
      2          6           0       -0.699554    0.514329   -0.006282
      3          6           0        1.392709   -0.730271   -0.002438
      4          1           0        1.273825    1.406324    0.018877
      5          6           0       -1.421281   -0.721180    0.004473
      6          1           0       -1.228320    1.394852   -0.001718
 ---------------------------------------------------------------------
 Rotational constants (GHZ):          22.6937477           8.0505163           5.9426117
 Leave Link  202 at Fri Sep 22 16:36:10 2023, MaxMem=   268435456 cpu:               0.0 elap:               0.0
 (Enter /share/apps/gaussian/g16/l301.exe)
 General basis read from cards:  (5D, 7F)
 Centers:       4      6
 S 3 1.00
     Exponent=  1.2251800000D+01 Coefficients=  2.3337100000D-02
     Exponent=  1.8687100000D+00 Coefficients=  1.5915000000D-01
     Exponent=  4.1820800000D-01 Coefficients=  5.0000000000D-01
 S 1 1.00
     Exponent=  1.0610000000D-01 Coefficients=  1.0000000000D+00
 P 1 1.00
     Exponent=  1.0000000000D+00 Coefficients=  1.0000000000D+00
 ****
 Centers:       1      2      3      5
 S 5 1.00
     Exponent=  1.2432000000D+03 Coefficients=  6.0336600000D-03
     Exponent=  1.8714500000D+02 Coefficients=  4.4957600000D-02
     Exponent=  4.2512600000D+01 Coefficients=  1.9790100000D-01
     Exponent=  1.1739300000D+01 Coefficients=  5.0000000000D-01
     Exponent=  3.5054800000D+00 Coefficients=  4.8036400000D-01
 S 2 1.00
     Exponent=  5.3908900000D+00 Coefficients= -7.0398000000D-02
     Exponent=  4.9334100000D-01 Coefficients=  5.0000000000D-01
 S 1 1.00
     Exponent=  1.4974100000D-01 Coefficients=  1.0000000000D+00
 P 3 1.00
     Exponent=  9.1805600000D+00 Coefficients=  4.3170100000D-02
     Exponent=  1.9365800000D+00 Coefficients=  2.2499900000D-01
     Exponent=  5.2629600000D-01 Coefficients=  5.0000000000D-01
 P 1 1.00
     Exponent=  1.3631900000D-01 Coefficients=  1.0000000000D+00
 D 1 1.00
     Exponent=  8.0000000000D-01 Coefficients=  1.0000000000D+00
 ****
 Ernie: Thresh=  0.10000D-02 Tol=  0.10000D-05 Strict=F.
 There are    70 symmetry adapted cartesian basis functions of A   symmetry.
 There are    66 symmetry adapted basis functions of A   symmetry.
    66 basis functions,   118 primitive gaussians,    70 cartesian basis functions
    13 alpha electrons       13 beta electrons
       nuclear repulsion energy        76.9393216567 Hartrees.
 IExCor=  402 DFT=T Ex+Corr=B3LYP ExCW=0 ScaHFX=  0.200000
 ScaDFX=  0.800000  0.720000  1.000000  0.810000 ScalE2=  1.000000  1.000000
 IRadAn=      5 IRanWt=     -1 IRanGd=            0 ICorTp=0 IEmpDi=141
 NAtoms=    6 NActive=    6 NUniq=    6 SFac= 1.00D+00 NAtFMM=   60 NAOKFM=F Big=F
 Integral buffers will be    131072 words long.
 Raffenetti 2 integral format.
 Two-electron integral symmetry is turned on.
 R6Disp:  Grimme-D3(BJ) Dispersion energy=       -0.0080118770 Hartrees.
 Nuclear repulsion after empirical dispersion term =       76.9313097797 Hartrees.
 ------------------------------------------------------------------------------
 Polarizable Continuum Model (PCM)
 =================================
 Model                : C-PCM.
 Atomic radii         : UFF (Universal Force Field).
 Polarization charges : Total charges.
 Charge compensation  : None.
 Solution method      : On-the-fly selection.
 Cavity type          : Scaled VdW (van der Waals Surface) (Alpha=1.100).
 Cavity algorithm     : GePol (No added spheres)
                        Default sphere list used, NSphG=    6.
                        Lebedev-Laikov grids with approx.  5.0 points / Ang**2.
                        Smoothing algorithm: York/Karplus (Gamma=1.0000).
                        Polarization charges: spherical gaussians, with
                                              point-specific exponents (IZeta= 3).
                        Self-potential: point-specific (ISelfS= 7).
                        Self-field    : sphere-specific E.n sum rule (ISelfD= 2).
 Solvent              : Toluene, Eps=   2.374100 Eps(inf)=   2.238315
 ------------------------------------------------------------------------------
 Spheres list:
 ISph  on   Nord     Re0    Alpha      Xe            Ye            Ze
    1   C      1    1.9255  1.100      0.720542      0.470260      0.001386
    2   C      2    1.9255  1.100     -0.699554      0.514329     -0.006282
    3   C      3    1.9255  1.100      1.392709     -0.730271     -0.002438
    4   H      4    1.4430  1.100      1.273825      1.406324      0.018877
    5   C      5    1.9255  1.100     -1.421281     -0.721180      0.004473
    6   H      6    1.4430  1.100     -1.228320      1.394852     -0.001718
 ------------------------------------------------------------------------------
 GePol: Number of generator spheres                  =       6
 GePol: Total number of spheres                      =       6
 GePol: Number of exposed spheres                    =       6 (100.00%)
 GePol: Number of points                             =     756
 GePol: Average weight of points                     =       0.15
 GePol: Minimum weight of points                     =   0.95D-08
 GePol: Maximum weight of points                     =    0.20577
 GePol: Number of points with low weight             =      24
 GePol: Fraction of low-weight points (<1% of avg)   =       3.17%
 GePol: Cavity surface area                          =    114.812 Ang**2
 GePol: Cavity volume                                =    101.008 Ang**3
 Leave Link  301 at Fri Sep 22 16:36:10 2023, MaxMem=   268435456 cpu:               0.2 elap:               0.1
 (Enter /share/apps/gaussian/g16/l302.exe)
 NPDir=0 NMtPBC=     1 NCelOv=     1 NCel=       1 NClECP=     1 NCelD=      1
         NCelK=      1 NCelE2=     1 NClLst=     1 CellRange=     0.0.
 One-electron integrals computed using PRISM.
 One-electron integral symmetry used in STVInt
 NBasis=    66 RedAO= T EigKep=  2.84D-03  NBF=    66
 NBsUse=    66 1.00D-06 EigRej= -1.00D+00 NBFU=    66
 Precomputing XC quadrature grid using
 IXCGrd= 4 IRadAn=           5 IRanWt=          -1 IRanGd=           0 AccXCQ= 0.00D+00.
 Generated NRdTot=       0 NPtTot=           0 NUsed=           0 NTot=          32
 NSgBfM=    70    70    70    70    70 MxSgAt=     6 MxSgA2=     6.
 Leave Link  302 at Fri Sep 22 16:36:10 2023, MaxMem=   268435456 cpu:               0.3 elap:               0.2
 (Enter /share/apps/gaussian/g16/l303.exe)
 DipDrv:  MaxL=1.
 Leave Link  303 at Fri Sep 22 16:36:10 2023, MaxMem=   268435456 cpu:               0.1 elap:               0.0
 (Enter /share/apps/gaussian/g16/l401.exe)
 ExpMin= 1.06D-01 ExpMax= 1.24D+03 ExpMxC= 1.87D+02 IAcc=3 IRadAn=         5 AccDes= 0.00D+00
 Harris functional with IExCor=  402 and IRadAn=       5 diagonalized for initial guess.
 HarFok:  IExCor=  402 AccDes= 0.00D+00 IRadAn=         5 IDoV= 1 UseB2=F ITyADJ=14
 ICtDFT=  3500011 ScaDFX=  1.000000  1.000000  1.000000  1.000000
 FoFCou: FMM=F IPFlag=           0 FMFlag=      100000 FMFlg1=           0
         NFxFlg=           0 DoJE=T BraDBF=F KetDBF=T FulRan=T
         wScrn=  0.000000 ICntrl=       500 IOpCl=  0 I1Cent=   200000004 NGrid=           0
         NMat0=    1 NMatS0=      1 NMatT0=    0 NMatD0=    1 NMtDS0=    0 NMtDT0=    0
 Petite list used in FoFCou.
 Harris En= -153.291295127709    
 JPrj=0 DoOrth=F DoCkMO=F.
 Leave Link  401 at Fri Sep 22 16:36:11 2023, MaxMem=   268435456 cpu:               1.1 elap:               0.5
 (Enter /share/apps/gaussian/g16/l502.exe)
 Keep R1 ints in memory in canonical form, NReq=4230386.
 FoFCou: FMM=F IPFlag=           0 FMFlag=           0 FMFlg1=           0
         NFxFlg=           0 DoJE=F BraDBF=F KetDBF=F FulRan=T
         wScrn=  0.000000 ICntrl=       600 IOpCl=  0 I1Cent=           0 NGrid=           0
         NMat0=    1 NMatS0=   2211 NMatT0=    0 NMatD0=    1 NMtDS0=    0 NMtDT0=    0
 Symmetry not used in FoFCou.
 Two-electron integral symmetry not used.
 Closed shell SCF:
 Using DIIS extrapolation, IDIIS=  1040.
 NGot=   268435456 LenX=   265979008 LenY=   265973667
 Requested convergence on RMS density matrix=1.00D-08 within 128 cycles.
 Requested convergence on MAX density matrix=1.00D-06.
 Requested convergence on             energy=1.00D-06.
 No special actions if energy rises.

 Cycle   1  Pass 1  IDiag  1:
 Inv3:  Mode=1 IEnd=     1714608.
 Iteration    1 A*A^-1 deviation from unit magnitude is 2.66D-15 for    715.
 Iteration    1 A*A^-1 deviation from orthogonality  is 1.30D-15 for    659    155.
 Iteration    1 A^-1*A deviation from unit magnitude is 2.66D-15 for    715.
 Iteration    1 A^-1*A deviation from orthogonality  is 1.07D-15 for    747    350.
 E= -153.198527572901    
 DIIS: error= 3.24D-02 at cycle   1 NSaved=   1.
 NSaved= 1 IEnMin= 1 EnMin= -153.198527572901     IErMin= 1 ErrMin= 3.24D-02
 ErrMax= 3.24D-02  0.00D+00 EMaxC= 1.00D-01 BMatC= 8.18D-02 BMatP= 8.18D-02
 IDIUse=3 WtCom= 6.76D-01 WtEn= 3.24D-01
 Coeff-Com:  0.100D+01
 Coeff-En:   0.100D+01
 Coeff:      0.100D+01
 Gap=     0.071 Goal=   None    Shift=    0.000
 GapD=    0.071 DampG=0.500 DampE=0.500 DampFc=0.2500 IDamp=-1.
 Damping current iteration by 2.50D-01
 RMSDP=9.03D-03 MaxDP=1.91D-01              OVMax= 3.13D-01

 Cycle   2  Pass 1  IDiag  1:
 E= -153.228272551820     Delta-E=       -0.029744978919 Rises=F Damp=T
 DIIS: error= 1.46D-02 at cycle   2 NSaved=   2.
 NSaved= 2 IEnMin= 2 EnMin= -153.228272551820     IErMin= 2 ErrMin= 1.46D-02
 ErrMax= 1.46D-02  0.00D+00 EMaxC= 1.00D-01 BMatC= 1.10D-02 BMatP= 8.18D-02
 IDIUse=3 WtCom= 8.54D-01 WtEn= 1.46D-01
 Coeff-Com: -0.350D+00 0.135D+01
 Coeff-En:   0.260D-02 0.997D+00
 Coeff:     -0.299D+00 0.130D+01
 Gap=     0.107 Goal=   None    Shift=    0.000
 RMSDP=3.36D-03 MaxDP=4.21D-02 DE=-2.97D-02 OVMax= 2.27D-01

 Cycle   3  Pass 1  IDiag  1:
 E= -153.281745830426     Delta-E=       -0.053473278606 Rises=F Damp=F
 DIIS: error= 7.37D-03 at cycle   3 NSaved=   3.
 NSaved= 3 IEnMin= 3 EnMin= -153.281745830426     IErMin= 3 ErrMin= 7.37D-03
 ErrMax= 7.37D-03  0.00D+00 EMaxC= 1.00D-01 BMatC= 3.13D-03 BMatP= 1.10D-02
 IDIUse=3 WtCom= 9.26D-01 WtEn= 7.37D-02
 Coeff-Com: -0.202D+00 0.591D+00 0.611D+00
 Coeff-En:   0.000D+00 0.000D+00 0.100D+01
 Coeff:     -0.187D+00 0.547D+00 0.640D+00
 Gap=     0.111 Goal=   None    Shift=    0.000
 RMSDP=1.24D-03 MaxDP=2.29D-02 DE=-5.35D-02 OVMax= 2.95D-02

 Cycle   4  Pass 1  IDiag  1:
 E= -153.285661838950     Delta-E=       -0.003916008523 Rises=F Damp=F
 DIIS: error= 1.48D-03 at cycle   4 NSaved=   4.
 NSaved= 4 IEnMin= 4 EnMin= -153.285661838950     IErMin= 4 ErrMin= 1.48D-03
 ErrMax= 1.48D-03  0.00D+00 EMaxC= 1.00D-01 BMatC= 1.79D-04 BMatP= 3.13D-03
 IDIUse=3 WtCom= 9.85D-01 WtEn= 1.48D-02
 Coeff-Com: -0.345D-01 0.101D+00 0.223D+00 0.710D+00
 Coeff-En:   0.000D+00 0.000D+00 0.000D+00 0.100D+01
 Coeff:     -0.339D-01 0.992D-01 0.220D+00 0.715D+00
 Gap=     0.111 Goal=   None    Shift=    0.000
 RMSDP=2.90D-04 MaxDP=6.55D-03 DE=-3.92D-03 OVMax= 1.10D-02

 Cycle   5  Pass 1  IDiag  1:
 E= -153.285814455243     Delta-E=       -0.000152616293 Rises=F Damp=F
 DIIS: error= 9.83D-04 at cycle   5 NSaved=   5.
 NSaved= 5 IEnMin= 5 EnMin= -153.285814455243     IErMin= 5 ErrMin= 9.83D-04
 ErrMax= 9.83D-04  0.00D+00 EMaxC= 1.00D-01 BMatC= 5.57D-05 BMatP= 1.79D-04
 IDIUse=3 WtCom= 9.90D-01 WtEn= 9.83D-03
 Coeff-Com: -0.725D-02 0.214D-01 0.897D-01 0.429D+00 0.467D+00
 Coeff-En:   0.000D+00 0.000D+00 0.000D+00 0.212D+00 0.788D+00
 Coeff:     -0.718D-02 0.212D-01 0.888D-01 0.427D+00 0.470D+00
 Gap=     0.111 Goal=   None    Shift=    0.000
 RMSDP=1.50D-04 MaxDP=3.21D-03 DE=-1.53D-04 OVMax= 7.17D-03

 Cycle   6  Pass 1  IDiag  1:
 E= -153.285877281847     Delta-E=       -0.000062826604 Rises=F Damp=F
 DIIS: error= 3.11D-04 at cycle   6 NSaved=   6.
 NSaved= 6 IEnMin= 6 EnMin= -153.285877281847     IErMin= 6 ErrMin= 3.11D-04
 ErrMax= 3.11D-04  0.00D+00 EMaxC= 1.00D-01 BMatC= 6.22D-06 BMatP= 5.57D-05
 IDIUse=3 WtCom= 9.97D-01 WtEn= 3.11D-03
 Coeff-Com:  0.246D-02-0.575D-02 0.132D-01 0.123D+00 0.282D+00 0.585D+00
 Coeff-En:   0.000D+00 0.000D+00 0.000D+00 0.000D+00 0.106D+00 0.894D+00
 Coeff:      0.246D-02-0.573D-02 0.132D-01 0.122D+00 0.282D+00 0.586D+00
 Gap=     0.111 Goal=   None    Shift=    0.000
 RMSDP=4.43D-05 MaxDP=9.28D-04 DE=-6.28D-05 OVMax= 1.82D-03

 Cycle   7  Pass 1  IDiag  1:
 E= -153.285885282089     Delta-E=       -0.000008000242 Rises=F Damp=F
 DIIS: error= 3.44D-05 at cycle   7 NSaved=   7.
 NSaved= 7 IEnMin= 7 EnMin= -153.285885282089     IErMin= 7 ErrMin= 3.44D-05
 ErrMax= 3.44D-05  0.00D+00 EMaxC= 1.00D-01 BMatC= 1.34D-07 BMatP= 6.22D-06
 IDIUse=1 WtCom= 1.00D+00 WtEn= 0.00D+00
 Coeff-Com:  0.199D-02-0.407D-02-0.530D-03 0.141D-01 0.633D-01 0.180D+00
 Coeff-Com:  0.745D+00
 Coeff:      0.199D-02-0.407D-02-0.530D-03 0.141D-01 0.633D-01 0.180D+00
 Coeff:      0.745D+00
 Gap=     0.111 Goal=   None    Shift=    0.000
 RMSDP=7.78D-06 MaxDP=8.78D-05 DE=-8.00D-06 OVMax= 2.33D-04

 Cycle   8  Pass 1  IDiag  1:
 E= -153.285885444977     Delta-E=       -0.000000162888 Rises=F Damp=F
 DIIS: error= 1.32D-05 at cycle   8 NSaved=   8.
 NSaved= 8 IEnMin= 8 EnMin= -153.285885444977     IErMin= 8 ErrMin= 1.32D-05
 ErrMax= 1.32D-05  0.00D+00 EMaxC= 1.00D-01 BMatC= 1.50D-08 BMatP= 1.34D-07
 IDIUse=1 WtCom= 1.00D+00 WtEn= 0.00D+00
 Coeff-Com:  0.746D-03-0.132D-02-0.584D-03-0.160D-02 0.672D-02 0.211D-01
 Coeff-Com:  0.279D+00 0.696D+00
 Coeff:      0.746D-03-0.132D-02-0.584D-03-0.160D-02 0.672D-02 0.211D-01
 Coeff:      0.279D+00 0.696D+00
 Gap=     0.111 Goal=   None    Shift=    0.000
 RMSDP=2.58D-06 MaxDP=3.00D-05 DE=-1.63D-07 OVMax= 6.90D-05

 Cycle   9  Pass 1  IDiag  1:
 E= -153.285885464530     Delta-E=       -0.000000019553 Rises=F Damp=F
 DIIS: error= 3.33D-06 at cycle   9 NSaved=   9.
 NSaved= 9 IEnMin= 9 EnMin= -153.285885464530     IErMin= 9 ErrMin= 3.33D-06
 ErrMax= 3.33D-06  0.00D+00 EMaxC= 1.00D-01 BMatC= 1.29D-09 BMatP= 1.50D-08
 IDIUse=1 WtCom= 1.00D+00 WtEn= 0.00D+00
 Coeff-Com:  0.129D-03-0.166D-03-0.755D-04-0.183D-02-0.380D-02-0.121D-01
 Coeff-Com:  0.372D-01 0.291D+00 0.689D+00
 Coeff:      0.129D-03-0.166D-03-0.755D-04-0.183D-02-0.380D-02-0.121D-01
 Coeff:      0.372D-01 0.291D+00 0.689D+00
 Gap=     0.111 Goal=   None    Shift=    0.000
 RMSDP=6.79D-07 MaxDP=8.49D-06 DE=-1.96D-08 OVMax= 2.03D-05

 Cycle  10  Pass 1  IDiag  1:
 E= -153.285885466151     Delta-E=       -0.000000001622 Rises=F Damp=F
 DIIS: error= 4.56D-07 at cycle  10 NSaved=  10.
 NSaved=10 IEnMin=10 EnMin= -153.285885466151     IErMin=10 ErrMin= 4.56D-07
 ErrMax= 4.56D-07  0.00D+00 EMaxC= 1.00D-01 BMatC= 1.85D-11 BMatP= 1.29D-09
 IDIUse=1 WtCom= 1.00D+00 WtEn= 0.00D+00
 Coeff-Com: -0.131D-04 0.288D-04 0.159D-04-0.261D-03-0.723D-03-0.302D-02
 Coeff-Com: -0.384D-02 0.822D-02 0.826D-01 0.917D+00
 Coeff:     -0.131D-04 0.288D-04 0.159D-04-0.261D-03-0.723D-03-0.302D-02
 Coeff:     -0.384D-02 0.822D-02 0.826D-01 0.917D+00
 Gap=     0.111 Goal=   None    Shift=    0.000
 RMSDP=1.98D-07 MaxDP=1.75D-06 DE=-1.62D-09 OVMax= 1.09D-05

 Cycle  11  Pass 1  IDiag  1:
 E= -153.285885466226     Delta-E=       -0.000000000074 Rises=F Damp=F
 DIIS: error= 1.85D-07 at cycle  11 NSaved=  11.
 NSaved=11 IEnMin=11 EnMin= -153.285885466226     IErMin=11 ErrMin= 1.85D-07
 ErrMax= 1.85D-07  0.00D+00 EMaxC= 1.00D-01 BMatC= 1.03D-12 BMatP= 1.85D-11
 IDIUse=1 WtCom= 1.00D+00 WtEn= 0.00D+00
 Coeff-Com: -0.163D-05-0.763D-06-0.572D-06 0.110D-03 0.328D-03 0.105D-02
 Coeff-Com:  0.594D-03-0.145D-01-0.524D-01-0.124D+00 0.119D+01
 Coeff:     -0.163D-05-0.763D-06-0.572D-06 0.110D-03 0.328D-03 0.105D-02
 Coeff:      0.594D-03-0.145D-01-0.524D-01-0.124D+00 0.119D+01
 Gap=     0.111 Goal=   None    Shift=    0.000
 RMSDP=1.14D-07 MaxDP=1.22D-06 DE=-7.42D-11 OVMax= 7.44D-06

 Cycle  12  Pass 1  IDiag  1:
 E= -153.285885466242     Delta-E=       -0.000000000017 Rises=F Damp=F
 DIIS: error= 6.90D-08 at cycle  12 NSaved=  12.
 NSaved=12 IEnMin=12 EnMin= -153.285885466242     IErMin=12 ErrMin= 6.90D-08
 ErrMax= 6.90D-08  0.00D+00 EMaxC= 1.00D-01 BMatC= 9.28D-14 BMatP= 1.03D-12
 IDIUse=1 WtCom= 1.00D+00 WtEn= 0.00D+00
 Coeff-Com:  0.905D-06-0.126D-05-0.225D-05-0.211D-05-0.213D-04 0.475D-04
 Coeff-Com: -0.469D-04 0.180D-02 0.187D-02-0.670D-01-0.259D+00 0.132D+01
 Coeff:      0.905D-06-0.126D-05-0.225D-05-0.211D-05-0.213D-04 0.475D-04
 Coeff:     -0.469D-04 0.180D-02 0.187D-02-0.670D-01-0.259D+00 0.132D+01
 Gap=     0.111 Goal=   None    Shift=    0.000
 RMSDP=5.60D-08 MaxDP=6.20D-07 DE=-1.65D-11 OVMax= 3.71D-06

 Cycle  13  Pass 1  IDiag  1:
 E= -153.285885466244     Delta-E=       -0.000000000002 Rises=F Damp=F
 DIIS: error= 1.15D-08 at cycle  13 NSaved=  13.
 NSaved=13 IEnMin=13 EnMin= -153.285885466244     IErMin=13 ErrMin= 1.15D-08
 ErrMax= 1.15D-08  0.00D+00 EMaxC= 1.00D-01 BMatC= 1.40D-14 BMatP= 9.28D-14
 IDIUse=1 WtCom= 1.00D+00 WtEn= 0.00D+00
 Coeff-Com:  0.438D-06-0.448D-06-0.254D-06-0.720D-05-0.283D-04-0.674D-04
 Coeff-Com: -0.358D-04 0.206D-02 0.659D-02-0.321D-02-0.154D+00 0.244D+00
 Coeff-Com:  0.905D+00
 Coeff:      0.438D-06-0.448D-06-0.254D-06-0.720D-05-0.283D-04-0.674D-04
 Coeff:     -0.358D-04 0.206D-02 0.659D-02-0.321D-02-0.154D+00 0.244D+00
 Coeff:      0.905D+00
 Gap=     0.111 Goal=   None    Shift=    0.000
 RMSDP=9.87D-09 MaxDP=1.12D-07 DE=-1.99D-12 OVMax= 6.38D-07

 Error on total polarization charges =  0.00571
 SCF Done:  E(RB3LYP) =  -153.285885466     A.U. after   13 cycles
            NFock= 13  Conv=0.99D-08     -V/T= 2.0057
 KE= 1.524104670807D+02 PE=-5.088995423892D+02 EE= 1.262718800626D+02
 Leave Link  502 at Fri Sep 22 16:36:19 2023, MaxMem=   268435456 cpu:              17.6 elap:               8.9
 (Enter /share/apps/gaussian/g16/l601.exe)
 Copying SCF densities to generalized density rwf, IOpCl= 0 IROHF=0.

 **********************************************************************

            Population analysis using the SCF density.

 **********************************************************************

 Orbital symmetries:
       Occupied  (A) (A) (A) (A) (A) (A) (A) (A) (A) (A) (A) (A)
                 (A)
       Virtual   (A) (A) (A) (A) (A) (A) (A) (A) (A) (A) (A) (A)
                 (A) (A) (A) (A) (A) (A) (A) (A) (A) (A) (A) (A)
                 (A) (A) (A) (A) (A) (A) (A) (A) (A) (A) (A) (A)
                 (A) (A) (A) (A) (A) (A) (A) (A) (A) (A) (A) (A)
                 (A) (A) (A) (A) (A)
 The electronic state is 1-A.
 Alpha  occ. eigenvalues --  -10.27961 -10.27016 -10.22581 -10.22330  -0.85694
 Alpha  occ. eigenvalues --   -0.73491  -0.61573  -0.51253  -0.49908  -0.36894
 Alpha  occ. eigenvalues --   -0.33355  -0.31384  -0.25599
 Alpha virt. eigenvalues --   -0.14500  -0.11623  -0.08202   0.04234   0.06071
 Alpha virt. eigenvalues --    0.09871   0.19467   0.26425   0.30439   0.36470
 Alpha virt. eigenvalues --    0.39244   0.43318   0.44433   0.45590   0.46176
 Alpha virt. eigenvalues --    0.47941   0.49080   0.51246   0.53578   0.55522
 Alpha virt. eigenvalues --    0.61435   0.62440   0.68624   0.85408   0.87063
 Alpha virt. eigenvalues --    0.95680   1.06865   1.26608   1.30325   1.39007
 Alpha virt. eigenvalues --    1.61636   1.63588   1.65108   1.68488   1.69482
 Alpha virt. eigenvalues --    1.74591   1.77716   1.87875   1.88288   1.89347
 Alpha virt. eigenvalues --    1.97590   2.10304   2.23363   2.28367   2.29858
 Alpha virt. eigenvalues --    2.39978   2.43069   2.51567   2.56538   2.70391
 Alpha virt. eigenvalues --    3.02727   3.10871   3.45617
          Condensed to atoms (all electrons):
               1          2          3          4          5          6
     1  C    5.071348   0.340101   0.455983   0.371279  -0.070127  -0.004074
     2  C    0.340101   5.047235  -0.068918  -0.003924   0.428070   0.387212
     3  C    0.455983  -0.068918   5.634798  -0.018334  -0.009068   0.007197
     4  H    0.371279  -0.003924  -0.018334   0.492388   0.006347  -0.013754
     5  C   -0.070127   0.428070  -0.009068   0.006347   5.659102  -0.020168
     6  H   -0.004074   0.387212   0.007197  -0.013754  -0.020168   0.519485
 Mulliken charges:
               1
     1  C   -0.164510
     2  C   -0.129777
     3  C   -0.001658
     4  H    0.165998
     5  C    0.005844
     6  H    0.124103
 Sum of Mulliken charges =  -0.00000
 Mulliken charges with hydrogens summed into heavy atoms:
               1
     1  C    0.001488
     2  C   -0.005674
     3  C   -0.001658
     5  C    0.005844
 Electronic spatial extent (au):  <R**2>=            221.6220
 Charge=             -0.0000 electrons
 Dipole moment (field-independent basis, Debye):
    X=             -0.0142    Y=              4.0046    Z=              0.0222  Tot=              4.0047
 Quadrupole moment (field-independent basis, Debye-Ang):
   XX=            -25.5599   YY=            -24.4677   ZZ=            -26.6368
   XY=              0.2165   XZ=              0.0782   YZ=              0.0437
 Traceless Quadrupole moment (field-independent basis, Debye-Ang):
   XX=             -0.0051   YY=              1.0871   ZZ=             -1.0820
   XY=              0.2165   XZ=              0.0782   YZ=              0.0437
 Octapole moment (field-independent basis, Debye-Ang**2):
  XXX=              0.0127  YYY=             17.0161  ZZZ=              0.0334  XYY=              0.1265
  XXY=             15.4926  XXZ=              0.0890  XZZ=              0.1274  YZZ=              2.3509
  YYZ=              0.0453  XYZ=              0.0011
 Hexadecapole moment (field-independent basis, Debye-Ang**3):
 XXXX=           -214.7210 YYYY=            -99.5117 ZZZZ=            -33.2027 XXXY=             -0.0606
 XXXZ=              0.3997 YYYX=              0.7611 YYYZ=              0.1311 ZZZX=              0.0859
 ZZZY=              0.0478 XXYY=            -62.5757 XXZZ=            -45.7147 YYZZ=            -23.0002
 XXYZ=              0.0754 YYXZ=              0.1137 ZZXY=             -0.0675
 N-N= 7.693130977969D+01 E-N=-5.088995423095D+02  KE= 1.524104670807D+02
 There are a total of      132140 grid points.
 ElSum from          density=       25.9999999171
 ElSum from atomic densities=       25.9999991746
 Hirshfeld populations at iteration   1 (CA, CB, DipXYZ):
               1          2          3          4          5
     1  C    3.028294   3.028294  -0.045855   0.125870   0.001297
     2  C    3.026362   3.026362   0.048937   0.127125  -0.000286
     3  C    3.017484   3.017484  -0.145487   0.295200   0.002888
     4  H    0.455430   0.455430   0.077856   0.162139   0.002856
     5  C    3.010103   3.010103   0.147032   0.295414  -0.002660
     6  H    0.462327   0.462327  -0.082624   0.160035   0.001237
       Tot  13.000000  13.000000  -0.000142   1.165783   0.005332

 Dip from Atomic Chgs             -0.005430   0.409757   0.003403
         Total Dipole             -0.005572   1.575540   0.008735

 Hirshfeld charges, spin densities, dipoles, and CM5 charges using IRadAn=      5:
              Q-H        S-H        Dx         Dy         Dz        Q-CM5   
     1  C   -0.056589   0.000000  -0.045855   0.125870   0.001297  -0.108072
     2  C   -0.052724   0.000000   0.048937   0.127125  -0.000286  -0.111882
     3  C   -0.034967   0.000000  -0.145487   0.295200   0.002888  -0.038692
     4  H    0.089140   0.000000   0.077856   0.162139   0.002856   0.144252
     5  C   -0.020205   0.000000   0.147032   0.295414  -0.002660  -0.024043
     6  H    0.075346   0.000000  -0.082624   0.160035   0.001237   0.138437
       Tot   0.000000   0.000000  -0.000142   1.165783   0.005332   0.000000
 Hirshfeld charges with hydrogens summed into heavy atoms:
              Q-H       Q-CM5   
     1  C    0.032551   0.036180
     2  C    0.022622   0.026555
     3  C   -0.034967  -0.038692
     5  C   -0.020205  -0.024043
 
 EQQ= 0.000000000000E+00 EQD= 0.000000000000E+00 EDD= 0.131290746406E-01
 EQQ+QD+DD= 0.131290746406E-01
 
 No NMR shielding tensors so no spin-rotation constants.
 Leave Link  601 at Fri Sep 22 16:36:20 2023, MaxMem=   268435456 cpu:               0.9 elap:               0.4
 (Enter /share/apps/gaussian/g16/l9999.exe)
 1\1\GINC-NODE99\SP\RB3LYP\Gen\C4H2\YANZ\22-Sep-2023\0\\#p b3lyp/gen sc
 rf=(cpcm,solvent=toluene) pop=hirshfeld empiricaldispersion=gd3bj\\tmp
 dir/M2_conf_0_309.gjf\\0,1\C,0,0.,0.,0.\C,0,1.4208,0.,0.\C,0,-0.70905,
 0.,-1.17913\H,0,-0.52407,0.00848,0.95285\C,0,2.10379,0.0226,-1.25718\H
 ,0,1.97659,0.00196,0.86373\\Version=ES64L-G16RevA.03\State=1-A\HF=-153
 .2858855\RMSD=9.874e-09\Dipole=0.0543896,-0.0011884,1.574633\Quadrupol
 e=-0.0123968,-0.8054204,0.8178173,-0.05191,-0.1360055,0.0230342\PG=C01
  [X(C4H2)]\\@


 AND ALL THIS SCIENCE I DON'T UNDERSTAND
 IT'S JUST MY JOB FIVE DAYS A WEEK

                           -- ELTON JOHN, "ROCKET MAN"
 Job cpu time:       0 days  0 hours  0 minutes 20.6 seconds.
 Elapsed time:       0 days  0 hours  0 minutes 10.5 seconds.
 File lengths (MBytes):  RWF=     12 Int=      0 D2E=      0 Chk=      2 Scr=      1
 Normal termination of Gaussian 16 at Fri Sep 22 16:36:20 2023.
