 Entering Gaussian System, Link 0=g16
 Initial command:
 /share/apps/gaussian/g16/l1.exe "/tmp/55556.mgr/Gau-85660.inp" -scrdir="/tmp/55556.mgr/"
 Entering Link 1 = /share/apps/gaussian/g16/l1.exe PID=     85661.
  
 Copyright (c) 1988,1990,1992,1993,1995,1998,2003,2009,2016,
            Gaussian, Inc.  All Rights Reserved.
  
 This is part of the Gaussian(R) 16 program.  It is based on
 the Gaussian(R) 09 system (copyright 2009, Gaussian, Inc.),
 the Gaussian(R) 03 system (copyright 2003, Gaussian, Inc.),
 the Gaussian(R) 98 system (copyright 1998, Gaussian, Inc.),
 the Gaussian(R) 94 system (copyright 1995, Gaussian, Inc.),
 the Gaussian 92(TM) system (copyright 1992, Gaussian, Inc.),
 the Gaussian 90(TM) system (copyright 1990, Gaussian, Inc.),
 the Gaussian 88(TM) system (copyright 1988, Gaussian, Inc.),
 the Gaussian 86(TM) system (copyright 1986, Carnegie Mellon
 University), and the Gaussian 82(TM) system (copyright 1983,
 Carnegie Mellon University). Gaussian is a federally registered
 trademark of Gaussian, Inc.
  
 This software contains proprietary and confidential information,
 including trade secrets, belonging to Gaussian, Inc.
  
 This software is provided under written license and may be
 used, copied, transmitted, or stored only in accord with that
 written license.
  
 The following legend is applicable only to US Government
 contracts under FAR:
  
                    RESTRICTED RIGHTS LEGEND
  
 Use, reproduction and disclosure by the US Government is
 subject to restrictions as set forth in subparagraphs (a)
 and (c) of the Commercial Computer Software - Restricted
 Rights clause in FAR 52.227-19.
  
 Gaussian, Inc.
 340 Quinnipiac St., Bldg. 40, Wallingford CT 06492
  
  
 ---------------------------------------------------------------
 Warning -- This program may not be used in any manner that
 competes with the business of Gaussian, Inc. or will provide
 assistance to any competitor of Gaussian, Inc.  The licensee
 of this program is prohibited from giving any competitor of
 Gaussian, Inc. access to this program.  By using this program,
 the user acknowledges that Gaussian, Inc. is engaged in the
 business of creating and licensing software in the field of
 computational chemistry and represents and warrants to the
 licensee that it is not a competitor of Gaussian, Inc. and that
 it will not use this program in any manner prohibited above.
 ---------------------------------------------------------------
  

 Cite this work as:
 Gaussian 16, Revision A.03,
 M. J. Frisch, G. W. Trucks, H. B. Schlegel, G. E. Scuseria, 
 M. A. Robb, J. R. Cheeseman, G. Scalmani, V. Barone, 
 G. A. Petersson, H. Nakatsuji, X. Li, M. Caricato, A. V. Marenich, 
 J. Bloino, B. G. Janesko, R. Gomperts, B. Mennucci, H. P. Hratchian, 
 J. V. Ortiz, A. F. Izmaylov, J. L. Sonnenberg, D. Williams-Young, 
 F. Ding, F. Lipparini, F. Egidi, J. Goings, B. Peng, A. Petrone, 
 T. Henderson, D. Ranasinghe, V. G. Zakrzewski, J. Gao, N. Rega, 
 G. Zheng, W. Liang, M. Hada, M. Ehara, K. Toyota, R. Fukuda, 
 J. Hasegawa, M. Ishida, T. Nakajima, Y. Honda, O. Kitao, H. Nakai, 
 T. Vreven, K. Throssell, J. A. Montgomery, Jr., J. E. Peralta, 
 F. Ogliaro, M. J. Bearpark, J. J. Heyd, E. N. Brothers, K. N. Kudin, 
 V. N. Staroverov, T. A. Keith, R. Kobayashi, J. Normand, 
 K. Raghavachari, A. P. Rendell, J. C. Burant, S. S. Iyengar, 
 J. Tomasi, M. Cossi, J. M. Millam, M. Klene, C. Adamo, R. Cammi, 
 J. W. Ochterski, R. L. Martin, K. Morokuma, O. Farkas, 
 J. B. Foresman, and D. J. Fox, Gaussian, Inc., Wallingford CT, 2016.
 
 ******************************************
 Gaussian 16:  ES64L-G16RevA.03 25-Dec-2016
                22-Sep-2023 
 ******************************************
 %nprocshared=2
 Will use up to    2 processors via shared memory.
 %mem=2GB
 ----------------------------------------------------------------------
 #p b3lyp/gen scrf=(cpcm,solvent=toluene) pop=hirshfeld empiricaldisper
 sion=gd3bj
 ----------------------------------------------------------------------
 1/38=1,172=1/1;
 2/12=2,17=6,18=5,40=1/2;
 3/5=7,11=2,25=1,30=1,70=2101,72=13,74=-5,124=41/1,2,3;
 4//1;
 5/5=2,38=5,53=13/2;
 6/7=2,8=2,9=2,10=2,28=1,79=1/1;
 99/5=1,9=1/99;
 Leave Link    1 at Fri Sep 22 16:34:26 2023, MaxMem=   268435456 cpu:               0.1 elap:               0.0
 (Enter /share/apps/gaussian/g16/l101.exe)
 ------------------------
 tmpdir/M2_conf_0_158.gjf
 ------------------------
 Symbolic Z-matrix:
 Charge =  0 Multiplicity = 1
 C                     0.        0.        0. 
 C                     1.557     0.        0. 
 C                     2.09414   0.        1.43208 
 H                    -0.29854   1.06039  -0.09837 
 H                    -0.35599  -0.57005  -0.86815 
 H                    -0.39152  -0.48289   0.9002 
 H                     1.80123   1.0246   -0.52657 
 H                     1.9436   -0.83488  -0.61936 
 H                     2.45396  -0.83179   1.84761 
 O                     2.03441   1.04303   2.12782 
 
 ITRead=  0  0  0  0  0  0  0  0  0  0
 MicOpt= -1 -1 -1 -1 -1 -1 -1 -1 -1 -1
 NAtoms=     10 NQM=       10 NQMF=       0 NMMI=      0 NMMIF=      0
                NMic=       0 NMicF=      0.
                    Isotopes and Nuclear Properties:
 (Nuclear quadrupole moments (NQMom) in fm**2, nuclear magnetic moments (NMagM)
  in nuclear magnetons)

  Atom         1           2           3           4           5           6           7           8           9          10
 IAtWgt=          12          12          12           1           1           1           1           1           1          16
 AtmWgt=  12.0000000  12.0000000  12.0000000   1.0078250   1.0078250   1.0078250   1.0078250   1.0078250   1.0078250  15.9949146
 NucSpn=           0           0           0           1           1           1           1           1           1           0
 AtZEff=  -0.0000000  -0.0000000  -0.0000000  -0.0000000  -0.0000000  -0.0000000  -0.0000000  -0.0000000  -0.0000000  -0.0000000
 NQMom=    0.0000000   0.0000000   0.0000000   0.0000000   0.0000000   0.0000000   0.0000000   0.0000000   0.0000000   0.0000000
 NMagM=    0.0000000   0.0000000   0.0000000   2.7928460   2.7928460   2.7928460   2.7928460   2.7928460   2.7928460   0.0000000
 AtZNuc=   6.0000000   6.0000000   6.0000000   1.0000000   1.0000000   1.0000000   1.0000000   1.0000000   1.0000000   8.0000000
 Leave Link  101 at Fri Sep 22 16:34:26 2023, MaxMem=   268435456 cpu:               0.2 elap:               0.1
 (Enter /share/apps/gaussian/g16/l202.exe)
                          Input orientation:                          
 ---------------------------------------------------------------------
 Center     Atomic      Atomic             Coordinates (Angstroms)
 Number     Number       Type             X           Y           Z
 ---------------------------------------------------------------------
      1          6           0        0.000000    0.000000    0.000000
      2          6           0        1.557000    0.000000    0.000000
      3          6           0        2.094140    0.000000    1.432080
      4          1           0       -0.298540    1.060390   -0.098370
      5          1           0       -0.355990   -0.570050   -0.868150
      6          1           0       -0.391520   -0.482890    0.900200
      7          1           0        1.801230    1.024600   -0.526570
      8          1           0        1.943600   -0.834880   -0.619360
      9          1           0        2.453960   -0.831790    1.847610
     10          8           0        2.034410    1.043030    2.127820
 ---------------------------------------------------------------------
                    Distance matrix (angstroms):
                    1          2          3          4          5
     1  C    0.000000
     2  C    1.557000   0.000000
     3  C    2.536982   1.529501   0.000000
     4  H    1.105997   2.139423   3.031769   0.000000
     5  H    1.097894   2.176734   3.408688   1.803939   0.000000
     6  H    1.093998   2.200062   2.587390   1.840516   1.770853
     7  H    2.138109   1.177595   2.229778   2.143285   2.704290
     8  H    2.204135   1.109095   2.219931   2.981723   2.328121
     9  H    3.182367   2.215869   0.997001   3.865675   3.916590
    10  O    3.123196   2.417323   1.255203   3.224729   4.158350
                    6          7          8          9         10
     6  H    0.000000
     7  H    3.019330   0.000000
     8  H    2.808157   1.867229   0.000000
     9  H    3.019284   3.083662   2.519210   0.000000
    10  O    3.117791   2.664676   3.328932   1.941517   0.000000
 Stoichiometry    C3H6O
 Framework group  C1[X(C3H6O)]
 Deg. of freedom    24
 Full point group                 C1      NOp   1
 Largest Abelian subgroup         C1      NOp   1
 Largest concise Abelian subgroup C1      NOp   1
                         Standard orientation:                         
 ---------------------------------------------------------------------
 Center     Atomic      Atomic             Coordinates (Angstroms)
 Number     Number       Type             X           Y           Z
 ---------------------------------------------------------------------
      1          6           0       -1.521170   -0.480347   -0.142069
      2          6           0       -0.529563    0.647054    0.270157
      3          6           0        0.859682    0.379463   -0.311019
      4          1           0       -1.524090   -1.197835    0.699615
      5          1           0       -2.522003   -0.046373   -0.266046
      6          1           0       -1.230289   -0.927699   -1.097106
      7          1           0       -0.508661    0.537326    1.442442
      8          1           0       -0.940263    1.641137   -0.000424
      9          1           0        1.189407    0.878127   -1.108908
     10          8           0        1.585275   -0.520213    0.178502
 ---------------------------------------------------------------------
 Rotational constants (GHZ):          18.2087985           5.0285686           4.4929840
 Leave Link  202 at Fri Sep 22 16:34:26 2023, MaxMem=   268435456 cpu:               0.0 elap:               0.0
 (Enter /share/apps/gaussian/g16/l301.exe)
 General basis read from cards:  (5D, 7F)
 Centers:       4      5      6      7      8      9
 S 3 1.00
     Exponent=  1.2251800000D+01 Coefficients=  2.3337100000D-02
     Exponent=  1.8687100000D+00 Coefficients=  1.5915000000D-01
     Exponent=  4.1820800000D-01 Coefficients=  5.0000000000D-01
 S 1 1.00
     Exponent=  1.0610000000D-01 Coefficients=  1.0000000000D+00
 P 1 1.00
     Exponent=  1.0000000000D+00 Coefficients=  1.0000000000D+00
 ****
 Centers:       1      2      3
 S 5 1.00
     Exponent=  1.2432000000D+03 Coefficients=  6.0336600000D-03
     Exponent=  1.8714500000D+02 Coefficients=  4.4957600000D-02
     Exponent=  4.2512600000D+01 Coefficients=  1.9790100000D-01
     Exponent=  1.1739300000D+01 Coefficients=  5.0000000000D-01
     Exponent=  3.5054800000D+00 Coefficients=  4.8036400000D-01
 S 2 1.00
     Exponent=  5.3908900000D+00 Coefficients= -7.0398000000D-02
     Exponent=  4.9334100000D-01 Coefficients=  5.0000000000D-01
 S 1 1.00
     Exponent=  1.4974100000D-01 Coefficients=  1.0000000000D+00
 P 3 1.00
     Exponent=  9.1805600000D+00 Coefficients=  4.3170100000D-02
     Exponent=  1.9365800000D+00 Coefficients=  2.2499900000D-01
     Exponent=  5.2629600000D-01 Coefficients=  5.0000000000D-01
 P 1 1.00
     Exponent=  1.3631900000D-01 Coefficients=  1.0000000000D+00
 D 1 1.00
     Exponent=  8.0000000000D-01 Coefficients=  1.0000000000D+00
 ****
 Centers:      10
 S 5 1.00
     Exponent=  2.2886400000D+03 Coefficients=  5.8546800000D-03
     Exponent=  3.4441600000D+02 Coefficients=  4.3733300000D-02
     Exponent=  7.8253800000D+01 Coefficients=  1.9479600000D-01
     Exponent=  2.1719500000D+01 Coefficients=  5.0000000000D-01
     Exponent=  6.5590700000D+00 Coefficients=  4.8461400000D-01
 S 2 1.00
     Exponent=  1.0465600000D+01 Coefficients= -7.1334300000D-02
     Exponent=  9.6435100000D-01 Coefficients=  5.0000000000D-01
 S 1 1.00
     Exponent=  2.8512700000D-01 Coefficients=  1.0000000000D+00
 P 3 1.00
     Exponent=  1.7059000000D+01 Coefficients=  4.7443900000D-02
     Exponent=  3.6899900000D+00 Coefficients=  2.4268900000D-01
     Exponent=  9.9299600000D-01 Coefficients=  5.0000000000D-01
 P 1 1.00
     Exponent=  2.4492400000D-01 Coefficients=  1.0000000000D+00
 D 1 1.00
     Exponent=  1.0000000000D+00 Coefficients=  1.0000000000D+00
 ****
 Ernie: Thresh=  0.10000D-02 Tol=  0.10000D-05 Strict=F.
 There are    90 symmetry adapted cartesian basis functions of A   symmetry.
 There are    86 symmetry adapted basis functions of A   symmetry.
    86 basis functions,   146 primitive gaussians,    90 cartesian basis functions
    16 alpha electrons       16 beta electrons
       nuclear repulsion energy       116.2196412344 Hartrees.
 IExCor=  402 DFT=T Ex+Corr=B3LYP ExCW=0 ScaHFX=  0.200000
 ScaDFX=  0.800000  0.720000  1.000000  0.810000 ScalE2=  1.000000  1.000000
 IRadAn=      5 IRanWt=     -1 IRanGd=            0 ICorTp=0 IEmpDi=141
 NAtoms=   10 NActive=   10 NUniq=   10 SFac= 1.00D+00 NAtFMM=   60 NAOKFM=F Big=F
 Integral buffers will be    131072 words long.
 Raffenetti 2 integral format.
 Two-electron integral symmetry is turned on.
 R6Disp:  Grimme-D3(BJ) Dispersion energy=       -0.0099263265 Hartrees.
 Nuclear repulsion after empirical dispersion term =      116.2097149079 Hartrees.
 ------------------------------------------------------------------------------
 Polarizable Continuum Model (PCM)
 =================================
 Model                : C-PCM.
 Atomic radii         : UFF (Universal Force Field).
 Polarization charges : Total charges.
 Charge compensation  : None.
 Solution method      : On-the-fly selection.
 Cavity type          : Scaled VdW (van der Waals Surface) (Alpha=1.100).
 Cavity algorithm     : GePol (No added spheres)
                        Default sphere list used, NSphG=   10.
                        Lebedev-Laikov grids with approx.  5.0 points / Ang**2.
                        Smoothing algorithm: York/Karplus (Gamma=1.0000).
                        Polarization charges: spherical gaussians, with
                                              point-specific exponents (IZeta= 3).
                        Self-potential: point-specific (ISelfS= 7).
                        Self-field    : sphere-specific E.n sum rule (ISelfD= 2).
 Solvent              : Toluene, Eps=   2.374100 Eps(inf)=   2.238315
 ------------------------------------------------------------------------------
 Spheres list:
 ISph  on   Nord     Re0    Alpha      Xe            Ye            Ze
    1   C      1    1.9255  1.100     -1.521170     -0.480347     -0.142069
    2   C      2    1.9255  1.100     -0.529563      0.647054      0.270157
    3   C      3    1.9255  1.100      0.859682      0.379463     -0.311019
    4   H      4    1.4430  1.100     -1.524090     -1.197835      0.699615
    5   H      5    1.4430  1.100     -2.522003     -0.046373     -0.266046
    6   H      6    1.4430  1.100     -1.230289     -0.927699     -1.097106
    7   H      7    1.4430  1.100     -0.508661      0.537326      1.442442
    8   H      8    1.4430  1.100     -0.940263      1.641137     -0.000424
    9   H      9    1.4430  1.100      1.189407      0.878127     -1.108908
   10   O     10    1.7500  1.100      1.585275     -0.520213      0.178502
 ------------------------------------------------------------------------------
 GePol: Number of generator spheres                  =      10
 GePol: Total number of spheres                      =      10
 GePol: Number of exposed spheres                    =      10 (100.00%)
 GePol: Number of points                             =     920
 GePol: Average weight of points                     =       0.14
 GePol: Minimum weight of points                     =   0.72D-08
 GePol: Maximum weight of points                     =    0.20577
 GePol: Number of points with low weight             =      52
 GePol: Fraction of low-weight points (<1% of avg)   =       5.65%
 GePol: Cavity surface area                          =    124.863 Ang**2
 GePol: Cavity volume                                =    108.801 Ang**3
 Leave Link  301 at Fri Sep 22 16:34:26 2023, MaxMem=   268435456 cpu:               0.2 elap:               0.1
 (Enter /share/apps/gaussian/g16/l302.exe)
 NPDir=0 NMtPBC=     1 NCelOv=     1 NCel=       1 NClECP=     1 NCelD=      1
         NCelK=      1 NCelE2=     1 NClLst=     1 CellRange=     0.0.
 One-electron integrals computed using PRISM.
 One-electron integral symmetry used in STVInt
 NBasis=    86 RedAO= T EigKep=  6.01D-03  NBF=    86
 NBsUse=    86 1.00D-06 EigRej= -1.00D+00 NBFU=    86
 Precomputing XC quadrature grid using
 IXCGrd= 4 IRadAn=           5 IRanWt=          -1 IRanGd=           0 AccXCQ= 0.00D+00.
 Generated NRdTot=       0 NPtTot=           0 NUsed=           0 NTot=          32
 NSgBfM=    90    90    90    90    90 MxSgAt=    10 MxSgA2=    10.
 Leave Link  302 at Fri Sep 22 16:34:27 2023, MaxMem=   268435456 cpu:               0.3 elap:               0.2
 (Enter /share/apps/gaussian/g16/l303.exe)
 DipDrv:  MaxL=1.
 Leave Link  303 at Fri Sep 22 16:34:27 2023, MaxMem=   268435456 cpu:               0.1 elap:               0.0
 (Enter /share/apps/gaussian/g16/l401.exe)
 ExpMin= 1.06D-01 ExpMax= 2.29D+03 ExpMxC= 3.44D+02 IAcc=3 IRadAn=         5 AccDes= 0.00D+00
 Harris functional with IExCor=  402 and IRadAn=       5 diagonalized for initial guess.
 HarFok:  IExCor=  402 AccDes= 0.00D+00 IRadAn=         5 IDoV= 1 UseB2=F ITyADJ=14
 ICtDFT=  3500011 ScaDFX=  1.000000  1.000000  1.000000  1.000000
 FoFCou: FMM=F IPFlag=           0 FMFlag=      100000 FMFlg1=           0
         NFxFlg=           0 DoJE=T BraDBF=F KetDBF=T FulRan=T
         wScrn=  0.000000 ICntrl=       500 IOpCl=  0 I1Cent=   200000004 NGrid=           0
         NMat0=    1 NMatS0=      1 NMatT0=    0 NMatD0=    1 NMtDS0=    0 NMtDT0=    0
 Petite list used in FoFCou.
 Harris En= -193.127579840232    
 JPrj=0 DoOrth=F DoCkMO=F.
 Leave Link  401 at Fri Sep 22 16:34:28 2023, MaxMem=   268435456 cpu:               2.0 elap:               1.0
 (Enter /share/apps/gaussian/g16/l502.exe)
 Keep R1 ints in memory in canonical form, NReq=8826447.
 FoFCou: FMM=F IPFlag=           0 FMFlag=           0 FMFlg1=           0
         NFxFlg=           0 DoJE=F BraDBF=F KetDBF=F FulRan=T
         wScrn=  0.000000 ICntrl=       600 IOpCl=  0 I1Cent=           0 NGrid=           0
         NMat0=    1 NMatS0=   3741 NMatT0=    0 NMatD0=    1 NMtDS0=    0 NMtDT0=    0
 Symmetry not used in FoFCou.
 Two-electron integral symmetry not used.
 Closed shell SCF:
 Using DIIS extrapolation, IDIIS=  1040.
 NGot=   268435456 LenX=   261418155 LenY=   261409614
 Requested convergence on RMS density matrix=1.00D-08 within 128 cycles.
 Requested convergence on MAX density matrix=1.00D-06.
 Requested convergence on             energy=1.00D-06.
 No special actions if energy rises.

 Cycle   1  Pass 1  IDiag  1:
 Inv3:  Mode=1 IEnd=     2539200.
 Iteration    1 A*A^-1 deviation from unit magnitude is 3.33D-15 for    915.
 Iteration    1 A*A^-1 deviation from orthogonality  is 1.67D-15 for    914    309.
 Iteration    1 A^-1*A deviation from unit magnitude is 3.33D-15 for    915.
 Iteration    1 A^-1*A deviation from orthogonality  is 7.28D-16 for    815    301.
 E= -192.973277597672    
 DIIS: error= 2.74D-02 at cycle   1 NSaved=   1.
 NSaved= 1 IEnMin= 1 EnMin= -192.973277597672     IErMin= 1 ErrMin= 2.74D-02
 ErrMax= 2.74D-02  0.00D+00 EMaxC= 1.00D-01 BMatC= 1.29D-01 BMatP= 1.29D-01
 IDIUse=3 WtCom= 7.26D-01 WtEn= 2.74D-01
 Coeff-Com:  0.100D+01
 Coeff-En:   0.100D+01
 Coeff:      0.100D+01
 Gap=     0.147 Goal=   None    Shift=    0.000
 GapD=    0.147 DampG=1.000 DampE=0.500 DampFc=0.5000 IDamp=-1.
 Damping current iteration by 5.00D-01
 RMSDP=8.98D-03 MaxDP=1.40D-01              OVMax= 1.88D-01

 Cycle   2  Pass 1  IDiag  1:
 E= -193.014063605528     Delta-E=       -0.040786007856 Rises=F Damp=T
 DIIS: error= 1.10D-02 at cycle   2 NSaved=   2.
 NSaved= 2 IEnMin= 2 EnMin= -193.014063605528     IErMin= 2 ErrMin= 1.10D-02
 ErrMax= 1.10D-02  0.00D+00 EMaxC= 1.00D-01 BMatC= 1.65D-02 BMatP= 1.29D-01
 IDIUse=3 WtCom= 8.90D-01 WtEn= 1.10D-01
 Coeff-Com:  0.213D+00 0.787D+00
 Coeff-En:   0.305D+00 0.695D+00
 Coeff:      0.223D+00 0.777D+00
 Gap=     0.218 Goal=   None    Shift=    0.000
 RMSDP=2.28D-03 MaxDP=3.81D-02 DE=-4.08D-02 OVMax= 1.68D-01

 Cycle   3  Pass 1  IDiag  1:
 E= -193.088318611009     Delta-E=       -0.074255005481 Rises=F Damp=F
 DIIS: error= 1.08D-02 at cycle   3 NSaved=   3.
 NSaved= 3 IEnMin= 3 EnMin= -193.088318611009     IErMin= 3 ErrMin= 1.08D-02
 ErrMax= 1.08D-02  0.00D+00 EMaxC= 1.00D-01 BMatC= 1.41D-02 BMatP= 1.65D-02
 IDIUse=3 WtCom= 8.92D-01 WtEn= 1.08D-01
 Coeff-Com:  0.852D-01 0.486D+00 0.429D+00
 Coeff-En:   0.000D+00 0.000D+00 0.100D+01
 Coeff:      0.760D-01 0.434D+00 0.490D+00
 Gap=     0.209 Goal=   None    Shift=    0.000
 RMSDP=1.43D-03 MaxDP=2.69D-02 DE=-7.43D-02 OVMax= 5.17D-02

 Cycle   4  Pass 1  IDiag  1:
 E= -193.098946624267     Delta-E=       -0.010628013257 Rises=F Damp=F
 DIIS: error= 4.75D-03 at cycle   4 NSaved=   4.
 NSaved= 4 IEnMin= 4 EnMin= -193.098946624267     IErMin= 4 ErrMin= 4.75D-03
 ErrMax= 4.75D-03  0.00D+00 EMaxC= 1.00D-01 BMatC= 2.41D-03 BMatP= 1.41D-02
 IDIUse=3 WtCom= 9.53D-01 WtEn= 4.75D-02
 Coeff-Com:  0.188D-01 0.826D-01 0.297D+00 0.601D+00
 Coeff-En:   0.000D+00 0.000D+00 0.167D+00 0.833D+00
 Coeff:      0.179D-01 0.787D-01 0.291D+00 0.612D+00
 Gap=     0.213 Goal=   None    Shift=    0.000
 RMSDP=4.63D-04 MaxDP=8.58D-03 DE=-1.06D-02 OVMax= 1.32D-02

 Cycle   5  Pass 1  IDiag  1:
 E= -193.100902809386     Delta-E=       -0.001956185120 Rises=F Damp=F
 DIIS: error= 4.23D-04 at cycle   5 NSaved=   5.
 NSaved= 5 IEnMin= 5 EnMin= -193.100902809386     IErMin= 5 ErrMin= 4.23D-04
 ErrMax= 4.23D-04  0.00D+00 EMaxC= 1.00D-01 BMatC= 3.21D-05 BMatP= 2.41D-03
 IDIUse=3 WtCom= 9.96D-01 WtEn= 4.23D-03
 Coeff-Com:  0.331D-02 0.355D-02 0.884D-01 0.236D+00 0.669D+00
 Coeff-En:   0.000D+00 0.000D+00 0.000D+00 0.000D+00 0.100D+01
 Coeff:      0.330D-02 0.354D-02 0.881D-01 0.235D+00 0.670D+00
 Gap=     0.213 Goal=   None    Shift=    0.000
 RMSDP=7.35D-05 MaxDP=1.35D-03 DE=-1.96D-03 OVMax= 1.54D-03

 Cycle   6  Pass 1  IDiag  1:
 E= -193.100932613778     Delta-E=       -0.000029804391 Rises=F Damp=F
 DIIS: error= 1.32D-04 at cycle   6 NSaved=   6.
 NSaved= 6 IEnMin= 6 EnMin= -193.100932613778     IErMin= 6 ErrMin= 1.32D-04
 ErrMax= 1.32D-04  0.00D+00 EMaxC= 1.00D-01 BMatC= 2.32D-06 BMatP= 3.21D-05
 IDIUse=3 WtCom= 9.99D-01 WtEn= 1.32D-03
 Coeff-Com:  0.481D-03-0.397D-02 0.183D-01 0.544D-01 0.272D+00 0.659D+00
 Coeff-En:   0.000D+00 0.000D+00 0.000D+00 0.000D+00 0.000D+00 0.100D+01
 Coeff:      0.481D-03-0.396D-02 0.183D-01 0.543D-01 0.272D+00 0.659D+00
 Gap=     0.213 Goal=   None    Shift=    0.000
 RMSDP=1.94D-05 MaxDP=2.60D-04 DE=-2.98D-05 OVMax= 4.11D-04

 Cycle   7  Pass 1  IDiag  1:
 E= -193.100934732472     Delta-E=       -0.000002118694 Rises=F Damp=F
 DIIS: error= 1.41D-05 at cycle   7 NSaved=   7.
 NSaved= 7 IEnMin= 7 EnMin= -193.100934732472     IErMin= 7 ErrMin= 1.41D-05
 ErrMax= 1.41D-05  0.00D+00 EMaxC= 1.00D-01 BMatC= 3.96D-08 BMatP= 2.32D-06
 IDIUse=1 WtCom= 1.00D+00 WtEn= 0.00D+00
 Coeff-Com:  0.150D-03-0.121D-02 0.294D-02 0.738D-02 0.514D-01 0.159D+00
 Coeff-Com:  0.781D+00
 Coeff:      0.150D-03-0.121D-02 0.294D-02 0.738D-02 0.514D-01 0.159D+00
 Coeff:      0.781D+00
 Gap=     0.213 Goal=   None    Shift=    0.000
 RMSDP=2.30D-06 MaxDP=2.92D-05 DE=-2.12D-06 OVMax= 4.24D-05

 Cycle   8  Pass 1  IDiag  1:
 E= -193.100934762727     Delta-E=       -0.000000030255 Rises=F Damp=F
 DIIS: error= 4.42D-06 at cycle   8 NSaved=   8.
 NSaved= 8 IEnMin= 8 EnMin= -193.100934762727     IErMin= 8 ErrMin= 4.42D-06
 ErrMax= 4.42D-06  0.00D+00 EMaxC= 1.00D-01 BMatC= 4.15D-09 BMatP= 3.96D-08
 IDIUse=1 WtCom= 1.00D+00 WtEn= 0.00D+00
 Coeff-Com:  0.586D-04-0.342D-03 0.417D-03 0.340D-03 0.810D-02 0.322D-01
 Coeff-Com:  0.311D+00 0.648D+00
 Coeff:      0.586D-04-0.342D-03 0.417D-03 0.340D-03 0.810D-02 0.322D-01
 Coeff:      0.311D+00 0.648D+00
 Gap=     0.213 Goal=   None    Shift=    0.000
 RMSDP=7.88D-07 MaxDP=1.42D-05 DE=-3.03D-08 OVMax= 1.79D-05

 Cycle   9  Pass 1  IDiag  1:
 E= -193.100934766326     Delta-E=       -0.000000003599 Rises=F Damp=F
 DIIS: error= 1.60D-06 at cycle   9 NSaved=   9.
 NSaved= 9 IEnMin= 9 EnMin= -193.100934766326     IErMin= 9 ErrMin= 1.60D-06
 ErrMax= 1.60D-06  0.00D+00 EMaxC= 1.00D-01 BMatC= 4.37D-10 BMatP= 4.15D-09
 IDIUse=1 WtCom= 1.00D+00 WtEn= 0.00D+00
 Coeff-Com:  0.119D-04-0.448D-05-0.158D-03-0.786D-03-0.294D-02-0.607D-02
 Coeff-Com:  0.338D-01 0.285D+00 0.691D+00
 Coeff:      0.119D-04-0.448D-05-0.158D-03-0.786D-03-0.294D-02-0.607D-02
 Coeff:      0.338D-01 0.285D+00 0.691D+00
 Gap=     0.213 Goal=   None    Shift=    0.000
 RMSDP=2.61D-07 MaxDP=4.21D-06 DE=-3.60D-09 OVMax= 4.89D-06

 Cycle  10  Pass 1  IDiag  1:
 E= -193.100934766737     Delta-E=       -0.000000000412 Rises=F Damp=F
 DIIS: error= 1.47D-07 at cycle  10 NSaved=  10.
 NSaved=10 IEnMin=10 EnMin= -193.100934766737     IErMin=10 ErrMin= 1.47D-07
 ErrMax= 1.47D-07  0.00D+00 EMaxC= 1.00D-01 BMatC= 3.54D-12 BMatP= 4.37D-10
 IDIUse=1 WtCom= 1.00D+00 WtEn= 0.00D+00
 Coeff-Com:  0.101D-05 0.630D-05-0.293D-04-0.132D-03-0.681D-03-0.163D-02
 Coeff-Com: -0.407D-02 0.296D-01 0.121D+00 0.856D+00
 Coeff:      0.101D-05 0.630D-05-0.293D-04-0.132D-03-0.681D-03-0.163D-02
 Coeff:     -0.407D-02 0.296D-01 0.121D+00 0.856D+00
 Gap=     0.213 Goal=   None    Shift=    0.000
 RMSDP=2.59D-08 MaxDP=3.12D-07 DE=-4.12D-10 OVMax= 5.44D-07

 Cycle  11  Pass 1  IDiag  1:
 E= -193.100934766740     Delta-E=       -0.000000000002 Rises=F Damp=F
 DIIS: error= 3.71D-08 at cycle  11 NSaved=  11.
 NSaved=11 IEnMin=11 EnMin= -193.100934766740     IErMin=11 ErrMin= 3.71D-08
 ErrMax= 3.71D-08  0.00D+00 EMaxC= 1.00D-01 BMatC= 1.58D-13 BMatP= 3.54D-12
 IDIUse=1 WtCom= 1.00D+00 WtEn= 0.00D+00
 Coeff-Com: -0.120D-06 0.707D-06 0.138D-05 0.196D-05-0.190D-04-0.409D-04
 Coeff-Com: -0.177D-02-0.450D-02-0.396D-02 0.111D+00 0.899D+00
 Coeff:     -0.120D-06 0.707D-06 0.138D-05 0.196D-05-0.190D-04-0.409D-04
 Coeff:     -0.177D-02-0.450D-02-0.396D-02 0.111D+00 0.899D+00
 Gap=     0.213 Goal=   None    Shift=    0.000
 RMSDP=4.84D-09 MaxDP=6.06D-08 DE=-2.39D-12 OVMax= 9.79D-08

 Error on total polarization charges =  0.00468
 SCF Done:  E(RB3LYP) =  -193.100934767     A.U. after   11 cycles
            NFock= 11  Conv=0.48D-08     -V/T= 2.0057
 KE= 1.920111946538D+02 PE=-6.828935354990D+02 EE= 1.815716911706D+02
 Leave Link  502 at Fri Sep 22 16:34:42 2023, MaxMem=   268435456 cpu:              29.2 elap:              14.7
 (Enter /share/apps/gaussian/g16/l601.exe)
 Copying SCF densities to generalized density rwf, IOpCl= 0 IROHF=0.

 **********************************************************************

            Population analysis using the SCF density.

 **********************************************************************

 Orbital symmetries:
       Occupied  (A) (A) (A) (A) (A) (A) (A) (A) (A) (A) (A) (A)
                 (A) (A) (A) (A)
       Virtual   (A) (A) (A) (A) (A) (A) (A) (A) (A) (A) (A) (A)
                 (A) (A) (A) (A) (A) (A) (A) (A) (A) (A) (A) (A)
                 (A) (A) (A) (A) (A) (A) (A) (A) (A) (A) (A) (A)
                 (A) (A) (A) (A) (A) (A) (A) (A) (A) (A) (A) (A)
                 (A) (A) (A) (A) (A) (A) (A) (A) (A) (A) (A) (A)
                 (A) (A) (A) (A) (A) (A) (A) (A) (A) (A)
 The electronic state is 1-A.
 Alpha  occ. eigenvalues --  -19.12595 -10.26903 -10.19727 -10.18400  -1.03588
 Alpha  occ. eigenvalues --   -0.78442  -0.66799  -0.59039  -0.49272  -0.45984
 Alpha  occ. eigenvalues --   -0.43369  -0.41192  -0.37989  -0.35852  -0.34509
 Alpha  occ. eigenvalues --   -0.26535
 Alpha virt. eigenvalues --   -0.05210   0.04865   0.06925   0.08674   0.09714
 Alpha virt. eigenvalues --    0.11936   0.15484   0.18176   0.20963   0.23303
 Alpha virt. eigenvalues --    0.38521   0.41096   0.42335   0.45928   0.50165
 Alpha virt. eigenvalues --    0.51083   0.54287   0.57892   0.58031   0.61861
 Alpha virt. eigenvalues --    0.62319   0.63587   0.63982   0.66874   0.72481
 Alpha virt. eigenvalues --    0.78406   0.85093   0.90193   1.01143   1.03910
 Alpha virt. eigenvalues --    1.19785   1.26165   1.38854   1.47946   1.52731
 Alpha virt. eigenvalues --    1.59723   1.65353   1.71808   1.76672   1.83933
 Alpha virt. eigenvalues --    1.84794   1.87757   1.88680   1.91025   1.92417
 Alpha virt. eigenvalues --    1.94373   2.04045   2.08450   2.12775   2.16399
 Alpha virt. eigenvalues --    2.21110   2.28945   2.30076   2.36177   2.44162
 Alpha virt. eigenvalues --    2.44647   2.53383   2.58550   2.62384   2.74206
 Alpha virt. eigenvalues --    2.75549   2.80591   2.91459   3.05197   3.07049
 Alpha virt. eigenvalues --    3.14007   3.15684   3.20655   3.25660   3.50901
          Condensed to atoms (all electrons):
               1          2          3          4          5          6
     1  C    4.764813   0.350096  -0.060928   0.403747   0.397846   0.405623
     2  C    0.350096   5.159996   0.326354  -0.036689  -0.026525  -0.045984
     3  C   -0.060928   0.326354   4.478588  -0.001268   0.006694  -0.006199
     4  H    0.403747  -0.036689  -0.001268   0.567323  -0.021706  -0.017278
     5  H    0.397846  -0.026525   0.006694  -0.021706   0.580371  -0.022277
     6  H    0.405623  -0.045984  -0.006199  -0.017278  -0.022277   0.573999
     7  H   -0.030987   0.370578  -0.021380  -0.017522   0.001354   0.008144
     8  H   -0.028121   0.369113  -0.020192   0.008627  -0.014191   0.001485
     9  H    0.003437  -0.091780   0.417690  -0.000198  -0.000218   0.003187
    10  O    0.000908  -0.099142   0.590443   0.002930   0.000034   0.000421
               7          8          9         10
     1  C   -0.030987  -0.028121   0.003437   0.000908
     2  C    0.370578   0.369113  -0.091780  -0.099142
     3  C   -0.021380  -0.020192   0.417690   0.590443
     4  H   -0.017522   0.008627  -0.000198   0.002930
     5  H    0.001354  -0.014191  -0.000218   0.000034
     6  H    0.008144   0.001485   0.003187   0.000421
     7  H    0.569267  -0.022528   0.007812   0.002029
     8  H   -0.022528   0.591646  -0.000444   0.004617
     9  H    0.007812  -0.000444   0.669398  -0.048936
    10  O    0.002029   0.004617  -0.048936   7.947244
 Mulliken charges:
               1
     1  C   -0.206435
     2  C   -0.276016
     3  C    0.290199
     4  H    0.112035
     5  H    0.098618
     6  H    0.098879
     7  H    0.133231
     8  H    0.109986
     9  H    0.040051
    10  O   -0.400548
 Sum of Mulliken charges =   0.00000
 Mulliken charges with hydrogens summed into heavy atoms:
               1
     1  C    0.103097
     2  C   -0.032799
     3  C    0.330250
    10  O   -0.400548
 Electronic spatial extent (au):  <R**2>=            316.8133
 Charge=              0.0000 electrons
 Dipole moment (field-independent basis, Debye):
    X=             -2.4201    Y=              1.9989    Z=             -1.0177  Tot=              3.2997
 Quadrupole moment (field-independent basis, Debye-Ang):
   XX=            -29.0510   YY=            -25.5994   ZZ=            -24.1806
   XY=              2.5001   XZ=             -1.5792   YZ=             -0.4155
 Traceless Quadrupole moment (field-independent basis, Debye-Ang):
   XX=             -2.7740   YY=              0.6776   ZZ=              2.0964
   XY=              2.5001   XZ=             -1.5792   YZ=             -0.4155
 Octapole moment (field-independent basis, Debye-Ang**2):
  XXX=             -3.8538  YYY=              0.2423  ZZZ=             -0.0124  XYY=              1.1961
  XXY=              5.2110  XXZ=             -1.6182  XZZ=              1.9270  YZZ=             -0.5705
  YYZ=             -0.8468  XYZ=              0.2532
 Hexadecapole moment (field-independent basis, Debye-Ang**3):
 XXXX=           -284.6200 YYYY=            -86.6906 ZZZZ=            -51.5338 XXXY=              1.4133
 XXXZ=             -0.6156 YYYX=             -2.9563 YYYZ=             -2.6592 ZZZX=             -1.6533
 ZZZY=             -1.2903 XXYY=            -61.0560 XXZZ=            -53.9896 YYZZ=            -23.3386
 XXYZ=             -1.5086 YYXZ=             -0.7855 ZZXY=              0.9567
 N-N= 1.162097149079D+02 E-N=-6.828935351530D+02  KE= 1.920111946538D+02
 There are a total of      222078 grid points.
 ElSum from          density=       31.9999982874
 ElSum from atomic densities=       31.9999971822
 Hirshfeld populations at iteration   1 (CA, CB, DipXYZ):
               1          2          3          4          5
     1  C    3.035053   3.035053   0.010080   0.023569   0.002562
     2  C    3.018409   3.018409  -0.000997  -0.012353  -0.047295
     3  C    2.925208   2.925208  -0.041526   0.073045  -0.046575
     4  H    0.481298   0.481298  -0.001417  -0.083845   0.118372
     5  H    0.482432   0.482432  -0.126193   0.061218  -0.017679
     6  H    0.484194   0.484194   0.030667  -0.049770  -0.125978
     7  H    0.478955   0.478955  -0.017267  -0.025866   0.138165
     8  H    0.482744   0.482744  -0.058906   0.120864  -0.040819
     9  H    0.474452   0.474452   0.041780   0.077386  -0.116865
    10  O    4.137254   4.137254  -0.111777   0.115041  -0.057652
       Tot  15.999999  15.999999  -0.275556   0.299290  -0.193765

 Dip from Atomic Chgs             -0.676584   0.487135  -0.206616
         Total Dipole             -0.952140   0.786425  -0.400381

 Hirshfeld charges, spin densities, dipoles, and CM5 charges using IRadAn=      5:
              Q-H        S-H        Dx         Dy         Dz        Q-CM5   
     1  C   -0.070106   0.000000   0.010080   0.023569   0.002562  -0.216744
     2  C   -0.036818   0.000000  -0.000997  -0.012353  -0.047295  -0.131838
     3  C    0.149583   0.000000  -0.041526   0.073045  -0.046575   0.114621
     4  H    0.037404   0.000000  -0.001417  -0.083845   0.118372   0.087896
     5  H    0.035135   0.000000  -0.126193   0.061218  -0.017679   0.085451
     6  H    0.031613   0.000000   0.030667  -0.049770  -0.125978   0.083963
     7  H    0.042089   0.000000  -0.017267  -0.025866   0.138165   0.089441
     8  H    0.034513   0.000000  -0.058906   0.120864  -0.040819   0.086514
     9  H    0.051096   0.000000   0.041780   0.077386  -0.116865   0.129187
    10  O   -0.274508   0.000000  -0.111777   0.115041  -0.057652  -0.328489
       Tot   0.000002   0.000000  -0.275556   0.299290  -0.193765   0.000002
 Hirshfeld charges with hydrogens summed into heavy atoms:
              Q-H       Q-CM5   
     1  C    0.034046   0.040566
     2  C    0.039784   0.044117
     3  C    0.200680   0.243808
    10  O   -0.274508  -0.328489
 
 EQQ= 0.000000000000E+00 EQD= 0.000000000000E+00 EDD= 0.177692796287E-02
 EQQ+QD+DD= 0.177692796287E-02
 
 No NMR shielding tensors so no spin-rotation constants.
 Leave Link  601 at Fri Sep 22 16:34:43 2023, MaxMem=   268435456 cpu:               1.7 elap:               0.9
 (Enter /share/apps/gaussian/g16/l9999.exe)
 1\1\GINC-NODE99\SP\RB3LYP\Gen\C3H6O1\YANZ\22-Sep-2023\0\\#p b3lyp/gen 
 scrf=(cpcm,solvent=toluene) pop=hirshfeld empiricaldispersion=gd3bj\\t
 mpdir/M2_conf_0_158.gjf\\0,1\C,0,0.,0.,0.\C,0,1.557,0.,0.\C,0,2.09414,
 0.,1.43208\H,0,-0.29854,1.06039,-0.09837\H,0,-0.35599,-0.57005,-0.8681
 5\H,0,-0.39152,-0.48289,0.9002\H,0,1.80123,1.0246,-0.52657\H,0,1.9436,
 -0.83488,-0.61936\H,0,2.45396,-0.83179,1.84761\O,0,2.03441,1.04303,2.1
 2782\\Version=ES64L-G16RevA.03\State=1-A\HF=-193.1009348\RMSD=4.842e-0
 9\Dipole=-0.1429531,-0.9668143,-0.8545064\Quadrupole=0.7368154,0.38426
 22,-1.1210776,-1.2828633,-0.59377,-2.329218\PG=C01 [X(C3H6O1)]\\@


 WHEN ALL ELSE FAILS, TRY THE BOSS'S SUGGESTION.
 Job cpu time:       0 days  0 hours  0 minutes 33.9 seconds.
 Elapsed time:       0 days  0 hours  0 minutes 17.1 seconds.
 File lengths (MBytes):  RWF=     14 Int=      0 D2E=      0 Chk=      2 Scr=      1
 Normal termination of Gaussian 16 at Fri Sep 22 16:34:43 2023.
