 Entering Gaussian System, Link 0=g16
 Initial command:
 /share/apps/gaussian/g16/l1.exe "/tmp/55556.mgr/Gau-86448.inp" -scrdir="/tmp/55556.mgr/"
 Entering Link 1 = /share/apps/gaussian/g16/l1.exe PID=     86449.
  
 Copyright (c) 1988,1990,1992,1993,1995,1998,2003,2009,2016,
            Gaussian, Inc.  All Rights Reserved.
  
 This is part of the Gaussian(R) 16 program.  It is based on
 the Gaussian(R) 09 system (copyright 2009, Gaussian, Inc.),
 the Gaussian(R) 03 system (copyright 2003, Gaussian, Inc.),
 the Gaussian(R) 98 system (copyright 1998, Gaussian, Inc.),
 the Gaussian(R) 94 system (copyright 1995, Gaussian, Inc.),
 the Gaussian 92(TM) system (copyright 1992, Gaussian, Inc.),
 the Gaussian 90(TM) system (copyright 1990, Gaussian, Inc.),
 the Gaussian 88(TM) system (copyright 1988, Gaussian, Inc.),
 the Gaussian 86(TM) system (copyright 1986, Carnegie Mellon
 University), and the Gaussian 82(TM) system (copyright 1983,
 Carnegie Mellon University). Gaussian is a federally registered
 trademark of Gaussian, Inc.
  
 This software contains proprietary and confidential information,
 including trade secrets, belonging to Gaussian, Inc.
  
 This software is provided under written license and may be
 used, copied, transmitted, or stored only in accord with that
 written license.
  
 The following legend is applicable only to US Government
 contracts under FAR:
  
                    RESTRICTED RIGHTS LEGEND
  
 Use, reproduction and disclosure by the US Government is
 subject to restrictions as set forth in subparagraphs (a)
 and (c) of the Commercial Computer Software - Restricted
 Rights clause in FAR 52.227-19.
  
 Gaussian, Inc.
 340 Quinnipiac St., Bldg. 40, Wallingford CT 06492
  
  
 ---------------------------------------------------------------
 Warning -- This program may not be used in any manner that
 competes with the business of Gaussian, Inc. or will provide
 assistance to any competitor of Gaussian, Inc.  The licensee
 of this program is prohibited from giving any competitor of
 Gaussian, Inc. access to this program.  By using this program,
 the user acknowledges that Gaussian, Inc. is engaged in the
 business of creating and licensing software in the field of
 computational chemistry and represents and warrants to the
 licensee that it is not a competitor of Gaussian, Inc. and that
 it will not use this program in any manner prohibited above.
 ---------------------------------------------------------------
  

 Cite this work as:
 Gaussian 16, Revision A.03,
 M. J. Frisch, G. W. Trucks, H. B. Schlegel, G. E. Scuseria, 
 M. A. Robb, J. R. Cheeseman, G. Scalmani, V. Barone, 
 G. A. Petersson, H. Nakatsuji, X. Li, M. Caricato, A. V. Marenich, 
 J. Bloino, B. G. Janesko, R. Gomperts, B. Mennucci, H. P. Hratchian, 
 J. V. Ortiz, A. F. Izmaylov, J. L. Sonnenberg, D. Williams-Young, 
 F. Ding, F. Lipparini, F. Egidi, J. Goings, B. Peng, A. Petrone, 
 T. Henderson, D. Ranasinghe, V. G. Zakrzewski, J. Gao, N. Rega, 
 G. Zheng, W. Liang, M. Hada, M. Ehara, K. Toyota, R. Fukuda, 
 J. Hasegawa, M. Ishida, T. Nakajima, Y. Honda, O. Kitao, H. Nakai, 
 T. Vreven, K. Throssell, J. A. Montgomery, Jr., J. E. Peralta, 
 F. Ogliaro, M. J. Bearpark, J. J. Heyd, E. N. Brothers, K. N. Kudin, 
 V. N. Staroverov, T. A. Keith, R. Kobayashi, J. Normand, 
 K. Raghavachari, A. P. Rendell, J. C. Burant, S. S. Iyengar, 
 J. Tomasi, M. Cossi, J. M. Millam, M. Klene, C. Adamo, R. Cammi, 
 J. W. Ochterski, R. L. Martin, K. Morokuma, O. Farkas, 
 J. B. Foresman, and D. J. Fox, Gaussian, Inc., Wallingford CT, 2016.
 
 ******************************************
 Gaussian 16:  ES64L-G16RevA.03 25-Dec-2016
                22-Sep-2023 
 ******************************************
 %nprocshared=2
 Will use up to    2 processors via shared memory.
 %mem=2GB
 ----------------------------------------------------------------------
 #p b3lyp/gen scrf=(cpcm,solvent=toluene) pop=hirshfeld empiricaldisper
 sion=gd3bj
 ----------------------------------------------------------------------
 1/38=1,172=1/1;
 2/12=2,17=6,18=5,40=1/2;
 3/5=7,11=2,25=1,30=1,70=2101,72=13,74=-5,124=41/1,2,3;
 4//1;
 5/5=2,38=5,53=13/2;
 6/7=2,8=2,9=2,10=2,28=1,79=1/1;
 99/5=1,9=1/99;
 Leave Link    1 at Fri Sep 22 16:35:11 2023, MaxMem=   268435456 cpu:               0.1 elap:               0.0
 (Enter /share/apps/gaussian/g16/l101.exe)
 ------------------------
 tmpdir/M2_conf_0_281.gjf
 ------------------------
 Symbolic Z-matrix:
 Charge =  0 Multiplicity = 1
 C                     0.        0.        0. 
 H                     1.0959    0.        0. 
 H                    -0.3862    0.       -1.02421 
 H                    -0.35329  -0.8916    0.5334 
 H                    -0.33945   0.88965   0.54411 
 
 ITRead=  0  0  0  0  0
 MicOpt= -1 -1 -1 -1 -1
 NAtoms=      5 NQM=        5 NQMF=       0 NMMI=      0 NMMIF=      0
                NMic=       0 NMicF=      0.
                    Isotopes and Nuclear Properties:
 (Nuclear quadrupole moments (NQMom) in fm**2, nuclear magnetic moments (NMagM)
  in nuclear magnetons)

  Atom         1           2           3           4           5
 IAtWgt=          12           1           1           1           1
 AtmWgt=  12.0000000   1.0078250   1.0078250   1.0078250   1.0078250
 NucSpn=           0           1           1           1           1
 AtZEff=  -0.0000000  -0.0000000  -0.0000000  -0.0000000  -0.0000000
 NQMom=    0.0000000   0.0000000   0.0000000   0.0000000   0.0000000
 NMagM=    0.0000000   2.7928460   2.7928460   2.7928460   2.7928460
 AtZNuc=   6.0000000   1.0000000   1.0000000   1.0000000   1.0000000
 Leave Link  101 at Fri Sep 22 16:35:11 2023, MaxMem=   268435456 cpu:               0.2 elap:               0.1
 (Enter /share/apps/gaussian/g16/l202.exe)
                          Input orientation:                          
 ---------------------------------------------------------------------
 Center     Atomic      Atomic             Coordinates (Angstroms)
 Number     Number       Type             X           Y           Z
 ---------------------------------------------------------------------
      1          6           0        0.000000    0.000000    0.000000
      2          1           0        1.095900    0.000000    0.000000
      3          1           0       -0.386200    0.000000   -1.024210
      4          1           0       -0.353290   -0.891600    0.533400
      5          1           0       -0.339450    0.889650    0.544110
 ---------------------------------------------------------------------
                    Distance matrix (angstroms):
                    1          2          3          4          5
     1  C    0.000000
     2  H    1.095900   0.000000
     3  H    1.094603   1.801562   0.000000
     4  H    1.097397   1.783148   1.795044   0.000000
     5  H    1.096704   1.774193   1.803688   1.781336   0.000000
 Stoichiometry    CH4
 Framework group  C1[X(CH4)]
 Deg. of freedom     9
 Full point group                 C1      NOp   1
 Largest Abelian subgroup         C1      NOp   1
 Largest concise Abelian subgroup C1      NOp   1
                         Standard orientation:                         
 ---------------------------------------------------------------------
 Center     Atomic      Atomic             Coordinates (Angstroms)
 Number     Number       Type             X           Y           Z
 ---------------------------------------------------------------------
      1          6           0        0.005335   -0.001664    0.000296
      2          1           0       -0.465329   -0.541267   -0.829343
      3          1           0        1.065161   -0.263654    0.079590
      4          1           0       -0.101858    1.076567   -0.173507
      5          1           0       -0.529987   -0.261661    0.921486
 ---------------------------------------------------------------------
 Rotational constants (GHZ):         158.5198209         155.9239858         155.1239513
 Leave Link  202 at Fri Sep 22 16:35:11 2023, MaxMem=   268435456 cpu:               0.0 elap:               0.0
 (Enter /share/apps/gaussian/g16/l301.exe)
 General basis read from cards:  (5D, 7F)
 Centers:       2      3      4      5
 S 3 1.00
     Exponent=  1.2251800000D+01 Coefficients=  2.3337100000D-02
     Exponent=  1.8687100000D+00 Coefficients=  1.5915000000D-01
     Exponent=  4.1820800000D-01 Coefficients=  5.0000000000D-01
 S 1 1.00
     Exponent=  1.0610000000D-01 Coefficients=  1.0000000000D+00
 P 1 1.00
     Exponent=  1.0000000000D+00 Coefficients=  1.0000000000D+00
 ****
 Centers:       1
 S 5 1.00
     Exponent=  1.2432000000D+03 Coefficients=  6.0336600000D-03
     Exponent=  1.8714500000D+02 Coefficients=  4.4957600000D-02
     Exponent=  4.2512600000D+01 Coefficients=  1.9790100000D-01
     Exponent=  1.1739300000D+01 Coefficients=  5.0000000000D-01
     Exponent=  3.5054800000D+00 Coefficients=  4.8036400000D-01
 S 2 1.00
     Exponent=  5.3908900000D+00 Coefficients= -7.0398000000D-02
     Exponent=  4.9334100000D-01 Coefficients=  5.0000000000D-01
 S 1 1.00
     Exponent=  1.4974100000D-01 Coefficients=  1.0000000000D+00
 P 3 1.00
     Exponent=  9.1805600000D+00 Coefficients=  4.3170100000D-02
     Exponent=  1.9365800000D+00 Coefficients=  2.2499900000D-01
     Exponent=  5.2629600000D-01 Coefficients=  5.0000000000D-01
 P 1 1.00
     Exponent=  1.3631900000D-01 Coefficients=  1.0000000000D+00
 D 1 1.00
     Exponent=  8.0000000000D-01 Coefficients=  1.0000000000D+00
 ****
 Ernie: Thresh=  0.10000D-02 Tol=  0.10000D-05 Strict=F.
 There are    35 symmetry adapted cartesian basis functions of A   symmetry.
 There are    34 symmetry adapted basis functions of A   symmetry.
    34 basis functions,    54 primitive gaussians,    35 cartesian basis functions
     5 alpha electrons        5 beta electrons
       nuclear repulsion energy        13.3602506860 Hartrees.
 IExCor=  402 DFT=T Ex+Corr=B3LYP ExCW=0 ScaHFX=  0.200000
 ScaDFX=  0.800000  0.720000  1.000000  0.810000 ScalE2=  1.000000  1.000000
 IRadAn=      5 IRanWt=     -1 IRanGd=            0 ICorTp=0 IEmpDi=141
 NAtoms=    5 NActive=    5 NUniq=    5 SFac= 1.00D+00 NAtFMM=   60 NAOKFM=F Big=F
 Integral buffers will be    131072 words long.
 Raffenetti 2 integral format.
 Two-electron integral symmetry is turned on.
 R6Disp:  Grimme-D3(BJ) Dispersion energy=       -0.0019129614 Hartrees.
 Nuclear repulsion after empirical dispersion term =       13.3583377246 Hartrees.
 ------------------------------------------------------------------------------
 Polarizable Continuum Model (PCM)
 =================================
 Model                : C-PCM.
 Atomic radii         : UFF (Universal Force Field).
 Polarization charges : Total charges.
 Charge compensation  : None.
 Solution method      : On-the-fly selection.
 Cavity type          : Scaled VdW (van der Waals Surface) (Alpha=1.100).
 Cavity algorithm     : GePol (No added spheres)
                        Default sphere list used, NSphG=    5.
                        Lebedev-Laikov grids with approx.  5.0 points / Ang**2.
                        Smoothing algorithm: York/Karplus (Gamma=1.0000).
                        Polarization charges: spherical gaussians, with
                                              point-specific exponents (IZeta= 3).
                        Self-potential: point-specific (ISelfS= 7).
                        Self-field    : sphere-specific E.n sum rule (ISelfD= 2).
 Solvent              : Toluene, Eps=   2.374100 Eps(inf)=   2.238315
 ------------------------------------------------------------------------------
 Spheres list:
 ISph  on   Nord     Re0    Alpha      Xe            Ye            Ze
    1   C      1    1.9255  1.100      0.005335     -0.001664      0.000296
    2   H      2    1.4430  1.100     -0.465329     -0.541267     -0.829343
    3   H      3    1.4430  1.100      1.065161     -0.263654      0.079590
    4   H      4    1.4430  1.100     -0.101858      1.076567     -0.173507
    5   H      5    1.4430  1.100     -0.529987     -0.261661      0.921486
 ------------------------------------------------------------------------------
 GePol: Number of generator spheres                  =       5
 GePol: Total number of spheres                      =       5
 GePol: Number of exposed spheres                    =       5 (100.00%)
 GePol: Number of points                             =     493
 GePol: Average weight of points                     =       0.14
 GePol: Minimum weight of points                     =   0.92D-11
 GePol: Maximum weight of points                     =    0.20577
 GePol: Number of points with low weight             =      21
 GePol: Fraction of low-weight points (<1% of avg)   =       4.26%
 GePol: Cavity surface area                          =     70.018 Ang**2
 GePol: Cavity volume                                =     51.652 Ang**3
 Leave Link  301 at Fri Sep 22 16:35:11 2023, MaxMem=   268435456 cpu:               0.2 elap:               0.1
 (Enter /share/apps/gaussian/g16/l302.exe)
 NPDir=0 NMtPBC=     1 NCelOv=     1 NCel=       1 NClECP=     1 NCelD=      1
         NCelK=      1 NCelE2=     1 NClLst=     1 CellRange=     0.0.
 One-electron integrals computed using PRISM.
 One-electron integral symmetry used in STVInt
 NBasis=    34 RedAO= T EigKep=  2.83D-02  NBF=    34
 NBsUse=    34 1.00D-06 EigRej= -1.00D+00 NBFU=    34
 Precomputing XC quadrature grid using
 IXCGrd= 4 IRadAn=           5 IRanWt=          -1 IRanGd=           0 AccXCQ= 0.00D+00.
 Generated NRdTot=       0 NPtTot=           0 NUsed=           0 NTot=          32
 NSgBfM=    35    35    35    35    35 MxSgAt=     5 MxSgA2=     5.
 Leave Link  302 at Fri Sep 22 16:35:11 2023, MaxMem=   268435456 cpu:               0.3 elap:               0.1
 (Enter /share/apps/gaussian/g16/l303.exe)
 DipDrv:  MaxL=1.
 Leave Link  303 at Fri Sep 22 16:35:11 2023, MaxMem=   268435456 cpu:               0.1 elap:               0.0
 (Enter /share/apps/gaussian/g16/l401.exe)
 ExpMin= 1.06D-01 ExpMax= 1.24D+03 ExpMxC= 1.87D+02 IAcc=3 IRadAn=         5 AccDes= 0.00D+00
 Harris functional with IExCor=  402 and IRadAn=       5 diagonalized for initial guess.
 HarFok:  IExCor=  402 AccDes= 0.00D+00 IRadAn=         5 IDoV= 1 UseB2=F ITyADJ=14
 ICtDFT=  3500011 ScaDFX=  1.000000  1.000000  1.000000  1.000000
 FoFCou: FMM=F IPFlag=           0 FMFlag=      100000 FMFlg1=           0
         NFxFlg=           0 DoJE=T BraDBF=F KetDBF=T FulRan=T
         wScrn=  0.000000 ICntrl=       500 IOpCl=  0 I1Cent=   200000004 NGrid=           0
         NMat0=    1 NMatS0=      1 NMatT0=    0 NMatD0=    1 NMtDS0=    0 NMtDT0=    0
 Petite list used in FoFCou.
 Harris En= -40.5524153423999    
 JPrj=0 DoOrth=F DoCkMO=F.
 Leave Link  401 at Fri Sep 22 16:35:12 2023, MaxMem=   268435456 cpu:               0.6 elap:               0.3
 (Enter /share/apps/gaussian/g16/l502.exe)
 Keep R1 ints in memory in canonical form, NReq=1903191.
 FoFCou: FMM=F IPFlag=           0 FMFlag=           0 FMFlg1=           0
         NFxFlg=           0 DoJE=F BraDBF=F KetDBF=F FulRan=T
         wScrn=  0.000000 ICntrl=       600 IOpCl=  0 I1Cent=           0 NGrid=           0
         NMat0=    1 NMatS0=    595 NMatT0=    0 NMatD0=    1 NMtDS0=    0 NMtDT0=    0
 Symmetry not used in FoFCou.
 Two-electron integral symmetry not used.
 Closed shell SCF:
 Using DIIS extrapolation, IDIIS=  1040.
 NGot=   268435456 LenX=   268254897 LenY=   268253231
 Requested convergence on RMS density matrix=1.00D-08 within 128 cycles.
 Requested convergence on MAX density matrix=1.00D-06.
 Requested convergence on             energy=1.00D-06.
 No special actions if energy rises.

 Cycle   1  Pass 1  IDiag  1:
 Inv3:  Mode=1 IEnd=      729147.
 Iteration    1 A*A^-1 deviation from unit magnitude is 2.89D-15 for    401.
 Iteration    1 A*A^-1 deviation from orthogonality  is 1.79D-15 for    443    202.
 Iteration    1 A^-1*A deviation from unit magnitude is 2.89D-15 for    401.
 Iteration    1 A^-1*A deviation from orthogonality  is 1.80D-15 for    481     69.
 E= -40.4262000979179    
 DIIS: error= 4.67D-02 at cycle   1 NSaved=   1.
 NSaved= 1 IEnMin= 1 EnMin= -40.4262000979179     IErMin= 1 ErrMin= 4.67D-02
 ErrMax= 4.67D-02  0.00D+00 EMaxC= 1.00D-01 BMatC= 7.83D-02 BMatP= 7.83D-02
 IDIUse=3 WtCom= 5.33D-01 WtEn= 4.67D-01
 Coeff-Com:  0.100D+01
 Coeff-En:   0.100D+01
 Coeff:      0.100D+01
 Gap=     0.360 Goal=   None    Shift=    0.000
 GapD=    0.360 DampG=1.000 DampE=0.500 DampFc=0.5000 IDamp=-1.
 Damping current iteration by 5.00D-01
 RMSDP=1.47D-02 MaxDP=1.50D-01              OVMax= 1.98D-01

 Cycle   2  Pass 1  IDiag  1:
 E= -40.4659409320349     Delta-E=       -0.039740834117 Rises=F Damp=T
 DIIS: error= 8.20D-03 at cycle   2 NSaved=   2.
 NSaved= 2 IEnMin= 2 EnMin= -40.4659409320349     IErMin= 2 ErrMin= 8.20D-03
 ErrMax= 8.20D-03  0.00D+00 EMaxC= 1.00D-01 BMatC= 1.25D-03 BMatP= 7.83D-02
 IDIUse=3 WtCom= 9.18D-01 WtEn= 8.20D-02
 Coeff-Com:  0.821D-01 0.918D+00
 Coeff-En:   0.135D+00 0.865D+00
 Coeff:      0.865D-01 0.914D+00
 Gap=     0.439 Goal=   None    Shift=    0.000
 RMSDP=1.36D-03 MaxDP=1.12D-02 DE=-3.97D-02 OVMax= 1.04D-01

 Cycle   3  Pass 1  IDiag  1:
 E= -40.5140752467363     Delta-E=       -0.048134314701 Rises=F Damp=F
 DIIS: error= 4.82D-04 at cycle   3 NSaved=   3.
 NSaved= 3 IEnMin= 3 EnMin= -40.5140752467363     IErMin= 3 ErrMin= 4.82D-04
 ErrMax= 4.82D-04  0.00D+00 EMaxC= 1.00D-01 BMatC= 9.65D-06 BMatP= 1.25D-03
 IDIUse=3 WtCom= 9.95D-01 WtEn= 4.82D-03
 Coeff-Com:  0.594D-02-0.514D-01 0.105D+01
 Coeff-En:   0.000D+00 0.000D+00 0.100D+01
 Coeff:      0.591D-02-0.511D-01 0.105D+01
 Gap=     0.447 Goal=   None    Shift=    0.000
 RMSDP=8.04D-05 MaxDP=7.76D-04 DE=-4.81D-02 OVMax= 8.83D-04

 Cycle   4  Pass 1  IDiag  1:
 E= -40.5140837696295     Delta-E=       -0.000008522893 Rises=F Damp=F
 DIIS: error= 5.66D-05 at cycle   4 NSaved=   4.
 NSaved= 4 IEnMin= 4 EnMin= -40.5140837696295     IErMin= 4 ErrMin= 5.66D-05
 ErrMax= 5.66D-05  0.00D+00 EMaxC= 1.00D-01 BMatC= 6.46D-08 BMatP= 9.65D-06
 IDIUse=1 WtCom= 1.00D+00 WtEn= 0.00D+00
 Coeff-Com:  0.146D-02-0.650D-02 0.148D+00 0.857D+00
 Coeff:      0.146D-02-0.650D-02 0.148D+00 0.857D+00
 Gap=     0.447 Goal=   None    Shift=    0.000
 RMSDP=8.32D-06 MaxDP=8.93D-05 DE=-8.52D-06 OVMax= 1.17D-04

 Cycle   5  Pass 1  IDiag  1:
 E= -40.5140838487536     Delta-E=       -0.000000079124 Rises=F Damp=F
 DIIS: error= 6.88D-06 at cycle   5 NSaved=   5.
 NSaved= 5 IEnMin= 5 EnMin= -40.5140838487536     IErMin= 5 ErrMin= 6.88D-06
 ErrMax= 6.88D-06  0.00D+00 EMaxC= 1.00D-01 BMatC= 1.22D-09 BMatP= 6.46D-08
 IDIUse=1 WtCom= 1.00D+00 WtEn= 0.00D+00
 Coeff-Com:  0.169D-03 0.568D-04 0.362D-02 0.141D+00 0.855D+00
 Coeff:      0.169D-03 0.568D-04 0.362D-02 0.141D+00 0.855D+00
 Gap=     0.447 Goal=   None    Shift=    0.000
 RMSDP=1.14D-06 MaxDP=1.13D-05 DE=-7.91D-08 OVMax= 1.67D-05

 Cycle   6  Pass 1  IDiag  1:
 E= -40.5140838501298     Delta-E=       -0.000000001376 Rises=F Damp=F
 DIIS: error= 9.00D-07 at cycle   6 NSaved=   6.
 NSaved= 6 IEnMin= 6 EnMin= -40.5140838501298     IErMin= 6 ErrMin= 9.00D-07
 ErrMax= 9.00D-07  0.00D+00 EMaxC= 1.00D-01 BMatC= 1.87D-11 BMatP= 1.22D-09
 IDIUse=1 WtCom= 1.00D+00 WtEn= 0.00D+00
 Coeff-Com: -0.117D-04 0.464D-04-0.120D-02-0.297D-03 0.101D+00 0.900D+00
 Coeff:     -0.117D-04 0.464D-04-0.120D-02-0.297D-03 0.101D+00 0.900D+00
 Gap=     0.447 Goal=   None    Shift=    0.000
 RMSDP=1.32D-07 MaxDP=9.93D-07 DE=-1.38D-09 OVMax= 1.88D-06

 Cycle   7  Pass 1  IDiag  1:
 E= -40.5140838501536     Delta-E=       -0.000000000024 Rises=F Damp=F
 DIIS: error= 1.64D-08 at cycle   7 NSaved=   7.
 NSaved= 7 IEnMin= 7 EnMin= -40.5140838501536     IErMin= 7 ErrMin= 1.64D-08
 ErrMax= 1.64D-08  0.00D+00 EMaxC= 1.00D-01 BMatC= 6.19D-15 BMatP= 1.87D-11
 IDIUse=1 WtCom= 1.00D+00 WtEn= 0.00D+00
 Coeff-Com:  0.116D-06-0.728D-06-0.123D-04 0.256D-03-0.734D-03-0.143D-01
 Coeff-Com:  0.101D+01
 Coeff:      0.116D-06-0.728D-06-0.123D-04 0.256D-03-0.734D-03-0.143D-01
 Coeff:      0.101D+01
 Gap=     0.447 Goal=   None    Shift=    0.000
 RMSDP=3.23D-09 MaxDP=4.69D-08 DE=-2.39D-11 OVMax= 3.27D-08

 Error on total polarization charges =  0.00446
 SCF Done:  E(RB3LYP) =  -40.5140838502     A.U. after    7 cycles
            NFock=  7  Conv=0.32D-08     -V/T= 2.0092
 KE= 4.014620940591D+01 PE=-1.198044828886D+02 EE= 2.578585190798D+01
 Leave Link  502 at Fri Sep 22 16:35:13 2023, MaxMem=   268435456 cpu:               3.9 elap:               2.0
 (Enter /share/apps/gaussian/g16/l601.exe)
 Copying SCF densities to generalized density rwf, IOpCl= 0 IROHF=0.

 **********************************************************************

            Population analysis using the SCF density.

 **********************************************************************

 Orbital symmetries:
       Occupied  (A) (A) (A) (A) (A)
       Virtual   (A) (A) (A) (A) (A) (A) (A) (A) (A) (A) (A) (A)
                 (A) (A) (A) (A) (A) (A) (A) (A) (A) (A) (A) (A)
                 (A) (A) (A) (A) (A)
 The electronic state is 1-A.
 Alpha  occ. eigenvalues --  -10.16264  -0.69370  -0.39658  -0.39156  -0.39046
 Alpha virt. eigenvalues --    0.05703   0.12567   0.12578   0.12610   0.37372
 Alpha virt. eigenvalues --    0.37529   0.38075   0.63739   0.63786   0.64074
 Alpha virt. eigenvalues --    0.67764   0.96142   1.28751   1.29071   1.85475
 Alpha virt. eigenvalues --    1.85784   1.86685   1.88005   1.89225   1.89549
 Alpha virt. eigenvalues --    2.40789   2.41015   2.43955   2.75503   2.76142
 Alpha virt. eigenvalues --    2.93228   3.19925   3.20636   3.21037
          Condensed to atoms (all electrons):
               1          2          3          4          5
     1  C    4.737305   0.403330   0.404177   0.403086   0.403184
     2  H    0.403330   0.573706  -0.020237  -0.021351  -0.022248
     3  H    0.404177  -0.020237   0.566349  -0.020958  -0.020062
     4  H    0.403086  -0.021351  -0.020958   0.574042  -0.021582
     5  H    0.403184  -0.022248  -0.020062  -0.021582   0.573917
 Mulliken charges:
               1
     1  C   -0.351083
     2  H    0.086799
     3  H    0.090730
     4  H    0.086763
     5  H    0.086790
 Sum of Mulliken charges =   0.00000
 Mulliken charges with hydrogens summed into heavy atoms:
               1
     1  C    0.000000
 Electronic spatial extent (au):  <R**2>=             36.0088
 Charge=              0.0000 electrons
 Dipole moment (field-independent basis, Debye):
    X=             -0.0207    Y=              0.0053    Z=             -0.0016  Tot=              0.0214
 Quadrupole moment (field-independent basis, Debye-Ang):
   XX=             -8.3722   YY=             -8.4766   ZZ=             -8.5006
   XY=             -0.0049   XZ=              0.0025   YZ=              0.0009
 Traceless Quadrupole moment (field-independent basis, Debye-Ang):
   XX=              0.0776   YY=             -0.0268   ZZ=             -0.0507
   XY=             -0.0049   XZ=              0.0025   YZ=              0.0009
 Octapole moment (field-independent basis, Debye-Ang**2):
  XXX=              0.6048  YYY=              0.6660  ZZZ=              0.1216  XYY=             -0.1525
  XXY=             -0.3119  XXZ=              0.1078  XZZ=             -0.4979  YZZ=             -0.3447
  YYZ=             -0.2345  XYZ=             -0.0541
 Hexadecapole moment (field-independent basis, Debye-Ang**3):
 XXXX=            -16.0534 YYYY=            -16.0071 ZZZZ=            -16.2340 XXXY=             -0.2538
 XXXZ=              0.0509 YYYX=             -0.0807 YYYZ=             -0.1101 ZZZX=             -0.1558
 ZZZY=              0.1090 XXYY=             -5.6728 XXZZ=             -5.4204 YYZZ=             -5.5307
 XXYZ=              0.0055 YYXZ=              0.1179 ZZXY=              0.3087
 N-N= 1.335833772459D+01 E-N=-1.198044827786D+02  KE= 4.014620940591D+01
 There are a total of      109428 grid points.
 ElSum from          density=       10.0000000023
 ElSum from atomic densities=        9.9999999708
 Hirshfeld populations at iteration   1 (CA, CB, DipXYZ):
               1          2          3          4          5
     1  C    3.060878   3.060878   0.003300  -0.001080   0.000159
     2  H    0.484990   0.484990  -0.062389  -0.067520  -0.103604
     3  H    0.484118   0.484118   0.136347  -0.032689   0.009839
     4  H    0.485021   0.485021  -0.015262   0.135642  -0.021689
     5  H    0.484995   0.484995  -0.070612  -0.032237   0.114567
       Tot   5.000000   5.000000  -0.008616   0.002115  -0.000728

 Dip from Atomic Chgs              0.000490  -0.000040   0.000095
         Total Dipole             -0.008126   0.002075  -0.000633

 Hirshfeld charges, spin densities, dipoles, and CM5 charges using IRadAn=      5:
              Q-H        S-H        Dx         Dy         Dz        Q-CM5   
     1  C   -0.121755   0.000000   0.003300  -0.001080   0.000159  -0.309976
     2  H    0.030021   0.000000  -0.062389  -0.067520  -0.103604   0.077105
     3  H    0.031765   0.000000   0.136347  -0.032689   0.009839   0.079000
     4  H    0.029959   0.000000  -0.015262   0.135642  -0.021689   0.076869
     5  H    0.030010   0.000000  -0.070612  -0.032237   0.114567   0.077001
       Tot  -0.000000   0.000000  -0.008616   0.002115  -0.000728  -0.000000
 Hirshfeld charges with hydrogens summed into heavy atoms:
              Q-H       Q-CM5   
     1  C   -0.000000  -0.000000
 
 EQQ= 0.000000000000E+00 EQD= 0.000000000000E+00 EDD=-0.997989594458E-03
 EQQ+QD+DD=-0.997989594458E-03
 
 No NMR shielding tensors so no spin-rotation constants.
 Leave Link  601 at Fri Sep 22 16:35:14 2023, MaxMem=   268435456 cpu:               0.5 elap:               0.2
 (Enter /share/apps/gaussian/g16/l9999.exe)
 1\1\GINC-NODE99\SP\RB3LYP\Gen\C1H4\YANZ\22-Sep-2023\0\\#p b3lyp/gen sc
 rf=(cpcm,solvent=toluene) pop=hirshfeld empiricaldispersion=gd3bj\\tmp
 dir/M2_conf_0_281.gjf\\0,1\C,0,0.,0.,0.\H,0,1.0959,0.,0.\H,0,-0.3862,0
 .,-1.02421\H,0,-0.35329,-0.8916,0.5334\H,0,-0.33945,0.88965,0.54411\\V
 ersion=ES64L-G16RevA.03\State=1-A\HF=-40.5140839\RMSD=3.229e-09\Dipole
 =0.0029474,-0.0000646,0.007877\Quadrupole=-0.0156042,-0.0250386,0.0406
 428,0.0145027,0.0317969,0.0103878\PG=C01 [X(C1H4)]\\@


 I HAVE NOT FAILED, I HAVE ONLY DISCOVERED 10,000
 WAYS THAT DIDN'T WORK.  -- THOMAS A. EDISON
 Job cpu time:       0 days  0 hours  0 minutes  5.9 seconds.
 Elapsed time:       0 days  0 hours  0 minutes  3.0 seconds.
 File lengths (MBytes):  RWF=      6 Int=      0 D2E=      0 Chk=      1 Scr=      1
 Normal termination of Gaussian 16 at Fri Sep 22 16:35:14 2023.
