 Entering Gaussian System, Link 0=g16
 Initial command:
 /share/apps/gaussian/g16/l1.exe "/tmp/55556.mgr/Gau-83908.inp" -scrdir="/tmp/55556.mgr/"
 Entering Link 1 = /share/apps/gaussian/g16/l1.exe PID=     83909.
  
 Copyright (c) 1988,1990,1992,1993,1995,1998,2003,2009,2016,
            Gaussian, Inc.  All Rights Reserved.
  
 This is part of the Gaussian(R) 16 program.  It is based on
 the Gaussian(R) 09 system (copyright 2009, Gaussian, Inc.),
 the Gaussian(R) 03 system (copyright 2003, Gaussian, Inc.),
 the Gaussian(R) 98 system (copyright 1998, Gaussian, Inc.),
 the Gaussian(R) 94 system (copyright 1995, Gaussian, Inc.),
 the Gaussian 92(TM) system (copyright 1992, Gaussian, Inc.),
 the Gaussian 90(TM) system (copyright 1990, Gaussian, Inc.),
 the Gaussian 88(TM) system (copyright 1988, Gaussian, Inc.),
 the Gaussian 86(TM) system (copyright 1986, Carnegie Mellon
 University), and the Gaussian 82(TM) system (copyright 1983,
 Carnegie Mellon University). Gaussian is a federally registered
 trademark of Gaussian, Inc.
  
 This software contains proprietary and confidential information,
 including trade secrets, belonging to Gaussian, Inc.
  
 This software is provided under written license and may be
 used, copied, transmitted, or stored only in accord with that
 written license.
  
 The following legend is applicable only to US Government
 contracts under FAR:
  
                    RESTRICTED RIGHTS LEGEND
  
 Use, reproduction and disclosure by the US Government is
 subject to restrictions as set forth in subparagraphs (a)
 and (c) of the Commercial Computer Software - Restricted
 Rights clause in FAR 52.227-19.
  
 Gaussian, Inc.
 340 Quinnipiac St., Bldg. 40, Wallingford CT 06492
  
  
 ---------------------------------------------------------------
 Warning -- This program may not be used in any manner that
 competes with the business of Gaussian, Inc. or will provide
 assistance to any competitor of Gaussian, Inc.  The licensee
 of this program is prohibited from giving any competitor of
 Gaussian, Inc. access to this program.  By using this program,
 the user acknowledges that Gaussian, Inc. is engaged in the
 business of creating and licensing software in the field of
 computational chemistry and represents and warrants to the
 licensee that it is not a competitor of Gaussian, Inc. and that
 it will not use this program in any manner prohibited above.
 ---------------------------------------------------------------
  

 Cite this work as:
 Gaussian 16, Revision A.03,
 M. J. Frisch, G. W. Trucks, H. B. Schlegel, G. E. Scuseria, 
 M. A. Robb, J. R. Cheeseman, G. Scalmani, V. Barone, 
 G. A. Petersson, H. Nakatsuji, X. Li, M. Caricato, A. V. Marenich, 
 J. Bloino, B. G. Janesko, R. Gomperts, B. Mennucci, H. P. Hratchian, 
 J. V. Ortiz, A. F. Izmaylov, J. L. Sonnenberg, D. Williams-Young, 
 F. Ding, F. Lipparini, F. Egidi, J. Goings, B. Peng, A. Petrone, 
 T. Henderson, D. Ranasinghe, V. G. Zakrzewski, J. Gao, N. Rega, 
 G. Zheng, W. Liang, M. Hada, M. Ehara, K. Toyota, R. Fukuda, 
 J. Hasegawa, M. Ishida, T. Nakajima, Y. Honda, O. Kitao, H. Nakai, 
 T. Vreven, K. Throssell, J. A. Montgomery, Jr., J. E. Peralta, 
 F. Ogliaro, M. J. Bearpark, J. J. Heyd, E. N. Brothers, K. N. Kudin, 
 V. N. Staroverov, T. A. Keith, R. Kobayashi, J. Normand, 
 K. Raghavachari, A. P. Rendell, J. C. Burant, S. S. Iyengar, 
 J. Tomasi, M. Cossi, J. M. Millam, M. Klene, C. Adamo, R. Cammi, 
 J. W. Ochterski, R. L. Martin, K. Morokuma, O. Farkas, 
 J. B. Foresman, and D. J. Fox, Gaussian, Inc., Wallingford CT, 2016.
 
 ******************************************
 Gaussian 16:  ES64L-G16RevA.03 25-Dec-2016
                22-Sep-2023 
 ******************************************
 %nprocshared=2
 Will use up to    2 processors via shared memory.
 %mem=2GB
 ----------------------------------------------------------------------
 #p b3lyp/gen scrf=(cpcm,solvent=toluene) pop=hirshfeld empiricaldisper
 sion=gd3bj
 ----------------------------------------------------------------------
 1/38=1,172=1/1;
 2/12=2,17=6,18=5,40=1/2;
 3/5=7,11=2,25=1,30=1,70=2101,72=13,74=-5,124=41/1,2,3;
 4//1;
 5/5=2,38=5,53=13/2;
 6/7=2,8=2,9=2,10=2,28=1,79=1/1;
 99/5=1,9=1/99;
 Leave Link    1 at Fri Sep 22 16:32:55 2023, MaxMem=   268435456 cpu:               0.1 elap:               0.0
 (Enter /share/apps/gaussian/g16/l101.exe)
 -----------------------
 tmpdir/M2_conf_0_50.gjf
 -----------------------
 Symbolic Z-matrix:
 Charge =  0 Multiplicity = 1
 C                     0.        0.        0. 
 N                     1.3571    0.        0. 
 C                     2.15357   0.        1.20424 
 H                    -0.4193    0.13217  -0.96365 
 O                    -0.69923  -0.1318    1.0875 
 H                     1.81639   0.06252  -0.91465 
 H                     1.62165  -0.60286   1.94175 
 H                     2.2532    1.03839   1.57534 
 H                     3.16117  -0.48785   1.03179 
 
 ITRead=  0  0  0  0  0  0  0  0  0
 MicOpt= -1 -1 -1 -1 -1 -1 -1 -1 -1
 NAtoms=      9 NQM=        9 NQMF=       0 NMMI=      0 NMMIF=      0
                NMic=       0 NMicF=      0.
                    Isotopes and Nuclear Properties:
 (Nuclear quadrupole moments (NQMom) in fm**2, nuclear magnetic moments (NMagM)
  in nuclear magnetons)

  Atom         1           2           3           4           5           6           7           8           9
 IAtWgt=          12          14          12           1          16           1           1           1           1
 AtmWgt=  12.0000000  14.0030740  12.0000000   1.0078250  15.9949146   1.0078250   1.0078250   1.0078250   1.0078250
 NucSpn=           0           2           0           1           0           1           1           1           1
 AtZEff=  -0.0000000  -0.0000000  -0.0000000  -0.0000000  -0.0000000  -0.0000000  -0.0000000  -0.0000000  -0.0000000
 NQMom=    0.0000000   2.0440000   0.0000000   0.0000000   0.0000000   0.0000000   0.0000000   0.0000000   0.0000000
 NMagM=    0.0000000   0.4037610   0.0000000   2.7928460   0.0000000   2.7928460   2.7928460   2.7928460   2.7928460
 AtZNuc=   6.0000000   7.0000000   6.0000000   1.0000000   8.0000000   1.0000000   1.0000000   1.0000000   1.0000000
 Leave Link  101 at Fri Sep 22 16:32:55 2023, MaxMem=   268435456 cpu:               0.2 elap:               0.1
 (Enter /share/apps/gaussian/g16/l202.exe)
                          Input orientation:                          
 ---------------------------------------------------------------------
 Center     Atomic      Atomic             Coordinates (Angstroms)
 Number     Number       Type             X           Y           Z
 ---------------------------------------------------------------------
      1          6           0        0.000000    0.000000    0.000000
      2          7           0        1.357100    0.000000    0.000000
      3          6           0        2.153570    0.000000    1.204240
      4          1           0       -0.419300    0.132170   -0.963650
      5          8           0       -0.699230   -0.131800    1.087500
      6          1           0        1.816390    0.062520   -0.914650
      7          1           0        1.621650   -0.602860    1.941750
      8          1           0        2.253200    1.038390    1.575340
      9          1           0        3.161170   -0.487850    1.031790
 ---------------------------------------------------------------------
                    Distance matrix (angstroms):
                    1          2          3          4          5
     1  C    0.000000
     2  N    1.357100   0.000000
     3  C    2.467399   1.443800   0.000000
     4  H    1.059199   2.025262   3.367028   0.000000
     5  O    1.299596   2.329919   2.858228   2.086925   0.000000
     6  H    2.034641   1.025398   2.146461   2.237311   3.220979
     7  H    2.600689   2.050322   1.091009   3.625892   2.517563
     8  H    2.938854   2.088766   1.107201   3.796045   3.213125
     9  H    3.360890   2.134773   1.132693   4.145597   3.877185
                    6          7          8          9
     6  H    0.000000
     7  H    2.939332   0.000000
     8  H    2.709829   1.796333   0.000000
     9  H    2.428985   1.792031   1.857220   0.000000
 Stoichiometry    C2H5NO
 Framework group  C1[X(C2H5NO)]
 Deg. of freedom    21
 Full point group                 C1      NOp   1
 Largest Abelian subgroup         C1      NOp   1
 Largest concise Abelian subgroup C1      NOp   1
                         Standard orientation:                         
 ---------------------------------------------------------------------
 Center     Atomic      Atomic             Coordinates (Angstroms)
 Number     Number       Type             X           Y           Z
 ---------------------------------------------------------------------
      1          6           0       -0.850171    0.488387    0.018399
      2          7           0        0.497313    0.642358   -0.029547
      3          6           0        1.427321   -0.460864    0.020877
      4          1           0       -1.374226    1.405041    0.102150
      5          8           0       -1.422398   -0.677901   -0.017386
      6          1           0        0.849363    1.605331   -0.043098
      7          1           0        0.967761   -1.293713   -0.513413
      8          1           0        1.597812   -0.745874    1.077096
      9          1           0        2.394379   -0.209215   -0.512477
 ---------------------------------------------------------------------
 Rotational constants (GHZ):          18.7634790           6.1263124           4.7698806
 Leave Link  202 at Fri Sep 22 16:32:55 2023, MaxMem=   268435456 cpu:               0.0 elap:               0.0
 (Enter /share/apps/gaussian/g16/l301.exe)
 General basis read from cards:  (5D, 7F)
 Centers:       4      6      7      8      9
 S 3 1.00
     Exponent=  1.2251800000D+01 Coefficients=  2.3337100000D-02
     Exponent=  1.8687100000D+00 Coefficients=  1.5915000000D-01
     Exponent=  4.1820800000D-01 Coefficients=  5.0000000000D-01
 S 1 1.00
     Exponent=  1.0610000000D-01 Coefficients=  1.0000000000D+00
 P 1 1.00
     Exponent=  1.0000000000D+00 Coefficients=  1.0000000000D+00
 ****
 Centers:       1      3
 S 5 1.00
     Exponent=  1.2432000000D+03 Coefficients=  6.0336600000D-03
     Exponent=  1.8714500000D+02 Coefficients=  4.4957600000D-02
     Exponent=  4.2512600000D+01 Coefficients=  1.9790100000D-01
     Exponent=  1.1739300000D+01 Coefficients=  5.0000000000D-01
     Exponent=  3.5054800000D+00 Coefficients=  4.8036400000D-01
 S 2 1.00
     Exponent=  5.3908900000D+00 Coefficients= -7.0398000000D-02
     Exponent=  4.9334100000D-01 Coefficients=  5.0000000000D-01
 S 1 1.00
     Exponent=  1.4974100000D-01 Coefficients=  1.0000000000D+00
 P 3 1.00
     Exponent=  9.1805600000D+00 Coefficients=  4.3170100000D-02
     Exponent=  1.9365800000D+00 Coefficients=  2.2499900000D-01
     Exponent=  5.2629600000D-01 Coefficients=  5.0000000000D-01
 P 1 1.00
     Exponent=  1.3631900000D-01 Coefficients=  1.0000000000D+00
 D 1 1.00
     Exponent=  8.0000000000D-01 Coefficients=  1.0000000000D+00
 ****
 Centers:       2
 S 5 1.00
     Exponent=  1.7263200000D+03 Coefficients=  5.9307700000D-03
     Exponent=  2.5982700000D+02 Coefficients=  4.4253900000D-02
     Exponent=  5.9033500000D+01 Coefficients=  1.9609600000D-01
     Exponent=  1.6350900000D+01 Coefficients=  5.0000000000D-01
     Exponent=  4.9108400000D+00 Coefficients=  4.8298700000D-01
 S 2 1.00
     Exponent=  7.7589400000D+00 Coefficients= -7.0335600000D-02
     Exponent=  7.0557300000D-01 Coefficients=  5.0000000000D-01
 S 1 1.00
     Exponent=  2.0928600000D-01 Coefficients=  1.0000000000D+00
 P 3 1.00
     Exponent=  1.3184400000D+01 Coefficients=  4.4074700000D-02
     Exponent=  2.8186000000D+00 Coefficients=  2.3047800000D-01
     Exponent=  7.6557100000D-01 Coefficients=  5.0000000000D-01
 P 1 1.00
     Exponent=  1.9594900000D-01 Coefficients=  1.0000000000D+00
 D 1 1.00
     Exponent=  9.0000000000D-01 Coefficients=  1.0000000000D+00
 ****
 Centers:       5
 S 5 1.00
     Exponent=  2.2886400000D+03 Coefficients=  5.8546800000D-03
     Exponent=  3.4441600000D+02 Coefficients=  4.3733300000D-02
     Exponent=  7.8253800000D+01 Coefficients=  1.9479600000D-01
     Exponent=  2.1719500000D+01 Coefficients=  5.0000000000D-01
     Exponent=  6.5590700000D+00 Coefficients=  4.8461400000D-01
 S 2 1.00
     Exponent=  1.0465600000D+01 Coefficients= -7.1334300000D-02
     Exponent=  9.6435100000D-01 Coefficients=  5.0000000000D-01
 S 1 1.00
     Exponent=  2.8512700000D-01 Coefficients=  1.0000000000D+00
 P 3 1.00
     Exponent=  1.7059000000D+01 Coefficients=  4.7443900000D-02
     Exponent=  3.6899900000D+00 Coefficients=  2.4268900000D-01
     Exponent=  9.9299600000D-01 Coefficients=  5.0000000000D-01
 P 1 1.00
     Exponent=  2.4492400000D-01 Coefficients=  1.0000000000D+00
 D 1 1.00
     Exponent=  1.0000000000D+00 Coefficients=  1.0000000000D+00
 ****
 Ernie: Thresh=  0.10000D-02 Tol=  0.10000D-05 Strict=F.
 There are    85 symmetry adapted cartesian basis functions of A   symmetry.
 There are    81 symmetry adapted basis functions of A   symmetry.
    81 basis functions,   139 primitive gaussians,    85 cartesian basis functions
    16 alpha electrons       16 beta electrons
       nuclear repulsion energy       119.7576257118 Hartrees.
 IExCor=  402 DFT=T Ex+Corr=B3LYP ExCW=0 ScaHFX=  0.200000
 ScaDFX=  0.800000  0.720000  1.000000  0.810000 ScalE2=  1.000000  1.000000
 IRadAn=      5 IRanWt=     -1 IRanGd=            0 ICorTp=0 IEmpDi=141
 NAtoms=    9 NActive=    9 NUniq=    9 SFac= 1.00D+00 NAtFMM=   60 NAOKFM=F Big=F
 Integral buffers will be    131072 words long.
 Raffenetti 2 integral format.
 Two-electron integral symmetry is turned on.
 R6Disp:  Grimme-D3(BJ) Dispersion energy=       -0.0085270670 Hartrees.
 Nuclear repulsion after empirical dispersion term =      119.7490986448 Hartrees.
 ------------------------------------------------------------------------------
 Polarizable Continuum Model (PCM)
 =================================
 Model                : C-PCM.
 Atomic radii         : UFF (Universal Force Field).
 Polarization charges : Total charges.
 Charge compensation  : None.
 Solution method      : On-the-fly selection.
 Cavity type          : Scaled VdW (van der Waals Surface) (Alpha=1.100).
 Cavity algorithm     : GePol (No added spheres)
                        Default sphere list used, NSphG=    9.
                        Lebedev-Laikov grids with approx.  5.0 points / Ang**2.
                        Smoothing algorithm: York/Karplus (Gamma=1.0000).
                        Polarization charges: spherical gaussians, with
                                              point-specific exponents (IZeta= 3).
                        Self-potential: point-specific (ISelfS= 7).
                        Self-field    : sphere-specific E.n sum rule (ISelfD= 2).
 Solvent              : Toluene, Eps=   2.374100 Eps(inf)=   2.238315
 ------------------------------------------------------------------------------
 Spheres list:
 ISph  on   Nord     Re0    Alpha      Xe            Ye            Ze
    1   C      1    1.9255  1.100     -0.850171      0.488387      0.018399
    2   N      2    1.8300  1.100      0.497313      0.642358     -0.029547
    3   C      3    1.9255  1.100      1.427321     -0.460864      0.020877
    4   H      4    1.4430  1.100     -1.374226      1.405041      0.102150
    5   O      5    1.7500  1.100     -1.422398     -0.677901     -0.017386
    6   H      6    1.4430  1.100      0.849363      1.605331     -0.043098
    7   H      7    1.4430  1.100      0.967761     -1.293713     -0.513413
    8   H      8    1.4430  1.100      1.597812     -0.745874      1.077096
    9   H      9    1.4430  1.100      2.394379     -0.209215     -0.512477
 ------------------------------------------------------------------------------
 GePol: Number of generator spheres                  =       9
 GePol: Total number of spheres                      =       9
 GePol: Number of exposed spheres                    =       9 (100.00%)
 GePol: Number of points                             =     877
 GePol: Average weight of points                     =       0.13
 GePol: Minimum weight of points                     =   0.26D-11
 GePol: Maximum weight of points                     =    0.20577
 GePol: Number of points with low weight             =      40
 GePol: Fraction of low-weight points (<1% of avg)   =       4.56%
 GePol: Cavity surface area                          =    117.819 Ang**2
 GePol: Cavity volume                                =    101.366 Ang**3
 Leave Link  301 at Fri Sep 22 16:32:55 2023, MaxMem=   268435456 cpu:               0.2 elap:               0.1
 (Enter /share/apps/gaussian/g16/l302.exe)
 NPDir=0 NMtPBC=     1 NCelOv=     1 NCel=       1 NClECP=     1 NCelD=      1
         NCelK=      1 NCelE2=     1 NClLst=     1 CellRange=     0.0.
 One-electron integrals computed using PRISM.
 One-electron integral symmetry used in STVInt
 NBasis=    81 RedAO= T EigKep=  9.50D-03  NBF=    81
 NBsUse=    81 1.00D-06 EigRej= -1.00D+00 NBFU=    81
 Precomputing XC quadrature grid using
 IXCGrd= 4 IRadAn=           5 IRanWt=          -1 IRanGd=           0 AccXCQ= 0.00D+00.
 Generated NRdTot=       0 NPtTot=           0 NUsed=           0 NTot=          32
 NSgBfM=    85    85    85    85    85 MxSgAt=     9 MxSgA2=     9.
 Leave Link  302 at Fri Sep 22 16:32:55 2023, MaxMem=   268435456 cpu:               0.3 elap:               0.2
 (Enter /share/apps/gaussian/g16/l303.exe)
 DipDrv:  MaxL=1.
 Leave Link  303 at Fri Sep 22 16:32:55 2023, MaxMem=   268435456 cpu:               0.1 elap:               0.0
 (Enter /share/apps/gaussian/g16/l401.exe)
 ExpMin= 1.06D-01 ExpMax= 2.29D+03 ExpMxC= 3.44D+02 IAcc=3 IRadAn=         5 AccDes= 0.00D+00
 Harris functional with IExCor=  402 and IRadAn=       5 diagonalized for initial guess.
 HarFok:  IExCor=  402 AccDes= 0.00D+00 IRadAn=         5 IDoV= 1 UseB2=F ITyADJ=14
 ICtDFT=  3500011 ScaDFX=  1.000000  1.000000  1.000000  1.000000
 FoFCou: FMM=F IPFlag=           0 FMFlag=      100000 FMFlg1=           0
         NFxFlg=           0 DoJE=T BraDBF=F KetDBF=T FulRan=T
         wScrn=  0.000000 ICntrl=       500 IOpCl=  0 I1Cent=   200000004 NGrid=           0
         NMat0=    1 NMatS0=      1 NMatT0=    0 NMatD0=    1 NMtDS0=    0 NMtDT0=    0
 Petite list used in FoFCou.
 Harris En= -209.183914884915    
 JPrj=0 DoOrth=F DoCkMO=F.
 Leave Link  401 at Fri Sep 22 16:32:56 2023, MaxMem=   268435456 cpu:               1.8 elap:               0.9
 (Enter /share/apps/gaussian/g16/l502.exe)
 Keep R1 ints in memory in canonical form, NReq=7334660.
 FoFCou: FMM=F IPFlag=           0 FMFlag=           0 FMFlg1=           0
         NFxFlg=           0 DoJE=F BraDBF=F KetDBF=F FulRan=T
         wScrn=  0.000000 ICntrl=       600 IOpCl=  0 I1Cent=           0 NGrid=           0
         NMat0=    1 NMatS0=   3321 NMatT0=    0 NMatD0=    1 NMtDS0=    0 NMtDT0=    0
 Symmetry not used in FoFCou.
 Two-electron integral symmetry not used.
 Closed shell SCF:
 Using DIIS extrapolation, IDIIS=  1040.
 NGot=   268435456 LenX=   262903234 LenY=   262895568
 Requested convergence on RMS density matrix=1.00D-08 within 128 cycles.
 Requested convergence on MAX density matrix=1.00D-06.
 Requested convergence on             energy=1.00D-06.
 No special actions if energy rises.

 Cycle   1  Pass 1  IDiag  1:
 Inv3:  Mode=1 IEnd=     2307387.
 Iteration    1 A*A^-1 deviation from unit magnitude is 3.11D-15 for    863.
 Iteration    1 A*A^-1 deviation from orthogonality  is 2.48D-15 for    859    423.
 Iteration    1 A^-1*A deviation from unit magnitude is 3.11D-15 for    863.
 Iteration    1 A^-1*A deviation from orthogonality  is 2.16D-15 for    837    390.
 E= -209.054017386972    
 DIIS: error= 3.34D-02 at cycle   1 NSaved=   1.
 NSaved= 1 IEnMin= 1 EnMin= -209.054017386972     IErMin= 1 ErrMin= 3.34D-02
 ErrMax= 3.34D-02  0.00D+00 EMaxC= 1.00D-01 BMatC= 1.37D-01 BMatP= 1.37D-01
 IDIUse=3 WtCom= 6.66D-01 WtEn= 3.34D-01
 Coeff-Com:  0.100D+01
 Coeff-En:   0.100D+01
 Coeff:      0.100D+01
 Gap=     0.226 Goal=   None    Shift=    0.000
 GapD=    0.226 DampG=1.000 DampE=0.500 DampFc=0.5000 IDamp=-1.
 Damping current iteration by 5.00D-01
 RMSDP=1.20D-02 MaxDP=2.48D-01              OVMax= 3.53D-01

 Cycle   2  Pass 1  IDiag  1:
 E= -209.057830304534     Delta-E=       -0.003812917562 Rises=F Damp=T
 DIIS: error= 1.99D-02 at cycle   2 NSaved=   2.
 NSaved= 2 IEnMin= 2 EnMin= -209.057830304534     IErMin= 2 ErrMin= 1.99D-02
 ErrMax= 1.99D-02  0.00D+00 EMaxC= 1.00D-01 BMatC= 4.11D-02 BMatP= 1.37D-01
 IDIUse=3 WtCom= 8.01D-01 WtEn= 1.99D-01
 Coeff-Com:  0.325D+00 0.675D+00
 Coeff-En:   0.487D+00 0.513D+00
 Coeff:      0.358D+00 0.642D+00
 Gap=     0.289 Goal=   None    Shift=    0.000
 RMSDP=3.63D-03 MaxDP=5.43D-02 DE=-3.81D-03 OVMax= 2.24D-01

 Cycle   3  Pass 1  IDiag  1:
 E= -209.157147605190     Delta-E=       -0.099317300657 Rises=F Damp=F
 DIIS: error= 1.52D-02 at cycle   3 NSaved=   3.
 NSaved= 3 IEnMin= 3 EnMin= -209.157147605190     IErMin= 3 ErrMin= 1.52D-02
 ErrMax= 1.52D-02  0.00D+00 EMaxC= 1.00D-01 BMatC= 1.83D-02 BMatP= 4.11D-02
 IDIUse=3 WtCom= 8.48D-01 WtEn= 1.52D-01
 Coeff-Com:  0.144D+00 0.401D+00 0.454D+00
 Coeff-En:   0.000D+00 0.000D+00 0.100D+01
 Coeff:      0.123D+00 0.340D+00 0.537D+00
 Gap=     0.265 Goal=   None    Shift=    0.000
 RMSDP=1.87D-03 MaxDP=4.31D-02 DE=-9.93D-02 OVMax= 7.50D-02

 Cycle   4  Pass 1  IDiag  1:
 E= -209.171155318724     Delta-E=       -0.014007713534 Rises=F Damp=F
 DIIS: error= 7.10D-03 at cycle   4 NSaved=   4.
 NSaved= 4 IEnMin= 4 EnMin= -209.171155318724     IErMin= 4 ErrMin= 7.10D-03
 ErrMax= 7.10D-03  0.00D+00 EMaxC= 1.00D-01 BMatC= 3.77D-03 BMatP= 1.83D-02
 IDIUse=3 WtCom= 9.29D-01 WtEn= 7.10D-02
 Coeff-Com:  0.404D-01 0.101D+00 0.323D+00 0.536D+00
 Coeff-En:   0.000D+00 0.000D+00 0.180D+00 0.820D+00
 Coeff:      0.376D-01 0.938D-01 0.313D+00 0.556D+00
 Gap=     0.257 Goal=   None    Shift=    0.000
 RMSDP=6.60D-04 MaxDP=1.81D-02 DE=-1.40D-02 OVMax= 2.37D-02

 Cycle   5  Pass 1  IDiag  1:
 E= -209.174226373288     Delta-E=       -0.003071054564 Rises=F Damp=F
 DIIS: error= 1.34D-03 at cycle   5 NSaved=   5.
 NSaved= 5 IEnMin= 5 EnMin= -209.174226373288     IErMin= 5 ErrMin= 1.34D-03
 ErrMax= 1.34D-03  0.00D+00 EMaxC= 1.00D-01 BMatC= 1.99D-04 BMatP= 3.77D-03
 IDIUse=3 WtCom= 9.87D-01 WtEn= 1.34D-02
 Coeff-Com:  0.664D-02 0.151D-01 0.118D+00 0.298D+00 0.563D+00
 Coeff-En:   0.000D+00 0.000D+00 0.000D+00 0.000D+00 0.100D+01
 Coeff:      0.655D-02 0.149D-01 0.116D+00 0.294D+00 0.568D+00
 Gap=     0.257 Goal=   None    Shift=    0.000
 RMSDP=1.54D-04 MaxDP=4.11D-03 DE=-3.07D-03 OVMax= 5.73D-03

 Cycle   6  Pass 1  IDiag  1:
 E= -209.174399557039     Delta-E=       -0.000173183751 Rises=F Damp=F
 DIIS: error= 2.54D-04 at cycle   6 NSaved=   6.
 NSaved= 6 IEnMin= 6 EnMin= -209.174399557039     IErMin= 6 ErrMin= 2.54D-04
 ErrMax= 2.54D-04  0.00D+00 EMaxC= 1.00D-01 BMatC= 8.89D-06 BMatP= 1.99D-04
 IDIUse=3 WtCom= 9.97D-01 WtEn= 2.54D-03
 Coeff-Com: -0.633D-03-0.337D-02 0.175D-01 0.588D-01 0.232D+00 0.695D+00
 Coeff-En:   0.000D+00 0.000D+00 0.000D+00 0.000D+00 0.000D+00 0.100D+01
 Coeff:     -0.632D-03-0.336D-02 0.174D-01 0.587D-01 0.232D+00 0.696D+00
 Gap=     0.257 Goal=   None    Shift=    0.000
 RMSDP=2.55D-05 MaxDP=5.75D-04 DE=-1.73D-04 OVMax= 5.38D-04

 Cycle   7  Pass 1  IDiag  1:
 E= -209.174406621459     Delta-E=       -0.000007064419 Rises=F Damp=F
 DIIS: error= 4.75D-05 at cycle   7 NSaved=   7.
 NSaved= 7 IEnMin= 7 EnMin= -209.174406621459     IErMin= 7 ErrMin= 4.75D-05
 ErrMax= 4.75D-05  0.00D+00 EMaxC= 1.00D-01 BMatC= 3.19D-07 BMatP= 8.89D-06
 IDIUse=1 WtCom= 1.00D+00 WtEn= 0.00D+00
 Coeff-Com: -0.169D-03-0.182D-02 0.525D-02 0.170D-01 0.881D-01 0.286D+00
 Coeff-Com:  0.605D+00
 Coeff:     -0.169D-03-0.182D-02 0.525D-02 0.170D-01 0.881D-01 0.286D+00
 Coeff:      0.605D+00
 Gap=     0.257 Goal=   None    Shift=    0.000
 RMSDP=7.06D-06 MaxDP=8.97D-05 DE=-7.06D-06 OVMax= 1.42D-04

 Cycle   8  Pass 1  IDiag  1:
 E= -209.174406891969     Delta-E=       -0.000000270510 Rises=F Damp=F
 DIIS: error= 1.55D-05 at cycle   8 NSaved=   8.
 NSaved= 8 IEnMin= 8 EnMin= -209.174406891969     IErMin= 8 ErrMin= 1.55D-05
 ErrMax= 1.55D-05  0.00D+00 EMaxC= 1.00D-01 BMatC= 3.48D-08 BMatP= 3.19D-07
 IDIUse=1 WtCom= 1.00D+00 WtEn= 0.00D+00
 Coeff-Com:  0.935D-04-0.451D-03 0.136D-03-0.781D-03 0.778D-02 0.216D-01
 Coeff-Com:  0.217D+00 0.755D+00
 Coeff:      0.935D-04-0.451D-03 0.136D-03-0.781D-03 0.778D-02 0.216D-01
 Coeff:      0.217D+00 0.755D+00
 Gap=     0.257 Goal=   None    Shift=    0.000
 RMSDP=1.87D-06 MaxDP=2.61D-05 DE=-2.71D-07 OVMax= 3.58D-05

 Cycle   9  Pass 1  IDiag  1:
 E= -209.174406921226     Delta-E=       -0.000000029257 Rises=F Damp=F
 DIIS: error= 2.63D-06 at cycle   9 NSaved=   9.
 NSaved= 9 IEnMin= 9 EnMin= -209.174406921226     IErMin= 9 ErrMin= 2.63D-06
 ErrMax= 2.63D-06  0.00D+00 EMaxC= 1.00D-01 BMatC= 7.35D-10 BMatP= 3.48D-08
 IDIUse=1 WtCom= 1.00D+00 WtEn= 0.00D+00
 Coeff-Com:  0.309D-04 0.485D-06-0.124D-03-0.764D-03-0.182D-02-0.971D-02
 Coeff-Com: -0.154D-03 0.850D-01 0.928D+00
 Coeff:      0.309D-04 0.485D-06-0.124D-03-0.764D-03-0.182D-02-0.971D-02
 Coeff:     -0.154D-03 0.850D-01 0.928D+00
 Gap=     0.257 Goal=   None    Shift=    0.000
 RMSDP=4.84D-07 MaxDP=7.88D-06 DE=-2.93D-08 OVMax= 1.08D-05

 Cycle  10  Pass 1  IDiag  1:
 E= -209.174406921912     Delta-E=       -0.000000000686 Rises=F Damp=F
 DIIS: error= 2.08D-07 at cycle  10 NSaved=  10.
 NSaved=10 IEnMin=10 EnMin= -209.174406921912     IErMin=10 ErrMin= 2.08D-07
 ErrMax= 2.08D-07  0.00D+00 EMaxC= 1.00D-01 BMatC= 4.27D-12 BMatP= 7.35D-10
 IDIUse=1 WtCom= 1.00D+00 WtEn= 0.00D+00
 Coeff-Com:  0.128D-05 0.698D-05-0.193D-04-0.889D-04-0.327D-03-0.167D-02
 Coeff-Com: -0.321D-02-0.343D-02 0.141D+00 0.868D+00
 Coeff:      0.128D-05 0.698D-05-0.193D-04-0.889D-04-0.327D-03-0.167D-02
 Coeff:     -0.321D-02-0.343D-02 0.141D+00 0.868D+00
 Gap=     0.257 Goal=   None    Shift=    0.000
 RMSDP=4.00D-08 MaxDP=6.06D-07 DE=-6.86D-10 OVMax= 1.49D-06

 Cycle  11  Pass 1  IDiag  1:
 E= -209.174406921919     Delta-E=       -0.000000000007 Rises=F Damp=F
 DIIS: error= 4.21D-08 at cycle  11 NSaved=  11.
 NSaved=11 IEnMin=11 EnMin= -209.174406921919     IErMin=11 ErrMin= 4.21D-08
 ErrMax= 4.21D-08  0.00D+00 EMaxC= 1.00D-01 BMatC= 3.57D-13 BMatP= 4.27D-12
 IDIUse=1 WtCom= 1.00D+00 WtEn= 0.00D+00
 Coeff-Com: -0.633D-06 0.124D-05 0.636D-06 0.341D-05-0.103D-04-0.341D-04
 Coeff-Com: -0.608D-03-0.367D-02-0.512D-02 0.158D+00 0.851D+00
 Coeff:     -0.633D-06 0.124D-05 0.636D-06 0.341D-05-0.103D-04-0.341D-04
 Coeff:     -0.608D-03-0.367D-02-0.512D-02 0.158D+00 0.851D+00
 Gap=     0.257 Goal=   None    Shift=    0.000
 RMSDP=7.67D-09 MaxDP=8.42D-08 DE=-7.39D-12 OVMax= 1.21D-07

 Error on total polarization charges =  0.00381
 SCF Done:  E(RB3LYP) =  -209.174406922     A.U. after   11 cycles
            NFock= 11  Conv=0.77D-08     -V/T= 2.0060
 KE= 2.079275521395D+02 PE=-7.286560365003D+02 EE= 1.918049787940D+02
 Leave Link  502 at Fri Sep 22 16:33:10 2023, MaxMem=   268435456 cpu:              26.7 elap:              13.5
 (Enter /share/apps/gaussian/g16/l601.exe)
 Copying SCF densities to generalized density rwf, IOpCl= 0 IROHF=0.

 **********************************************************************

            Population analysis using the SCF density.

 **********************************************************************

 Orbital symmetries:
       Occupied  (A) (A) (A) (A) (A) (A) (A) (A) (A) (A) (A) (A)
                 (A) (A) (A) (A)
       Virtual   (A) (A) (A) (A) (A) (A) (A) (A) (A) (A) (A) (A)
                 (A) (A) (A) (A) (A) (A) (A) (A) (A) (A) (A) (A)
                 (A) (A) (A) (A) (A) (A) (A) (A) (A) (A) (A) (A)
                 (A) (A) (A) (A) (A) (A) (A) (A) (A) (A) (A) (A)
                 (A) (A) (A) (A) (A) (A) (A) (A) (A) (A) (A) (A)
                 (A) (A) (A) (A) (A)
 The electronic state is 1-A.
 Alpha  occ. eigenvalues --  -19.09095 -14.35836 -10.28170 -10.21893  -1.00983
 Alpha  occ. eigenvalues --   -0.92711  -0.72614  -0.60372  -0.55263  -0.46776
 Alpha  occ. eigenvalues --   -0.45956  -0.41297  -0.39224  -0.37092  -0.26421
 Alpha  occ. eigenvalues --   -0.25947
 Alpha virt. eigenvalues --   -0.00216   0.03452   0.06622   0.09900   0.10770
 Alpha virt. eigenvalues --    0.12570   0.17632   0.21351   0.30666   0.38473
 Alpha virt. eigenvalues --    0.39533   0.44044   0.45833   0.48189   0.53411
 Alpha virt. eigenvalues --    0.57954   0.60350   0.61503   0.64043   0.69060
 Alpha virt. eigenvalues --    0.70157   0.73356   0.80654   0.81051   0.91881
 Alpha virt. eigenvalues --    0.98886   1.02095   1.16218   1.27888   1.32708
 Alpha virt. eigenvalues --    1.36382   1.48436   1.55631   1.69393   1.76748
 Alpha virt. eigenvalues --    1.79588   1.83312   1.84357   1.86689   1.88548
 Alpha virt. eigenvalues --    1.90682   1.95987   2.06150   2.07738   2.15097
 Alpha virt. eigenvalues --    2.16705   2.22229   2.29954   2.31296   2.36459
 Alpha virt. eigenvalues --    2.42418   2.48147   2.52453   2.61032   2.67948
 Alpha virt. eigenvalues --    2.77884   2.82971   2.83469   2.97037   3.02893
 Alpha virt. eigenvalues --    3.14080   3.19622   3.20825   3.28311   3.55237
          Condensed to atoms (all electrons):
               1          2          3          4          5          6
     1  C    4.308209   0.352653  -0.039712   0.411865   0.587733  -0.014867
     2  N    0.352653   6.762662   0.255352  -0.075351  -0.097512   0.360633
     3  C   -0.039712   0.255352   4.618267   0.007239  -0.002859  -0.029584
     4  H    0.411865  -0.075351   0.007239   0.631966  -0.041422  -0.005548
     5  O    0.587733  -0.097512  -0.002859  -0.041422   8.048048   0.003864
     6  H   -0.014867   0.360633  -0.029584  -0.005548   0.003864   0.485615
     7  H   -0.008351  -0.035094   0.401104   0.001779   0.020726   0.006953
     8  H   -0.002402  -0.042729   0.413301  -0.000377   0.000515   0.001245
     9  H    0.006316  -0.022189   0.394298  -0.000134   0.000600  -0.007988
               7          8          9
     1  C   -0.008351  -0.002402   0.006316
     2  N   -0.035094  -0.042729  -0.022189
     3  C    0.401104   0.413301   0.394298
     4  H    0.001779  -0.000377  -0.000134
     5  O    0.020726   0.000515   0.000600
     6  H    0.006953   0.001245  -0.007988
     7  H    0.552280  -0.026368  -0.020794
     8  H   -0.026368   0.570259  -0.023310
     9  H   -0.020794  -0.023310   0.563529
 Mulliken charges:
               1
     1  C    0.398557
     2  N   -0.458424
     3  C   -0.017406
     4  H    0.069984
     5  O   -0.519692
     6  H    0.199677
     7  H    0.107765
     8  H    0.109867
     9  H    0.109672
 Sum of Mulliken charges =  -0.00000
 Mulliken charges with hydrogens summed into heavy atoms:
               1
     1  C    0.468541
     2  N   -0.258747
     3  C    0.309897
     5  O   -0.519692
 Electronic spatial extent (au):  <R**2>=            283.4477
 Charge=             -0.0000 electrons
 Dipole moment (field-independent basis, Debye):
    X=              3.7151    Y=              3.4498    Z=              0.0959  Tot=              5.0707
 Quadrupole moment (field-independent basis, Debye-Ang):
   XX=            -26.2130   YY=            -22.0887   ZZ=            -24.9788
   XY=             -3.3641   XZ=             -0.3452   YZ=              0.0475
 Traceless Quadrupole moment (field-independent basis, Debye-Ang):
   XX=             -1.7862   YY=              2.3382   ZZ=             -0.5520
   XY=             -3.3641   XZ=             -0.3452   YZ=              0.0475
 Octapole moment (field-independent basis, Debye-Ang**2):
  XXX=              9.7192  YYY=              7.9517  ZZZ=              0.6376  XYY=              2.5014
  XXY=              6.8008  XXZ=             -0.7306  XZZ=             -0.2704  YZZ=             -0.6833
  YYZ=             -0.2930  XYZ=             -0.3389
 Hexadecapole moment (field-independent basis, Debye-Ang**3):
 XXXX=           -242.5087 YYYY=            -81.0835 ZZZZ=            -30.9946 XXXY=             -4.6193
 XXXZ=             -3.6210 YYYX=              4.1737 YYYZ=              0.5842 ZZZX=              0.8617
 ZZZY=             -0.4018 XXYY=            -52.8153 XXZZ=            -44.1437 YYZZ=            -21.0011
 XXYZ=             -0.3295 YYXZ=             -0.3923 ZZXY=              0.0818
 N-N= 1.197490986448D+02 E-N=-7.286560349286D+02  KE= 2.079275521395D+02
 There are a total of      200122 grid points.
 ElSum from          density=       32.0000027319
 ElSum from atomic densities=       32.0000047999
 Hirshfeld populations at iteration   1 (CA, CB, DipXYZ):
               1          2          3          4          5
     1  C    2.934796   2.934796   0.028989   0.068421   0.005895
     2  N    3.531364   3.531364   0.047069  -0.014452   0.013712
     3  C    3.009637   3.009637  -0.004191   0.044594   0.001620
     4  H    0.472510   0.472510  -0.070847   0.134846   0.013406
     5  O    4.182680   4.182680   0.118872   0.157048   0.001871
     6  H    0.432025   0.432025   0.071473   0.183346  -0.001963
     7  H    0.480562   0.480562  -0.023499  -0.115065  -0.073649
     8  H    0.480493   0.480493   0.025059  -0.044676   0.132589
     9  H    0.475935   0.475935   0.124992   0.024802  -0.069653
       Tot  16.000001  16.000001   0.317917   0.438864   0.023828

 Dip from Atomic Chgs              1.143718   0.918388   0.013900
         Total Dipole              1.461635   1.357252   0.037728

 Hirshfeld charges, spin densities, dipoles, and CM5 charges using IRadAn=      5:
              Q-H        S-H        Dx         Dy         Dz        Q-CM5   
     1  C    0.130409   0.000000   0.028989   0.068421   0.005895   0.173413
     2  N   -0.062728   0.000000   0.047069  -0.014452   0.013712  -0.425057
     3  C   -0.019273   0.000000  -0.004191   0.044594   0.001620  -0.100883
     4  H    0.054981   0.000000  -0.070847   0.134846   0.013406   0.131886
     5  O   -0.365360   0.000000   0.118872   0.157048   0.001871  -0.407387
     6  H    0.135951   0.000000   0.071473   0.183346  -0.001963   0.321389
     7  H    0.038875   0.000000  -0.023499  -0.115065  -0.073649   0.105210
     8  H    0.039013   0.000000   0.025059  -0.044676   0.132589   0.098653
     9  H    0.048131   0.000000   0.124992   0.024802  -0.069653   0.102772
       Tot  -0.000003   0.000000   0.317917   0.438864   0.023828  -0.000003
 Hirshfeld charges with hydrogens summed into heavy atoms:
              Q-H       Q-CM5   
     1  C    0.185389   0.305300
     2  N    0.073222  -0.103668
     3  C    0.106746   0.205752
     5  O   -0.365360  -0.407387
 
 EQQ= 0.000000000000E+00 EQD= 0.000000000000E+00 EDD= 0.170740989344E-02
 EQQ+QD+DD= 0.170740989344E-02
 
 No NMR shielding tensors so no spin-rotation constants.
 Leave Link  601 at Fri Sep 22 16:33:11 2023, MaxMem=   268435456 cpu:               1.4 elap:               0.7
 (Enter /share/apps/gaussian/g16/l9999.exe)
 1\1\GINC-NODE99\SP\RB3LYP\Gen\C2H5N1O1\YANZ\22-Sep-2023\0\\#p b3lyp/ge
 n scrf=(cpcm,solvent=toluene) pop=hirshfeld empiricaldispersion=gd3bj\
 \tmpdir/M2_conf_0_50.gjf\\0,1\C,0,0.,0.,0.\N,0,1.3571,0.,0.\C,0,2.1535
 7,0.,1.20424\H,0,-0.4193,0.13217,-0.96365\O,0,-0.69923,-0.1318,1.0875\
 H,0,1.81639,0.06252,-0.91465\H,0,1.62165,-0.60286,1.94175\H,0,2.2532,1
 .03839,1.57534\H,0,3.16117,-0.48785,1.03179\\Version=ES64L-G16RevA.03\
 State=1-A\HF=-209.1744069\RMSD=7.667e-09\Dipole=1.603934,0.171446,-1.1
 738546\Quadrupole=-1.8331485,-0.4196963,2.2528448,-0.4371845,2.067615,
 -0.1658484\PG=C01 [X(C2H5N1O1)]\\@


 "MATHEMATICS IS THE ART OF GIVING THE SAME NAME
 TO DIFFERENT THINGS."
                    - H. POINCARE
 Job cpu time:       0 days  0 hours  0 minutes 31.1 seconds.
 Elapsed time:       0 days  0 hours  0 minutes 15.7 seconds.
 File lengths (MBytes):  RWF=     13 Int=      0 D2E=      0 Chk=      2 Scr=      1
 Normal termination of Gaussian 16 at Fri Sep 22 16:33:11 2023.
