 Entering Gaussian System, Link 0=g16
 Initial command:
 /share/apps/gaussian/g16/l1.exe "/tmp/55556.mgr/Gau-85499.inp" -scrdir="/tmp/55556.mgr/"
 Entering Link 1 = /share/apps/gaussian/g16/l1.exe PID=     85500.
  
 Copyright (c) 1988,1990,1992,1993,1995,1998,2003,2009,2016,
            Gaussian, Inc.  All Rights Reserved.
  
 This is part of the Gaussian(R) 16 program.  It is based on
 the Gaussian(R) 09 system (copyright 2009, Gaussian, Inc.),
 the Gaussian(R) 03 system (copyright 2003, Gaussian, Inc.),
 the Gaussian(R) 98 system (copyright 1998, Gaussian, Inc.),
 the Gaussian(R) 94 system (copyright 1995, Gaussian, Inc.),
 the Gaussian 92(TM) system (copyright 1992, Gaussian, Inc.),
 the Gaussian 90(TM) system (copyright 1990, Gaussian, Inc.),
 the Gaussian 88(TM) system (copyright 1988, Gaussian, Inc.),
 the Gaussian 86(TM) system (copyright 1986, Carnegie Mellon
 University), and the Gaussian 82(TM) system (copyright 1983,
 Carnegie Mellon University). Gaussian is a federally registered
 trademark of Gaussian, Inc.
  
 This software contains proprietary and confidential information,
 including trade secrets, belonging to Gaussian, Inc.
  
 This software is provided under written license and may be
 used, copied, transmitted, or stored only in accord with that
 written license.
  
 The following legend is applicable only to US Government
 contracts under FAR:
  
                    RESTRICTED RIGHTS LEGEND
  
 Use, reproduction and disclosure by the US Government is
 subject to restrictions as set forth in subparagraphs (a)
 and (c) of the Commercial Computer Software - Restricted
 Rights clause in FAR 52.227-19.
  
 Gaussian, Inc.
 340 Quinnipiac St., Bldg. 40, Wallingford CT 06492
  
  
 ---------------------------------------------------------------
 Warning -- This program may not be used in any manner that
 competes with the business of Gaussian, Inc. or will provide
 assistance to any competitor of Gaussian, Inc.  The licensee
 of this program is prohibited from giving any competitor of
 Gaussian, Inc. access to this program.  By using this program,
 the user acknowledges that Gaussian, Inc. is engaged in the
 business of creating and licensing software in the field of
 computational chemistry and represents and warrants to the
 licensee that it is not a competitor of Gaussian, Inc. and that
 it will not use this program in any manner prohibited above.
 ---------------------------------------------------------------
  

 Cite this work as:
 Gaussian 16, Revision A.03,
 M. J. Frisch, G. W. Trucks, H. B. Schlegel, G. E. Scuseria, 
 M. A. Robb, J. R. Cheeseman, G. Scalmani, V. Barone, 
 G. A. Petersson, H. Nakatsuji, X. Li, M. Caricato, A. V. Marenich, 
 J. Bloino, B. G. Janesko, R. Gomperts, B. Mennucci, H. P. Hratchian, 
 J. V. Ortiz, A. F. Izmaylov, J. L. Sonnenberg, D. Williams-Young, 
 F. Ding, F. Lipparini, F. Egidi, J. Goings, B. Peng, A. Petrone, 
 T. Henderson, D. Ranasinghe, V. G. Zakrzewski, J. Gao, N. Rega, 
 G. Zheng, W. Liang, M. Hada, M. Ehara, K. Toyota, R. Fukuda, 
 J. Hasegawa, M. Ishida, T. Nakajima, Y. Honda, O. Kitao, H. Nakai, 
 T. Vreven, K. Throssell, J. A. Montgomery, Jr., J. E. Peralta, 
 F. Ogliaro, M. J. Bearpark, J. J. Heyd, E. N. Brothers, K. N. Kudin, 
 V. N. Staroverov, T. A. Keith, R. Kobayashi, J. Normand, 
 K. Raghavachari, A. P. Rendell, J. C. Burant, S. S. Iyengar, 
 J. Tomasi, M. Cossi, J. M. Millam, M. Klene, C. Adamo, R. Cammi, 
 J. W. Ochterski, R. L. Martin, K. Morokuma, O. Farkas, 
 J. B. Foresman, and D. J. Fox, Gaussian, Inc., Wallingford CT, 2016.
 
 ******************************************
 Gaussian 16:  ES64L-G16RevA.03 25-Dec-2016
                22-Sep-2023 
 ******************************************
 %nprocshared=2
 Will use up to    2 processors via shared memory.
 %mem=2GB
 ----------------------------------------------------------------------
 #p b3lyp/gen scrf=(cpcm,solvent=toluene) pop=hirshfeld empiricaldisper
 sion=gd3bj
 ----------------------------------------------------------------------
 1/38=1,172=1/1;
 2/12=2,17=6,18=5,40=1/2;
 3/5=7,11=2,25=1,30=1,70=2101,72=13,74=-5,124=41/1,2,3;
 4//1;
 5/5=2,38=5,53=13/2;
 6/7=2,8=2,9=2,10=2,28=1,79=1/1;
 99/5=1,9=1/99;
 Leave Link    1 at Fri Sep 22 16:34:12 2023, MaxMem=   268435456 cpu:               0.1 elap:               0.0
 (Enter /share/apps/gaussian/g16/l101.exe)
 ------------------------
 tmpdir/M2_conf_0_225.gjf
 ------------------------
 Symbolic Z-matrix:
 Charge =  0 Multiplicity = 1
 C                     0.        0.        0. 
 C                     1.4215    0.        0. 
 H                     1.95712   0.        0.94863 
 H                    -0.49055  -0.05138  -0.91037 
 H                    -0.5551    0.0341    0.86398 
 H                     1.93271  -0.02218  -0.85288 
 
 ITRead=  0  0  0  0  0  0
 MicOpt= -1 -1 -1 -1 -1 -1
 NAtoms=      6 NQM=        6 NQMF=       0 NMMI=      0 NMMIF=      0
                NMic=       0 NMicF=      0.
                    Isotopes and Nuclear Properties:
 (Nuclear quadrupole moments (NQMom) in fm**2, nuclear magnetic moments (NMagM)
  in nuclear magnetons)

  Atom         1           2           3           4           5           6
 IAtWgt=          12          12           1           1           1           1
 AtmWgt=  12.0000000  12.0000000   1.0078250   1.0078250   1.0078250   1.0078250
 NucSpn=           0           0           1           1           1           1
 AtZEff=  -0.0000000  -0.0000000  -0.0000000  -0.0000000  -0.0000000  -0.0000000
 NQMom=    0.0000000   0.0000000   0.0000000   0.0000000   0.0000000   0.0000000
 NMagM=    0.0000000   0.0000000   2.7928460   2.7928460   2.7928460   2.7928460
 AtZNuc=   6.0000000   6.0000000   1.0000000   1.0000000   1.0000000   1.0000000
 Leave Link  101 at Fri Sep 22 16:34:12 2023, MaxMem=   268435456 cpu:               0.2 elap:               0.1
 (Enter /share/apps/gaussian/g16/l202.exe)
                          Input orientation:                          
 ---------------------------------------------------------------------
 Center     Atomic      Atomic             Coordinates (Angstroms)
 Number     Number       Type             X           Y           Z
 ---------------------------------------------------------------------
      1          6           0        0.000000    0.000000    0.000000
      2          6           0        1.421500    0.000000    0.000000
      3          1           0        1.957120    0.000000    0.948630
      4          1           0       -0.490550   -0.051380   -0.910370
      5          1           0       -0.555100    0.034100    0.863980
      6          1           0        1.932710   -0.022180   -0.852880
 ---------------------------------------------------------------------
                    Distance matrix (angstroms):
                    1          2          3          4          5
     1  C    0.000000
     2  C    1.421500   0.000000
     3  H    2.174906   1.089398   0.000000
     4  H    1.035400   2.118336   3.074022   0.000000
     5  H    1.027502   2.157446   2.513877   1.777580   0.000000
     6  H    2.112644   0.994601   1.801812   2.424118   3.023239
                    6
     6  H    0.000000
 Stoichiometry    C2H4
 Framework group  C1[X(C2H4)]
 Deg. of freedom    12
 Full point group                 C1      NOp   1
 Largest Abelian subgroup         C1      NOp   1
 Largest concise Abelian subgroup C1      NOp   1
                         Standard orientation:                         
 ---------------------------------------------------------------------
 Center     Atomic      Atomic             Coordinates (Angstroms)
 Number     Number       Type             X           Y           Z
 ---------------------------------------------------------------------
      1          6           0       -0.710786    0.008090   -0.001813
      2          6           0        0.710540   -0.014108   -0.003301
      3          1           0        1.260931    0.925621    0.024405
      4          1           0       -1.215485   -0.895635    0.022931
      5          1           0       -1.252325    0.881266   -0.009574
      6          1           0        1.208361   -0.875149   -0.007078
 ---------------------------------------------------------------------
 Rotational constants (GHZ):         156.4421786          27.6669801          23.5124084
 Leave Link  202 at Fri Sep 22 16:34:12 2023, MaxMem=   268435456 cpu:               0.0 elap:               0.0
 (Enter /share/apps/gaussian/g16/l301.exe)
 General basis read from cards:  (5D, 7F)
 Centers:       3      4      5      6
 S 3 1.00
     Exponent=  1.2251800000D+01 Coefficients=  2.3337100000D-02
     Exponent=  1.8687100000D+00 Coefficients=  1.5915000000D-01
     Exponent=  4.1820800000D-01 Coefficients=  5.0000000000D-01
 S 1 1.00
     Exponent=  1.0610000000D-01 Coefficients=  1.0000000000D+00
 P 1 1.00
     Exponent=  1.0000000000D+00 Coefficients=  1.0000000000D+00
 ****
 Centers:       1      2
 S 5 1.00
     Exponent=  1.2432000000D+03 Coefficients=  6.0336600000D-03
     Exponent=  1.8714500000D+02 Coefficients=  4.4957600000D-02
     Exponent=  4.2512600000D+01 Coefficients=  1.9790100000D-01
     Exponent=  1.1739300000D+01 Coefficients=  5.0000000000D-01
     Exponent=  3.5054800000D+00 Coefficients=  4.8036400000D-01
 S 2 1.00
     Exponent=  5.3908900000D+00 Coefficients= -7.0398000000D-02
     Exponent=  4.9334100000D-01 Coefficients=  5.0000000000D-01
 S 1 1.00
     Exponent=  1.4974100000D-01 Coefficients=  1.0000000000D+00
 P 3 1.00
     Exponent=  9.1805600000D+00 Coefficients=  4.3170100000D-02
     Exponent=  1.9365800000D+00 Coefficients=  2.2499900000D-01
     Exponent=  5.2629600000D-01 Coefficients=  5.0000000000D-01
 P 1 1.00
     Exponent=  1.3631900000D-01 Coefficients=  1.0000000000D+00
 D 1 1.00
     Exponent=  8.0000000000D-01 Coefficients=  1.0000000000D+00
 ****
 Ernie: Thresh=  0.10000D-02 Tol=  0.10000D-05 Strict=F.
 There are    50 symmetry adapted cartesian basis functions of A   symmetry.
 There are    48 symmetry adapted basis functions of A   symmetry.
    48 basis functions,    80 primitive gaussians,    50 cartesian basis functions
     8 alpha electrons        8 beta electrons
       nuclear repulsion energy        32.9656430826 Hartrees.
 IExCor=  402 DFT=T Ex+Corr=B3LYP ExCW=0 ScaHFX=  0.200000
 ScaDFX=  0.800000  0.720000  1.000000  0.810000 ScalE2=  1.000000  1.000000
 IRadAn=      5 IRanWt=     -1 IRanGd=            0 ICorTp=0 IEmpDi=141
 NAtoms=    6 NActive=    6 NUniq=    6 SFac= 1.00D+00 NAtFMM=   60 NAOKFM=F Big=F
 Integral buffers will be    131072 words long.
 Raffenetti 2 integral format.
 Two-electron integral symmetry is turned on.
 R6Disp:  Grimme-D3(BJ) Dispersion energy=       -0.0039417681 Hartrees.
 Nuclear repulsion after empirical dispersion term =       32.9617013145 Hartrees.
 ------------------------------------------------------------------------------
 Polarizable Continuum Model (PCM)
 =================================
 Model                : C-PCM.
 Atomic radii         : UFF (Universal Force Field).
 Polarization charges : Total charges.
 Charge compensation  : None.
 Solution method      : On-the-fly selection.
 Cavity type          : Scaled VdW (van der Waals Surface) (Alpha=1.100).
 Cavity algorithm     : GePol (No added spheres)
                        Default sphere list used, NSphG=    6.
                        Lebedev-Laikov grids with approx.  5.0 points / Ang**2.
                        Smoothing algorithm: York/Karplus (Gamma=1.0000).
                        Polarization charges: spherical gaussians, with
                                              point-specific exponents (IZeta= 3).
                        Self-potential: point-specific (ISelfS= 7).
                        Self-field    : sphere-specific E.n sum rule (ISelfD= 2).
 Solvent              : Toluene, Eps=   2.374100 Eps(inf)=   2.238315
 ------------------------------------------------------------------------------
 Spheres list:
 ISph  on   Nord     Re0    Alpha      Xe            Ye            Ze
    1   C      1    1.9255  1.100     -0.710786      0.008090     -0.001813
    2   C      2    1.9255  1.100      0.710540     -0.014108     -0.003301
    3   H      3    1.4430  1.100      1.260931      0.925621      0.024405
    4   H      4    1.4430  1.100     -1.215485     -0.895635      0.022931
    5   H      5    1.4430  1.100     -1.252325      0.881266     -0.009574
    6   H      6    1.4430  1.100      1.208361     -0.875149     -0.007078
 ------------------------------------------------------------------------------
 GePol: Number of generator spheres                  =       6
 GePol: Total number of spheres                      =       6
 GePol: Number of exposed spheres                    =       6 (100.00%)
 GePol: Number of points                             =     625
 GePol: Average weight of points                     =       0.14
 GePol: Minimum weight of points                     =   0.56D-09
 GePol: Maximum weight of points                     =    0.20577
 GePol: Number of points with low weight             =      31
 GePol: Fraction of low-weight points (<1% of avg)   =       4.96%
 GePol: Cavity surface area                          =     86.573 Ang**2
 GePol: Cavity volume                                =     69.022 Ang**3
 Leave Link  301 at Fri Sep 22 16:34:12 2023, MaxMem=   268435456 cpu:               0.2 elap:               0.1
 (Enter /share/apps/gaussian/g16/l302.exe)
 NPDir=0 NMtPBC=     1 NCelOv=     1 NCel=       1 NClECP=     1 NCelD=      1
         NCelK=      1 NCelE2=     1 NClLst=     1 CellRange=     0.0.
 One-electron integrals computed using PRISM.
 One-electron integral symmetry used in STVInt
 NBasis=    48 RedAO= T EigKep=  8.26D-03  NBF=    48
 NBsUse=    48 1.00D-06 EigRej= -1.00D+00 NBFU=    48
 Precomputing XC quadrature grid using
 IXCGrd= 4 IRadAn=           5 IRanWt=          -1 IRanGd=           0 AccXCQ= 0.00D+00.
 Generated NRdTot=       0 NPtTot=           0 NUsed=           0 NTot=          32
 NSgBfM=    50    50    50    50    50 MxSgAt=     6 MxSgA2=     6.
 Leave Link  302 at Fri Sep 22 16:34:12 2023, MaxMem=   268435456 cpu:               0.3 elap:               0.1
 (Enter /share/apps/gaussian/g16/l303.exe)
 DipDrv:  MaxL=1.
 Leave Link  303 at Fri Sep 22 16:34:13 2023, MaxMem=   268435456 cpu:               0.1 elap:               0.0
 (Enter /share/apps/gaussian/g16/l401.exe)
 ExpMin= 1.06D-01 ExpMax= 1.24D+03 ExpMxC= 1.87D+02 IAcc=3 IRadAn=         5 AccDes= 0.00D+00
 Harris functional with IExCor=  402 and IRadAn=       5 diagonalized for initial guess.
 HarFok:  IExCor=  402 AccDes= 0.00D+00 IRadAn=         5 IDoV= 1 UseB2=F ITyADJ=14
 ICtDFT=  3500011 ScaDFX=  1.000000  1.000000  1.000000  1.000000
 FoFCou: FMM=F IPFlag=           0 FMFlag=      100000 FMFlg1=           0
         NFxFlg=           0 DoJE=T BraDBF=F KetDBF=T FulRan=T
         wScrn=  0.000000 ICntrl=       500 IOpCl=  0 I1Cent=   200000004 NGrid=           0
         NMat0=    1 NMatS0=      1 NMatT0=    0 NMatD0=    1 NMtDS0=    0 NMtDT0=    0
 Petite list used in FoFCou.
 Harris En= -78.5952749071528    
 JPrj=0 DoOrth=F DoCkMO=F.
 Leave Link  401 at Fri Sep 22 16:34:13 2023, MaxMem=   268435456 cpu:               0.9 elap:               0.4
 (Enter /share/apps/gaussian/g16/l502.exe)
 Keep R1 ints in memory in canonical form, NReq=2435556.
 FoFCou: FMM=F IPFlag=           0 FMFlag=           0 FMFlg1=           0
         NFxFlg=           0 DoJE=F BraDBF=F KetDBF=F FulRan=T
         wScrn=  0.000000 ICntrl=       600 IOpCl=  0 I1Cent=           0 NGrid=           0
         NMat0=    1 NMatS0=   1176 NMatT0=    0 NMatD0=    1 NMtDS0=    0 NMtDT0=    0
 Symmetry not used in FoFCou.
 Two-electron integral symmetry not used.
 Closed shell SCF:
 Using DIIS extrapolation, IDIIS=  1040.
 NGot=   268435456 LenX=   267737362 LenY=   267734421
 Requested convergence on RMS density matrix=1.00D-08 within 128 cycles.
 Requested convergence on MAX density matrix=1.00D-06.
 Requested convergence on             energy=1.00D-06.
 No special actions if energy rises.

 Cycle   1  Pass 1  IDiag  1:
 Inv3:  Mode=1 IEnd=     1171875.
 Iteration    1 A*A^-1 deviation from unit magnitude is 2.89D-15 for    611.
 Iteration    1 A*A^-1 deviation from orthogonality  is 1.18D-15 for    366     91.
 Iteration    1 A^-1*A deviation from unit magnitude is 2.89D-15 for    611.
 Iteration    1 A^-1*A deviation from orthogonality  is 1.56D-15 for    527    170.
 E= -78.4855317693013    
 DIIS: error= 4.55D-02 at cycle   1 NSaved=   1.
 NSaved= 1 IEnMin= 1 EnMin= -78.4855317693013     IErMin= 1 ErrMin= 4.55D-02
 ErrMax= 4.55D-02  0.00D+00 EMaxC= 1.00D-01 BMatC= 6.06D-02 BMatP= 6.06D-02
 IDIUse=3 WtCom= 5.45D-01 WtEn= 4.55D-01
 Coeff-Com:  0.100D+01
 Coeff-En:   0.100D+01
 Coeff:      0.100D+01
 Gap=     0.246 Goal=   None    Shift=    0.000
 GapD=    0.246 DampG=1.000 DampE=0.500 DampFc=0.5000 IDamp=-1.
 Damping current iteration by 5.00D-01
 RMSDP=9.23D-03 MaxDP=1.09D-01              OVMax= 1.65D-01

 Cycle   2  Pass 1  IDiag  1:
 E= -78.5235555776610     Delta-E=       -0.038023808360 Rises=F Damp=T
 DIIS: error= 4.43D-03 at cycle   2 NSaved=   2.
 NSaved= 2 IEnMin= 2 EnMin= -78.5235555776610     IErMin= 2 ErrMin= 4.43D-03
 ErrMax= 4.43D-03  0.00D+00 EMaxC= 1.00D-01 BMatC= 1.23D-03 BMatP= 6.06D-02
 IDIUse=3 WtCom= 9.56D-01 WtEn= 4.43D-02
 Coeff-Com:  0.719D-02 0.993D+00
 Coeff-En:   0.000D+00 0.100D+01
 Coeff:      0.687D-02 0.993D+00
 Gap=     0.250 Goal=   None    Shift=    0.000
 RMSDP=1.51D-03 MaxDP=1.48D-02 DE=-3.80D-02 OVMax= 7.46D-02

 Cycle   3  Pass 1  IDiag  1:
 E= -78.5626468794598     Delta-E=       -0.039091301799 Rises=F Damp=F
 DIIS: error= 1.15D-03 at cycle   3 NSaved=   3.
 NSaved= 3 IEnMin= 3 EnMin= -78.5626468794598     IErMin= 3 ErrMin= 1.15D-03
 ErrMax= 1.15D-03  0.00D+00 EMaxC= 1.00D-01 BMatC= 5.37D-05 BMatP= 1.23D-03
 IDIUse=3 WtCom= 9.89D-01 WtEn= 1.15D-02
 Coeff-Com: -0.651D-02 0.114D+00 0.892D+00
 Coeff-En:   0.000D+00 0.000D+00 0.100D+01
 Coeff:     -0.643D-02 0.113D+00 0.893D+00
 Gap=     0.246 Goal=   None    Shift=    0.000
 RMSDP=1.96D-04 MaxDP=2.77D-03 DE=-3.91D-02 OVMax= 5.51D-03

 Cycle   4  Pass 1  IDiag  1:
 E= -78.5626686998566     Delta-E=       -0.000021820397 Rises=F Damp=F
 DIIS: error= 8.93D-04 at cycle   4 NSaved=   4.
 NSaved= 4 IEnMin= 4 EnMin= -78.5626686998566     IErMin= 4 ErrMin= 8.93D-04
 ErrMax= 8.93D-04  0.00D+00 EMaxC= 1.00D-01 BMatC= 2.87D-05 BMatP= 5.37D-05
 IDIUse=3 WtCom= 9.91D-01 WtEn= 8.93D-03
 Coeff-Com: -0.320D-02 0.348D-01 0.439D+00 0.529D+00
 Coeff-En:   0.000D+00 0.000D+00 0.335D+00 0.665D+00
 Coeff:     -0.317D-02 0.345D-01 0.438D+00 0.530D+00
 Gap=     0.246 Goal=   None    Shift=    0.000
 RMSDP=1.34D-04 MaxDP=2.49D-03 DE=-2.18D-05 OVMax= 5.11D-03

 Cycle   5  Pass 1  IDiag  1:
 E= -78.5626901002696     Delta-E=       -0.000021400413 Rises=F Damp=F
 DIIS: error= 4.87D-04 at cycle   5 NSaved=   5.
 NSaved= 5 IEnMin= 5 EnMin= -78.5626901002696     IErMin= 5 ErrMin= 4.87D-04
 ErrMax= 4.87D-04  0.00D+00 EMaxC= 1.00D-01 BMatC= 8.97D-06 BMatP= 2.87D-05
 IDIUse=3 WtCom= 9.95D-01 WtEn= 4.87D-03
 Coeff-Com: -0.832D-03-0.199D-03 0.111D+00 0.363D+00 0.527D+00
 Coeff-En:   0.000D+00 0.000D+00 0.000D+00 0.280D+00 0.720D+00
 Coeff:     -0.828D-03-0.198D-03 0.111D+00 0.362D+00 0.528D+00
 Gap=     0.247 Goal=   None    Shift=    0.000
 RMSDP=4.97D-05 MaxDP=9.23D-04 DE=-2.14D-05 OVMax= 1.88D-03

 Cycle   6  Pass 1  IDiag  1:
 E= -78.5626999022375     Delta-E=       -0.000009801968 Rises=F Damp=F
 DIIS: error= 7.38D-06 at cycle   6 NSaved=   6.
 NSaved= 6 IEnMin= 6 EnMin= -78.5626999022375     IErMin= 6 ErrMin= 7.38D-06
 ErrMax= 7.38D-06  0.00D+00 EMaxC= 1.00D-01 BMatC= 2.37D-09 BMatP= 8.97D-06
 IDIUse=1 WtCom= 1.00D+00 WtEn= 0.00D+00
 Coeff-Com: -0.134D-05-0.610D-03 0.324D-03 0.106D-01 0.293D-01 0.960D+00
 Coeff:     -0.134D-05-0.610D-03 0.324D-03 0.106D-01 0.293D-01 0.960D+00
 Gap=     0.247 Goal=   None    Shift=    0.000
 RMSDP=1.35D-06 MaxDP=1.78D-05 DE=-9.80D-06 OVMax= 2.71D-05

 Cycle   7  Pass 1  IDiag  1:
 E= -78.5626999051028     Delta-E=       -0.000000002865 Rises=F Damp=F
 DIIS: error= 8.06D-07 at cycle   7 NSaved=   7.
 NSaved= 7 IEnMin= 7 EnMin= -78.5626999051028     IErMin= 7 ErrMin= 8.06D-07
 ErrMax= 8.06D-07  0.00D+00 EMaxC= 1.00D-01 BMatC= 2.09D-11 BMatP= 2.37D-09
 IDIUse=1 WtCom= 1.00D+00 WtEn= 0.00D+00
 Coeff-Com:  0.126D-04-0.330D-04-0.648D-03-0.185D-02-0.191D-02 0.481D-01
 Coeff-Com:  0.956D+00
 Coeff:      0.126D-04-0.330D-04-0.648D-03-0.185D-02-0.191D-02 0.481D-01
 Coeff:      0.956D+00
 Gap=     0.247 Goal=   None    Shift=    0.000
 RMSDP=1.50D-07 MaxDP=1.27D-06 DE=-2.87D-09 OVMax= 2.45D-06

 Cycle   8  Pass 1  IDiag  1:
 E= -78.5626999051297     Delta-E=       -0.000000000027 Rises=F Damp=F
 DIIS: error= 2.28D-07 at cycle   8 NSaved=   8.
 NSaved= 8 IEnMin= 8 EnMin= -78.5626999051297     IErMin= 8 ErrMin= 2.28D-07
 ErrMax= 2.28D-07  0.00D+00 EMaxC= 1.00D-01 BMatC= 1.86D-12 BMatP= 2.09D-11
 IDIUse=1 WtCom= 1.00D+00 WtEn= 0.00D+00
 Coeff-Com:  0.346D-05 0.864D-05-0.170D-03-0.782D-03-0.123D-02-0.136D-01
 Coeff-Com:  0.244D+00 0.772D+00
 Coeff:      0.346D-05 0.864D-05-0.170D-03-0.782D-03-0.123D-02-0.136D-01
 Coeff:      0.244D+00 0.772D+00
 Gap=     0.247 Goal=   None    Shift=    0.000
 RMSDP=3.00D-08 MaxDP=3.19D-07 DE=-2.69D-11 OVMax= 4.82D-07

 Cycle   9  Pass 1  IDiag  1:
 E= -78.5626999051320     Delta-E=       -0.000000000002 Rises=F Damp=F
 DIIS: error= 1.56D-08 at cycle   9 NSaved=   9.
 NSaved= 9 IEnMin= 9 EnMin= -78.5626999051320     IErMin= 9 ErrMin= 1.56D-08
 ErrMax= 1.56D-08  0.00D+00 EMaxC= 1.00D-01 BMatC= 1.05D-14 BMatP= 1.86D-12
 IDIUse=1 WtCom= 1.00D+00 WtEn= 0.00D+00
 Coeff-Com: -0.154D-06 0.619D-06 0.302D-05-0.108D-04-0.412D-05-0.108D-02
 Coeff-Com: -0.122D-02 0.176D-01 0.985D+00
 Coeff:     -0.154D-06 0.619D-06 0.302D-05-0.108D-04-0.412D-05-0.108D-02
 Coeff:     -0.122D-02 0.176D-01 0.985D+00
 Gap=     0.247 Goal=   None    Shift=    0.000
 RMSDP=2.49D-09 MaxDP=3.47D-08 DE=-2.22D-12 OVMax= 5.33D-08

 Error on total polarization charges =  0.00512
 SCF Done:  E(RB3LYP) =  -78.5626999051     A.U. after    9 cycles
            NFock=  9  Conv=0.25D-08     -V/T= 2.0057
 KE= 7.812086121334D+01 PE=-2.474687115250D+02 EE= 5.782344909198D+01
 Leave Link  502 at Fri Sep 22 16:34:17 2023, MaxMem=   268435456 cpu:               8.0 elap:               4.0
 (Enter /share/apps/gaussian/g16/l601.exe)
 Copying SCF densities to generalized density rwf, IOpCl= 0 IROHF=0.

 **********************************************************************

            Population analysis using the SCF density.

 **********************************************************************

 Orbital symmetries:
       Occupied  (A) (A) (A) (A) (A) (A) (A) (A)
       Virtual   (A) (A) (A) (A) (A) (A) (A) (A) (A) (A) (A) (A)
                 (A) (A) (A) (A) (A) (A) (A) (A) (A) (A) (A) (A)
                 (A) (A) (A) (A) (A) (A) (A) (A) (A) (A) (A) (A)
                 (A) (A) (A) (A)
 The electronic state is 1-A.
 Alpha  occ. eigenvalues --  -10.18348 -10.18150  -0.75531  -0.60529  -0.47961
 Alpha  occ. eigenvalues --   -0.41742  -0.38217  -0.26786
 Alpha virt. eigenvalues --   -0.02127   0.06839   0.09817   0.10385   0.16096
 Alpha virt. eigenvalues --    0.26592   0.36553   0.41526   0.44065   0.50847
 Alpha virt. eigenvalues --    0.52944   0.54156   0.64767   0.65960   0.70380
 Alpha virt. eigenvalues --    0.77405   0.92577   1.01902   1.33462   1.34379
 Alpha virt. eigenvalues --    1.42482   1.71572   1.79626   1.84986   1.89185
 Alpha virt. eigenvalues --    1.91848   1.95639   2.03785   2.20767   2.33660
 Alpha virt. eigenvalues --    2.37242   2.50002   2.57342   2.60653   2.64824
 Alpha virt. eigenvalues --    2.90365   3.14816   3.28183   3.49948   3.60520
          Condensed to atoms (all electrons):
               1          2          3          4          5          6
     1  C    4.745112   0.677046  -0.031838   0.403363   0.406633  -0.025545
     2  C    0.677046   4.752903   0.396695  -0.029468  -0.026944   0.409380
     3  H   -0.031838   0.396695   0.576275   0.009337  -0.013064  -0.043503
     4  H    0.403363  -0.029468   0.009337   0.587499  -0.044849  -0.014950
     5  H    0.406633  -0.026944  -0.013064  -0.044849   0.581689   0.009599
     6  H   -0.025545   0.409380  -0.043503  -0.014950   0.009599   0.592744
 Mulliken charges:
               1
     1  C   -0.174770
     2  C   -0.179611
     3  H    0.106100
     4  H    0.089069
     5  H    0.086936
     6  H    0.072276
 Sum of Mulliken charges =   0.00000
 Mulliken charges with hydrogens summed into heavy atoms:
               1
     1  C    0.001235
     2  C   -0.001235
 Electronic spatial extent (au):  <R**2>=             84.7796
 Charge=              0.0000 electrons
 Dipole moment (field-independent basis, Debye):
    X=             -0.0140    Y=             -0.0216    Z=              0.0329  Tot=              0.0418
 Quadrupole moment (field-independent basis, Debye-Ang):
   XX=            -12.1996   YY=            -12.3483   ZZ=            -15.7030
   XY=             -0.0771   XZ=              0.0069   YZ=             -0.0004
 Traceless Quadrupole moment (field-independent basis, Debye-Ang):
   XX=              1.2174   YY=              1.0687   ZZ=             -2.2861
   XY=             -0.0771   XZ=              0.0069   YZ=             -0.0004
 Octapole moment (field-independent basis, Debye-Ang**2):
  XXX=             -0.1442  YYY=             -0.1224  ZZZ=              0.0599  XYY=              0.0217
  XXY=              0.0942  XXZ=              0.0748  XZZ=             -0.0383  YZZ=             -0.0830
  YYZ=              0.0461  XYZ=              0.0873
 Hexadecapole moment (field-independent basis, Debye-Ang**3):
 XXXX=            -71.4971 YYYY=            -25.6667 ZZZZ=            -19.1775 XXXY=             -0.4414
 XXXZ=              0.0210 YYYX=             -0.1454 YYYZ=             -0.0011 ZZZX=              0.0041
 ZZZY=             -0.0034 XXYY=            -13.9867 XXZZ=            -15.9710 YYZZ=             -8.0330
 XXYZ=              0.0025 YYXZ=              0.0118 ZZXY=             -0.1325
 N-N= 3.296170131454D+01 E-N=-2.474687112344D+02  KE= 7.812086121334D+01
 There are a total of      132844 grid points.
 ElSum from          density=       15.9999975159
 ElSum from atomic densities=       15.9999984861
 Hirshfeld populations at iteration   1 (CA, CB, DipXYZ):
               1          2          3          4          5
     1  C    3.035876   3.035876  -0.104249   0.004786   0.000785
     2  C    3.035496   3.035496   0.101733  -0.015079   0.000627
     3  H    0.481429   0.481429   0.080081   0.129014   0.005507
     4  H    0.482964   0.482964  -0.078706  -0.133447   0.005047
     5  H    0.481402   0.481402  -0.090059   0.130332  -0.001225
     6  H    0.482832   0.482832   0.084007  -0.137368  -0.000538
       Tot   7.999999   7.999999  -0.007192  -0.021762   0.010204

 Dip from Atomic Chgs              0.001677   0.013256   0.002746
         Total Dipole             -0.005515  -0.008506   0.012949

 Hirshfeld charges, spin densities, dipoles, and CM5 charges using IRadAn=      5:
              Q-H        S-H        Dx         Dy         Dz        Q-CM5   
     1  C   -0.071752   0.000000  -0.104249   0.004786   0.000785  -0.189272
     2  C   -0.070992   0.000000   0.101733  -0.015079   0.000627  -0.186493
     3  H    0.037142   0.000000   0.080081   0.129014   0.005507   0.088253
     4  H    0.034072   0.000000  -0.078706  -0.133447   0.005047   0.092511
     5  H    0.037196   0.000000  -0.090059   0.130332  -0.001225   0.096368
     6  H    0.034336   0.000000   0.084007  -0.137368  -0.000538   0.098636
       Tot   0.000002   0.000000  -0.007192  -0.021762   0.010204   0.000002
 Hirshfeld charges with hydrogens summed into heavy atoms:
              Q-H       Q-CM5   
     1  C   -0.000485  -0.000394
     2  C    0.000487   0.000396
 
 EQQ= 0.000000000000E+00 EQD= 0.000000000000E+00 EDD= 0.302508938480E-02
 EQQ+QD+DD= 0.302508938480E-02
 
 No NMR shielding tensors so no spin-rotation constants.
 Leave Link  601 at Fri Sep 22 16:34:17 2023, MaxMem=   268435456 cpu:               0.7 elap:               0.4
 (Enter /share/apps/gaussian/g16/l9999.exe)
 1\1\GINC-NODE99\SP\RB3LYP\Gen\C2H4\YANZ\22-Sep-2023\0\\#p b3lyp/gen sc
 rf=(cpcm,solvent=toluene) pop=hirshfeld empiricaldispersion=gd3bj\\tmp
 dir/M2_conf_0_225.gjf\\0,1\C,0,0.,0.,0.\C,0,1.4215,0.,0.\H,0,1.95712,0
 .,0.94863\H,0,-0.49055,-0.05138,-0.91037\H,0,-0.5551,0.0341,0.86398\H,
 0,1.93271,-0.02218,-0.85288\\Version=ES64L-G16RevA.03\State=1-A\HF=-78
 .5626999\RMSD=2.486e-09\Dipole=-0.0053953,-0.0131943,-0.0082016\Quadru
 pole=0.9068374,-1.6973861,0.7905487,-0.0094846,-0.0553327,0.0745182\PG
 =C01 [X(C2H4)]\\@


 MARY HAD A LITTLE LAMB
      HIS FEET WERE BLACK AS SOOT,
           AND EVERYWHERE THAT MARY WENT
                HIS SOOTY FOOT HE PUT.

                    -- NONAME
 Job cpu time:       0 days  0 hours  0 minutes 10.6 seconds.
 Elapsed time:       0 days  0 hours  0 minutes  5.4 seconds.
 File lengths (MBytes):  RWF=     10 Int=      0 D2E=      0 Chk=      1 Scr=      1
 Normal termination of Gaussian 16 at Fri Sep 22 16:34:17 2023.
