 Entering Gaussian System, Link 0=g16
 Initial command:
 /share/apps/gaussian/g16/l1.exe "/tmp/55556.mgr/Gau-79995.inp" -scrdir="/tmp/55556.mgr/"
 Entering Link 1 = /share/apps/gaussian/g16/l1.exe PID=     79996.
  
 Copyright (c) 1988,1990,1992,1993,1995,1998,2003,2009,2016,
            Gaussian, Inc.  All Rights Reserved.
  
 This is part of the Gaussian(R) 16 program.  It is based on
 the Gaussian(R) 09 system (copyright 2009, Gaussian, Inc.),
 the Gaussian(R) 03 system (copyright 2003, Gaussian, Inc.),
 the Gaussian(R) 98 system (copyright 1998, Gaussian, Inc.),
 the Gaussian(R) 94 system (copyright 1995, Gaussian, Inc.),
 the Gaussian 92(TM) system (copyright 1992, Gaussian, Inc.),
 the Gaussian 90(TM) system (copyright 1990, Gaussian, Inc.),
 the Gaussian 88(TM) system (copyright 1988, Gaussian, Inc.),
 the Gaussian 86(TM) system (copyright 1986, Carnegie Mellon
 University), and the Gaussian 82(TM) system (copyright 1983,
 Carnegie Mellon University). Gaussian is a federally registered
 trademark of Gaussian, Inc.
  
 This software contains proprietary and confidential information,
 including trade secrets, belonging to Gaussian, Inc.
  
 This software is provided under written license and may be
 used, copied, transmitted, or stored only in accord with that
 written license.
  
 The following legend is applicable only to US Government
 contracts under FAR:
  
                    RESTRICTED RIGHTS LEGEND
  
 Use, reproduction and disclosure by the US Government is
 subject to restrictions as set forth in subparagraphs (a)
 and (c) of the Commercial Computer Software - Restricted
 Rights clause in FAR 52.227-19.
  
 Gaussian, Inc.
 340 Quinnipiac St., Bldg. 40, Wallingford CT 06492
  
  
 ---------------------------------------------------------------
 Warning -- This program may not be used in any manner that
 competes with the business of Gaussian, Inc. or will provide
 assistance to any competitor of Gaussian, Inc.  The licensee
 of this program is prohibited from giving any competitor of
 Gaussian, Inc. access to this program.  By using this program,
 the user acknowledges that Gaussian, Inc. is engaged in the
 business of creating and licensing software in the field of
 computational chemistry and represents and warrants to the
 licensee that it is not a competitor of Gaussian, Inc. and that
 it will not use this program in any manner prohibited above.
 ---------------------------------------------------------------
  

 Cite this work as:
 Gaussian 16, Revision A.03,
 M. J. Frisch, G. W. Trucks, H. B. Schlegel, G. E. Scuseria, 
 M. A. Robb, J. R. Cheeseman, G. Scalmani, V. Barone, 
 G. A. Petersson, H. Nakatsuji, X. Li, M. Caricato, A. V. Marenich, 
 J. Bloino, B. G. Janesko, R. Gomperts, B. Mennucci, H. P. Hratchian, 
 J. V. Ortiz, A. F. Izmaylov, J. L. Sonnenberg, D. Williams-Young, 
 F. Ding, F. Lipparini, F. Egidi, J. Goings, B. Peng, A. Petrone, 
 T. Henderson, D. Ranasinghe, V. G. Zakrzewski, J. Gao, N. Rega, 
 G. Zheng, W. Liang, M. Hada, M. Ehara, K. Toyota, R. Fukuda, 
 J. Hasegawa, M. Ishida, T. Nakajima, Y. Honda, O. Kitao, H. Nakai, 
 T. Vreven, K. Throssell, J. A. Montgomery, Jr., J. E. Peralta, 
 F. Ogliaro, M. J. Bearpark, J. J. Heyd, E. N. Brothers, K. N. Kudin, 
 V. N. Staroverov, T. A. Keith, R. Kobayashi, J. Normand, 
 K. Raghavachari, A. P. Rendell, J. C. Burant, S. S. Iyengar, 
 J. Tomasi, M. Cossi, J. M. Millam, M. Klene, C. Adamo, R. Cammi, 
 J. W. Ochterski, R. L. Martin, K. Morokuma, O. Farkas, 
 J. B. Foresman, and D. J. Fox, Gaussian, Inc., Wallingford CT, 2016.
 
 ******************************************
 Gaussian 16:  ES64L-G16RevA.03 25-Dec-2016
                22-Sep-2023 
 ******************************************
 %nprocshared=2
 Will use up to    2 processors via shared memory.
 %mem=2GB
 ----------------------------------------------------------------------
 #p b3lyp/gen scrf=(cpcm,solvent=toluene) pop=hirshfeld empiricaldisper
 sion=gd3bj
 ----------------------------------------------------------------------
 1/38=1,172=1/1;
 2/12=2,17=6,18=5,40=1/2;
 3/5=7,11=2,25=1,30=1,70=2101,72=13,74=-5,124=41/1,2,3;
 4//1;
 5/5=2,38=5,53=13/2;
 6/7=2,8=2,9=2,10=2,28=1,79=1/1;
 99/5=1,9=1/99;
 Leave Link    1 at Fri Sep 22 16:28:59 2023, MaxMem=   268435456 cpu:               0.1 elap:               0.0
 (Enter /share/apps/gaussian/g16/l101.exe)
 ---------------------
 tmpdir/M2_ref_141.gjf
 ---------------------
 Symbolic Z-matrix:
 Charge =  0 Multiplicity = 1
 H                     1.78695  -3.72902  -1.92865 
 C                     2.84047  -3.65956  -2.22541 
 H                     3.06625  -4.54469  -2.8349 
 H                     3.52827  -3.63564  -1.35088 
 H                     2.95622  -2.77266  -2.85727 
 
 ITRead=  0  0  0  0  0
 MicOpt= -1 -1 -1 -1 -1
 NAtoms=      5 NQM=        5 NQMF=       0 NMMI=      0 NMMIF=      0
                NMic=       0 NMicF=      0.
                    Isotopes and Nuclear Properties:
 (Nuclear quadrupole moments (NQMom) in fm**2, nuclear magnetic moments (NMagM)
  in nuclear magnetons)

  Atom         1           2           3           4           5
 IAtWgt=           1          12           1           1           1
 AtmWgt=   1.0078250  12.0000000   1.0078250   1.0078250   1.0078250
 NucSpn=           1           0           1           1           1
 AtZEff=  -0.0000000  -0.0000000  -0.0000000  -0.0000000  -0.0000000
 NQMom=    0.0000000   0.0000000   0.0000000   0.0000000   0.0000000
 NMagM=    2.7928460   0.0000000   2.7928460   2.7928460   2.7928460
 AtZNuc=   1.0000000   6.0000000   1.0000000   1.0000000   1.0000000
 Leave Link  101 at Fri Sep 22 16:28:59 2023, MaxMem=   268435456 cpu:               0.2 elap:               0.1
 (Enter /share/apps/gaussian/g16/l202.exe)
                          Input orientation:                          
 ---------------------------------------------------------------------
 Center     Atomic      Atomic             Coordinates (Angstroms)
 Number     Number       Type             X           Y           Z
 ---------------------------------------------------------------------
      1          1           0        1.786950   -3.729023   -1.928645
      2          6           0        2.840468   -3.659560   -2.225411
      3          1           0        3.066251   -4.544694   -2.834899
      4          1           0        3.528272   -3.635645   -1.350877
      5          1           0        2.956222   -2.772660   -2.857274
 ---------------------------------------------------------------------
                    Distance matrix (angstroms):
                    1          2          3          4          5
     1  H    0.000000
     2  C    1.096720   0.000000
     3  H    1.767265   1.098142   0.000000
     4  H    1.837046   1.112859   1.800598   0.000000
     5  H    1.773183   1.095099   1.775588   1.827899   0.000000
 Stoichiometry    CH4
 Framework group  C1[X(CH4)]
 Deg. of freedom     9
 Full point group                 C1      NOp   1
 Largest Abelian subgroup         C1      NOp   1
 Largest concise Abelian subgroup C1      NOp   1
                         Standard orientation:                         
 ---------------------------------------------------------------------
 Center     Atomic      Atomic             Coordinates (Angstroms)
 Number     Number       Type             X           Y           Z
 ---------------------------------------------------------------------
      1          1           0        0.577442   -0.541862   -0.757807
      2          6           0       -0.005770    0.003015   -0.005631
      3          1           0        0.101831   -0.537412    0.944251
      4          1           0       -1.085531    0.065596   -0.267651
      5          1           0        0.440875    0.995588    0.114992
 ---------------------------------------------------------------------
 Rotational constants (GHZ):         160.2573396         153.4473228         152.1915937
 Leave Link  202 at Fri Sep 22 16:28:59 2023, MaxMem=   268435456 cpu:               0.0 elap:               0.0
 (Enter /share/apps/gaussian/g16/l301.exe)
 General basis read from cards:  (5D, 7F)
 Centers:       1      3      4      5
 S 3 1.00
     Exponent=  1.2251800000D+01 Coefficients=  2.3337100000D-02
     Exponent=  1.8687100000D+00 Coefficients=  1.5915000000D-01
     Exponent=  4.1820800000D-01 Coefficients=  5.0000000000D-01
 S 1 1.00
     Exponent=  1.0610000000D-01 Coefficients=  1.0000000000D+00
 P 1 1.00
     Exponent=  1.0000000000D+00 Coefficients=  1.0000000000D+00
 ****
 Centers:       2
 S 5 1.00
     Exponent=  1.2432000000D+03 Coefficients=  6.0336600000D-03
     Exponent=  1.8714500000D+02 Coefficients=  4.4957600000D-02
     Exponent=  4.2512600000D+01 Coefficients=  1.9790100000D-01
     Exponent=  1.1739300000D+01 Coefficients=  5.0000000000D-01
     Exponent=  3.5054800000D+00 Coefficients=  4.8036400000D-01
 S 2 1.00
     Exponent=  5.3908900000D+00 Coefficients= -7.0398000000D-02
     Exponent=  4.9334100000D-01 Coefficients=  5.0000000000D-01
 S 1 1.00
     Exponent=  1.4974100000D-01 Coefficients=  1.0000000000D+00
 P 3 1.00
     Exponent=  9.1805600000D+00 Coefficients=  4.3170100000D-02
     Exponent=  1.9365800000D+00 Coefficients=  2.2499900000D-01
     Exponent=  5.2629600000D-01 Coefficients=  5.0000000000D-01
 P 1 1.00
     Exponent=  1.3631900000D-01 Coefficients=  1.0000000000D+00
 D 1 1.00
     Exponent=  8.0000000000D-01 Coefficients=  1.0000000000D+00
 ****
 Ernie: Thresh=  0.10000D-02 Tol=  0.10000D-05 Strict=F.
 There are    35 symmetry adapted cartesian basis functions of A   symmetry.
 There are    34 symmetry adapted basis functions of A   symmetry.
    34 basis functions,    54 primitive gaussians,    35 cartesian basis functions
     5 alpha electrons        5 beta electrons
       nuclear repulsion energy        13.3061096121 Hartrees.
 IExCor=  402 DFT=T Ex+Corr=B3LYP ExCW=0 ScaHFX=  0.200000
 ScaDFX=  0.800000  0.720000  1.000000  0.810000 ScalE2=  1.000000  1.000000
 IRadAn=      5 IRanWt=     -1 IRanGd=            0 ICorTp=0 IEmpDi=141
 NAtoms=    5 NActive=    5 NUniq=    5 SFac= 1.00D+00 NAtFMM=   60 NAOKFM=F Big=F
 Integral buffers will be    131072 words long.
 Raffenetti 2 integral format.
 Two-electron integral symmetry is turned on.
 R6Disp:  Grimme-D3(BJ) Dispersion energy=       -0.0019125868 Hartrees.
 Nuclear repulsion after empirical dispersion term =       13.3041970253 Hartrees.
 ------------------------------------------------------------------------------
 Polarizable Continuum Model (PCM)
 =================================
 Model                : C-PCM.
 Atomic radii         : UFF (Universal Force Field).
 Polarization charges : Total charges.
 Charge compensation  : None.
 Solution method      : On-the-fly selection.
 Cavity type          : Scaled VdW (van der Waals Surface) (Alpha=1.100).
 Cavity algorithm     : GePol (No added spheres)
                        Default sphere list used, NSphG=    5.
                        Lebedev-Laikov grids with approx.  5.0 points / Ang**2.
                        Smoothing algorithm: York/Karplus (Gamma=1.0000).
                        Polarization charges: spherical gaussians, with
                                              point-specific exponents (IZeta= 3).
                        Self-potential: point-specific (ISelfS= 7).
                        Self-field    : sphere-specific E.n sum rule (ISelfD= 2).
 Solvent              : Toluene, Eps=   2.374100 Eps(inf)=   2.238315
 ------------------------------------------------------------------------------
 Spheres list:
 ISph  on   Nord     Re0    Alpha      Xe            Ye            Ze
    1   H      1    1.4430  1.100      0.577442     -0.541862     -0.757807
    2   C      2    1.9255  1.100     -0.005770      0.003015     -0.005631
    3   H      3    1.4430  1.100      0.101831     -0.537412      0.944251
    4   H      4    1.4430  1.100     -1.085531      0.065596     -0.267651
    5   H      5    1.4430  1.100      0.440875      0.995588      0.114992
 ------------------------------------------------------------------------------
 GePol: Number of generator spheres                  =       5
 GePol: Total number of spheres                      =       5
 GePol: Number of exposed spheres                    =       5 (100.00%)
 GePol: Number of points                             =     489
 GePol: Average weight of points                     =       0.14
 GePol: Minimum weight of points                     =   0.17D-09
 GePol: Maximum weight of points                     =    0.20577
 GePol: Number of points with low weight             =      21
 GePol: Fraction of low-weight points (<1% of avg)   =       4.29%
 GePol: Cavity surface area                          =     70.212 Ang**2
 GePol: Cavity volume                                =     51.797 Ang**3
 Leave Link  301 at Fri Sep 22 16:28:59 2023, MaxMem=   268435456 cpu:               0.2 elap:               0.1
 (Enter /share/apps/gaussian/g16/l302.exe)
 NPDir=0 NMtPBC=     1 NCelOv=     1 NCel=       1 NClECP=     1 NCelD=      1
         NCelK=      1 NCelE2=     1 NClLst=     1 CellRange=     0.0.
 One-electron integrals computed using PRISM.
 One-electron integral symmetry used in STVInt
 NBasis=    34 RedAO= T EigKep=  2.84D-02  NBF=    34
 NBsUse=    34 1.00D-06 EigRej= -1.00D+00 NBFU=    34
 Precomputing XC quadrature grid using
 IXCGrd= 4 IRadAn=           5 IRanWt=          -1 IRanGd=           0 AccXCQ= 0.00D+00.
 Generated NRdTot=       0 NPtTot=           0 NUsed=           0 NTot=          32
 NSgBfM=    35    35    35    35    35 MxSgAt=     5 MxSgA2=     5.
 Leave Link  302 at Fri Sep 22 16:28:59 2023, MaxMem=   268435456 cpu:               0.2 elap:               0.1
 (Enter /share/apps/gaussian/g16/l303.exe)
 DipDrv:  MaxL=1.
 Leave Link  303 at Fri Sep 22 16:28:59 2023, MaxMem=   268435456 cpu:               0.1 elap:               0.0
 (Enter /share/apps/gaussian/g16/l401.exe)
 ExpMin= 1.06D-01 ExpMax= 1.24D+03 ExpMxC= 1.87D+02 IAcc=3 IRadAn=         5 AccDes= 0.00D+00
 Harris functional with IExCor=  402 and IRadAn=       5 diagonalized for initial guess.
 HarFok:  IExCor=  402 AccDes= 0.00D+00 IRadAn=         5 IDoV= 1 UseB2=F ITyADJ=14
 ICtDFT=  3500011 ScaDFX=  1.000000  1.000000  1.000000  1.000000
 FoFCou: FMM=F IPFlag=           0 FMFlag=      100000 FMFlg1=           0
         NFxFlg=           0 DoJE=T BraDBF=F KetDBF=T FulRan=T
         wScrn=  0.000000 ICntrl=       500 IOpCl=  0 I1Cent=   200000004 NGrid=           0
         NMat0=    1 NMatS0=      1 NMatT0=    0 NMatD0=    1 NMtDS0=    0 NMtDT0=    0
 Petite list used in FoFCou.
 Harris En= -40.5504299389152    
 JPrj=0 DoOrth=F DoCkMO=F.
 Leave Link  401 at Fri Sep 22 16:29:00 2023, MaxMem=   268435456 cpu:               0.6 elap:               0.3
 (Enter /share/apps/gaussian/g16/l502.exe)
 Keep R1 ints in memory in canonical form, NReq=1903191.
 FoFCou: FMM=F IPFlag=           0 FMFlag=           0 FMFlg1=           0
         NFxFlg=           0 DoJE=F BraDBF=F KetDBF=F FulRan=T
         wScrn=  0.000000 ICntrl=       600 IOpCl=  0 I1Cent=           0 NGrid=           0
         NMat0=    1 NMatS0=    595 NMatT0=    0 NMatD0=    1 NMtDS0=    0 NMtDT0=    0
 Symmetry not used in FoFCou.
 Two-electron integral symmetry not used.
 Closed shell SCF:
 Using DIIS extrapolation, IDIIS=  1040.
 NGot=   268435456 LenX=   268254897 LenY=   268253231
 Requested convergence on RMS density matrix=1.00D-08 within 128 cycles.
 Requested convergence on MAX density matrix=1.00D-06.
 Requested convergence on             energy=1.00D-06.
 No special actions if energy rises.

 Cycle   1  Pass 1  IDiag  1:
 Inv3:  Mode=1 IEnd=      717363.
 Iteration    1 A*A^-1 deviation from unit magnitude is 2.66D-15 for     65.
 Iteration    1 A*A^-1 deviation from orthogonality  is 1.34D-15 for    483     93.
 Iteration    1 A^-1*A deviation from unit magnitude is 2.66D-15 for    486.
 Iteration    1 A^-1*A deviation from orthogonality  is 1.06D-15 for    457    272.
 E= -40.4270823279702    
 DIIS: error= 4.67D-02 at cycle   1 NSaved=   1.
 NSaved= 1 IEnMin= 1 EnMin= -40.4270823279702     IErMin= 1 ErrMin= 4.67D-02
 ErrMax= 4.67D-02  0.00D+00 EMaxC= 1.00D-01 BMatC= 7.69D-02 BMatP= 7.69D-02
 IDIUse=3 WtCom= 5.33D-01 WtEn= 4.67D-01
 Coeff-Com:  0.100D+01
 Coeff-En:   0.100D+01
 Coeff:      0.100D+01
 Gap=     0.358 Goal=   None    Shift=    0.000
 GapD=    0.358 DampG=1.000 DampE=0.500 DampFc=0.5000 IDamp=-1.
 Damping current iteration by 5.00D-01
 RMSDP=1.46D-02 MaxDP=1.49D-01              OVMax= 1.98D-01

 Cycle   2  Pass 1  IDiag  1:
 E= -40.4660388807616     Delta-E=       -0.038956552791 Rises=F Damp=T
 DIIS: error= 8.10D-03 at cycle   2 NSaved=   2.
 NSaved= 2 IEnMin= 2 EnMin= -40.4660388807616     IErMin= 2 ErrMin= 8.10D-03
 ErrMax= 8.10D-03  0.00D+00 EMaxC= 1.00D-01 BMatC= 1.28D-03 BMatP= 7.69D-02
 IDIUse=3 WtCom= 9.19D-01 WtEn= 8.10D-02
 Coeff-Com:  0.847D-01 0.915D+00
 Coeff-En:   0.139D+00 0.861D+00
 Coeff:      0.891D-01 0.911D+00
 Gap=     0.436 Goal=   None    Shift=    0.000
 RMSDP=1.36D-03 MaxDP=1.14D-02 DE=-3.90D-02 OVMax= 1.05D-01

 Cycle   3  Pass 1  IDiag  1:
 E= -40.5135570166184     Delta-E=       -0.047518135857 Rises=F Damp=F
 DIIS: error= 5.32D-04 at cycle   3 NSaved=   3.
 NSaved= 3 IEnMin= 3 EnMin= -40.5135570166184     IErMin= 3 ErrMin= 5.32D-04
 ErrMax= 5.32D-04  0.00D+00 EMaxC= 1.00D-01 BMatC= 1.05D-05 BMatP= 1.28D-03
 IDIUse=3 WtCom= 9.95D-01 WtEn= 5.32D-03
 Coeff-Com:  0.646D-02-0.469D-01 0.104D+01
 Coeff-En:   0.000D+00 0.000D+00 0.100D+01
 Coeff:      0.643D-02-0.467D-01 0.104D+01
 Gap=     0.444 Goal=   None    Shift=    0.000
 RMSDP=8.46D-05 MaxDP=9.22D-04 DE=-4.75D-02 OVMax= 1.07D-03

 Cycle   4  Pass 1  IDiag  1:
 E= -40.5135663350231     Delta-E=       -0.000009318405 Rises=F Damp=F
 DIIS: error= 1.05D-04 at cycle   4 NSaved=   4.
 NSaved= 4 IEnMin= 4 EnMin= -40.5135663350231     IErMin= 4 ErrMin= 1.05D-04
 ErrMax= 1.05D-04  0.00D+00 EMaxC= 1.00D-01 BMatC= 1.82D-07 BMatP= 1.05D-05
 IDIUse=3 WtCom= 9.99D-01 WtEn= 1.05D-03
 Coeff-Com:  0.197D-02-0.117D-01 0.245D+00 0.764D+00
 Coeff-En:   0.000D+00 0.000D+00 0.000D+00 0.100D+01
 Coeff:      0.196D-02-0.117D-01 0.245D+00 0.765D+00
 Gap=     0.444 Goal=   None    Shift=    0.000
 RMSDP=1.21D-05 MaxDP=1.49D-04 DE=-9.32D-06 OVMax= 1.85D-04

 Cycle   5  Pass 1  IDiag  1:
 E= -40.5135665376117     Delta-E=       -0.000000202589 Rises=F Damp=F
 DIIS: error= 9.10D-06 at cycle   5 NSaved=   5.
 NSaved= 5 IEnMin= 5 EnMin= -40.5135665376117     IErMin= 5 ErrMin= 9.10D-06
 ErrMax= 9.10D-06  0.00D+00 EMaxC= 1.00D-01 BMatC= 2.11D-09 BMatP= 1.82D-07
 IDIUse=1 WtCom= 1.00D+00 WtEn= 0.00D+00
 Coeff-Com:  0.193D-03 0.554D-04 0.384D-02 0.718D-01 0.924D+00
 Coeff:      0.193D-03 0.554D-04 0.384D-02 0.718D-01 0.924D+00
 Gap=     0.444 Goal=   None    Shift=    0.000
 RMSDP=1.63D-06 MaxDP=1.41D-05 DE=-2.03D-07 OVMax= 1.98D-05

 Cycle   6  Pass 1  IDiag  1:
 E= -40.5135665402640     Delta-E=       -0.000000002652 Rises=F Damp=F
 DIIS: error= 8.43D-07 at cycle   6 NSaved=   6.
 NSaved= 6 IEnMin= 6 EnMin= -40.5135665402640     IErMin= 6 ErrMin= 8.43D-07
 ErrMax= 8.43D-07  0.00D+00 EMaxC= 1.00D-01 BMatC= 1.34D-11 BMatP= 2.11D-09
 IDIUse=1 WtCom= 1.00D+00 WtEn= 0.00D+00
 Coeff-Com: -0.110D-04 0.504D-04-0.125D-02-0.181D-02 0.679D-01 0.935D+00
 Coeff:     -0.110D-04 0.504D-04-0.125D-02-0.181D-02 0.679D-01 0.935D+00
 Gap=     0.444 Goal=   None    Shift=    0.000
 RMSDP=1.26D-07 MaxDP=1.13D-06 DE=-2.65D-09 OVMax= 1.75D-06

 Cycle   7  Pass 1  IDiag  1:
 E= -40.5135665402830     Delta-E=       -0.000000000019 Rises=F Damp=F
 DIIS: error= 2.07D-08 at cycle   7 NSaved=   7.
 NSaved= 7 IEnMin= 7 EnMin= -40.5135665402830     IErMin= 7 ErrMin= 2.07D-08
 ErrMax= 2.07D-08  0.00D+00 EMaxC= 1.00D-01 BMatC= 2.58D-14 BMatP= 1.34D-11
 IDIUse=1 WtCom= 1.00D+00 WtEn= 0.00D+00
 Coeff-Com: -0.119D-05 0.390D-05-0.137D-03-0.935D-04 0.701D-02 0.891D-01
 Coeff-Com:  0.904D+00
 Coeff:     -0.119D-05 0.390D-05-0.137D-03-0.935D-04 0.701D-02 0.891D-01
 Coeff:      0.904D+00
 Gap=     0.444 Goal=   None    Shift=    0.000
 RMSDP=6.00D-09 MaxDP=9.13D-08 DE=-1.90D-11 OVMax= 7.92D-08

 Error on total polarization charges =  0.00449
 SCF Done:  E(RB3LYP) =  -40.5135665403     A.U. after    7 cycles
            NFock=  7  Conv=0.60D-08     -V/T= 2.0097
 KE= 4.012369302947D+01 PE=-1.196799029173D+02 EE= 2.573844632229D+01
 Leave Link  502 at Fri Sep 22 16:29:02 2023, MaxMem=   268435456 cpu:               4.0 elap:               2.0
 (Enter /share/apps/gaussian/g16/l601.exe)
 Copying SCF densities to generalized density rwf, IOpCl= 0 IROHF=0.

 **********************************************************************

            Population analysis using the SCF density.

 **********************************************************************

 Orbital symmetries:
       Occupied  (A) (A) (A) (A) (A)
       Virtual   (A) (A) (A) (A) (A) (A) (A) (A) (A) (A) (A) (A)
                 (A) (A) (A) (A) (A) (A) (A) (A) (A) (A) (A) (A)
                 (A) (A) (A) (A) (A)
 The electronic state is 1-A.
 Alpha  occ. eigenvalues --  -10.16444  -0.69252  -0.39715  -0.39127  -0.38780
 Alpha virt. eigenvalues --    0.05622   0.12337   0.12556   0.12588   0.37077
 Alpha virt. eigenvalues --    0.37402   0.38539   0.63079   0.63696   0.63801
 Alpha virt. eigenvalues --    0.67424   0.96100   1.28644   1.29305   1.83984
 Alpha virt. eigenvalues --    1.84603   1.87017   1.87125   1.89901   1.90254
 Alpha virt. eigenvalues --    2.38038   2.40615   2.44790   2.73947   2.75404
 Alpha virt. eigenvalues --    2.91891   3.16991   3.20905   3.21324
          Condensed to atoms (all electrons):
               1          2          3          4          5
     1  H    0.573122   0.403027  -0.022648  -0.018734  -0.022571
     2  C    0.403027   4.745659   0.402201   0.401337   0.403358
     3  H   -0.022648   0.402201   0.579200  -0.021749  -0.021661
     4  H   -0.018734   0.401337  -0.021749   0.563384  -0.019561
     5  H   -0.022571   0.403358  -0.021661  -0.019561   0.572638
 Mulliken charges:
               1
     1  H    0.087804
     2  C   -0.355581
     3  H    0.084658
     4  H    0.095323
     5  H    0.087796
 Sum of Mulliken charges =  -0.00000
 Mulliken charges with hydrogens summed into heavy atoms:
               1
     2  C   -0.000000
 Electronic spatial extent (au):  <R**2>=             36.1826
 Charge=             -0.0000 electrons
 Dipole moment (field-independent basis, Debye):
    X=              0.0396    Y=             -0.0120    Z=              0.0274  Tot=              0.0496
 Quadrupole moment (field-independent basis, Debye-Ang):
   XX=             -8.3130   YY=             -8.5110   ZZ=             -8.5681
   XY=              0.0038   XZ=             -0.0054   YZ=              0.0089
 Traceless Quadrupole moment (field-independent basis, Debye-Ang):
   XX=              0.1511   YY=             -0.0470   ZZ=             -0.1041
   XY=              0.0038   XZ=             -0.0054   YZ=              0.0089
 Octapole moment (field-independent basis, Debye-Ang**2):
  XXX=             -0.5814  YYY=              0.3954  ZZZ=              0.2933  XYY=              0.4525
  XXY=              0.0485  XXZ=             -0.3354  XZZ=              0.2636  YZZ=             -0.4709
  YYZ=              0.1204  XYZ=              0.1649
 Hexadecapole moment (field-independent basis, Debye-Ang**3):
 XXXX=            -16.2849 YYYY=            -16.3126 ZZZZ=            -16.3430 XXXY=             -0.1030
 XXXZ=              0.2055 YYYX=              0.3661 YYYZ=              0.1125 ZZZX=             -0.1709
 ZZZY=             -0.2208 XXYY=             -5.5948 XXZZ=             -5.6132 YYZZ=             -5.3764
 XXYZ=              0.1547 YYXZ=             -0.0583 ZZXY=             -0.2447
 N-N= 1.330419702528D+01 E-N=-1.196799027030D+02  KE= 4.012369302947D+01
 There are a total of      109428 grid points.
 ElSum from          density=       10.0000000224
 ElSum from atomic densities=        9.9999999807
 Hirshfeld populations at iteration   1 (CA, CB, DipXYZ):
               1          2          3          4          5
     1  H    0.485005   0.485005   0.080135  -0.068872  -0.090783
     2  C    3.060672   3.060672  -0.002740   0.001710  -0.002928
     3  H    0.485799   0.485799   0.016383  -0.068032   0.118019
     4  H    0.483492   0.483492  -0.137042   0.006585  -0.028965
     5  H    0.485033   0.485033   0.062103   0.123734   0.016618
       Tot   5.000000   5.000000   0.018839  -0.004875   0.011962

 Dip from Atomic Chgs             -0.003275   0.000167  -0.001170
         Total Dipole              0.015563  -0.004708   0.010792

 Hirshfeld charges, spin densities, dipoles, and CM5 charges using IRadAn=      5:
              Q-H        S-H        Dx         Dy         Dz        Q-CM5   
     1  H    0.029990   0.000000   0.080135  -0.068872  -0.090783   0.076979
     2  C   -0.121344   0.000000  -0.002740   0.001710  -0.002928  -0.307484
     3  H    0.028402   0.000000   0.016383  -0.068032   0.118019   0.075226
     4  H    0.033017   0.000000  -0.137042   0.006585  -0.028965   0.078166
     5  H    0.029935   0.000000   0.062103   0.123734   0.016618   0.077113
       Tot  -0.000000   0.000000   0.018839  -0.004875   0.011962  -0.000000
 Hirshfeld charges with hydrogens summed into heavy atoms:
              Q-H       Q-CM5   
     2  C   -0.000000  -0.000000
 
 EQQ= 0.000000000000E+00 EQD= 0.000000000000E+00 EDD=-0.983797137178E-03
 EQQ+QD+DD=-0.983797137178E-03
 
 No NMR shielding tensors so no spin-rotation constants.
 Leave Link  601 at Fri Sep 22 16:29:02 2023, MaxMem=   268435456 cpu:               0.5 elap:               0.3
 (Enter /share/apps/gaussian/g16/l9999.exe)
 1\1\GINC-NODE99\SP\RB3LYP\Gen\C1H4\YANZ\22-Sep-2023\0\\#p b3lyp/gen sc
 rf=(cpcm,solvent=toluene) pop=hirshfeld empiricaldispersion=gd3bj\\tmp
 dir/M2_ref_141.gjf\\0,1\H,0,1.78695,-3.729023,-1.92864501\C,0,2.840468
 ,-3.65956,-2.22541094\H,0,3.066251,-4.544694,-2.83489895\H,0,3.5282719
 ,-3.63564498,-1.35087704\H,0,2.956222,-2.77266,-2.85727406\\Version=ES
 64L-G16RevA.03\State=1-A\HF=-40.5135665\RMSD=6.003e-09\Dipole=-0.00758
 15,-0.0068267,-0.0166361\Quadrupole=0.0389523,-0.0445553,0.005603,-0.0
 060962,0.0843752,-0.0324795\PG=C01 [X(C1H4)]\\@


 BULLDOZER: SOMEONE WHO SLEEPS THROUGH SPEECHES.
 Job cpu time:       0 days  0 hours  0 minutes  6.0 seconds.
 Elapsed time:       0 days  0 hours  0 minutes  3.1 seconds.
 File lengths (MBytes):  RWF=      6 Int=      0 D2E=      0 Chk=      1 Scr=      1
 Normal termination of Gaussian 16 at Fri Sep 22 16:29:02 2023.
