 Entering Gaussian System, Link 0=g16
 Initial command:
 /share/apps/gaussian/g16/l1.exe "/tmp/55556.mgr/Gau-79671.inp" -scrdir="/tmp/55556.mgr/"
 Entering Link 1 = /share/apps/gaussian/g16/l1.exe PID=     79672.
  
 Copyright (c) 1988,1990,1992,1993,1995,1998,2003,2009,2016,
            Gaussian, Inc.  All Rights Reserved.
  
 This is part of the Gaussian(R) 16 program.  It is based on
 the Gaussian(R) 09 system (copyright 2009, Gaussian, Inc.),
 the Gaussian(R) 03 system (copyright 2003, Gaussian, Inc.),
 the Gaussian(R) 98 system (copyright 1998, Gaussian, Inc.),
 the Gaussian(R) 94 system (copyright 1995, Gaussian, Inc.),
 the Gaussian 92(TM) system (copyright 1992, Gaussian, Inc.),
 the Gaussian 90(TM) system (copyright 1990, Gaussian, Inc.),
 the Gaussian 88(TM) system (copyright 1988, Gaussian, Inc.),
 the Gaussian 86(TM) system (copyright 1986, Carnegie Mellon
 University), and the Gaussian 82(TM) system (copyright 1983,
 Carnegie Mellon University). Gaussian is a federally registered
 trademark of Gaussian, Inc.
  
 This software contains proprietary and confidential information,
 including trade secrets, belonging to Gaussian, Inc.
  
 This software is provided under written license and may be
 used, copied, transmitted, or stored only in accord with that
 written license.
  
 The following legend is applicable only to US Government
 contracts under FAR:
  
                    RESTRICTED RIGHTS LEGEND
  
 Use, reproduction and disclosure by the US Government is
 subject to restrictions as set forth in subparagraphs (a)
 and (c) of the Commercial Computer Software - Restricted
 Rights clause in FAR 52.227-19.
  
 Gaussian, Inc.
 340 Quinnipiac St., Bldg. 40, Wallingford CT 06492
  
  
 ---------------------------------------------------------------
 Warning -- This program may not be used in any manner that
 competes with the business of Gaussian, Inc. or will provide
 assistance to any competitor of Gaussian, Inc.  The licensee
 of this program is prohibited from giving any competitor of
 Gaussian, Inc. access to this program.  By using this program,
 the user acknowledges that Gaussian, Inc. is engaged in the
 business of creating and licensing software in the field of
 computational chemistry and represents and warrants to the
 licensee that it is not a competitor of Gaussian, Inc. and that
 it will not use this program in any manner prohibited above.
 ---------------------------------------------------------------
  

 Cite this work as:
 Gaussian 16, Revision A.03,
 M. J. Frisch, G. W. Trucks, H. B. Schlegel, G. E. Scuseria, 
 M. A. Robb, J. R. Cheeseman, G. Scalmani, V. Barone, 
 G. A. Petersson, H. Nakatsuji, X. Li, M. Caricato, A. V. Marenich, 
 J. Bloino, B. G. Janesko, R. Gomperts, B. Mennucci, H. P. Hratchian, 
 J. V. Ortiz, A. F. Izmaylov, J. L. Sonnenberg, D. Williams-Young, 
 F. Ding, F. Lipparini, F. Egidi, J. Goings, B. Peng, A. Petrone, 
 T. Henderson, D. Ranasinghe, V. G. Zakrzewski, J. Gao, N. Rega, 
 G. Zheng, W. Liang, M. Hada, M. Ehara, K. Toyota, R. Fukuda, 
 J. Hasegawa, M. Ishida, T. Nakajima, Y. Honda, O. Kitao, H. Nakai, 
 T. Vreven, K. Throssell, J. A. Montgomery, Jr., J. E. Peralta, 
 F. Ogliaro, M. J. Bearpark, J. J. Heyd, E. N. Brothers, K. N. Kudin, 
 V. N. Staroverov, T. A. Keith, R. Kobayashi, J. Normand, 
 K. Raghavachari, A. P. Rendell, J. C. Burant, S. S. Iyengar, 
 J. Tomasi, M. Cossi, J. M. Millam, M. Klene, C. Adamo, R. Cammi, 
 J. W. Ochterski, R. L. Martin, K. Morokuma, O. Farkas, 
 J. B. Foresman, and D. J. Fox, Gaussian, Inc., Wallingford CT, 2016.
 
 ******************************************
 Gaussian 16:  ES64L-G16RevA.03 25-Dec-2016
                22-Sep-2023 
 ******************************************
 %nprocshared=2
 Will use up to    2 processors via shared memory.
 %mem=2GB
 ----------------------------------------------------------------------
 #p b3lyp/gen scrf=(cpcm,solvent=toluene) pop=hirshfeld empiricaldisper
 sion=gd3bj
 ----------------------------------------------------------------------
 1/38=1,172=1/1;
 2/12=2,17=6,18=5,40=1/2;
 3/5=7,11=2,25=1,30=1,70=2101,72=13,74=-5,124=41/1,2,3;
 4//1;
 5/5=2,38=5,53=13/2;
 6/7=2,8=2,9=2,10=2,28=1,79=1/1;
 99/5=1,9=1/99;
 Leave Link    1 at Fri Sep 22 16:28:43 2023, MaxMem=   268435456 cpu:               0.1 elap:               0.0
 (Enter /share/apps/gaussian/g16/l101.exe)
 ---------------------
 tmpdir/M2_ref_183.gjf
 ---------------------
 Symbolic Z-matrix:
 Charge =  0 Multiplicity = 1
 C                     5.77789  -0.56102   0.37923 
 C                     6.32156   0.84294   0.62326 
 C                     6.15097   1.52658  -0.73248 
 H                     6.53664  -1.21037  -0.07676 
 H                     5.39217  -1.03053   1.28775 
 H                     4.91201  -0.37734  -0.37037 
 H                     7.36322   0.82456   0.96094 
 H                     5.72923   1.34582   1.3964 
 H                     5.19268   1.11678  -1.16145 
 H                     6.98287   1.25412  -1.39516 
 H                     6.11684   2.61828  -0.67052 
 
 ITRead=  0  0  0  0  0  0  0  0  0  0  0
 MicOpt= -1 -1 -1 -1 -1 -1 -1 -1 -1 -1 -1
 NAtoms=     11 NQM=       11 NQMF=       0 NMMI=      0 NMMIF=      0
                NMic=       0 NMicF=      0.
                    Isotopes and Nuclear Properties:
 (Nuclear quadrupole moments (NQMom) in fm**2, nuclear magnetic moments (NMagM)
  in nuclear magnetons)

  Atom         1           2           3           4           5           6           7           8           9          10
 IAtWgt=          12          12          12           1           1           1           1           1           1           1
 AtmWgt=  12.0000000  12.0000000  12.0000000   1.0078250   1.0078250   1.0078250   1.0078250   1.0078250   1.0078250   1.0078250
 NucSpn=           0           0           0           1           1           1           1           1           1           1
 AtZEff=  -0.0000000  -0.0000000  -0.0000000  -0.0000000  -0.0000000  -0.0000000  -0.0000000  -0.0000000  -0.0000000  -0.0000000
 NQMom=    0.0000000   0.0000000   0.0000000   0.0000000   0.0000000   0.0000000   0.0000000   0.0000000   0.0000000   0.0000000
 NMagM=    0.0000000   0.0000000   0.0000000   2.7928460   2.7928460   2.7928460   2.7928460   2.7928460   2.7928460   2.7928460
 AtZNuc=   6.0000000   6.0000000   6.0000000   1.0000000   1.0000000   1.0000000   1.0000000   1.0000000   1.0000000   1.0000000

  Atom        11
 IAtWgt=           1
 AtmWgt=   1.0078250
 NucSpn=           1
 AtZEff=  -0.0000000
 NQMom=    0.0000000
 NMagM=    2.7928460
 AtZNuc=   1.0000000
 Leave Link  101 at Fri Sep 22 16:28:43 2023, MaxMem=   268435456 cpu:               0.2 elap:               0.1
 (Enter /share/apps/gaussian/g16/l202.exe)
                          Input orientation:                          
 ---------------------------------------------------------------------
 Center     Atomic      Atomic             Coordinates (Angstroms)
 Number     Number       Type             X           Y           Z
 ---------------------------------------------------------------------
      1          6           0        5.777894   -0.561021    0.379228
      2          6           0        6.321564    0.842942    0.623264
      3          6           0        6.150966    1.526581   -0.732480
      4          1           0        6.536637   -1.210370   -0.076759
      5          1           0        5.392172   -1.030530    1.287747
      6          1           0        4.912009   -0.377342   -0.370370
      7          1           0        7.363221    0.824559    0.960941
      8          1           0        5.729231    1.345823    1.396401
      9          1           0        5.192680    1.116785   -1.161449
     10          1           0        6.982866    1.254121   -1.395163
     11          1           0        6.116841    2.618276   -0.670522
 ---------------------------------------------------------------------
                    Distance matrix (angstroms):
                    1          2          3          4          5
     1  C    0.000000
     2  C    1.525203   0.000000
     3  C    2.394402   1.527910   0.000000
     4  H    1.097848   2.179995   2.840706   0.000000
     5  H    1.092990   2.194357   3.346028   1.789977   0.000000
     6  H    1.159911   2.112640   2.300231   1.849205   1.845688
     7  H    2.184373   1.095177   2.197742   2.429197   2.726388
     8  H    2.161727   1.096124   2.177767   3.058795   2.402596
     9  H    2.351849   2.129453   1.127058   2.898003   3.263330
    10  H    2.809833   2.163432   1.097926   2.830376   3.866257
    11  H    3.365232   2.206265   1.093984   3.897090   4.204016
                    6          7          8          9         10
     6  H    0.000000
     7  H    3.037334   0.000000
     8  H    2.599737   1.769538   0.000000
     9  H    1.713767   3.049784   2.623536   0.000000
    10  H    2.828484   2.424958   3.061509   1.810594   0.000000
    11  H    3.242752   2.726271   2.457956   1.830180   1.770882
                   11
    11  H    0.000000
 Stoichiometry    C3H8
 Framework group  C1[X(C3H8)]
 Deg. of freedom    27
 Full point group                 C1      NOp   1
 Largest Abelian subgroup         C1      NOp   1
 Largest concise Abelian subgroup C1      NOp   1
                         Standard orientation:                         
 ---------------------------------------------------------------------
 Center     Atomic      Atomic             Coordinates (Angstroms)
 Number     Number       Type             X           Y           Z
 ---------------------------------------------------------------------
      1          6           0       -1.197134   -0.284002    0.011164
      2          6           0       -0.004243    0.666289   -0.002964
      3          6           0        1.197248   -0.277575    0.003966
      4          1           0       -1.429386   -0.619672    1.030308
      5          1           0       -2.090945    0.150202   -0.444023
      6          1           0       -0.823375   -1.179144   -0.624776
      7          1           0       -0.013999    1.346790    0.855077
      8          1           0       -0.021427    1.276951   -0.913066
      9          1           0        0.890326   -1.165395   -0.618796
     10          1           0        1.400985   -0.614862    1.028744
     11          1           0        2.112592    0.176859   -0.386465
 ---------------------------------------------------------------------
 Rotational constants (GHZ):          26.4343270           9.4170337           8.0094639
 Leave Link  202 at Fri Sep 22 16:28:43 2023, MaxMem=   268435456 cpu:               0.0 elap:               0.0
 (Enter /share/apps/gaussian/g16/l301.exe)
 General basis read from cards:  (5D, 7F)
 Centers:       4      5      6      7      8      9     10     11
 S 3 1.00
     Exponent=  1.2251800000D+01 Coefficients=  2.3337100000D-02
     Exponent=  1.8687100000D+00 Coefficients=  1.5915000000D-01
     Exponent=  4.1820800000D-01 Coefficients=  5.0000000000D-01
 S 1 1.00
     Exponent=  1.0610000000D-01 Coefficients=  1.0000000000D+00
 P 1 1.00
     Exponent=  1.0000000000D+00 Coefficients=  1.0000000000D+00
 ****
 Centers:       1      2      3
 S 5 1.00
     Exponent=  1.2432000000D+03 Coefficients=  6.0336600000D-03
     Exponent=  1.8714500000D+02 Coefficients=  4.4957600000D-02
     Exponent=  4.2512600000D+01 Coefficients=  1.9790100000D-01
     Exponent=  1.1739300000D+01 Coefficients=  5.0000000000D-01
     Exponent=  3.5054800000D+00 Coefficients=  4.8036400000D-01
 S 2 1.00
     Exponent=  5.3908900000D+00 Coefficients= -7.0398000000D-02
     Exponent=  4.9334100000D-01 Coefficients=  5.0000000000D-01
 S 1 1.00
     Exponent=  1.4974100000D-01 Coefficients=  1.0000000000D+00
 P 3 1.00
     Exponent=  9.1805600000D+00 Coefficients=  4.3170100000D-02
     Exponent=  1.9365800000D+00 Coefficients=  2.2499900000D-01
     Exponent=  5.2629600000D-01 Coefficients=  5.0000000000D-01
 P 1 1.00
     Exponent=  1.3631900000D-01 Coefficients=  1.0000000000D+00
 D 1 1.00
     Exponent=  8.0000000000D-01 Coefficients=  1.0000000000D+00
 ****
 Ernie: Thresh=  0.10000D-02 Tol=  0.10000D-05 Strict=F.
 There are    85 symmetry adapted cartesian basis functions of A   symmetry.
 There are    82 symmetry adapted basis functions of A   symmetry.
    82 basis functions,   134 primitive gaussians,    85 cartesian basis functions
    13 alpha electrons       13 beta electrons
       nuclear repulsion energy        83.3513883511 Hartrees.
 IExCor=  402 DFT=T Ex+Corr=B3LYP ExCW=0 ScaHFX=  0.200000
 ScaDFX=  0.800000  0.720000  1.000000  0.810000 ScalE2=  1.000000  1.000000
 IRadAn=      5 IRanWt=     -1 IRanGd=            0 ICorTp=0 IEmpDi=141
 NAtoms=   11 NActive=   11 NUniq=   11 SFac= 1.00D+00 NAtFMM=   60 NAOKFM=F Big=F
 Integral buffers will be    131072 words long.
 Raffenetti 2 integral format.
 Two-electron integral symmetry is turned on.
 R6Disp:  Grimme-D3(BJ) Dispersion energy=       -0.0101640660 Hartrees.
 Nuclear repulsion after empirical dispersion term =       83.3412242851 Hartrees.
 ------------------------------------------------------------------------------
 Polarizable Continuum Model (PCM)
 =================================
 Model                : C-PCM.
 Atomic radii         : UFF (Universal Force Field).
 Polarization charges : Total charges.
 Charge compensation  : None.
 Solution method      : On-the-fly selection.
 Cavity type          : Scaled VdW (van der Waals Surface) (Alpha=1.100).
 Cavity algorithm     : GePol (No added spheres)
                        Default sphere list used, NSphG=   11.
                        Lebedev-Laikov grids with approx.  5.0 points / Ang**2.
                        Smoothing algorithm: York/Karplus (Gamma=1.0000).
                        Polarization charges: spherical gaussians, with
                                              point-specific exponents (IZeta= 3).
                        Self-potential: point-specific (ISelfS= 7).
                        Self-field    : sphere-specific E.n sum rule (ISelfD= 2).
 Solvent              : Toluene, Eps=   2.374100 Eps(inf)=   2.238315
 ------------------------------------------------------------------------------
 Spheres list:
 ISph  on   Nord     Re0    Alpha      Xe            Ye            Ze
    1   C      1    1.9255  1.100     -1.197134     -0.284002      0.011164
    2   C      2    1.9255  1.100     -0.004243      0.666289     -0.002964
    3   C      3    1.9255  1.100      1.197248     -0.277575      0.003966
    4   H      4    1.4430  1.100     -1.429386     -0.619672      1.030308
    5   H      5    1.4430  1.100     -2.090945      0.150202     -0.444023
    6   H      6    1.4430  1.100     -0.823375     -1.179144     -0.624776
    7   H      7    1.4430  1.100     -0.013999      1.346790      0.855077
    8   H      8    1.4430  1.100     -0.021427      1.276951     -0.913066
    9   H      9    1.4430  1.100      0.890326     -1.165395     -0.618796
   10   H     10    1.4430  1.100      1.400985     -0.614862      1.028744
   11   H     11    1.4430  1.100      2.112592      0.176859     -0.386465
 ------------------------------------------------------------------------------
 GePol: Number of generator spheres                  =      11
 GePol: Total number of spheres                      =      11
 GePol: Number of exposed spheres                    =      11 (100.00%)
 GePol: Number of points                             =     879
 GePol: Average weight of points                     =       0.14
 GePol: Minimum weight of points                     =   0.54D-11
 GePol: Maximum weight of points                     =    0.20577
 GePol: Number of points with low weight             =      49
 GePol: Fraction of low-weight points (<1% of avg)   =       5.57%
 GePol: Cavity surface area                          =    118.866 Ang**2
 GePol: Cavity volume                                =    102.783 Ang**3
 Leave Link  301 at Fri Sep 22 16:28:44 2023, MaxMem=   268435456 cpu:               0.2 elap:               0.1
 (Enter /share/apps/gaussian/g16/l302.exe)
 NPDir=0 NMtPBC=     1 NCelOv=     1 NCel=       1 NClECP=     1 NCelD=      1
         NCelK=      1 NCelE2=     1 NClLst=     1 CellRange=     0.0.
 One-electron integrals computed using PRISM.
 One-electron integral symmetry used in STVInt
 NBasis=    82 RedAO= T EigKep=  5.99D-03  NBF=    82
 NBsUse=    82 1.00D-06 EigRej= -1.00D+00 NBFU=    82
 Precomputing XC quadrature grid using
 IXCGrd= 4 IRadAn=           5 IRanWt=          -1 IRanGd=           0 AccXCQ= 0.00D+00.
 Generated NRdTot=       0 NPtTot=           0 NUsed=           0 NTot=          32
 NSgBfM=    85    85    85    85    85 MxSgAt=    11 MxSgA2=    11.
 Leave Link  302 at Fri Sep 22 16:28:44 2023, MaxMem=   268435456 cpu:               0.4 elap:               0.2
 (Enter /share/apps/gaussian/g16/l303.exe)
 DipDrv:  MaxL=1.
 Leave Link  303 at Fri Sep 22 16:28:44 2023, MaxMem=   268435456 cpu:               0.1 elap:               0.0
 (Enter /share/apps/gaussian/g16/l401.exe)
 ExpMin= 1.06D-01 ExpMax= 1.24D+03 ExpMxC= 1.87D+02 IAcc=3 IRadAn=         5 AccDes= 0.00D+00
 Harris functional with IExCor=  402 and IRadAn=       5 diagonalized for initial guess.
 HarFok:  IExCor=  402 AccDes= 0.00D+00 IRadAn=         5 IDoV= 1 UseB2=F ITyADJ=14
 ICtDFT=  3500011 ScaDFX=  1.000000  1.000000  1.000000  1.000000
 FoFCou: FMM=F IPFlag=           0 FMFlag=      100000 FMFlg1=           0
         NFxFlg=           0 DoJE=T BraDBF=F KetDBF=T FulRan=T
         wScrn=  0.000000 ICntrl=       500 IOpCl=  0 I1Cent=   200000004 NGrid=           0
         NMat0=    1 NMatS0=      1 NMatT0=    0 NMatD0=    1 NMtDS0=    0 NMtDT0=    0
 Petite list used in FoFCou.
 Harris En= -119.165432119652    
 JPrj=0 DoOrth=F DoCkMO=F.
 Leave Link  401 at Fri Sep 22 16:28:45 2023, MaxMem=   268435456 cpu:               2.2 elap:               1.1
 (Enter /share/apps/gaussian/g16/l502.exe)
 Keep R1 ints in memory in canonical form, NReq=7610633.
 FoFCou: FMM=F IPFlag=           0 FMFlag=           0 FMFlg1=           0
         NFxFlg=           0 DoJE=F BraDBF=F KetDBF=F FulRan=T
         wScrn=  0.000000 ICntrl=       600 IOpCl=  0 I1Cent=           0 NGrid=           0
         NMat0=    1 NMatS0=   3403 NMatT0=    0 NMatD0=    1 NMtDS0=    0 NMtDT0=    0
 Symmetry not used in FoFCou.
 Two-electron integral symmetry not used.
 Closed shell SCF:
 Using DIIS extrapolation, IDIIS=  1040.
 NGot=   268435456 LenX=   262627443 LenY=   262619777
 Requested convergence on RMS density matrix=1.00D-08 within 128 cycles.
 Requested convergence on MAX density matrix=1.00D-06.
 Requested convergence on             energy=1.00D-06.
 No special actions if energy rises.

 Cycle   1  Pass 1  IDiag  1:
 Inv3:  Mode=1 IEnd=     2317923.
 Iteration    1 A*A^-1 deviation from unit magnitude is 3.33D-15 for    877.
 Iteration    1 A*A^-1 deviation from orthogonality  is 2.27D-15 for    873    187.
 Iteration    1 A^-1*A deviation from unit magnitude is 3.11D-15 for    877.
 Iteration    1 A^-1*A deviation from orthogonality  is 1.84D-15 for    855    222.
 E= -118.956603753345    
 DIIS: error= 3.87D-02 at cycle   1 NSaved=   1.
 NSaved= 1 IEnMin= 1 EnMin= -118.956603753345     IErMin= 1 ErrMin= 3.87D-02
 ErrMax= 3.87D-02  0.00D+00 EMaxC= 1.00D-01 BMatC= 1.37D-01 BMatP= 1.37D-01
 IDIUse=3 WtCom= 6.13D-01 WtEn= 3.87D-01
 Coeff-Com:  0.100D+01
 Coeff-En:   0.100D+01
 Coeff:      0.100D+01
 Gap=     0.335 Goal=   None    Shift=    0.000
 GapD=    0.335 DampG=1.000 DampE=0.500 DampFc=0.5000 IDamp=-1.
 Damping current iteration by 5.00D-01
 RMSDP=9.78D-03 MaxDP=1.36D-01              OVMax= 1.94D-01

 Cycle   2  Pass 1  IDiag  1:
 E= -119.022485558140     Delta-E=       -0.065881804794 Rises=F Damp=T
 DIIS: error= 8.06D-03 at cycle   2 NSaved=   2.
 NSaved= 2 IEnMin= 2 EnMin= -119.022485558140     IErMin= 2 ErrMin= 8.06D-03
 ErrMax= 8.06D-03  0.00D+00 EMaxC= 1.00D-01 BMatC= 5.38D-03 BMatP= 1.37D-01
 IDIUse=3 WtCom= 9.19D-01 WtEn= 8.06D-02
 Coeff-Com:  0.119D+00 0.881D+00
 Coeff-En:   0.196D+00 0.804D+00
 Coeff:      0.125D+00 0.875D+00
 Gap=     0.383 Goal=   None    Shift=    0.000
 RMSDP=1.56D-03 MaxDP=1.83D-02 DE=-6.59D-02 OVMax= 1.13D-01

 Cycle   3  Pass 1  IDiag  1:
 E= -119.116582018985     Delta-E=       -0.094096460845 Rises=F Damp=F
 DIIS: error= 2.09D-03 at cycle   3 NSaved=   3.
 NSaved= 3 IEnMin= 3 EnMin= -119.116582018985     IErMin= 3 ErrMin= 2.09D-03
 ErrMax= 2.09D-03  0.00D+00 EMaxC= 1.00D-01 BMatC= 3.69D-04 BMatP= 5.38D-03
 IDIUse=3 WtCom= 9.79D-01 WtEn= 2.09D-02
 Coeff-Com:  0.185D-01 0.187D+00 0.794D+00
 Coeff-En:   0.000D+00 0.000D+00 0.100D+01
 Coeff:      0.181D-01 0.183D+00 0.798D+00
 Gap=     0.376 Goal=   None    Shift=    0.000
 RMSDP=2.74D-04 MaxDP=3.94D-03 DE=-9.41D-02 OVMax= 6.05D-03

 Cycle   4  Pass 1  IDiag  1:
 E= -119.116862148960     Delta-E=       -0.000280129975 Rises=F Damp=F
 DIIS: error= 6.15D-04 at cycle   4 NSaved=   4.
 NSaved= 4 IEnMin= 4 EnMin= -119.116862148960     IErMin= 4 ErrMin= 6.15D-04
 ErrMax= 6.15D-04  0.00D+00 EMaxC= 1.00D-01 BMatC= 6.48D-05 BMatP= 3.69D-04
 IDIUse=3 WtCom= 9.94D-01 WtEn= 6.15D-03
 Coeff-Com:  0.119D-02 0.253D-01 0.296D+00 0.678D+00
 Coeff-En:   0.000D+00 0.000D+00 0.000D+00 0.100D+01
 Coeff:      0.118D-02 0.252D-01 0.294D+00 0.680D+00
 Gap=     0.376 Goal=   None    Shift=    0.000
 RMSDP=1.00D-04 MaxDP=2.53D-03 DE=-2.80D-04 OVMax= 2.47D-03

 Cycle   5  Pass 1  IDiag  1:
 E= -119.116915934783     Delta-E=       -0.000053785823 Rises=F Damp=F
 DIIS: error= 2.72D-04 at cycle   5 NSaved=   5.
 NSaved= 5 IEnMin= 5 EnMin= -119.116915934783     IErMin= 5 ErrMin= 2.72D-04
 ErrMax= 2.72D-04  0.00D+00 EMaxC= 1.00D-01 BMatC= 9.48D-06 BMatP= 6.48D-05
 IDIUse=3 WtCom= 9.97D-01 WtEn= 2.72D-03
 Coeff-Com: -0.772D-03-0.328D-02 0.735D-01 0.331D+00 0.600D+00
 Coeff-En:   0.000D+00 0.000D+00 0.000D+00 0.507D-01 0.949D+00
 Coeff:     -0.770D-03-0.327D-02 0.733D-01 0.330D+00 0.601D+00
 Gap=     0.377 Goal=   None    Shift=    0.000
 RMSDP=3.13D-05 MaxDP=8.02D-04 DE=-5.38D-05 OVMax= 7.91D-04

 Cycle   6  Pass 1  IDiag  1:
 E= -119.116925151977     Delta-E=       -0.000009217194 Rises=F Damp=F
 DIIS: error= 2.18D-05 at cycle   6 NSaved=   6.
 NSaved= 6 IEnMin= 6 EnMin= -119.116925151977     IErMin= 6 ErrMin= 2.18D-05
 ErrMax= 2.18D-05  0.00D+00 EMaxC= 1.00D-01 BMatC= 4.13D-08 BMatP= 9.48D-06
 IDIUse=1 WtCom= 1.00D+00 WtEn= 0.00D+00
 Coeff-Com: -0.138D-03-0.129D-02 0.136D-01 0.737D-01 0.160D+00 0.754D+00
 Coeff:     -0.138D-03-0.129D-02 0.136D-01 0.737D-01 0.160D+00 0.754D+00
 Gap=     0.377 Goal=   None    Shift=    0.000
 RMSDP=3.36D-06 MaxDP=5.95D-05 DE=-9.22D-06 OVMax= 6.70D-05

 Cycle   7  Pass 1  IDiag  1:
 E= -119.116925199762     Delta-E=       -0.000000047785 Rises=F Damp=F
 DIIS: error= 2.08D-06 at cycle   7 NSaved=   7.
 NSaved= 7 IEnMin= 7 EnMin= -119.116925199762     IErMin= 7 ErrMin= 2.08D-06
 ErrMax= 2.08D-06  0.00D+00 EMaxC= 1.00D-01 BMatC= 5.07D-10 BMatP= 4.13D-08
 IDIUse=1 WtCom= 1.00D+00 WtEn= 0.00D+00
 Coeff-Com:  0.334D-04-0.391D-04-0.108D-02-0.346D-02-0.307D-02 0.813D-01
 Coeff-Com:  0.926D+00
 Coeff:      0.334D-04-0.391D-04-0.108D-02-0.346D-02-0.307D-02 0.813D-01
 Coeff:      0.926D+00
 Gap=     0.377 Goal=   None    Shift=    0.000
 RMSDP=3.88D-07 MaxDP=5.82D-06 DE=-4.78D-08 OVMax= 7.85D-06

 Cycle   8  Pass 1  IDiag  1:
 E= -119.116925200321     Delta-E=       -0.000000000559 Rises=F Damp=F
 DIIS: error= 6.69D-07 at cycle   8 NSaved=   8.
 NSaved= 8 IEnMin= 8 EnMin= -119.116925200321     IErMin= 8 ErrMin= 6.69D-07
 ErrMax= 6.69D-07  0.00D+00 EMaxC= 1.00D-01 BMatC= 5.57D-11 BMatP= 5.07D-10
 IDIUse=1 WtCom= 1.00D+00 WtEn= 0.00D+00
 Coeff-Com:  0.152D-04-0.537D-05-0.608D-03-0.222D-02-0.281D-02 0.287D-01
 Coeff-Com:  0.406D+00 0.571D+00
 Coeff:      0.152D-04-0.537D-05-0.608D-03-0.222D-02-0.281D-02 0.287D-01
 Coeff:      0.406D+00 0.571D+00
 Gap=     0.377 Goal=   None    Shift=    0.000
 RMSDP=9.41D-08 MaxDP=1.79D-06 DE=-5.59D-10 OVMax= 2.37D-06

 Cycle   9  Pass 1  IDiag  1:
 E= -119.116925200374     Delta-E=       -0.000000000054 Rises=F Damp=F
 DIIS: error= 1.82D-07 at cycle   9 NSaved=   9.
 NSaved= 9 IEnMin= 9 EnMin= -119.116925200374     IErMin= 9 ErrMin= 1.82D-07
 ErrMax= 1.82D-07  0.00D+00 EMaxC= 1.00D-01 BMatC= 4.24D-12 BMatP= 5.57D-11
 IDIUse=1 WtCom= 1.00D+00 WtEn= 0.00D+00
 Coeff-Com:  0.580D-06 0.290D-05-0.810D-04-0.339D-03-0.557D-03 0.381D-03
 Coeff-Com:  0.305D-01 0.222D+00 0.748D+00
 Coeff:      0.580D-06 0.290D-05-0.810D-04-0.339D-03-0.557D-03 0.381D-03
 Coeff:      0.305D-01 0.222D+00 0.748D+00
 Gap=     0.377 Goal=   None    Shift=    0.000
 RMSDP=2.31D-08 MaxDP=4.82D-07 DE=-5.38D-11 OVMax= 6.01D-07

 Cycle  10  Pass 1  IDiag  1:
 E= -119.116925200379     Delta-E=       -0.000000000005 Rises=F Damp=F
 DIIS: error= 3.88D-08 at cycle  10 NSaved=  10.
 NSaved=10 IEnMin=10 EnMin= -119.116925200379     IErMin=10 ErrMin= 3.88D-08
 ErrMax= 3.88D-08  0.00D+00 EMaxC= 1.00D-01 BMatC= 9.64D-14 BMatP= 4.24D-12
 IDIUse=1 WtCom= 1.00D+00 WtEn= 0.00D+00
 Coeff-Com: -0.460D-06 0.110D-05-0.378D-05-0.272D-04-0.689D-04-0.884D-03
 Coeff-Com: -0.422D-02 0.526D-01 0.244D+00 0.709D+00
 Coeff:     -0.460D-06 0.110D-05-0.378D-05-0.272D-04-0.689D-04-0.884D-03
 Coeff:     -0.422D-02 0.526D-01 0.244D+00 0.709D+00
 Gap=     0.377 Goal=   None    Shift=    0.000
 RMSDP=4.87D-09 MaxDP=6.36D-08 DE=-4.60D-12 OVMax= 9.08D-08

 Error on total polarization charges =  0.00619
 SCF Done:  E(RB3LYP) =  -119.116925200     A.U. after   10 cycles
            NFock= 10  Conv=0.49D-08     -V/T= 2.0072
 KE= 1.182657127340D+02 PE=-4.415099015625D+02 EE= 1.207860393429D+02
 Leave Link  502 at Fri Sep 22 16:28:59 2023, MaxMem=   268435456 cpu:              28.5 elap:              14.4
 (Enter /share/apps/gaussian/g16/l601.exe)
 Copying SCF densities to generalized density rwf, IOpCl= 0 IROHF=0.

 **********************************************************************

            Population analysis using the SCF density.

 **********************************************************************

 Orbital symmetries:
       Occupied  (A) (A) (A) (A) (A) (A) (A) (A) (A) (A) (A) (A)
                 (A)
       Virtual   (A) (A) (A) (A) (A) (A) (A) (A) (A) (A) (A) (A)
                 (A) (A) (A) (A) (A) (A) (A) (A) (A) (A) (A) (A)
                 (A) (A) (A) (A) (A) (A) (A) (A) (A) (A) (A) (A)
                 (A) (A) (A) (A) (A) (A) (A) (A) (A) (A) (A) (A)
                 (A) (A) (A) (A) (A) (A) (A) (A) (A) (A) (A) (A)
                 (A) (A) (A) (A) (A) (A) (A) (A) (A)
 The electronic state is 1-A.
 Alpha  occ. eigenvalues --  -10.16747 -10.16615 -10.16407  -0.78965  -0.66928
 Alpha  occ. eigenvalues --   -0.58517  -0.46587  -0.44945  -0.38961  -0.36504
 Alpha  occ. eigenvalues --   -0.34811  -0.33197  -0.32879
 Alpha virt. eigenvalues --    0.04773   0.07814   0.08246   0.08946   0.11315
 Alpha virt. eigenvalues --    0.14176   0.15052   0.17020   0.19929   0.24046
 Alpha virt. eigenvalues --    0.36004   0.37664   0.40670   0.41178   0.44765
 Alpha virt. eigenvalues --    0.57261   0.59764   0.60464   0.61650   0.62083
 Alpha virt. eigenvalues --    0.64470   0.64508   0.65570   0.66876   0.67694
 Alpha virt. eigenvalues --    0.69146   0.69674   0.90978   1.15819   1.22593
 Alpha virt. eigenvalues --    1.29365   1.31935   1.53834   1.54808   1.63227
 Alpha virt. eigenvalues --    1.73551   1.73780   1.79296   1.83270   1.86452
 Alpha virt. eigenvalues --    1.88010   1.89053   1.90219   1.93463   1.97742
 Alpha virt. eigenvalues --    2.05974   2.06337   2.12201   2.15397   2.20310
 Alpha virt. eigenvalues --    2.28553   2.33481   2.45938   2.46852   2.48829
 Alpha virt. eigenvalues --    2.59157   2.61403   2.66983   2.74024   2.81734
 Alpha virt. eigenvalues --    2.82852   2.96425   3.03205   3.10864   3.14567
 Alpha virt. eigenvalues --    3.17145   3.23572   3.28568   3.34962
          Condensed to atoms (all electrons):
               1          2          3          4          5          6
     1  C    4.832179   0.391182  -0.115098   0.396975   0.393053   0.409056
     2  C    0.391182   4.877243   0.398826  -0.035342  -0.025058  -0.054185
     3  C   -0.115098   0.398826   4.815493   0.000711   0.010251  -0.029192
     4  H    0.396975  -0.035342   0.000711   0.596991  -0.025494  -0.023615
     5  H    0.393053  -0.025058   0.010251  -0.025494   0.595824  -0.024558
     6  H    0.409056  -0.054185  -0.029192  -0.023615  -0.024558   0.625634
     7  H   -0.027721   0.391568  -0.026099  -0.013125   0.001486   0.009715
     8  H   -0.032322   0.397368  -0.032552   0.009796  -0.011156  -0.003262
     9  H   -0.027225  -0.046839   0.412204  -0.001368   0.002200   0.009307
    10  H    0.000603  -0.037025   0.396577   0.003692  -0.000345  -0.001512
    11  H    0.010491  -0.025006   0.393053  -0.000377  -0.000728   0.002456
               7          8          9         10         11
     1  C   -0.027721  -0.032322  -0.027225   0.000603   0.010491
     2  C    0.391568   0.397368  -0.046839  -0.037025  -0.025006
     3  C   -0.026099  -0.032552   0.412204   0.396577   0.393053
     4  H   -0.013125   0.009796  -0.001368   0.003692  -0.000377
     5  H    0.001486  -0.011156   0.002200  -0.000345  -0.000728
     6  H    0.009715  -0.003262   0.009307  -0.001512   0.002456
     7  H    0.612155  -0.036308   0.009034  -0.013220   0.001105
     8  H   -0.036308   0.624569  -0.003454   0.009963  -0.010133
     9  H    0.009034  -0.003454   0.613688  -0.024681  -0.024399
    10  H   -0.013220   0.009963  -0.024681   0.604408  -0.025944
    11  H    0.001105  -0.010133  -0.024399  -0.025944   0.595154
 Mulliken charges:
               1
     1  C   -0.231173
     2  C   -0.232734
     3  C   -0.224175
     4  H    0.091156
     5  H    0.084524
     6  H    0.080156
     7  H    0.091410
     8  H    0.087491
     9  H    0.081532
    10  H    0.087484
    11  H    0.084328
 Sum of Mulliken charges =  -0.00000
 Mulliken charges with hydrogens summed into heavy atoms:
               1
     1  C    0.024664
     2  C   -0.053833
     3  C    0.029170
 Electronic spatial extent (au):  <R**2>=            217.4462
 Charge=             -0.0000 electrons
 Dipole moment (field-independent basis, Debye):
    X=              0.0094    Y=              0.1601    Z=              0.0550  Tot=              0.1696
 Quadrupole moment (field-independent basis, Debye-Ang):
   XX=            -23.0278   YY=            -22.4637   ZZ=            -21.5393
   XY=             -0.1093   XZ=             -0.0176   YZ=             -0.0187
 Traceless Quadrupole moment (field-independent basis, Debye-Ang):
   XX=             -0.6842   YY=             -0.1201   ZZ=              0.8043
   XY=             -0.1093   XZ=             -0.0176   YZ=             -0.0187
 Octapole moment (field-independent basis, Debye-Ang**2):
  XXX=              0.1647  YYY=              0.6270  ZZZ=              1.0363  XYY=              0.1489
  XXY=              1.8760  XXZ=             -0.1250  XZZ=             -0.1074  YZZ=              0.2565
  YYZ=             -0.3167  XYZ=              0.1176
 Hexadecapole moment (field-independent basis, Debye-Ang**3):
 XXXX=           -187.0417 YYYY=            -79.2294 ZZZZ=            -45.1462 XXXY=             -0.1243
 XXXZ=              0.0366 YYYX=             -0.4569 YYYZ=              0.9295 ZZZX=             -0.0874
 ZZZY=             -0.7640 XXYY=            -45.8085 XXZZ=            -38.3946 YYZZ=            -19.4204
 XXYZ=             -1.5358 YYXZ=             -0.1383 ZZXY=             -0.1042
 N-N= 8.334122428514D+01 E-N=-4.415099009800D+02  KE= 1.182657127340D+02
 There are a total of      243782 grid points.
 ElSum from          density=       25.9999989080
 ElSum from atomic densities=       25.9999979549
 Hirshfeld populations at iteration   1 (CA, CB, DipXYZ):
               1          2          3          4          5
     1  C    3.038729   3.038729   0.015737   0.031936   0.010347
     2  C    3.020918   3.020918   0.002710  -0.016624   0.004416
     3  C    3.039343   3.039343  -0.017536   0.027740   0.001517
     4  H    0.486858   0.486858  -0.024223  -0.032594   0.129138
     5  H    0.488669   0.488669  -0.104569   0.061520  -0.057885
     6  H    0.487664   0.487664   0.043231  -0.086610  -0.071935
     7  H    0.486930   0.486930  -0.002632   0.078279   0.106869
     8  H    0.487809   0.487809  -0.003382   0.068903  -0.111484
     9  H    0.487137   0.487137  -0.032301  -0.095281  -0.072989
    10  H    0.487277   0.487277   0.020736  -0.033471   0.127214
    11  H    0.488666   0.488666   0.107866   0.061633  -0.047605
       Tot  12.999999  12.999999   0.005637   0.065430   0.017603

 Dip from Atomic Chgs             -0.001924  -0.002434   0.004042
         Total Dipole              0.003713   0.062995   0.021645

 Hirshfeld charges, spin densities, dipoles, and CM5 charges using IRadAn=      5:
              Q-H        S-H        Dx         Dy         Dz        Q-CM5   
     1  C   -0.077457   0.000000   0.015737   0.031936   0.010347  -0.221441
     2  C   -0.041835   0.000000   0.002710  -0.016624   0.004416  -0.156225
     3  C   -0.078685   0.000000  -0.017536   0.027740   0.001517  -0.225957
     4  H    0.026285   0.000000  -0.024223  -0.032594   0.129138   0.076992
     5  H    0.022662   0.000000  -0.104569   0.061520  -0.057885   0.073376
     6  H    0.024671   0.000000   0.043231  -0.086610  -0.071935   0.071058
     7  H    0.026140   0.000000  -0.002632   0.078279   0.106869   0.079579
     8  H    0.024381   0.000000  -0.003382   0.068903  -0.111484   0.078049
     9  H    0.025726   0.000000  -0.032301  -0.095281  -0.072989   0.075073
    10  H    0.025445   0.000000   0.020736  -0.033471   0.127214   0.076329
    11  H    0.022668   0.000000   0.107866   0.061633  -0.047605   0.073167
       Tot   0.000001   0.000000   0.005637   0.065430   0.017603   0.000001
 Hirshfeld charges with hydrogens summed into heavy atoms:
              Q-H       Q-CM5   
     1  C   -0.003839  -0.000015
     2  C    0.008686   0.001404
     3  C   -0.004846  -0.001388
 
 EQQ= 0.000000000000E+00 EQD= 0.000000000000E+00 EDD=-0.155168793503E-02
 EQQ+QD+DD=-0.155168793503E-02
 
 No NMR shielding tensors so no spin-rotation constants.
 Leave Link  601 at Fri Sep 22 16:29:00 2023, MaxMem=   268435456 cpu:               1.9 elap:               1.0
 (Enter /share/apps/gaussian/g16/l9999.exe)
 1\1\GINC-NODE99\SP\RB3LYP\Gen\C3H8\YANZ\22-Sep-2023\0\\#p b3lyp/gen sc
 rf=(cpcm,solvent=toluene) pop=hirshfeld empiricaldispersion=gd3bj\\tmp
 dir/M2_ref_183.gjf\\0,1\C,0,5.777894,-0.561021,0.379228\C,0,6.321564,0
 .842942,0.62326401\C,0,6.150966,1.526581,-0.73247999\H,0,6.536637,-1.2
 1037,-0.076759\H,0,5.392172,-1.03053,1.28774703\H,0,4.91200856,-0.3773
 4202,-0.37037027\H,0,7.363221,0.824559,0.96094102\H,0,5.729231,1.34582
 3,1.39640105\H,0,5.19267992,1.11678479,-1.16144909\H,0,6.982866,1.2541
 21,-1.39516306\H,0,6.116841,2.618276,-0.67052197\\Version=ES64L-G16Rev
 A.03\State=1-A\HF=-119.1169252\RMSD=4.865e-09\Dipole=0.0446794,0.02043
 02,0.0451383\Quadrupole=0.4436609,-0.3824859,-0.061175,-0.2982298,-0.1
 413107,0.1918302\PG=C01 [X(C3H8)]\\@


0EVERYBODY IS IGNORANT, ONLY ON DIFFERENT SUBJECTS.
0          WILL ROGERS
 Job cpu time:       0 days  0 hours  0 minutes 33.7 seconds.
 Elapsed time:       0 days  0 hours  0 minutes 17.1 seconds.
 File lengths (MBytes):  RWF=     13 Int=      0 D2E=      0 Chk=      2 Scr=      1
 Normal termination of Gaussian 16 at Fri Sep 22 16:29:00 2023.
