 Entering Gaussian System, Link 0=g16
 Initial command:
 /share/apps/gaussian/g16/l1.exe "/tmp/55556.mgr/Gau-80317.inp" -scrdir="/tmp/55556.mgr/"
 Entering Link 1 = /share/apps/gaussian/g16/l1.exe PID=     80318.
  
 Copyright (c) 1988,1990,1992,1993,1995,1998,2003,2009,2016,
            Gaussian, Inc.  All Rights Reserved.
  
 This is part of the Gaussian(R) 16 program.  It is based on
 the Gaussian(R) 09 system (copyright 2009, Gaussian, Inc.),
 the Gaussian(R) 03 system (copyright 2003, Gaussian, Inc.),
 the Gaussian(R) 98 system (copyright 1998, Gaussian, Inc.),
 the Gaussian(R) 94 system (copyright 1995, Gaussian, Inc.),
 the Gaussian 92(TM) system (copyright 1992, Gaussian, Inc.),
 the Gaussian 90(TM) system (copyright 1990, Gaussian, Inc.),
 the Gaussian 88(TM) system (copyright 1988, Gaussian, Inc.),
 the Gaussian 86(TM) system (copyright 1986, Carnegie Mellon
 University), and the Gaussian 82(TM) system (copyright 1983,
 Carnegie Mellon University). Gaussian is a federally registered
 trademark of Gaussian, Inc.
  
 This software contains proprietary and confidential information,
 including trade secrets, belonging to Gaussian, Inc.
  
 This software is provided under written license and may be
 used, copied, transmitted, or stored only in accord with that
 written license.
  
 The following legend is applicable only to US Government
 contracts under FAR:
  
                    RESTRICTED RIGHTS LEGEND
  
 Use, reproduction and disclosure by the US Government is
 subject to restrictions as set forth in subparagraphs (a)
 and (c) of the Commercial Computer Software - Restricted
 Rights clause in FAR 52.227-19.
  
 Gaussian, Inc.
 340 Quinnipiac St., Bldg. 40, Wallingford CT 06492
  
  
 ---------------------------------------------------------------
 Warning -- This program may not be used in any manner that
 competes with the business of Gaussian, Inc. or will provide
 assistance to any competitor of Gaussian, Inc.  The licensee
 of this program is prohibited from giving any competitor of
 Gaussian, Inc. access to this program.  By using this program,
 the user acknowledges that Gaussian, Inc. is engaged in the
 business of creating and licensing software in the field of
 computational chemistry and represents and warrants to the
 licensee that it is not a competitor of Gaussian, Inc. and that
 it will not use this program in any manner prohibited above.
 ---------------------------------------------------------------
  

 Cite this work as:
 Gaussian 16, Revision A.03,
 M. J. Frisch, G. W. Trucks, H. B. Schlegel, G. E. Scuseria, 
 M. A. Robb, J. R. Cheeseman, G. Scalmani, V. Barone, 
 G. A. Petersson, H. Nakatsuji, X. Li, M. Caricato, A. V. Marenich, 
 J. Bloino, B. G. Janesko, R. Gomperts, B. Mennucci, H. P. Hratchian, 
 J. V. Ortiz, A. F. Izmaylov, J. L. Sonnenberg, D. Williams-Young, 
 F. Ding, F. Lipparini, F. Egidi, J. Goings, B. Peng, A. Petrone, 
 T. Henderson, D. Ranasinghe, V. G. Zakrzewski, J. Gao, N. Rega, 
 G. Zheng, W. Liang, M. Hada, M. Ehara, K. Toyota, R. Fukuda, 
 J. Hasegawa, M. Ishida, T. Nakajima, Y. Honda, O. Kitao, H. Nakai, 
 T. Vreven, K. Throssell, J. A. Montgomery, Jr., J. E. Peralta, 
 F. Ogliaro, M. J. Bearpark, J. J. Heyd, E. N. Brothers, K. N. Kudin, 
 V. N. Staroverov, T. A. Keith, R. Kobayashi, J. Normand, 
 K. Raghavachari, A. P. Rendell, J. C. Burant, S. S. Iyengar, 
 J. Tomasi, M. Cossi, J. M. Millam, M. Klene, C. Adamo, R. Cammi, 
 J. W. Ochterski, R. L. Martin, K. Morokuma, O. Farkas, 
 J. B. Foresman, and D. J. Fox, Gaussian, Inc., Wallingford CT, 2016.
 
 ******************************************
 Gaussian 16:  ES64L-G16RevA.03 25-Dec-2016
                22-Sep-2023 
 ******************************************
 %nprocshared=2
 Will use up to    2 processors via shared memory.
 %mem=2GB
 ----------------------------------------------------------------------
 #p b3lyp/gen scrf=(cpcm,solvent=toluene) pop=hirshfeld empiricaldisper
 sion=gd3bj
 ----------------------------------------------------------------------
 1/38=1,172=1/1;
 2/12=2,17=6,18=5,40=1/2;
 3/5=7,11=2,25=1,30=1,70=2101,72=13,74=-5,124=41/1,2,3;
 4//1;
 5/5=2,38=5,53=13/2;
 6/7=2,8=2,9=2,10=2,28=1,79=1/1;
 99/5=1,9=1/99;
 Leave Link    1 at Fri Sep 22 16:29:14 2023, MaxMem=   268435456 cpu:               0.1 elap:               0.0
 (Enter /share/apps/gaussian/g16/l101.exe)
 ---------------------
 tmpdir/M2_ref_226.gjf
 ---------------------
 Symbolic Z-matrix:
 Charge =  0 Multiplicity = 1
 C                     1.64048   3.77672  -0.33098 
 C                     0.65469   4.75079  -0.02392 
 H                     1.99111   3.70606  -1.30265 
 C                     2.15655   2.87429   0.63849 
 C                     0.13939   5.56203  -1.00952 
 H                     0.32576   4.85519   1.00663 
 
 ITRead=  0  0  0  0  0  0
 MicOpt= -1 -1 -1 -1 -1 -1
 NAtoms=      6 NQM=        6 NQMF=       0 NMMI=      0 NMMIF=      0
                NMic=       0 NMicF=      0.
                    Isotopes and Nuclear Properties:
 (Nuclear quadrupole moments (NQMom) in fm**2, nuclear magnetic moments (NMagM)
  in nuclear magnetons)

  Atom         1           2           3           4           5           6
 IAtWgt=          12          12           1          12          12           1
 AtmWgt=  12.0000000  12.0000000   1.0078250  12.0000000  12.0000000   1.0078250
 NucSpn=           0           0           1           0           0           1
 AtZEff=  -0.0000000  -0.0000000  -0.0000000  -0.0000000  -0.0000000  -0.0000000
 NQMom=    0.0000000   0.0000000   0.0000000   0.0000000   0.0000000   0.0000000
 NMagM=    0.0000000   0.0000000   2.7928460   0.0000000   0.0000000   2.7928460
 AtZNuc=   6.0000000   6.0000000   1.0000000   6.0000000   6.0000000   1.0000000
 Leave Link  101 at Fri Sep 22 16:29:14 2023, MaxMem=   268435456 cpu:               0.2 elap:               0.1
 (Enter /share/apps/gaussian/g16/l202.exe)
                          Input orientation:                          
 ---------------------------------------------------------------------
 Center     Atomic      Atomic             Coordinates (Angstroms)
 Number     Number       Type             X           Y           Z
 ---------------------------------------------------------------------
      1          6           0        1.640478    3.776720   -0.330975
      2          6           0        0.654688    4.750794   -0.023924
      3          1           0        1.991107    3.706057   -1.302654
      4          6           0        2.156554    2.874293    0.638489
      5          6           0        0.139387    5.562027   -1.009519
      6          1           0        0.325761    4.855187    1.006630
 ---------------------------------------------------------------------
                    Distance matrix (angstroms):
                    1          2          3          4          5
     1  C    0.000000
     2  C    1.419466   0.000000
     3  H    1.035420   2.124298   0.000000
     4  C    1.421467   2.493120   2.118310   0.000000
     5  C    2.429201   1.376601   2.638071   3.742834   0.000000
     6  H    2.163506   1.086799   3.070288   2.722365   2.144578
                    6
     6  H    0.000000
 Stoichiometry    C4H2
 Framework group  C1[X(C4H2)]
 Deg. of freedom    12
 Full point group                 C1      NOp   1
 Largest Abelian subgroup         C1      NOp   1
 Largest concise Abelian subgroup C1      NOp   1
                         Standard orientation:                         
 ---------------------------------------------------------------------
 Center     Atomic      Atomic             Coordinates (Angstroms)
 Number     Number       Type             X           Y           Z
 ---------------------------------------------------------------------
      1          6           0       -0.576214   -0.388777    0.016154
      2          6           0        0.605434    0.397696    0.009127
      3          1           0       -0.492564   -1.420675    0.032949
      4          6           0       -1.878072    0.180841   -0.019490
      5          6           0        1.845370   -0.199665   -0.018262
      6          1           0        0.513460    1.480101    0.041878
 ---------------------------------------------------------------------
 Rotational constants (GHZ):          57.3336943           5.4858420           5.0083097
 Leave Link  202 at Fri Sep 22 16:29:14 2023, MaxMem=   268435456 cpu:               0.1 elap:               0.0
 (Enter /share/apps/gaussian/g16/l301.exe)
 General basis read from cards:  (5D, 7F)
 Centers:       3      6
 S 3 1.00
     Exponent=  1.2251800000D+01 Coefficients=  2.3337100000D-02
     Exponent=  1.8687100000D+00 Coefficients=  1.5915000000D-01
     Exponent=  4.1820800000D-01 Coefficients=  5.0000000000D-01
 S 1 1.00
     Exponent=  1.0610000000D-01 Coefficients=  1.0000000000D+00
 P 1 1.00
     Exponent=  1.0000000000D+00 Coefficients=  1.0000000000D+00
 ****
 Centers:       1      2      4      5
 S 5 1.00
     Exponent=  1.2432000000D+03 Coefficients=  6.0336600000D-03
     Exponent=  1.8714500000D+02 Coefficients=  4.4957600000D-02
     Exponent=  4.2512600000D+01 Coefficients=  1.9790100000D-01
     Exponent=  1.1739300000D+01 Coefficients=  5.0000000000D-01
     Exponent=  3.5054800000D+00 Coefficients=  4.8036400000D-01
 S 2 1.00
     Exponent=  5.3908900000D+00 Coefficients= -7.0398000000D-02
     Exponent=  4.9334100000D-01 Coefficients=  5.0000000000D-01
 S 1 1.00
     Exponent=  1.4974100000D-01 Coefficients=  1.0000000000D+00
 P 3 1.00
     Exponent=  9.1805600000D+00 Coefficients=  4.3170100000D-02
     Exponent=  1.9365800000D+00 Coefficients=  2.2499900000D-01
     Exponent=  5.2629600000D-01 Coefficients=  5.0000000000D-01
 P 1 1.00
     Exponent=  1.3631900000D-01 Coefficients=  1.0000000000D+00
 D 1 1.00
     Exponent=  8.0000000000D-01 Coefficients=  1.0000000000D+00
 ****
 Ernie: Thresh=  0.10000D-02 Tol=  0.10000D-05 Strict=F.
 There are    70 symmetry adapted cartesian basis functions of A   symmetry.
 There are    66 symmetry adapted basis functions of A   symmetry.
    66 basis functions,   118 primitive gaussians,    70 cartesian basis functions
    13 alpha electrons       13 beta electrons
       nuclear repulsion energy        75.7063737062 Hartrees.
 IExCor=  402 DFT=T Ex+Corr=B3LYP ExCW=0 ScaHFX=  0.200000
 ScaDFX=  0.800000  0.720000  1.000000  0.810000 ScalE2=  1.000000  1.000000
 IRadAn=      5 IRanWt=     -1 IRanGd=            0 ICorTp=0 IEmpDi=141
 NAtoms=    6 NActive=    6 NUniq=    6 SFac= 1.00D+00 NAtFMM=   60 NAOKFM=F Big=F
 Integral buffers will be    131072 words long.
 Raffenetti 2 integral format.
 Two-electron integral symmetry is turned on.
 R6Disp:  Grimme-D3(BJ) Dispersion energy=       -0.0077243701 Hartrees.
 Nuclear repulsion after empirical dispersion term =       75.6986493361 Hartrees.
 ------------------------------------------------------------------------------
 Polarizable Continuum Model (PCM)
 =================================
 Model                : C-PCM.
 Atomic radii         : UFF (Universal Force Field).
 Polarization charges : Total charges.
 Charge compensation  : None.
 Solution method      : On-the-fly selection.
 Cavity type          : Scaled VdW (van der Waals Surface) (Alpha=1.100).
 Cavity algorithm     : GePol (No added spheres)
                        Default sphere list used, NSphG=    6.
                        Lebedev-Laikov grids with approx.  5.0 points / Ang**2.
                        Smoothing algorithm: York/Karplus (Gamma=1.0000).
                        Polarization charges: spherical gaussians, with
                                              point-specific exponents (IZeta= 3).
                        Self-potential: point-specific (ISelfS= 7).
                        Self-field    : sphere-specific E.n sum rule (ISelfD= 2).
 Solvent              : Toluene, Eps=   2.374100 Eps(inf)=   2.238315
 ------------------------------------------------------------------------------
 Spheres list:
 ISph  on   Nord     Re0    Alpha      Xe            Ye            Ze
    1   C      1    1.9255  1.100     -0.576214     -0.388777      0.016154
    2   C      2    1.9255  1.100      0.605434      0.397696      0.009127
    3   H      3    1.4430  1.100     -0.492564     -1.420675      0.032949
    4   C      4    1.9255  1.100     -1.878072      0.180841     -0.019490
    5   C      5    1.9255  1.100      1.845370     -0.199665     -0.018262
    6   H      6    1.4430  1.100      0.513460      1.480101      0.041878
 ------------------------------------------------------------------------------
 GePol: Number of generator spheres                  =       6
 GePol: Total number of spheres                      =       6
 GePol: Number of exposed spheres                    =       6 (100.00%)
 GePol: Number of points                             =     749
 GePol: Average weight of points                     =       0.16
 GePol: Minimum weight of points                     =   0.79D-07
 GePol: Maximum weight of points                     =    0.20577
 GePol: Number of points with low weight             =      27
 GePol: Fraction of low-weight points (<1% of avg)   =       3.60%
 GePol: Cavity surface area                          =    117.150 Ang**2
 GePol: Cavity volume                                =    102.146 Ang**3
 Leave Link  301 at Fri Sep 22 16:29:14 2023, MaxMem=   268435456 cpu:               0.2 elap:               0.1
 (Enter /share/apps/gaussian/g16/l302.exe)
 NPDir=0 NMtPBC=     1 NCelOv=     1 NCel=       1 NClECP=     1 NCelD=      1
         NCelK=      1 NCelE2=     1 NClLst=     1 CellRange=     0.0.
 One-electron integrals computed using PRISM.
 One-electron integral symmetry used in STVInt
 NBasis=    66 RedAO= T EigKep=  4.17D-03  NBF=    66
 NBsUse=    66 1.00D-06 EigRej= -1.00D+00 NBFU=    66
 Precomputing XC quadrature grid using
 IXCGrd= 4 IRadAn=           5 IRanWt=          -1 IRanGd=           0 AccXCQ= 0.00D+00.
 Generated NRdTot=       0 NPtTot=           0 NUsed=           0 NTot=          32
 NSgBfM=    70    70    70    70    70 MxSgAt=     6 MxSgA2=     6.
 Leave Link  302 at Fri Sep 22 16:29:14 2023, MaxMem=   268435456 cpu:               0.3 elap:               0.1
 (Enter /share/apps/gaussian/g16/l303.exe)
 DipDrv:  MaxL=1.
 Leave Link  303 at Fri Sep 22 16:29:14 2023, MaxMem=   268435456 cpu:               0.1 elap:               0.1
 (Enter /share/apps/gaussian/g16/l401.exe)
 ExpMin= 1.06D-01 ExpMax= 1.24D+03 ExpMxC= 1.87D+02 IAcc=3 IRadAn=         5 AccDes= 0.00D+00
 Harris functional with IExCor=  402 and IRadAn=       5 diagonalized for initial guess.
 HarFok:  IExCor=  402 AccDes= 0.00D+00 IRadAn=         5 IDoV= 1 UseB2=F ITyADJ=14
 ICtDFT=  3500011 ScaDFX=  1.000000  1.000000  1.000000  1.000000
 FoFCou: FMM=F IPFlag=           0 FMFlag=      100000 FMFlg1=           0
         NFxFlg=           0 DoJE=T BraDBF=F KetDBF=T FulRan=T
         wScrn=  0.000000 ICntrl=       500 IOpCl=  0 I1Cent=   200000004 NGrid=           0
         NMat0=    1 NMatS0=      1 NMatT0=    0 NMatD0=    1 NMtDS0=    0 NMtDT0=    0
 Petite list used in FoFCou.
 Harris En= -153.299366668733    
 JPrj=0 DoOrth=F DoCkMO=F.
 Leave Link  401 at Fri Sep 22 16:29:15 2023, MaxMem=   268435456 cpu:               1.1 elap:               0.6
 (Enter /share/apps/gaussian/g16/l502.exe)
 Keep R1 ints in memory in canonical form, NReq=4230386.
 FoFCou: FMM=F IPFlag=           0 FMFlag=           0 FMFlg1=           0
         NFxFlg=           0 DoJE=F BraDBF=F KetDBF=F FulRan=T
         wScrn=  0.000000 ICntrl=       600 IOpCl=  0 I1Cent=           0 NGrid=           0
         NMat0=    1 NMatS0=   2211 NMatT0=    0 NMatD0=    1 NMtDS0=    0 NMtDT0=    0
 Symmetry not used in FoFCou.
 Two-electron integral symmetry not used.
 Closed shell SCF:
 Using DIIS extrapolation, IDIIS=  1040.
 NGot=   268435456 LenX=   265979008 LenY=   265973667
 Requested convergence on RMS density matrix=1.00D-08 within 128 cycles.
 Requested convergence on MAX density matrix=1.00D-06.
 Requested convergence on             energy=1.00D-06.
 No special actions if energy rises.

 Cycle   1  Pass 1  IDiag  1:
 Inv3:  Mode=1 IEnd=     1683003.
 Iteration    1 A*A^-1 deviation from unit magnitude is 3.77D-15 for    741.
 Iteration    1 A*A^-1 deviation from orthogonality  is 2.43D-15 for    747    643.
 Iteration    1 A^-1*A deviation from unit magnitude is 3.77D-15 for    741.
 Iteration    1 A^-1*A deviation from orthogonality  is 1.30D-15 for    655    551.
 E= -153.213216571840    
 DIIS: error= 3.04D-02 at cycle   1 NSaved=   1.
 NSaved= 1 IEnMin= 1 EnMin= -153.213216571840     IErMin= 1 ErrMin= 3.04D-02
 ErrMax= 3.04D-02  0.00D+00 EMaxC= 1.00D-01 BMatC= 7.80D-02 BMatP= 7.80D-02
 IDIUse=3 WtCom= 6.96D-01 WtEn= 3.04D-01
 Coeff-Com:  0.100D+01
 Coeff-En:   0.100D+01
 Coeff:      0.100D+01
 Gap=     0.086 Goal=   None    Shift=    0.000
 GapD=    0.086 DampG=0.500 DampE=0.500 DampFc=0.2500 IDamp=-1.
 Damping current iteration by 2.50D-01
 RMSDP=8.56D-03 MaxDP=1.81D-01              OVMax= 2.88D-01

 Cycle   2  Pass 1  IDiag  1:
 E= -153.242595109561     Delta-E=       -0.029378537721 Rises=F Damp=T
 DIIS: error= 1.42D-02 at cycle   2 NSaved=   2.
 NSaved= 2 IEnMin= 2 EnMin= -153.242595109561     IErMin= 2 ErrMin= 1.42D-02
 ErrMax= 1.42D-02  0.00D+00 EMaxC= 1.00D-01 BMatC= 1.13D-02 BMatP= 7.80D-02
 IDIUse=3 WtCom= 8.58D-01 WtEn= 1.42D-01
 Coeff-Com: -0.408D+00 0.141D+01
 Coeff-En:   0.000D+00 0.100D+01
 Coeff:     -0.350D+00 0.135D+01
 Gap=     0.122 Goal=   None    Shift=    0.000
 RMSDP=3.42D-03 MaxDP=4.06D-02 DE=-2.94D-02 OVMax= 2.05D-01

 Cycle   3  Pass 1  IDiag  1:
 E= -153.293796789616     Delta-E=       -0.051201680054 Rises=F Damp=F
 DIIS: error= 6.15D-03 at cycle   3 NSaved=   3.
 NSaved= 3 IEnMin= 3 EnMin= -153.293796789616     IErMin= 3 ErrMin= 6.15D-03
 ErrMax= 6.15D-03  0.00D+00 EMaxC= 1.00D-01 BMatC= 2.20D-03 BMatP= 1.13D-02
 IDIUse=3 WtCom= 9.39D-01 WtEn= 6.15D-02
 Coeff-Com: -0.197D+00 0.565D+00 0.632D+00
 Coeff-En:   0.000D+00 0.000D+00 0.100D+01
 Coeff:     -0.185D+00 0.530D+00 0.654D+00
 Gap=     0.125 Goal=   None    Shift=    0.000
 RMSDP=1.12D-03 MaxDP=2.28D-02 DE=-5.12D-02 OVMax= 2.91D-02

 Cycle   4  Pass 1  IDiag  1:
 E= -153.296451531818     Delta-E=       -0.002654742203 Rises=F Damp=F
 DIIS: error= 1.88D-03 at cycle   4 NSaved=   4.
 NSaved= 4 IEnMin= 4 EnMin= -153.296451531818     IErMin= 4 ErrMin= 1.88D-03
 ErrMax= 1.88D-03  0.00D+00 EMaxC= 1.00D-01 BMatC= 2.37D-04 BMatP= 2.20D-03
 IDIUse=3 WtCom= 9.81D-01 WtEn= 1.88D-02
 Coeff-Com: -0.525D-01 0.148D+00 0.279D+00 0.625D+00
 Coeff-En:   0.000D+00 0.000D+00 0.000D+00 0.100D+01
 Coeff:     -0.515D-01 0.145D+00 0.274D+00 0.632D+00
 Gap=     0.125 Goal=   None    Shift=    0.000
 RMSDP=4.13D-04 MaxDP=9.04D-03 DE=-2.65D-03 OVMax= 1.86D-02

 Cycle   5  Pass 1  IDiag  1:
 E= -153.296568169546     Delta-E=       -0.000116637728 Rises=F Damp=F
 DIIS: error= 1.65D-03 at cycle   5 NSaved=   5.
 NSaved= 5 IEnMin= 5 EnMin= -153.296568169546     IErMin= 5 ErrMin= 1.65D-03
 ErrMax= 1.65D-03  0.00D+00 EMaxC= 1.00D-01 BMatC= 1.48D-04 BMatP= 2.37D-04
 IDIUse=3 WtCom= 9.83D-01 WtEn= 1.65D-02
 Coeff-Com: -0.640D-02 0.174D-01 0.962D-01 0.458D+00 0.435D+00
 Coeff-En:   0.000D+00 0.000D+00 0.000D+00 0.403D+00 0.597D+00
 Coeff:     -0.630D-02 0.171D-01 0.946D-01 0.457D+00 0.438D+00
 Gap=     0.124 Goal=   None    Shift=    0.000
 RMSDP=2.07D-04 MaxDP=4.62D-03 DE=-1.17D-04 OVMax= 9.49D-03

 Cycle   6  Pass 1  IDiag  1:
 E= -153.296761974481     Delta-E=       -0.000193804935 Rises=F Damp=F
 DIIS: error= 1.17D-04 at cycle   6 NSaved=   6.
 NSaved= 6 IEnMin= 6 EnMin= -153.296761974481     IErMin= 6 ErrMin= 1.17D-04
 ErrMax= 1.17D-04  0.00D+00 EMaxC= 1.00D-01 BMatC= 1.19D-06 BMatP= 1.48D-04
 IDIUse=3 WtCom= 9.99D-01 WtEn= 1.17D-03
 Coeff-Com:  0.289D-02-0.660D-02 0.657D-02 0.783D-01 0.130D+00 0.789D+00
 Coeff-En:   0.000D+00 0.000D+00 0.000D+00 0.000D+00 0.000D+00 0.100D+01
 Coeff:      0.289D-02-0.659D-02 0.656D-02 0.782D-01 0.129D+00 0.790D+00
 Gap=     0.124 Goal=   None    Shift=    0.000
 RMSDP=2.14D-05 MaxDP=4.00D-04 DE=-1.94D-04 OVMax= 6.65D-04

 Cycle   7  Pass 1  IDiag  1:
 E= -153.296763509687     Delta-E=       -0.000001535206 Rises=F Damp=F
 DIIS: error= 2.27D-05 at cycle   7 NSaved=   7.
 NSaved= 7 IEnMin= 7 EnMin= -153.296763509687     IErMin= 7 ErrMin= 2.27D-05
 ErrMax= 2.27D-05  0.00D+00 EMaxC= 1.00D-01 BMatC= 6.14D-08 BMatP= 1.19D-06
 IDIUse=1 WtCom= 1.00D+00 WtEn= 0.00D+00
 Coeff-Com:  0.166D-02-0.330D-02-0.693D-03 0.772D-02 0.232D-01 0.230D+00
 Coeff-Com:  0.741D+00
 Coeff:      0.166D-02-0.330D-02-0.693D-03 0.772D-02 0.232D-01 0.230D+00
 Coeff:      0.741D+00
 Gap=     0.124 Goal=   None    Shift=    0.000
 RMSDP=4.77D-06 MaxDP=6.33D-05 DE=-1.54D-06 OVMax= 1.15D-04

 Cycle   8  Pass 1  IDiag  1:
 E= -153.296763574931     Delta-E=       -0.000000065244 Rises=F Damp=F
 DIIS: error= 1.13D-05 at cycle   8 NSaved=   8.
 NSaved= 8 IEnMin= 8 EnMin= -153.296763574931     IErMin= 8 ErrMin= 1.13D-05
 ErrMax= 1.13D-05  0.00D+00 EMaxC= 1.00D-01 BMatC= 8.80D-09 BMatP= 6.14D-08
 IDIUse=1 WtCom= 1.00D+00 WtEn= 0.00D+00
 Coeff-Com:  0.545D-03-0.907D-03-0.541D-03-0.355D-02-0.118D-02 0.215D-01
 Coeff-Com:  0.314D+00 0.670D+00
 Coeff:      0.545D-03-0.907D-03-0.541D-03-0.355D-02-0.118D-02 0.215D-01
 Coeff:      0.314D+00 0.670D+00
 Gap=     0.124 Goal=   None    Shift=    0.000
 RMSDP=1.83D-06 MaxDP=2.29D-05 DE=-6.52D-08 OVMax= 4.07D-05

 Cycle   9  Pass 1  IDiag  1:
 E= -153.296763585562     Delta-E=       -0.000000010632 Rises=F Damp=F
 DIIS: error= 2.11D-06 at cycle   9 NSaved=   9.
 NSaved= 9 IEnMin= 9 EnMin= -153.296763585562     IErMin= 9 ErrMin= 2.11D-06
 ErrMax= 2.11D-06  0.00D+00 EMaxC= 1.00D-01 BMatC= 5.59D-10 BMatP= 8.80D-09
 IDIUse=1 WtCom= 1.00D+00 WtEn= 0.00D+00
 Coeff-Com:  0.934D-04-0.112D-03-0.753D-04-0.186D-02-0.215D-02-0.102D-01
 Coeff-Com:  0.634D-01 0.274D+00 0.677D+00
 Coeff:      0.934D-04-0.112D-03-0.753D-04-0.186D-02-0.215D-02-0.102D-01
 Coeff:      0.634D-01 0.274D+00 0.677D+00
 Gap=     0.124 Goal=   None    Shift=    0.000
 RMSDP=4.23D-07 MaxDP=4.83D-06 DE=-1.06D-08 OVMax= 1.00D-05

 Cycle  10  Pass 1  IDiag  1:
 E= -153.296763586229     Delta-E=       -0.000000000667 Rises=F Damp=F
 DIIS: error= 2.35D-07 at cycle  10 NSaved=  10.
 NSaved=10 IEnMin=10 EnMin= -153.296763586229     IErMin=10 ErrMin= 2.35D-07
 ErrMax= 2.35D-07  0.00D+00 EMaxC= 1.00D-01 BMatC= 5.97D-12 BMatP= 5.59D-10
 IDIUse=1 WtCom= 1.00D+00 WtEn= 0.00D+00
 Coeff-Com: -0.831D-05 0.166D-04 0.101D-04-0.174D-03-0.176D-03-0.172D-02
 Coeff-Com: -0.211D-02 0.553D-02 0.698D-01 0.929D+00
 Coeff:     -0.831D-05 0.166D-04 0.101D-04-0.174D-03-0.176D-03-0.172D-02
 Coeff:     -0.211D-02 0.553D-02 0.698D-01 0.929D+00
 Gap=     0.124 Goal=   None    Shift=    0.000
 RMSDP=9.61D-08 MaxDP=8.48D-07 DE=-6.67D-10 OVMax= 4.14D-06

 Cycle  11  Pass 1  IDiag  1:
 E= -153.296763586247     Delta-E=       -0.000000000018 Rises=F Damp=F
 DIIS: error= 5.49D-08 at cycle  11 NSaved=  11.
 NSaved=11 IEnMin=11 EnMin= -153.296763586247     IErMin=11 ErrMin= 5.49D-08
 ErrMax= 5.49D-08  0.00D+00 EMaxC= 1.00D-01 BMatC= 2.99D-13 BMatP= 5.97D-12
 IDIUse=1 WtCom= 1.00D+00 WtEn= 0.00D+00
 Coeff-Com: -0.150D-05 0.153D-05 0.356D-06 0.415D-04 0.674D-04 0.459D-03
 Coeff-Com: -0.124D-02-0.986D-02-0.342D-01-0.266D-01 0.107D+01
 Coeff:     -0.150D-05 0.153D-05 0.356D-06 0.415D-04 0.674D-04 0.459D-03
 Coeff:     -0.124D-02-0.986D-02-0.342D-01-0.266D-01 0.107D+01
 Gap=     0.124 Goal=   None    Shift=    0.000
 RMSDP=3.71D-08 MaxDP=4.51D-07 DE=-1.84D-11 OVMax= 2.17D-06

 Cycle  12  Pass 1  IDiag  1:
 E= -153.296763586251     Delta-E=       -0.000000000003 Rises=F Damp=F
 DIIS: error= 1.78D-08 at cycle  12 NSaved=  12.
 NSaved=12 IEnMin=12 EnMin= -153.296763586251     IErMin=12 ErrMin= 1.78D-08
 ErrMax= 1.78D-08  0.00D+00 EMaxC= 1.00D-01 BMatC= 1.53D-14 BMatP= 2.99D-13
 IDIUse=1 WtCom= 1.00D+00 WtEn= 0.00D+00
 Coeff-Com:  0.526D-06-0.112D-05-0.760D-06 0.118D-04 0.127D-04 0.124D-03
 Coeff-Com:  0.278D-03-0.726D-04-0.368D-02-0.544D-01-0.844D-01 0.114D+01
 Coeff:      0.526D-06-0.112D-05-0.760D-06 0.118D-04 0.127D-04 0.124D-03
 Coeff:      0.278D-03-0.726D-04-0.368D-02-0.544D-01-0.844D-01 0.114D+01
 Gap=     0.124 Goal=   None    Shift=    0.000
 RMSDP=1.49D-08 MaxDP=1.95D-07 DE=-3.10D-12 OVMax= 9.12D-07

 Cycle  13  Pass 1  IDiag  1:
 E= -153.296763586249     Delta-E=        0.000000000002 Rises=F Damp=F
 DIIS: error= 4.18D-09 at cycle  13 NSaved=  13.
 NSaved=13 IEnMin=12 EnMin= -153.296763586251     IErMin=13 ErrMin= 4.18D-09
 ErrMax= 4.18D-09  0.00D+00 EMaxC= 1.00D-01 BMatC= 2.04D-15 BMatP= 1.53D-14
 IDIUse=1 WtCom= 1.00D+00 WtEn= 0.00D+00
 Coeff-Com:  0.145D-06-0.193D-06-0.159D-06-0.172D-05-0.532D-05-0.294D-04
 Coeff-Com:  0.125D-03 0.965D-03 0.287D-02-0.654D-02-0.109D+00 0.194D+00
 Coeff-Com:  0.918D+00
 Coeff:      0.145D-06-0.193D-06-0.159D-06-0.172D-05-0.532D-05-0.294D-04
 Coeff:      0.125D-03 0.965D-03 0.287D-02-0.654D-02-0.109D+00 0.194D+00
 Coeff:      0.918D+00
 Gap=     0.124 Goal=   None    Shift=    0.000
 RMSDP=3.73D-09 MaxDP=5.00D-08 DE= 2.05D-12 OVMax= 2.27D-07

 Error on total polarization charges =  0.00595
 SCF Done:  E(RB3LYP) =  -153.296763586     A.U. after   13 cycles
            NFock= 13  Conv=0.37D-08     -V/T= 2.0060
 KE= 1.523812942121D+02 PE=-5.063283227939D+02 EE= 1.249516156595D+02
 Leave Link  502 at Fri Sep 22 16:29:24 2023, MaxMem=   268435456 cpu:              16.9 elap:               8.5
 (Enter /share/apps/gaussian/g16/l601.exe)
 Copying SCF densities to generalized density rwf, IOpCl= 0 IROHF=0.

 **********************************************************************

            Population analysis using the SCF density.

 **********************************************************************

 Orbital symmetries:
       Occupied  (A) (A) (A) (A) (A) (A) (A) (A) (A) (A) (A) (A)
                 (A)
       Virtual   (A) (A) (A) (A) (A) (A) (A) (A) (A) (A) (A) (A)
                 (A) (A) (A) (A) (A) (A) (A) (A) (A) (A) (A) (A)
                 (A) (A) (A) (A) (A) (A) (A) (A) (A) (A) (A) (A)
                 (A) (A) (A) (A) (A) (A) (A) (A) (A) (A) (A) (A)
                 (A) (A) (A) (A) (A)
 The electronic state is 1-A.
 Alpha  occ. eigenvalues --  -10.28165 -10.27412 -10.22757 -10.22556  -0.85541
 Alpha  occ. eigenvalues --   -0.74512  -0.57851  -0.57553  -0.46561  -0.36925
 Alpha  occ. eigenvalues --   -0.33890  -0.31516  -0.26208
 Alpha virt. eigenvalues --   -0.13827  -0.12648  -0.07089   0.02871   0.06888
 Alpha virt. eigenvalues --    0.09076   0.19655   0.24555   0.25869   0.39172
 Alpha virt. eigenvalues --    0.41151   0.42638   0.44116   0.44174   0.46732
 Alpha virt. eigenvalues --    0.49382   0.49683   0.52553   0.52974   0.54943
 Alpha virt. eigenvalues --    0.58599   0.63563   0.66823   0.85393   0.86976
 Alpha virt. eigenvalues --    0.96626   1.03056   1.27178   1.30944   1.38074
 Alpha virt. eigenvalues --    1.61848   1.64094   1.65174   1.67780   1.68761
 Alpha virt. eigenvalues --    1.76021   1.79007   1.81978   1.86582   1.90696
 Alpha virt. eigenvalues --    2.01646   2.10760   2.21300   2.26483   2.29011
 Alpha virt. eigenvalues --    2.43513   2.49383   2.50315   2.52165   2.78490
 Alpha virt. eigenvalues --    2.84573   3.26191   3.36650
          Condensed to atoms (all electrons):
               1          2          3          4          5          6
     1  C    5.110255   0.295091   0.383229   0.419827  -0.043007  -0.022676
     2  C    0.295091   5.103382  -0.023176  -0.042294   0.444419   0.372582
     3  H    0.383229  -0.023176   0.528819  -0.017195  -0.005491   0.009429
     4  C    0.419827  -0.042294  -0.017195   5.632928   0.000916  -0.005291
     5  C   -0.043007   0.444419  -0.005491   0.000916   5.616574  -0.017242
     6  H   -0.022676   0.372582   0.009429  -0.005291  -0.017242   0.509798
 Mulliken charges:
               1
     1  C   -0.142719
     2  C   -0.150005
     3  H    0.124384
     4  C    0.011109
     5  C    0.003830
     6  H    0.153400
 Sum of Mulliken charges =  -0.00000
 Mulliken charges with hydrogens summed into heavy atoms:
               1
     1  C   -0.018335
     2  C    0.003396
     4  C    0.011109
     5  C    0.003830
 Electronic spatial extent (au):  <R**2>=            248.7191
 Charge=              0.0000 electrons
 Dipole moment (field-independent basis, Debye):
    X=             -0.0279    Y=              0.1662    Z=              0.0989  Tot=              0.1954
 Quadrupole moment (field-independent basis, Debye-Ang):
   XX=            -34.4185   YY=            -19.7947   ZZ=            -26.7015
   XY=              4.1596   XZ=              0.0167   YZ=              0.0175
 Traceless Quadrupole moment (field-independent basis, Debye-Ang):
   XX=             -7.4469   YY=              7.1769   ZZ=              0.2701
   XY=              4.1596   XZ=              0.0167   YZ=              0.0175
 Octapole moment (field-independent basis, Debye-Ang**2):
  XXX=              0.5885  YYY=              0.5992  ZZZ=              0.1883  XYY=             -0.2109
  XXY=              0.4924  XXZ=              0.4447  XZZ=              0.2161  YZZ=              0.0053
  YYZ=              0.2071  XYZ=              0.0356
 Hexadecapole moment (field-independent basis, Debye-Ang**3):
 XXXX=           -394.2314 YYYY=            -44.5901 ZZZZ=            -33.4563 XXXY=             32.0832
 XXXZ=              0.0228 YYYX=              7.1651 YYYZ=              0.0836 ZZZX=              0.0282
 ZZZY=              0.0130 XXYY=            -60.2993 XXZZ=            -63.5406 YYZZ=            -14.8131
 XXYZ=             -0.0229 YYXZ=              0.0397 ZZXY=              1.5997
 N-N= 7.569864933612D+01 E-N=-5.063283227273D+02  KE= 1.523812942121D+02
 There are a total of      132140 grid points.
 ElSum from          density=       26.0000003543
 ElSum from atomic densities=       26.0000003968
 Hirshfeld populations at iteration   1 (CA, CB, DipXYZ):
               1          2          3          4          5
     1  C    3.026610   3.026610   0.090613  -0.057291   0.002880
     2  C    3.027187   3.027187  -0.088213   0.062729   0.002565
     3  H    0.464191   0.464191   0.019035  -0.173325   0.002780
     4  C    3.009659   3.009659   0.305674  -0.136835   0.007174
     5  C    3.013936   3.013936  -0.298404   0.154327   0.007794
     6  H    0.458416   0.458416  -0.020825   0.173297   0.005563
       Tot  13.000000  13.000000   0.007881   0.022902   0.028755

 Dip from Atomic Chgs             -0.018858   0.042502   0.010152
         Total Dipole             -0.010977   0.065404   0.038907

 Hirshfeld charges, spin densities, dipoles, and CM5 charges using IRadAn=      5:
              Q-H        S-H        Dx         Dy         Dz        Q-CM5   
     1  C   -0.053221   0.000000   0.090613  -0.057291   0.002880  -0.111260
     2  C   -0.054374   0.000000  -0.088213   0.062729   0.002565  -0.106228
     3  H    0.071617   0.000000   0.019035  -0.173325   0.002780   0.134789
     4  C   -0.019319   0.000000   0.305674  -0.136835   0.007174  -0.023914
     5  C   -0.027873   0.000000  -0.298404   0.154327   0.007794  -0.032427
     6  H    0.083169   0.000000  -0.020825   0.173297   0.005563   0.139039
       Tot  -0.000000   0.000000   0.007881   0.022902   0.028755  -0.000000
 Hirshfeld charges with hydrogens summed into heavy atoms:
              Q-H       Q-CM5   
     1  C    0.018397   0.023529
     2  C    0.028795   0.032811
     4  C   -0.019319  -0.023914
     5  C   -0.027873  -0.032427
 
 EQQ= 0.000000000000E+00 EQD= 0.000000000000E+00 EDD= 0.523070142108E-02
 EQQ+QD+DD= 0.523070142108E-02
 
 No NMR shielding tensors so no spin-rotation constants.
 Leave Link  601 at Fri Sep 22 16:29:24 2023, MaxMem=   268435456 cpu:               0.8 elap:               0.4
 (Enter /share/apps/gaussian/g16/l9999.exe)
 1\1\GINC-NODE99\SP\RB3LYP\Gen\C4H2\YANZ\22-Sep-2023\0\\#p b3lyp/gen sc
 rf=(cpcm,solvent=toluene) pop=hirshfeld empiricaldispersion=gd3bj\\tmp
 dir/M2_ref_226.gjf\\0,1\C,0,1.640478,3.77672,-0.330975\C,0,0.654688,4.
 750794,-0.023924\H,0,1.99110739,3.70605714,-1.30265373\C,0,2.156554,2.
 874293,0.63848901\C,0,0.139387,5.562027,-1.00951898\H,0,0.325761,4.855
 187,1.00662994\\Version=ES64L-G16RevA.03\State=1-A\HF=-153.2967636\RMS
 D=3.733e-09\Dipole=0.0099648,0.0267954,0.0713768\Quadrupole=0.3197609,
 -2.1597773,1.8400164,1.0794796,-4.1641789,4.0700245\PG=C01 [X(C4H2)]\\
 @


 Some scientists claim that hydrogen, because it is so
 plentiful, is the basic building block of the universe. 
 I dispute that. I say that stupidity is far more
 abundant than hydrogen, and THAT is the basic building 
 block of the universe.
                   --Frank Zappa
 Job cpu time:       0 days  0 hours  0 minutes 19.9 seconds.
 Elapsed time:       0 days  0 hours  0 minutes 10.1 seconds.
 File lengths (MBytes):  RWF=     11 Int=      0 D2E=      0 Chk=      2 Scr=      1
 Normal termination of Gaussian 16 at Fri Sep 22 16:29:24 2023.
