 Entering Gaussian System, Link 0=g16
 Initial command:
 /share/apps/gaussian/g16/l1.exe "/tmp/55556.mgr/Gau-79553.inp" -scrdir="/tmp/55556.mgr/"
 Entering Link 1 = /share/apps/gaussian/g16/l1.exe PID=     79554.
  
 Copyright (c) 1988,1990,1992,1993,1995,1998,2003,2009,2016,
            Gaussian, Inc.  All Rights Reserved.
  
 This is part of the Gaussian(R) 16 program.  It is based on
 the Gaussian(R) 09 system (copyright 2009, Gaussian, Inc.),
 the Gaussian(R) 03 system (copyright 2003, Gaussian, Inc.),
 the Gaussian(R) 98 system (copyright 1998, Gaussian, Inc.),
 the Gaussian(R) 94 system (copyright 1995, Gaussian, Inc.),
 the Gaussian 92(TM) system (copyright 1992, Gaussian, Inc.),
 the Gaussian 90(TM) system (copyright 1990, Gaussian, Inc.),
 the Gaussian 88(TM) system (copyright 1988, Gaussian, Inc.),
 the Gaussian 86(TM) system (copyright 1986, Carnegie Mellon
 University), and the Gaussian 82(TM) system (copyright 1983,
 Carnegie Mellon University). Gaussian is a federally registered
 trademark of Gaussian, Inc.
  
 This software contains proprietary and confidential information,
 including trade secrets, belonging to Gaussian, Inc.
  
 This software is provided under written license and may be
 used, copied, transmitted, or stored only in accord with that
 written license.
  
 The following legend is applicable only to US Government
 contracts under FAR:
  
                    RESTRICTED RIGHTS LEGEND
  
 Use, reproduction and disclosure by the US Government is
 subject to restrictions as set forth in subparagraphs (a)
 and (c) of the Commercial Computer Software - Restricted
 Rights clause in FAR 52.227-19.
  
 Gaussian, Inc.
 340 Quinnipiac St., Bldg. 40, Wallingford CT 06492
  
  
 ---------------------------------------------------------------
 Warning -- This program may not be used in any manner that
 competes with the business of Gaussian, Inc. or will provide
 assistance to any competitor of Gaussian, Inc.  The licensee
 of this program is prohibited from giving any competitor of
 Gaussian, Inc. access to this program.  By using this program,
 the user acknowledges that Gaussian, Inc. is engaged in the
 business of creating and licensing software in the field of
 computational chemistry and represents and warrants to the
 licensee that it is not a competitor of Gaussian, Inc. and that
 it will not use this program in any manner prohibited above.
 ---------------------------------------------------------------
  

 Cite this work as:
 Gaussian 16, Revision A.03,
 M. J. Frisch, G. W. Trucks, H. B. Schlegel, G. E. Scuseria, 
 M. A. Robb, J. R. Cheeseman, G. Scalmani, V. Barone, 
 G. A. Petersson, H. Nakatsuji, X. Li, M. Caricato, A. V. Marenich, 
 J. Bloino, B. G. Janesko, R. Gomperts, B. Mennucci, H. P. Hratchian, 
 J. V. Ortiz, A. F. Izmaylov, J. L. Sonnenberg, D. Williams-Young, 
 F. Ding, F. Lipparini, F. Egidi, J. Goings, B. Peng, A. Petrone, 
 T. Henderson, D. Ranasinghe, V. G. Zakrzewski, J. Gao, N. Rega, 
 G. Zheng, W. Liang, M. Hada, M. Ehara, K. Toyota, R. Fukuda, 
 J. Hasegawa, M. Ishida, T. Nakajima, Y. Honda, O. Kitao, H. Nakai, 
 T. Vreven, K. Throssell, J. A. Montgomery, Jr., J. E. Peralta, 
 F. Ogliaro, M. J. Bearpark, J. J. Heyd, E. N. Brothers, K. N. Kudin, 
 V. N. Staroverov, T. A. Keith, R. Kobayashi, J. Normand, 
 K. Raghavachari, A. P. Rendell, J. C. Burant, S. S. Iyengar, 
 J. Tomasi, M. Cossi, J. M. Millam, M. Klene, C. Adamo, R. Cammi, 
 J. W. Ochterski, R. L. Martin, K. Morokuma, O. Farkas, 
 J. B. Foresman, and D. J. Fox, Gaussian, Inc., Wallingford CT, 2016.
 
 ******************************************
 Gaussian 16:  ES64L-G16RevA.03 25-Dec-2016
                22-Sep-2023 
 ******************************************
 %nprocshared=2
 Will use up to    2 processors via shared memory.
 %mem=2GB
 ----------------------------------------------------------------------
 #p b3lyp/gen scrf=(cpcm,solvent=toluene) pop=hirshfeld empiricaldisper
 sion=gd3bj
 ----------------------------------------------------------------------
 1/38=1,172=1/1;
 2/12=2,17=6,18=5,40=1/2;
 3/5=7,11=2,25=1,30=1,70=2101,72=13,74=-5,124=41/1,2,3;
 4//1;
 5/5=2,38=5,53=13/2;
 6/7=2,8=2,9=2,10=2,28=1,79=1/1;
 99/5=1,9=1/99;
 Leave Link    1 at Fri Sep 22 16:28:39 2023, MaxMem=   268435456 cpu:               0.1 elap:               0.0
 (Enter /share/apps/gaussian/g16/l101.exe)
 ---------------------
 tmpdir/M2_ref_119.gjf
 ---------------------
 Symbolic Z-matrix:
 Charge =  0 Multiplicity = 1
 C                     3.48721  -2.44266  -0.04023 
 C                     3.79062  -3.62652  -1.0173 
 C                     5.23846  -3.49199  -1.51444 
 H                     2.45791  -2.5459    0.4263 
 H                     4.21492  -2.49502   0.77098 
 H                     3.56232  -1.45942  -0.5437 
 H                     3.10282  -3.65044  -1.89183 
 H                     3.69192  -4.57175  -0.4375 
 H                     5.39122  -2.56894  -2.08784 
 H                     5.95222  -3.50312  -0.68045 
 H                     5.483    -4.33389  -2.17415 
 
 ITRead=  0  0  0  0  0  0  0  0  0  0  0
 MicOpt= -1 -1 -1 -1 -1 -1 -1 -1 -1 -1 -1
 NAtoms=     11 NQM=       11 NQMF=       0 NMMI=      0 NMMIF=      0
                NMic=       0 NMicF=      0.
                    Isotopes and Nuclear Properties:
 (Nuclear quadrupole moments (NQMom) in fm**2, nuclear magnetic moments (NMagM)
  in nuclear magnetons)

  Atom         1           2           3           4           5           6           7           8           9          10
 IAtWgt=          12          12          12           1           1           1           1           1           1           1
 AtmWgt=  12.0000000  12.0000000  12.0000000   1.0078250   1.0078250   1.0078250   1.0078250   1.0078250   1.0078250   1.0078250
 NucSpn=           0           0           0           1           1           1           1           1           1           1
 AtZEff=  -0.0000000  -0.0000000  -0.0000000  -0.0000000  -0.0000000  -0.0000000  -0.0000000  -0.0000000  -0.0000000  -0.0000000
 NQMom=    0.0000000   0.0000000   0.0000000   0.0000000   0.0000000   0.0000000   0.0000000   0.0000000   0.0000000   0.0000000
 NMagM=    0.0000000   0.0000000   0.0000000   2.7928460   2.7928460   2.7928460   2.7928460   2.7928460   2.7928460   2.7928460
 AtZNuc=   6.0000000   6.0000000   6.0000000   1.0000000   1.0000000   1.0000000   1.0000000   1.0000000   1.0000000   1.0000000

  Atom        11
 IAtWgt=           1
 AtmWgt=   1.0078250
 NucSpn=           1
 AtZEff=  -0.0000000
 NQMom=    0.0000000
 NMagM=    2.7928460
 AtZNuc=   1.0000000
 Leave Link  101 at Fri Sep 22 16:28:39 2023, MaxMem=   268435456 cpu:               0.2 elap:               0.1
 (Enter /share/apps/gaussian/g16/l202.exe)
                          Input orientation:                          
 ---------------------------------------------------------------------
 Center     Atomic      Atomic             Coordinates (Angstroms)
 Number     Number       Type             X           Y           Z
 ---------------------------------------------------------------------
      1          6           0        3.487214   -2.442657   -0.040232
      2          6           0        3.790623   -3.626523   -1.017301
      3          6           0        5.238456   -3.491989   -1.514443
      4          1           0        2.457907   -2.545900    0.426299
      5          1           0        4.214917   -2.495019    0.770981
      6          1           0        3.562321   -1.459417   -0.543698
      7          1           0        3.102819   -3.650438   -1.891835
      8          1           0        3.691918   -4.571748   -0.437499
      9          1           0        5.391221   -2.568939   -2.087837
     10          1           0        5.952221   -3.503116   -0.680452
     11          1           0        5.483004   -4.333893   -2.174148
 ---------------------------------------------------------------------
                    Distance matrix (angstroms):
                    1          2          3          4          5
     1  C    0.000000
     2  C    1.564691   0.000000
     3  C    2.518183   1.536708   0.000000
     4  H    1.134805   2.242289   3.520372   0.000000
     5  H    1.091036   2.158305   2.695319   1.791222   0.000000
     6  H    1.107194   2.229971   2.807690   1.827859   1.796311
     7  H    2.243864   1.112859   2.174506   2.647577   3.108431
     8  H    2.175489   1.113267   2.171973   2.524479   2.459015
     9  H    2.798906   2.196917   1.097333   3.863385   3.092248
    10  H    2.758752   2.191165   1.097782   3.788323   2.478133
    11  H    3.480452   2.168599   1.097186   4.371551   3.696388
                    6          7          8          9         10
     6  H    0.000000
     7  H    2.613272   0.000000
     8  H    3.116838   1.819600   0.000000
     9  H    2.638234   2.538669   3.102014   0.000000
    10  H    3.147543   3.099717   2.511965   1.779927   0.000000
    11  H    3.822304   2.492407   2.506095   1.769445   1.772423
                   11
    11  H    0.000000
 Stoichiometry    C3H8
 Framework group  C1[X(C3H8)]
 Deg. of freedom    27
 Full point group                 C1      NOp   1
 Largest Abelian subgroup         C1      NOp   1
 Largest concise Abelian subgroup C1      NOp   1
                         Standard orientation:                         
 ---------------------------------------------------------------------
 Center     Atomic      Atomic             Coordinates (Angstroms)
 Number     Number       Type             X           Y           Z
 ---------------------------------------------------------------------
      1          6           0       -1.266891   -0.274726    0.007592
      2          6           0        0.011288    0.627775    0.010671
      3          6           0        1.251267   -0.279834   -0.002296
      4          1           0       -2.211877    0.348215   -0.074435
      5          1           0       -1.218674   -0.904887   -0.881752
      6          1           0       -1.327379   -0.911606    0.911254
      7          1           0        0.059741    1.303069    0.893896
      8          1           0       -0.005348    1.233541   -0.923210
      9          1           0        1.310810   -0.905926    0.896928
     10          1           0        1.259257   -0.936493   -0.881990
     11          1           0        2.159488    0.334805   -0.036490
 ---------------------------------------------------------------------
 Rotational constants (GHZ):          27.5978799           8.5404902           7.4638261
 Leave Link  202 at Fri Sep 22 16:28:39 2023, MaxMem=   268435456 cpu:               0.0 elap:               0.0
 (Enter /share/apps/gaussian/g16/l301.exe)
 General basis read from cards:  (5D, 7F)
 Centers:       4      5      6      7      8      9     10     11
 S 3 1.00
     Exponent=  1.2251800000D+01 Coefficients=  2.3337100000D-02
     Exponent=  1.8687100000D+00 Coefficients=  1.5915000000D-01
     Exponent=  4.1820800000D-01 Coefficients=  5.0000000000D-01
 S 1 1.00
     Exponent=  1.0610000000D-01 Coefficients=  1.0000000000D+00
 P 1 1.00
     Exponent=  1.0000000000D+00 Coefficients=  1.0000000000D+00
 ****
 Centers:       1      2      3
 S 5 1.00
     Exponent=  1.2432000000D+03 Coefficients=  6.0336600000D-03
     Exponent=  1.8714500000D+02 Coefficients=  4.4957600000D-02
     Exponent=  4.2512600000D+01 Coefficients=  1.9790100000D-01
     Exponent=  1.1739300000D+01 Coefficients=  5.0000000000D-01
     Exponent=  3.5054800000D+00 Coefficients=  4.8036400000D-01
 S 2 1.00
     Exponent=  5.3908900000D+00 Coefficients= -7.0398000000D-02
     Exponent=  4.9334100000D-01 Coefficients=  5.0000000000D-01
 S 1 1.00
     Exponent=  1.4974100000D-01 Coefficients=  1.0000000000D+00
 P 3 1.00
     Exponent=  9.1805600000D+00 Coefficients=  4.3170100000D-02
     Exponent=  1.9365800000D+00 Coefficients=  2.2499900000D-01
     Exponent=  5.2629600000D-01 Coefficients=  5.0000000000D-01
 P 1 1.00
     Exponent=  1.3631900000D-01 Coefficients=  1.0000000000D+00
 D 1 1.00
     Exponent=  8.0000000000D-01 Coefficients=  1.0000000000D+00
 ****
 Ernie: Thresh=  0.10000D-02 Tol=  0.10000D-05 Strict=F.
 There are    85 symmetry adapted cartesian basis functions of A   symmetry.
 There are    82 symmetry adapted basis functions of A   symmetry.
    82 basis functions,   134 primitive gaussians,    85 cartesian basis functions
    13 alpha electrons       13 beta electrons
       nuclear repulsion energy        81.8205428849 Hartrees.
 IExCor=  402 DFT=T Ex+Corr=B3LYP ExCW=0 ScaHFX=  0.200000
 ScaDFX=  0.800000  0.720000  1.000000  0.810000 ScalE2=  1.000000  1.000000
 IRadAn=      5 IRanWt=     -1 IRanGd=            0 ICorTp=0 IEmpDi=141
 NAtoms=   11 NActive=   11 NUniq=   11 SFac= 1.00D+00 NAtFMM=   60 NAOKFM=F Big=F
 Integral buffers will be    131072 words long.
 Raffenetti 2 integral format.
 Two-electron integral symmetry is turned on.
 R6Disp:  Grimme-D3(BJ) Dispersion energy=       -0.0099251196 Hartrees.
 Nuclear repulsion after empirical dispersion term =       81.8106177653 Hartrees.
 ------------------------------------------------------------------------------
 Polarizable Continuum Model (PCM)
 =================================
 Model                : C-PCM.
 Atomic radii         : UFF (Universal Force Field).
 Polarization charges : Total charges.
 Charge compensation  : None.
 Solution method      : On-the-fly selection.
 Cavity type          : Scaled VdW (van der Waals Surface) (Alpha=1.100).
 Cavity algorithm     : GePol (No added spheres)
                        Default sphere list used, NSphG=   11.
                        Lebedev-Laikov grids with approx.  5.0 points / Ang**2.
                        Smoothing algorithm: York/Karplus (Gamma=1.0000).
                        Polarization charges: spherical gaussians, with
                                              point-specific exponents (IZeta= 3).
                        Self-potential: point-specific (ISelfS= 7).
                        Self-field    : sphere-specific E.n sum rule (ISelfD= 2).
 Solvent              : Toluene, Eps=   2.374100 Eps(inf)=   2.238315
 ------------------------------------------------------------------------------
 Spheres list:
 ISph  on   Nord     Re0    Alpha      Xe            Ye            Ze
    1   C      1    1.9255  1.100     -1.266891     -0.274726      0.007592
    2   C      2    1.9255  1.100      0.011288      0.627775      0.010671
    3   C      3    1.9255  1.100      1.251267     -0.279834     -0.002296
    4   H      4    1.4430  1.100     -2.211877      0.348215     -0.074435
    5   H      5    1.4430  1.100     -1.218674     -0.904887     -0.881752
    6   H      6    1.4430  1.100     -1.327379     -0.911606      0.911254
    7   H      7    1.4430  1.100      0.059741      1.303069      0.893896
    8   H      8    1.4430  1.100     -0.005348      1.233541     -0.923210
    9   H      9    1.4430  1.100      1.310810     -0.905926      0.896928
   10   H     10    1.4430  1.100      1.259257     -0.936493     -0.881990
   11   H     11    1.4430  1.100      2.159488      0.334805     -0.036490
 ------------------------------------------------------------------------------
 GePol: Number of generator spheres                  =      11
 GePol: Total number of spheres                      =      11
 GePol: Number of exposed spheres                    =      11 (100.00%)
 GePol: Number of points                             =     897
 GePol: Average weight of points                     =       0.14
 GePol: Minimum weight of points                     =   0.13D-06
 GePol: Maximum weight of points                     =    0.20577
 GePol: Number of points with low weight             =      50
 GePol: Fraction of low-weight points (<1% of avg)   =       5.57%
 GePol: Cavity surface area                          =    121.589 Ang**2
 GePol: Cavity volume                                =    104.655 Ang**3
 Leave Link  301 at Fri Sep 22 16:28:39 2023, MaxMem=   268435456 cpu:               0.3 elap:               0.1
 (Enter /share/apps/gaussian/g16/l302.exe)
 NPDir=0 NMtPBC=     1 NCelOv=     1 NCel=       1 NClECP=     1 NCelD=      1
         NCelK=      1 NCelE2=     1 NClLst=     1 CellRange=     0.0.
 One-electron integrals computed using PRISM.
 One-electron integral symmetry used in STVInt
 NBasis=    82 RedAO= T EigKep=  6.64D-03  NBF=    82
 NBsUse=    82 1.00D-06 EigRej= -1.00D+00 NBFU=    82
 Precomputing XC quadrature grid using
 IXCGrd= 4 IRadAn=           5 IRanWt=          -1 IRanGd=           0 AccXCQ= 0.00D+00.
 Generated NRdTot=       0 NPtTot=           0 NUsed=           0 NTot=          32
 NSgBfM=    85    85    85    85    85 MxSgAt=    11 MxSgA2=    11.
 Leave Link  302 at Fri Sep 22 16:28:39 2023, MaxMem=   268435456 cpu:               0.4 elap:               0.2
 (Enter /share/apps/gaussian/g16/l303.exe)
 DipDrv:  MaxL=1.
 Leave Link  303 at Fri Sep 22 16:28:39 2023, MaxMem=   268435456 cpu:               0.1 elap:               0.0
 (Enter /share/apps/gaussian/g16/l401.exe)
 ExpMin= 1.06D-01 ExpMax= 1.24D+03 ExpMxC= 1.87D+02 IAcc=3 IRadAn=         5 AccDes= 0.00D+00
 Harris functional with IExCor=  402 and IRadAn=       5 diagonalized for initial guess.
 HarFok:  IExCor=  402 AccDes= 0.00D+00 IRadAn=         5 IDoV= 1 UseB2=F ITyADJ=14
 ICtDFT=  3500011 ScaDFX=  1.000000  1.000000  1.000000  1.000000
 FoFCou: FMM=F IPFlag=           0 FMFlag=      100000 FMFlg1=           0
         NFxFlg=           0 DoJE=T BraDBF=F KetDBF=T FulRan=T
         wScrn=  0.000000 ICntrl=       500 IOpCl=  0 I1Cent=   200000004 NGrid=           0
         NMat0=    1 NMatS0=      1 NMatT0=    0 NMatD0=    1 NMtDS0=    0 NMtDT0=    0
 Petite list used in FoFCou.
 Harris En= -119.177605540898    
 JPrj=0 DoOrth=F DoCkMO=F.
 Leave Link  401 at Fri Sep 22 16:28:40 2023, MaxMem=   268435456 cpu:               2.3 elap:               1.2
 (Enter /share/apps/gaussian/g16/l502.exe)
 Keep R1 ints in memory in canonical form, NReq=7610633.
 FoFCou: FMM=F IPFlag=           0 FMFlag=           0 FMFlg1=           0
         NFxFlg=           0 DoJE=F BraDBF=F KetDBF=F FulRan=T
         wScrn=  0.000000 ICntrl=       600 IOpCl=  0 I1Cent=           0 NGrid=           0
         NMat0=    1 NMatS0=   3403 NMatT0=    0 NMatD0=    1 NMtDS0=    0 NMtDT0=    0
 Symmetry not used in FoFCou.
 Two-electron integral symmetry not used.
 Closed shell SCF:
 Using DIIS extrapolation, IDIIS=  1040.
 NGot=   268435456 LenX=   262627443 LenY=   262619777
 Requested convergence on RMS density matrix=1.00D-08 within 128 cycles.
 Requested convergence on MAX density matrix=1.00D-06.
 Requested convergence on             energy=1.00D-06.
 No special actions if energy rises.

 Cycle   1  Pass 1  IDiag  1:
 Inv3:  Mode=1 IEnd=     2413827.
 Iteration    1 A*A^-1 deviation from unit magnitude is 3.44D-15 for    889.
 Iteration    1 A*A^-1 deviation from orthogonality  is 2.55D-15 for    897    491.
 Iteration    1 A^-1*A deviation from unit magnitude is 3.44D-15 for    889.
 Iteration    1 A^-1*A deviation from orthogonality  is 1.23D-15 for    678      4.
 E= -118.974407264997    
 DIIS: error= 3.76D-02 at cycle   1 NSaved=   1.
 NSaved= 1 IEnMin= 1 EnMin= -118.974407264997     IErMin= 1 ErrMin= 3.76D-02
 ErrMax= 3.76D-02  0.00D+00 EMaxC= 1.00D-01 BMatC= 1.32D-01 BMatP= 1.32D-01
 IDIUse=3 WtCom= 6.24D-01 WtEn= 3.76D-01
 Coeff-Com:  0.100D+01
 Coeff-En:   0.100D+01
 Coeff:      0.100D+01
 Gap=     0.322 Goal=   None    Shift=    0.000
 GapD=    0.322 DampG=1.000 DampE=0.500 DampFc=0.5000 IDamp=-1.
 Damping current iteration by 5.00D-01
 RMSDP=9.35D-03 MaxDP=1.37D-01              OVMax= 1.86D-01

 Cycle   2  Pass 1  IDiag  1:
 E= -119.039665304943     Delta-E=       -0.065258039946 Rises=F Damp=T
 DIIS: error= 8.07D-03 at cycle   2 NSaved=   2.
 NSaved= 2 IEnMin= 2 EnMin= -119.039665304943     IErMin= 2 ErrMin= 8.07D-03
 ErrMax= 8.07D-03  0.00D+00 EMaxC= 1.00D-01 BMatC= 4.90D-03 BMatP= 1.32D-01
 IDIUse=3 WtCom= 9.19D-01 WtEn= 8.07D-02
 Coeff-Com:  0.111D+00 0.889D+00
 Coeff-En:   0.182D+00 0.818D+00
 Coeff:      0.117D+00 0.883D+00
 Gap=     0.380 Goal=   None    Shift=    0.000
 RMSDP=1.43D-03 MaxDP=1.69D-02 DE=-6.53D-02 OVMax= 1.09D-01

 Cycle   3  Pass 1  IDiag  1:
 E= -119.129853370283     Delta-E=       -0.090188065340 Rises=F Damp=F
 DIIS: error= 2.25D-03 at cycle   3 NSaved=   3.
 NSaved= 3 IEnMin= 3 EnMin= -119.129853370283     IErMin= 3 ErrMin= 2.25D-03
 ErrMax= 2.25D-03  0.00D+00 EMaxC= 1.00D-01 BMatC= 3.88D-04 BMatP= 4.90D-03
 IDIUse=3 WtCom= 9.78D-01 WtEn= 2.25D-02
 Coeff-Com:  0.173D-01 0.196D+00 0.787D+00
 Coeff-En:   0.000D+00 0.000D+00 0.100D+01
 Coeff:      0.169D-01 0.192D+00 0.792D+00
 Gap=     0.375 Goal=   None    Shift=    0.000
 RMSDP=2.92D-04 MaxDP=4.57D-03 DE=-9.02D-02 OVMax= 6.04D-03

 Cycle   4  Pass 1  IDiag  1:
 E= -119.130139092330     Delta-E=       -0.000285722047 Rises=F Damp=F
 DIIS: error= 7.01D-04 at cycle   4 NSaved=   4.
 NSaved= 4 IEnMin= 4 EnMin= -119.130139092330     IErMin= 4 ErrMin= 7.01D-04
 ErrMax= 7.01D-04  0.00D+00 EMaxC= 1.00D-01 BMatC= 8.33D-05 BMatP= 3.88D-04
 IDIUse=3 WtCom= 9.93D-01 WtEn= 7.01D-03
 Coeff-Com:  0.165D-02 0.315D-01 0.321D+00 0.646D+00
 Coeff-En:   0.000D+00 0.000D+00 0.608D-01 0.939D+00
 Coeff:      0.164D-02 0.313D-01 0.319D+00 0.648D+00
 Gap=     0.376 Goal=   None    Shift=    0.000
 RMSDP=1.10D-04 MaxDP=2.89D-03 DE=-2.86D-04 OVMax= 2.67D-03

 Cycle   5  Pass 1  IDiag  1:
 E= -119.130210567133     Delta-E=       -0.000071474802 Rises=F Damp=F
 DIIS: error= 2.72D-04 at cycle   5 NSaved=   5.
 NSaved= 5 IEnMin= 5 EnMin= -119.130210567133     IErMin= 5 ErrMin= 2.72D-04
 ErrMax= 2.72D-04  0.00D+00 EMaxC= 1.00D-01 BMatC= 9.98D-06 BMatP= 8.33D-05
 IDIUse=3 WtCom= 9.97D-01 WtEn= 2.72D-03
 Coeff-Com: -0.576D-03-0.360D-02 0.732D-01 0.308D+00 0.623D+00
 Coeff-En:   0.000D+00 0.000D+00 0.000D+00 0.306D-01 0.969D+00
 Coeff:     -0.575D-03-0.360D-02 0.730D-01 0.307D+00 0.624D+00
 Gap=     0.376 Goal=   None    Shift=    0.000
 RMSDP=3.24D-05 MaxDP=8.12D-04 DE=-7.15D-05 OVMax= 8.93D-04

 Cycle   6  Pass 1  IDiag  1:
 E= -119.130220424506     Delta-E=       -0.000009857374 Rises=F Damp=F
 DIIS: error= 2.05D-05 at cycle   6 NSaved=   6.
 NSaved= 6 IEnMin= 6 EnMin= -119.130220424506     IErMin= 6 ErrMin= 2.05D-05
 ErrMax= 2.05D-05  0.00D+00 EMaxC= 1.00D-01 BMatC= 3.26D-08 BMatP= 9.98D-06
 IDIUse=1 WtCom= 1.00D+00 WtEn= 0.00D+00
 Coeff-Com: -0.822D-04-0.130D-02 0.136D-01 0.657D-01 0.155D+00 0.767D+00
 Coeff:     -0.822D-04-0.130D-02 0.136D-01 0.657D-01 0.155D+00 0.767D+00
 Gap=     0.376 Goal=   None    Shift=    0.000
 RMSDP=2.90D-06 MaxDP=3.40D-05 DE=-9.86D-06 OVMax= 6.03D-05

 Cycle   7  Pass 1  IDiag  1:
 E= -119.130220458656     Delta-E=       -0.000000034150 Rises=F Damp=F
 DIIS: error= 4.08D-06 at cycle   7 NSaved=   7.
 NSaved= 7 IEnMin= 7 EnMin= -119.130220458656     IErMin= 7 ErrMin= 4.08D-06
 ErrMax= 4.08D-06  0.00D+00 EMaxC= 1.00D-01 BMatC= 1.97D-09 BMatP= 3.26D-08
 IDIUse=1 WtCom= 1.00D+00 WtEn= 0.00D+00
 Coeff-Com:  0.146D-04-0.259D-03 0.130D-02 0.793D-02 0.230D-01 0.221D+00
 Coeff-Com:  0.747D+00
 Coeff:      0.146D-04-0.259D-03 0.130D-02 0.793D-02 0.230D-01 0.221D+00
 Coeff:      0.747D+00
 Gap=     0.376 Goal=   None    Shift=    0.000
 RMSDP=6.65D-07 MaxDP=1.43D-05 DE=-3.41D-08 OVMax= 1.56D-05

 Cycle   8  Pass 1  IDiag  1:
 E= -119.130220460097     Delta-E=       -0.000000001441 Rises=F Damp=F
 DIIS: error= 2.32D-06 at cycle   8 NSaved=   8.
 NSaved= 8 IEnMin= 8 EnMin= -119.130220460097     IErMin= 8 ErrMin= 2.32D-06
 ErrMax= 2.32D-06  0.00D+00 EMaxC= 1.00D-01 BMatC= 6.21D-10 BMatP= 1.97D-09
 IDIUse=1 WtCom= 1.00D+00 WtEn= 0.00D+00
 Coeff-Com:  0.180D-04-0.367D-05-0.695D-03-0.251D-02-0.355D-02 0.391D-01
 Coeff-Com:  0.398D+00 0.570D+00
 Coeff:      0.180D-04-0.367D-05-0.695D-03-0.251D-02-0.355D-02 0.391D-01
 Coeff:      0.398D+00 0.570D+00
 Gap=     0.376 Goal=   None    Shift=    0.000
 RMSDP=2.57D-07 MaxDP=4.80D-06 DE=-1.44D-09 OVMax= 5.90D-06

 Cycle   9  Pass 1  IDiag  1:
 E= -119.130220460738     Delta-E=       -0.000000000641 Rises=F Damp=F
 DIIS: error= 6.84D-08 at cycle   9 NSaved=   9.
 NSaved= 9 IEnMin= 9 EnMin= -119.130220460738     IErMin= 9 ErrMin= 6.84D-08
 ErrMax= 6.84D-08  0.00D+00 EMaxC= 1.00D-01 BMatC= 4.62D-13 BMatP= 6.21D-10
 IDIUse=1 WtCom= 1.00D+00 WtEn= 0.00D+00
 Coeff-Com: -0.788D-06 0.274D-05-0.317D-04-0.127D-03-0.248D-03-0.186D-02
 Coeff-Com:  0.365D-03 0.198D-01 0.982D+00
 Coeff:     -0.788D-06 0.274D-05-0.317D-04-0.127D-03-0.248D-03-0.186D-02
 Coeff:      0.365D-03 0.198D-01 0.982D+00
 Gap=     0.376 Goal=   None    Shift=    0.000
 RMSDP=1.08D-08 MaxDP=1.37D-07 DE=-6.41D-10 OVMax= 2.06D-07

 Cycle  10  Pass 1  IDiag  1:
 E= -119.130220460738     Delta-E=       -0.000000000001 Rises=F Damp=F
 DIIS: error= 4.53D-09 at cycle  10 NSaved=  10.
 NSaved=10 IEnMin=10 EnMin= -119.130220460738     IErMin=10 ErrMin= 4.53D-09
 ErrMax= 4.53D-09  0.00D+00 EMaxC= 1.00D-01 BMatC= 2.76D-15 BMatP= 4.62D-13
 IDIUse=1 WtCom= 1.00D+00 WtEn= 0.00D+00
 Coeff-Com: -0.220D-06 0.339D-06 0.220D-06-0.180D-05-0.133D-04-0.384D-03
 Coeff-Com: -0.195D-02-0.103D-02 0.112D+00 0.892D+00
 Coeff:     -0.220D-06 0.339D-06 0.220D-06-0.180D-05-0.133D-04-0.384D-03
 Coeff:     -0.195D-02-0.103D-02 0.112D+00 0.892D+00
 Gap=     0.376 Goal=   None    Shift=    0.000
 RMSDP=1.07D-09 MaxDP=1.47D-08 DE=-6.82D-13 OVMax= 2.01D-08

 Error on total polarization charges =  0.00618
 SCF Done:  E(RB3LYP) =  -119.130220461     A.U. after   10 cycles
            NFock= 10  Conv=0.11D-08     -V/T= 2.0084
 KE= 1.181374906899D+02 PE=-4.383735460819D+02 EE= 1.192952171660D+02
 Leave Link  502 at Fri Sep 22 16:28:55 2023, MaxMem=   268435456 cpu:              28.8 elap:              14.5
 (Enter /share/apps/gaussian/g16/l601.exe)
 Copying SCF densities to generalized density rwf, IOpCl= 0 IROHF=0.

 **********************************************************************

            Population analysis using the SCF density.

 **********************************************************************

 Orbital symmetries:
       Occupied  (A) (A) (A) (A) (A) (A) (A) (A) (A) (A) (A) (A)
                 (A)
       Virtual   (A) (A) (A) (A) (A) (A) (A) (A) (A) (A) (A) (A)
                 (A) (A) (A) (A) (A) (A) (A) (A) (A) (A) (A) (A)
                 (A) (A) (A) (A) (A) (A) (A) (A) (A) (A) (A) (A)
                 (A) (A) (A) (A) (A) (A) (A) (A) (A) (A) (A) (A)
                 (A) (A) (A) (A) (A) (A) (A) (A) (A) (A) (A) (A)
                 (A) (A) (A) (A) (A) (A) (A) (A) (A)
 The electronic state is 1-A.
 Alpha  occ. eigenvalues --  -10.17566 -10.16897 -10.16333  -0.77743  -0.67551
 Alpha  occ. eigenvalues --   -0.58247  -0.45855  -0.43190  -0.39525  -0.38259
 Alpha  occ. eigenvalues --   -0.34019  -0.33545  -0.32965
 Alpha virt. eigenvalues --    0.04611   0.08580   0.08815   0.08888   0.11407
 Alpha virt. eigenvalues --    0.13551   0.14084   0.15543   0.18642   0.22577
 Alpha virt. eigenvalues --    0.37524   0.38878   0.40143   0.40385   0.40932
 Alpha virt. eigenvalues --    0.56679   0.58072   0.58548   0.60733   0.63790
 Alpha virt. eigenvalues --    0.64169   0.65357   0.65494   0.66264   0.68488
 Alpha virt. eigenvalues --    0.69931   0.71346   0.91074   1.21879   1.23837
 Alpha virt. eigenvalues --    1.26337   1.32247   1.46940   1.55542   1.58477
 Alpha virt. eigenvalues --    1.71656   1.72445   1.79180   1.85696   1.86986
 Alpha virt. eigenvalues --    1.89770   1.90810   1.92007   1.93509   1.96934
 Alpha virt. eigenvalues --    2.05338   2.06493   2.10823   2.11835   2.19281
 Alpha virt. eigenvalues --    2.24949   2.30919   2.45147   2.47883   2.53894
 Alpha virt. eigenvalues --    2.60219   2.61252   2.69787   2.73595   2.76826
 Alpha virt. eigenvalues --    2.77991   2.96556   3.03995   3.09925   3.14169
 Alpha virt. eigenvalues --    3.17629   3.26774   3.29458   3.31835
          Condensed to atoms (all electrons):
               1          2          3          4          5          6
     1  C    4.805866   0.392849  -0.088249   0.389843   0.399556   0.398168
     2  C    0.392849   4.868870   0.397719  -0.025992  -0.036819  -0.035135
     3  C   -0.088249   0.397719   4.783411   0.009092  -0.007084  -0.004805
     4  H    0.389843  -0.025992   0.009092   0.598447  -0.026399  -0.024872
     5  H    0.399556  -0.036819  -0.007084  -0.026399   0.608018  -0.026061
     6  H    0.398168  -0.035135  -0.004805  -0.024872  -0.026061   0.596916
     7  H   -0.030797   0.393414  -0.033993  -0.004180   0.009214  -0.007326
     8  H   -0.034619   0.391822  -0.033958  -0.005736  -0.008583   0.009298
     9  H   -0.006032  -0.034829   0.399741   0.000059  -0.001886   0.006354
    10  H   -0.006775  -0.034040   0.400208   0.000185   0.007278  -0.001780
    11  H    0.009835  -0.026215   0.393878  -0.000527   0.000186   0.000006
               7          8          9         10         11
     1  C   -0.030797  -0.034619  -0.006032  -0.006775   0.009835
     2  C    0.393414   0.391822  -0.034829  -0.034040  -0.026215
     3  C   -0.033993  -0.033958   0.399741   0.400208   0.393878
     4  H   -0.004180  -0.005736   0.000059   0.000185  -0.000527
     5  H    0.009214  -0.008583  -0.001886   0.007278   0.000186
     6  H   -0.007326   0.009298   0.006354  -0.001780   0.000006
     7  H    0.616574  -0.032525  -0.008162   0.009639  -0.005519
     8  H   -0.032525   0.628326   0.009919  -0.008822  -0.006228
     9  H   -0.008162   0.009919   0.604209  -0.027477  -0.026321
    10  H    0.009639  -0.008822  -0.027477   0.604616  -0.025753
    11  H   -0.005519  -0.006228  -0.026321  -0.025753   0.603219
 Mulliken charges:
               1
     1  C   -0.229644
     2  C   -0.251645
     3  C   -0.215960
     4  H    0.090078
     5  H    0.082579
     6  H    0.089237
     7  H    0.093660
     8  H    0.091108
     9  H    0.084426
    10  H    0.082722
    11  H    0.083438
 Sum of Mulliken charges =  -0.00000
 Mulliken charges with hydrogens summed into heavy atoms:
               1
     1  C    0.032251
     2  C   -0.066877
     3  C    0.034627
 Electronic spatial extent (au):  <R**2>=            228.4810
 Charge=             -0.0000 electrons
 Dipole moment (field-independent basis, Debye):
    X=              0.0622    Y=              0.0416    Z=             -0.0406  Tot=              0.0852
 Quadrupole moment (field-independent basis, Debye-Ang):
   XX=            -22.9142   YY=            -22.3232   ZZ=            -21.5681
   XY=              0.0234   XZ=              0.0924   YZ=             -0.0196
 Traceless Quadrupole moment (field-independent basis, Debye-Ang):
   XX=             -0.6457   YY=             -0.0547   ZZ=              0.7004
   XY=              0.0234   XZ=              0.0924   YZ=             -0.0196
 Octapole moment (field-independent basis, Debye-Ang**2):
  XXX=              0.3271  YYY=             -0.0083  ZZZ=             -0.0526  XYY=              0.2186
  XXY=              1.4567  XXZ=             -0.0866  XZZ=              0.1230  YZZ=             -0.3726
  YYZ=              0.1008  XYZ=              0.1686
 Hexadecapole moment (field-independent basis, Debye-Ang**3):
 XXXX=           -206.8943 YYYY=            -76.7888 ZZZZ=            -45.4524 XXXY=             -0.3126
 XXXZ=              0.3648 YYYX=              0.0388 YYYZ=              0.2075 ZZZX=              0.1101
 ZZZY=             -0.0675 XXYY=            -46.7360 XXZZ=            -42.5827 YYZZ=            -18.3057
 XXYZ=             -0.3719 YYXZ=              0.0232 ZZXY=              0.0877
 N-N= 8.181061776534D+01 E-N=-4.383735458479D+02  KE= 1.181374906899D+02
 There are a total of      243782 grid points.
 ElSum from          density=       26.0000020602
 ElSum from atomic densities=       26.0000032528
 Hirshfeld populations at iteration   1 (CA, CB, DipXYZ):
               1          2          3          4          5
     1  C    3.039629   3.039629   0.029093   0.016211   0.004978
     2  C    3.017575   3.017575   0.000559  -0.028755   0.005532
     3  C    3.040894   3.040894  -0.028355   0.015594   0.001042
     4  H    0.488467   0.488467  -0.104785   0.075246  -0.013300
     5  H    0.487766   0.487766   0.008323  -0.071478  -0.112248
     6  H    0.487276   0.487276  -0.004778  -0.074780   0.110050
     7  H    0.487648   0.487648   0.010809   0.074198   0.108177
     8  H    0.487864   0.487864  -0.001868   0.062630  -0.114867
     9  H    0.487374   0.487374   0.007878  -0.072157   0.109858
    10  H    0.487229   0.487229   0.001486  -0.075654  -0.107665
    11  H    0.488279   0.488279   0.105567   0.079305  -0.003861
       Tot  13.000001  13.000001   0.023928   0.000359  -0.012304

 Dip from Atomic Chgs              0.000552   0.016014  -0.003685
         Total Dipole              0.024480   0.016373  -0.015990

 Hirshfeld charges, spin densities, dipoles, and CM5 charges using IRadAn=      5:
              Q-H        S-H        Dx         Dy         Dz        Q-CM5   
     1  C   -0.079257   0.000000   0.029093   0.016211   0.004978  -0.223066
     2  C   -0.035151   0.000000   0.000559  -0.028755   0.005532  -0.143949
     3  C   -0.081789   0.000000  -0.028355   0.015594   0.001042  -0.230757
     4  H    0.023067   0.000000  -0.104785   0.075246  -0.013300   0.068709
     5  H    0.024467   0.000000   0.008323  -0.071478  -0.112248   0.076421
     6  H    0.025447   0.000000  -0.004778  -0.074780   0.110050   0.074763
     7  H    0.024704   0.000000   0.010809   0.074198   0.108177   0.075870
     8  H    0.024273   0.000000  -0.001868   0.062630  -0.114867   0.075921
     9  H    0.025252   0.000000   0.007878  -0.072157   0.109858   0.075956
    10  H    0.025541   0.000000   0.001486  -0.075654  -0.107665   0.076310
    11  H    0.023443   0.000000   0.105567   0.079305  -0.003861   0.073820
       Tot  -0.000002   0.000000   0.023928   0.000359  -0.012304  -0.000002
 Hirshfeld charges with hydrogens summed into heavy atoms:
              Q-H       Q-CM5   
     1  C   -0.006276  -0.003173
     2  C    0.013826   0.007842
     3  C   -0.007552  -0.004671
 
 EQQ= 0.000000000000E+00 EQD= 0.000000000000E+00 EDD=-0.210037396520E-02
 EQQ+QD+DD=-0.210037396520E-02
 
 No NMR shielding tensors so no spin-rotation constants.
 Leave Link  601 at Fri Sep 22 16:28:56 2023, MaxMem=   268435456 cpu:               1.9 elap:               0.9
 (Enter /share/apps/gaussian/g16/l9999.exe)
 1\1\GINC-NODE99\SP\RB3LYP\Gen\C3H8\YANZ\22-Sep-2023\0\\#p b3lyp/gen sc
 rf=(cpcm,solvent=toluene) pop=hirshfeld empiricaldispersion=gd3bj\\tmp
 dir/M2_ref_119.gjf\\0,1\C,0,3.487214,-2.442657,-0.040232\C,0,3.790623,
 -3.626523,-1.01730096\C,0,5.238456,-3.491989,-1.51444304\H,0,2.4579074
 4,-2.54589954,0.42629932\H,0,4.214917,-2.495019,0.77098101\H,0,3.56232
 079,-1.45941712,-0.54369762\H,0,3.1028191,-3.65043802,-1.89183486\H,0,
 3.69191825,-4.571748,-0.43749871\H,0,5.391221,-2.568939,-2.08783698\H,
 0,5.952221,-3.503116,-0.68045199\H,0,5.483004,-4.333893,-2.17414808\\V
 ersion=ES64L-G16RevA.03\State=1-A\HF=-119.1302205\RMSD=1.075e-09\Dipol
 e=0.0116044,-0.0308374,-0.0061325\Quadrupole=-0.2450671,0.0436228,0.20
 14444,0.0596652,0.2912188,-0.3423892\PG=C01 [X(C3H8)]\\@


 ERWIN WITH HIS PSI CAN DO
 CALCULATIONS QUITE A FEW.
 BUT ONE THING HAS NOT BEEN SEEN
 JUST WHAT DOES PSI REALLY MEAN.
 -- WALTER HUCKEL, TRANS. BY FELIX BLOCH
 Job cpu time:       0 days  0 hours  0 minutes 34.0 seconds.
 Elapsed time:       0 days  0 hours  0 minutes 17.2 seconds.
 File lengths (MBytes):  RWF=     14 Int=      0 D2E=      0 Chk=      2 Scr=      1
 Normal termination of Gaussian 16 at Fri Sep 22 16:28:56 2023.
