 Entering Gaussian System, Link 0=g16
 Initial command:
 /share/apps/gaussian/g16/l1.exe "/tmp/55556.mgr/Gau-78198.inp" -scrdir="/tmp/55556.mgr/"
 Entering Link 1 = /share/apps/gaussian/g16/l1.exe PID=     78199.
  
 Copyright (c) 1988,1990,1992,1993,1995,1998,2003,2009,2016,
            Gaussian, Inc.  All Rights Reserved.
  
 This is part of the Gaussian(R) 16 program.  It is based on
 the Gaussian(R) 09 system (copyright 2009, Gaussian, Inc.),
 the Gaussian(R) 03 system (copyright 2003, Gaussian, Inc.),
 the Gaussian(R) 98 system (copyright 1998, Gaussian, Inc.),
 the Gaussian(R) 94 system (copyright 1995, Gaussian, Inc.),
 the Gaussian 92(TM) system (copyright 1992, Gaussian, Inc.),
 the Gaussian 90(TM) system (copyright 1990, Gaussian, Inc.),
 the Gaussian 88(TM) system (copyright 1988, Gaussian, Inc.),
 the Gaussian 86(TM) system (copyright 1986, Carnegie Mellon
 University), and the Gaussian 82(TM) system (copyright 1983,
 Carnegie Mellon University). Gaussian is a federally registered
 trademark of Gaussian, Inc.
  
 This software contains proprietary and confidential information,
 including trade secrets, belonging to Gaussian, Inc.
  
 This software is provided under written license and may be
 used, copied, transmitted, or stored only in accord with that
 written license.
  
 The following legend is applicable only to US Government
 contracts under FAR:
  
                    RESTRICTED RIGHTS LEGEND
  
 Use, reproduction and disclosure by the US Government is
 subject to restrictions as set forth in subparagraphs (a)
 and (c) of the Commercial Computer Software - Restricted
 Rights clause in FAR 52.227-19.
  
 Gaussian, Inc.
 340 Quinnipiac St., Bldg. 40, Wallingford CT 06492
  
  
 ---------------------------------------------------------------
 Warning -- This program may not be used in any manner that
 competes with the business of Gaussian, Inc. or will provide
 assistance to any competitor of Gaussian, Inc.  The licensee
 of this program is prohibited from giving any competitor of
 Gaussian, Inc. access to this program.  By using this program,
 the user acknowledges that Gaussian, Inc. is engaged in the
 business of creating and licensing software in the field of
 computational chemistry and represents and warrants to the
 licensee that it is not a competitor of Gaussian, Inc. and that
 it will not use this program in any manner prohibited above.
 ---------------------------------------------------------------
  

 Cite this work as:
 Gaussian 16, Revision A.03,
 M. J. Frisch, G. W. Trucks, H. B. Schlegel, G. E. Scuseria, 
 M. A. Robb, J. R. Cheeseman, G. Scalmani, V. Barone, 
 G. A. Petersson, H. Nakatsuji, X. Li, M. Caricato, A. V. Marenich, 
 J. Bloino, B. G. Janesko, R. Gomperts, B. Mennucci, H. P. Hratchian, 
 J. V. Ortiz, A. F. Izmaylov, J. L. Sonnenberg, D. Williams-Young, 
 F. Ding, F. Lipparini, F. Egidi, J. Goings, B. Peng, A. Petrone, 
 T. Henderson, D. Ranasinghe, V. G. Zakrzewski, J. Gao, N. Rega, 
 G. Zheng, W. Liang, M. Hada, M. Ehara, K. Toyota, R. Fukuda, 
 J. Hasegawa, M. Ishida, T. Nakajima, Y. Honda, O. Kitao, H. Nakai, 
 T. Vreven, K. Throssell, J. A. Montgomery, Jr., J. E. Peralta, 
 F. Ogliaro, M. J. Bearpark, J. J. Heyd, E. N. Brothers, K. N. Kudin, 
 V. N. Staroverov, T. A. Keith, R. Kobayashi, J. Normand, 
 K. Raghavachari, A. P. Rendell, J. C. Burant, S. S. Iyengar, 
 J. Tomasi, M. Cossi, J. M. Millam, M. Klene, C. Adamo, R. Cammi, 
 J. W. Ochterski, R. L. Martin, K. Morokuma, O. Farkas, 
 J. B. Foresman, and D. J. Fox, Gaussian, Inc., Wallingford CT, 2016.
 
 ******************************************
 Gaussian 16:  ES64L-G16RevA.03 25-Dec-2016
                22-Sep-2023 
 ******************************************
 %nprocshared=2
 Will use up to    2 processors via shared memory.
 %mem=2GB
 ----------------------------------------------------------------------
 #p b3lyp/gen scrf=(cpcm,solvent=toluene) pop=hirshfeld empiricaldisper
 sion=gd3bj
 ----------------------------------------------------------------------
 1/38=1,172=1/1;
 2/12=2,17=6,18=5,40=1/2;
 3/5=7,11=2,25=1,30=1,70=2101,72=13,74=-5,124=41/1,2,3;
 4//1;
 5/5=2,38=5,53=13/2;
 6/7=2,8=2,9=2,10=2,28=1,79=1/1;
 99/5=1,9=1/99;
 Leave Link    1 at Fri Sep 22 16:27:34 2023, MaxMem=   268435456 cpu:               0.1 elap:               0.0
 (Enter /share/apps/gaussian/g16/l101.exe)
 -------------------
 tmpdir/M2_ref_2.gjf
 -------------------
 Symbolic Z-matrix:
 Charge =  0 Multiplicity = 1
 C                    -0.81068  -1.23132  -2.65929 
 C                    -0.69305  -1.10583  -1.23513 
 C                    -2.05299  -1.6791   -3.18742 
 H                    -0.05912  -0.97177  -3.29669 
 H                    -1.59306  -1.18115  -0.63314 
 C                     0.47758  -0.63668  -0.52324 
 
 ITRead=  0  0  0  0  0  0
 MicOpt= -1 -1 -1 -1 -1 -1
 NAtoms=      6 NQM=        6 NQMF=       0 NMMI=      0 NMMIF=      0
                NMic=       0 NMicF=      0.
                    Isotopes and Nuclear Properties:
 (Nuclear quadrupole moments (NQMom) in fm**2, nuclear magnetic moments (NMagM)
  in nuclear magnetons)

  Atom         1           2           3           4           5           6
 IAtWgt=          12          12          12           1           1          12
 AtmWgt=  12.0000000  12.0000000  12.0000000   1.0078250   1.0078250  12.0000000
 NucSpn=           0           0           0           1           1           0
 AtZEff=  -0.0000000  -0.0000000  -0.0000000  -0.0000000  -0.0000000  -0.0000000
 NQMom=    0.0000000   0.0000000   0.0000000   0.0000000   0.0000000   0.0000000
 NMagM=    0.0000000   0.0000000   0.0000000   2.7928460   2.7928460   0.0000000
 AtZNuc=   6.0000000   6.0000000   6.0000000   1.0000000   1.0000000   6.0000000
 Leave Link  101 at Fri Sep 22 16:27:34 2023, MaxMem=   268435456 cpu:               0.2 elap:               0.1
 (Enter /share/apps/gaussian/g16/l202.exe)
                          Input orientation:                          
 ---------------------------------------------------------------------
 Center     Atomic      Atomic             Coordinates (Angstroms)
 Number     Number       Type             X           Y           Z
 ---------------------------------------------------------------------
      1          6           0       -0.810681   -1.231316   -2.659287
      2          6           0       -0.693053   -1.105833   -1.235135
      3          6           0       -2.052990   -1.679097   -3.187425
      4          1           0       -0.059116   -0.971774   -3.296687
      5          1           0       -1.593061   -1.181154   -0.633136
      6          6           0        0.477579   -0.636676   -0.523243
 ---------------------------------------------------------------------
                    Distance matrix (angstroms):
                    1          2          3          4          5
     1  C    0.000000
     2  C    1.434500   0.000000
     3  C    1.422241   2.447345   0.000000
     4  H    1.019064   2.160983   2.118438   0.000000
     5  H    2.172538   1.085399   2.642702   3.080801   0.000000
     6  C    2.564351   1.448198   3.819462   2.844701   2.143848
                    6
     6  C    0.000000
 Stoichiometry    C4H2
 Framework group  C1[X(C4H2)]
 Deg. of freedom    12
 Full point group                 C1      NOp   1
 Largest Abelian subgroup         C1      NOp   1
 Largest concise Abelian subgroup C1      NOp   1
                         Standard orientation:                         
 ---------------------------------------------------------------------
 Center     Atomic      Atomic             Coordinates (Angstroms)
 Number     Number       Type             X           Y           Z
 ---------------------------------------------------------------------
      1          6           0       -0.617890    0.438551    0.000403
      2          6           0        0.575121   -0.357429   -0.030172
      3          6           0       -1.869156   -0.237521   -0.005039
      4          1           0       -0.597392    1.455063    0.069496
      5          1           0        0.486591   -1.428232    0.123558
      6          6           0        1.930391    0.151927    0.002633
 ---------------------------------------------------------------------
 Rotational constants (GHZ):          56.2305703           5.2726877           4.8234382
 Leave Link  202 at Fri Sep 22 16:27:34 2023, MaxMem=   268435456 cpu:               0.1 elap:               0.0
 (Enter /share/apps/gaussian/g16/l301.exe)
 General basis read from cards:  (5D, 7F)
 Centers:       4      5
 S 3 1.00
     Exponent=  1.2251800000D+01 Coefficients=  2.3337100000D-02
     Exponent=  1.8687100000D+00 Coefficients=  1.5915000000D-01
     Exponent=  4.1820800000D-01 Coefficients=  5.0000000000D-01
 S 1 1.00
     Exponent=  1.0610000000D-01 Coefficients=  1.0000000000D+00
 P 1 1.00
     Exponent=  1.0000000000D+00 Coefficients=  1.0000000000D+00
 ****
 Centers:       1      2      3      6
 S 5 1.00
     Exponent=  1.2432000000D+03 Coefficients=  6.0336600000D-03
     Exponent=  1.8714500000D+02 Coefficients=  4.4957600000D-02
     Exponent=  4.2512600000D+01 Coefficients=  1.9790100000D-01
     Exponent=  1.1739300000D+01 Coefficients=  5.0000000000D-01
     Exponent=  3.5054800000D+00 Coefficients=  4.8036400000D-01
 S 2 1.00
     Exponent=  5.3908900000D+00 Coefficients= -7.0398000000D-02
     Exponent=  4.9334100000D-01 Coefficients=  5.0000000000D-01
 S 1 1.00
     Exponent=  1.4974100000D-01 Coefficients=  1.0000000000D+00
 P 3 1.00
     Exponent=  9.1805600000D+00 Coefficients=  4.3170100000D-02
     Exponent=  1.9365800000D+00 Coefficients=  2.2499900000D-01
     Exponent=  5.2629600000D-01 Coefficients=  5.0000000000D-01
 P 1 1.00
     Exponent=  1.3631900000D-01 Coefficients=  1.0000000000D+00
 D 1 1.00
     Exponent=  8.0000000000D-01 Coefficients=  1.0000000000D+00
 ****
 Ernie: Thresh=  0.10000D-02 Tol=  0.10000D-05 Strict=F.
 There are    70 symmetry adapted cartesian basis functions of A   symmetry.
 There are    66 symmetry adapted basis functions of A   symmetry.
    66 basis functions,   118 primitive gaussians,    70 cartesian basis functions
    13 alpha electrons       13 beta electrons
       nuclear repulsion energy        74.4708233666 Hartrees.
 IExCor=  402 DFT=T Ex+Corr=B3LYP ExCW=0 ScaHFX=  0.200000
 ScaDFX=  0.800000  0.720000  1.000000  0.810000 ScalE2=  1.000000  1.000000
 IRadAn=      5 IRanWt=     -1 IRanGd=            0 ICorTp=0 IEmpDi=141
 NAtoms=    6 NActive=    6 NUniq=    6 SFac= 1.00D+00 NAtFMM=   60 NAOKFM=F Big=F
 Integral buffers will be    131072 words long.
 Raffenetti 2 integral format.
 Two-electron integral symmetry is turned on.
 R6Disp:  Grimme-D3(BJ) Dispersion energy=       -0.0076392337 Hartrees.
 Nuclear repulsion after empirical dispersion term =       74.4631841329 Hartrees.
 ------------------------------------------------------------------------------
 Polarizable Continuum Model (PCM)
 =================================
 Model                : C-PCM.
 Atomic radii         : UFF (Universal Force Field).
 Polarization charges : Total charges.
 Charge compensation  : None.
 Solution method      : On-the-fly selection.
 Cavity type          : Scaled VdW (van der Waals Surface) (Alpha=1.100).
 Cavity algorithm     : GePol (No added spheres)
                        Default sphere list used, NSphG=    6.
                        Lebedev-Laikov grids with approx.  5.0 points / Ang**2.
                        Smoothing algorithm: York/Karplus (Gamma=1.0000).
                        Polarization charges: spherical gaussians, with
                                              point-specific exponents (IZeta= 3).
                        Self-potential: point-specific (ISelfS= 7).
                        Self-field    : sphere-specific E.n sum rule (ISelfD= 2).
 Solvent              : Toluene, Eps=   2.374100 Eps(inf)=   2.238315
 ------------------------------------------------------------------------------
 Spheres list:
 ISph  on   Nord     Re0    Alpha      Xe            Ye            Ze
    1   C      1    1.9255  1.100     -0.617890      0.438551      0.000403
    2   C      2    1.9255  1.100      0.575121     -0.357429     -0.030172
    3   C      3    1.9255  1.100     -1.869156     -0.237521     -0.005039
    4   H      4    1.4430  1.100     -0.597392      1.455063      0.069496
    5   H      5    1.4430  1.100      0.486591     -1.428232      0.123558
    6   C      6    1.9255  1.100      1.930391      0.151927      0.002633
 ------------------------------------------------------------------------------
 GePol: Number of generator spheres                  =       6
 GePol: Total number of spheres                      =       6
 GePol: Number of exposed spheres                    =       6 (100.00%)
 GePol: Number of points                             =     759
 GePol: Average weight of points                     =       0.16
 GePol: Minimum weight of points                     =   0.23D-07
 GePol: Maximum weight of points                     =    0.20577
 GePol: Number of points with low weight             =      29
 GePol: Fraction of low-weight points (<1% of avg)   =       3.82%
 GePol: Cavity surface area                          =    117.981 Ang**2
 GePol: Cavity volume                                =    102.964 Ang**3
 Leave Link  301 at Fri Sep 22 16:27:35 2023, MaxMem=   268435456 cpu:               0.2 elap:               0.1
 (Enter /share/apps/gaussian/g16/l302.exe)
 NPDir=0 NMtPBC=     1 NCelOv=     1 NCel=       1 NClECP=     1 NCelD=      1
         NCelK=      1 NCelE2=     1 NClLst=     1 CellRange=     0.0.
 One-electron integrals computed using PRISM.
 One-electron integral symmetry used in STVInt
 NBasis=    66 RedAO= T EigKep=  4.63D-03  NBF=    66
 NBsUse=    66 1.00D-06 EigRej= -1.00D+00 NBFU=    66
 Precomputing XC quadrature grid using
 IXCGrd= 4 IRadAn=           5 IRanWt=          -1 IRanGd=           0 AccXCQ= 0.00D+00.
 Generated NRdTot=       0 NPtTot=           0 NUsed=           0 NTot=          32
 NSgBfM=    70    70    70    70    70 MxSgAt=     6 MxSgA2=     6.
 Leave Link  302 at Fri Sep 22 16:27:35 2023, MaxMem=   268435456 cpu:               0.3 elap:               0.1
 (Enter /share/apps/gaussian/g16/l303.exe)
 DipDrv:  MaxL=1.
 Leave Link  303 at Fri Sep 22 16:27:35 2023, MaxMem=   268435456 cpu:               0.1 elap:               0.0
 (Enter /share/apps/gaussian/g16/l401.exe)
 ExpMin= 1.06D-01 ExpMax= 1.24D+03 ExpMxC= 1.87D+02 IAcc=3 IRadAn=         5 AccDes= 0.00D+00
 Harris functional with IExCor=  402 and IRadAn=       5 diagonalized for initial guess.
 HarFok:  IExCor=  402 AccDes= 0.00D+00 IRadAn=         5 IDoV= 1 UseB2=F ITyADJ=14
 ICtDFT=  3500011 ScaDFX=  1.000000  1.000000  1.000000  1.000000
 FoFCou: FMM=F IPFlag=           0 FMFlag=      100000 FMFlg1=           0
         NFxFlg=           0 DoJE=T BraDBF=F KetDBF=T FulRan=T
         wScrn=  0.000000 ICntrl=       500 IOpCl=  0 I1Cent=   200000004 NGrid=           0
         NMat0=    1 NMatS0=      1 NMatT0=    0 NMatD0=    1 NMtDS0=    0 NMtDT0=    0
 Petite list used in FoFCou.
 Harris En= -153.285111453331    
 JPrj=0 DoOrth=F DoCkMO=F.
 Leave Link  401 at Fri Sep 22 16:27:35 2023, MaxMem=   268435456 cpu:               1.1 elap:               0.6
 (Enter /share/apps/gaussian/g16/l502.exe)
 Keep R1 ints in memory in canonical form, NReq=4230386.
 FoFCou: FMM=F IPFlag=           0 FMFlag=           0 FMFlg1=           0
         NFxFlg=           0 DoJE=F BraDBF=F KetDBF=F FulRan=T
         wScrn=  0.000000 ICntrl=       600 IOpCl=  0 I1Cent=           0 NGrid=           0
         NMat0=    1 NMatS0=   2211 NMatT0=    0 NMatD0=    1 NMtDS0=    0 NMtDT0=    0
 Symmetry not used in FoFCou.
 Two-electron integral symmetry not used.
 Closed shell SCF:
 Using DIIS extrapolation, IDIIS=  1040.
 NGot=   268435456 LenX=   265979008 LenY=   265973667
 Requested convergence on RMS density matrix=1.00D-08 within 128 cycles.
 Requested convergence on MAX density matrix=1.00D-06.
 Requested convergence on             energy=1.00D-06.
 No special actions if energy rises.

 Cycle   1  Pass 1  IDiag  1:
 Inv3:  Mode=1 IEnd=     1728243.
 Iteration    1 A*A^-1 deviation from unit magnitude is 2.66D-15 for    757.
 Iteration    1 A*A^-1 deviation from orthogonality  is 2.35D-15 for    755    346.
 Iteration    1 A^-1*A deviation from unit magnitude is 2.55D-15 for    753.
 Iteration    1 A^-1*A deviation from orthogonality  is 1.73D-15 for    755    346.
 E= -153.198382521812    
 DIIS: error= 3.86D-02 at cycle   1 NSaved=   1.
 NSaved= 1 IEnMin= 1 EnMin= -153.198382521812     IErMin= 1 ErrMin= 3.86D-02
 ErrMax= 3.86D-02  0.00D+00 EMaxC= 1.00D-01 BMatC= 7.97D-02 BMatP= 7.97D-02
 IDIUse=3 WtCom= 6.14D-01 WtEn= 3.86D-01
 Coeff-Com:  0.100D+01
 Coeff-En:   0.100D+01
 Coeff:      0.100D+01
 Gap=     0.076 Goal=   None    Shift=    0.000
 GapD=    0.076 DampG=0.500 DampE=0.500 DampFc=0.2500 IDamp=-1.
 Damping current iteration by 2.50D-01
 RMSDP=8.91D-03 MaxDP=1.80D-01              OVMax= 2.77D-01

 Cycle   2  Pass 1  IDiag  1:
 E= -153.227973799963     Delta-E=       -0.029591278151 Rises=F Damp=T
 DIIS: error= 1.72D-02 at cycle   2 NSaved=   2.
 NSaved= 2 IEnMin= 2 EnMin= -153.227973799963     IErMin= 2 ErrMin= 1.72D-02
 ErrMax= 1.72D-02  0.00D+00 EMaxC= 1.00D-01 BMatC= 1.03D-02 BMatP= 7.97D-02
 IDIUse=3 WtCom= 8.28D-01 WtEn= 1.72D-01
 Coeff-Com: -0.359D+00 0.136D+01
 Coeff-En:   0.000D+00 0.100D+01
 Coeff:     -0.298D+00 0.130D+01
 Gap=     0.113 Goal=   None    Shift=    0.000
 RMSDP=3.23D-03 MaxDP=4.15D-02 DE=-2.96D-02 OVMax= 2.32D-01

 Cycle   3  Pass 1  IDiag  1:
 E= -153.281292535522     Delta-E=       -0.053318735559 Rises=F Damp=F
 DIIS: error= 5.89D-03 at cycle   3 NSaved=   3.
 NSaved= 3 IEnMin= 3 EnMin= -153.281292535522     IErMin= 3 ErrMin= 5.89D-03
 ErrMax= 5.89D-03  0.00D+00 EMaxC= 1.00D-01 BMatC= 1.83D-03 BMatP= 1.03D-02
 IDIUse=3 WtCom= 9.41D-01 WtEn= 5.89D-02
 Coeff-Com: -0.157D+00 0.506D+00 0.651D+00
 Coeff-En:   0.000D+00 0.000D+00 0.100D+01
 Coeff:     -0.148D+00 0.476D+00 0.672D+00
 Gap=     0.119 Goal=   None    Shift=    0.000
 RMSDP=1.01D-03 MaxDP=1.74D-02 DE=-5.33D-02 OVMax= 2.09D-02

 Cycle   4  Pass 1  IDiag  1:
 E= -153.283530173299     Delta-E=       -0.002237637777 Rises=F Damp=F
 DIIS: error= 1.42D-03 at cycle   4 NSaved=   4.
 NSaved= 4 IEnMin= 4 EnMin= -153.283530173299     IErMin= 4 ErrMin= 1.42D-03
 ErrMax= 1.42D-03  0.00D+00 EMaxC= 1.00D-01 BMatC= 1.66D-04 BMatP= 1.83D-03
 IDIUse=3 WtCom= 9.86D-01 WtEn= 1.42D-02
 Coeff-Com: -0.352D-01 0.110D+00 0.254D+00 0.671D+00
 Coeff-En:   0.000D+00 0.000D+00 0.000D+00 0.100D+01
 Coeff:     -0.347D-01 0.109D+00 0.251D+00 0.675D+00
 Gap=     0.120 Goal=   None    Shift=    0.000
 RMSDP=3.32D-04 MaxDP=7.69D-03 DE=-2.24D-03 OVMax= 1.48D-02

 Cycle   5  Pass 1  IDiag  1:
 E= -153.283573377247     Delta-E=       -0.000043203948 Rises=F Damp=F
 DIIS: error= 1.50D-03 at cycle   5 NSaved=   5.
 NSaved= 5 IEnMin= 5 EnMin= -153.283573377247     IErMin= 4 ErrMin= 1.42D-03
 ErrMax= 1.50D-03  0.00D+00 EMaxC= 1.00D-01 BMatC= 1.25D-04 BMatP= 1.66D-04
 IDIUse=3 WtCom= 9.85D-01 WtEn= 1.50D-02
 Coeff-Com: -0.603D-02 0.183D-01 0.986D-01 0.483D+00 0.406D+00
 Coeff-En:   0.000D+00 0.000D+00 0.000D+00 0.449D+00 0.551D+00
 Coeff:     -0.594D-02 0.180D-01 0.972D-01 0.483D+00 0.408D+00
 Gap=     0.120 Goal=   None    Shift=    0.000
 RMSDP=1.94D-04 MaxDP=4.08D-03 DE=-4.32D-05 OVMax= 9.21D-03

 Cycle   6  Pass 1  IDiag  1:
 E= -153.283731269815     Delta-E=       -0.000157892568 Rises=F Damp=F
 DIIS: error= 2.24D-04 at cycle   6 NSaved=   6.
 NSaved= 6 IEnMin= 6 EnMin= -153.283731269815     IErMin= 6 ErrMin= 2.24D-04
 ErrMax= 2.24D-04  0.00D+00 EMaxC= 1.00D-01 BMatC= 2.56D-06 BMatP= 1.25D-04
 IDIUse=3 WtCom= 9.98D-01 WtEn= 2.24D-03
 Coeff-Com:  0.209D-02-0.491D-02 0.140D-01 0.128D+00 0.175D+00 0.685D+00
 Coeff-En:   0.000D+00 0.000D+00 0.000D+00 0.000D+00 0.000D+00 0.100D+01
 Coeff:      0.209D-02-0.490D-02 0.140D-01 0.128D+00 0.175D+00 0.686D+00
 Gap=     0.120 Goal=   None    Shift=    0.000
 RMSDP=3.66D-05 MaxDP=6.74D-04 DE=-1.58D-04 OVMax= 1.46D-03

 Cycle   7  Pass 1  IDiag  1:
 E= -153.283734525009     Delta-E=       -0.000003255194 Rises=F Damp=F
 DIIS: error= 7.05D-05 at cycle   7 NSaved=   7.
 NSaved= 7 IEnMin= 7 EnMin= -153.283734525009     IErMin= 7 ErrMin= 7.05D-05
 ErrMax= 7.05D-05  0.00D+00 EMaxC= 1.00D-01 BMatC= 3.32D-07 BMatP= 2.56D-06
 IDIUse=1 WtCom= 1.00D+00 WtEn= 0.00D+00
 Coeff-Com:  0.202D-02-0.448D-02 0.198D-03 0.287D-01 0.549D-01 0.348D+00
 Coeff-Com:  0.570D+00
 Coeff:      0.202D-02-0.448D-02 0.198D-03 0.287D-01 0.549D-01 0.348D+00
 Coeff:      0.570D+00
 Gap=     0.120 Goal=   None    Shift=    0.000
 RMSDP=1.05D-05 MaxDP=1.29D-04 DE=-3.26D-06 OVMax= 3.14D-04

 Cycle   8  Pass 1  IDiag  1:
 E= -153.283734941808     Delta-E=       -0.000000416799 Rises=F Damp=F
 DIIS: error= 9.83D-06 at cycle   8 NSaved=   8.
 NSaved= 8 IEnMin= 8 EnMin= -153.283734941808     IErMin= 8 ErrMin= 9.83D-06
 ErrMax= 9.83D-06  0.00D+00 EMaxC= 1.00D-01 BMatC= 1.28D-08 BMatP= 3.32D-07
 IDIUse=1 WtCom= 1.00D+00 WtEn= 0.00D+00
 Coeff-Com:  0.636D-03-0.107D-02-0.605D-03-0.383D-02-0.167D-02 0.211D-01
 Coeff-Com:  0.134D+00 0.852D+00
 Coeff:      0.636D-03-0.107D-02-0.605D-03-0.383D-02-0.167D-02 0.211D-01
 Coeff:      0.134D+00 0.852D+00
 Gap=     0.120 Goal=   None    Shift=    0.000
 RMSDP=2.21D-06 MaxDP=2.68D-05 DE=-4.17D-07 OVMax= 5.19D-05

 Cycle   9  Pass 1  IDiag  1:
 E= -153.283734958392     Delta-E=       -0.000000016583 Rises=F Damp=F
 DIIS: error= 2.90D-06 at cycle   9 NSaved=   9.
 NSaved= 9 IEnMin= 9 EnMin= -153.283734958392     IErMin= 9 ErrMin= 2.90D-06
 ErrMax= 2.90D-06  0.00D+00 EMaxC= 1.00D-01 BMatC= 3.69D-10 BMatP= 1.28D-08
 IDIUse=1 WtCom= 1.00D+00 WtEn= 0.00D+00
 Coeff-Com:  0.110D-03-0.130D-03-0.448D-04-0.208D-02-0.281D-02-0.924D-02
 Coeff-Com:  0.131D-01 0.248D+00 0.753D+00
 Coeff:      0.110D-03-0.130D-03-0.448D-04-0.208D-02-0.281D-02-0.924D-02
 Coeff:      0.131D-01 0.248D+00 0.753D+00
 Gap=     0.120 Goal=   None    Shift=    0.000
 RMSDP=4.23D-07 MaxDP=3.96D-06 DE=-1.66D-08 OVMax= 1.08D-05

 Cycle  10  Pass 1  IDiag  1:
 E= -153.283734958912     Delta-E=       -0.000000000521 Rises=F Damp=F
 DIIS: error= 2.24D-07 at cycle  10 NSaved=  10.
 NSaved=10 IEnMin=10 EnMin= -153.283734958912     IErMin=10 ErrMin= 2.24D-07
 ErrMax= 2.24D-07  0.00D+00 EMaxC= 1.00D-01 BMatC= 4.18D-12 BMatP= 3.69D-10
 IDIUse=1 WtCom= 1.00D+00 WtEn= 0.00D+00
 Coeff-Com: -0.915D-05 0.185D-04 0.152D-04-0.148D-03-0.263D-03-0.112D-02
 Coeff-Com: -0.165D-02-0.458D-02 0.522D-01 0.955D+00
 Coeff:     -0.915D-05 0.185D-04 0.152D-04-0.148D-03-0.263D-03-0.112D-02
 Coeff:     -0.165D-02-0.458D-02 0.522D-01 0.955D+00
 Gap=     0.120 Goal=   None    Shift=    0.000
 RMSDP=1.19D-07 MaxDP=1.46D-06 DE=-5.21D-10 OVMax= 6.14D-06

 Cycle  11  Pass 1  IDiag  1:
 E= -153.283734958936     Delta-E=       -0.000000000024 Rises=F Damp=F
 DIIS: error= 7.03D-08 at cycle  11 NSaved=  11.
 NSaved=11 IEnMin=11 EnMin= -153.283734958936     IErMin=11 ErrMin= 7.03D-08
 ErrMax= 7.03D-08  0.00D+00 EMaxC= 1.00D-01 BMatC= 4.08D-13 BMatP= 4.18D-12
 IDIUse=1 WtCom= 1.00D+00 WtEn= 0.00D+00
 Coeff-Com: -0.228D-05 0.195D-05-0.275D-05 0.700D-04 0.118D-03 0.543D-03
 Coeff-Com:  0.893D-04-0.911D-02-0.486D-01-0.840D-01 0.114D+01
 Coeff:     -0.228D-05 0.195D-05-0.275D-05 0.700D-04 0.118D-03 0.543D-03
 Coeff:      0.893D-04-0.911D-02-0.486D-01-0.840D-01 0.114D+01
 Gap=     0.120 Goal=   None    Shift=    0.000
 RMSDP=5.51D-08 MaxDP=8.16D-07 DE=-2.42D-11 OVMax= 3.30D-06

 Cycle  12  Pass 1  IDiag  1:
 E= -153.283734958939     Delta-E=       -0.000000000002 Rises=F Damp=F
 DIIS: error= 2.51D-08 at cycle  12 NSaved=  12.
 NSaved=12 IEnMin=12 EnMin= -153.283734958939     IErMin=12 ErrMin= 2.51D-08
 ErrMax= 2.51D-08  0.00D+00 EMaxC= 1.00D-01 BMatC= 2.21D-14 BMatP= 4.08D-13
 IDIUse=1 WtCom= 1.00D+00 WtEn= 0.00D+00
 Coeff-Com:  0.557D-06-0.116D-05-0.896D-06 0.778D-05 0.127D-04 0.527D-04
 Coeff-Com:  0.146D-03 0.116D-02 0.972D-03-0.499D-01-0.115D+00 0.116D+01
 Coeff:      0.557D-06-0.116D-05-0.896D-06 0.778D-05 0.127D-04 0.527D-04
 Coeff:      0.146D-03 0.116D-02 0.972D-03-0.499D-01-0.115D+00 0.116D+01
 Gap=     0.120 Goal=   None    Shift=    0.000
 RMSDP=1.81D-08 MaxDP=2.76D-07 DE=-2.42D-12 OVMax= 1.11D-06

 Cycle  13  Pass 1  IDiag  1:
 E= -153.283734958941     Delta-E=       -0.000000000003 Rises=F Damp=F
 DIIS: error= 3.57D-09 at cycle  13 NSaved=  13.
 NSaved=13 IEnMin=13 EnMin= -153.283734958941     IErMin=13 ErrMin= 3.57D-09
 ErrMax= 3.57D-09  0.00D+00 EMaxC= 1.00D-01 BMatC= 1.54D-15 BMatP= 2.21D-14
 IDIUse=1 WtCom= 1.00D+00 WtEn= 0.00D+00
 Coeff-Com:  0.106D-06-0.742D-07 0.805D-07-0.378D-05-0.717D-05-0.433D-04
 Coeff-Com: -0.273D-04 0.659D-03 0.372D-02-0.307D-02-0.817D-01 0.102D+00
 Coeff-Com:  0.978D+00
 Coeff:      0.106D-06-0.742D-07 0.805D-07-0.378D-05-0.717D-05-0.433D-04
 Coeff:     -0.273D-04 0.659D-03 0.372D-02-0.307D-02-0.817D-01 0.102D+00
 Coeff:      0.978D+00
 Gap=     0.120 Goal=   None    Shift=    0.000
 RMSDP=3.78D-09 MaxDP=5.85D-08 DE=-2.53D-12 OVMax= 2.33D-07

 Error on total polarization charges =  0.00601
 SCF Done:  E(RB3LYP) =  -153.283734959     A.U. after   13 cycles
            NFock= 13  Conv=0.38D-08     -V/T= 2.0069
 KE= 1.522351814091D+02 PE=-5.037367295137D+02 EE= 1.237546290128D+02
 Leave Link  502 at Fri Sep 22 16:27:44 2023, MaxMem=   268435456 cpu:              17.3 elap:               8.7
 (Enter /share/apps/gaussian/g16/l601.exe)
 Copying SCF densities to generalized density rwf, IOpCl= 0 IROHF=0.

 **********************************************************************

            Population analysis using the SCF density.

 **********************************************************************

 Orbital symmetries:
       Occupied  (A) (A) (A) (A) (A) (A) (A) (A) (A) (A) (A) (A)
                 (A)
       Virtual   (A) (A) (A) (A) (A) (A) (A) (A) (A) (A) (A) (A)
                 (A) (A) (A) (A) (A) (A) (A) (A) (A) (A) (A) (A)
                 (A) (A) (A) (A) (A) (A) (A) (A) (A) (A) (A) (A)
                 (A) (A) (A) (A) (A) (A) (A) (A) (A) (A) (A) (A)
                 (A) (A) (A) (A) (A)
 The electronic state is 1-A.
 Alpha  occ. eigenvalues --  -10.28507 -10.28281 -10.23416 -10.22682  -0.84562
 Alpha  occ. eigenvalues --   -0.73621  -0.57780  -0.57064  -0.46686  -0.36187
 Alpha  occ. eigenvalues --   -0.34118  -0.31402  -0.25844
 Alpha virt. eigenvalues --   -0.13881  -0.12861  -0.07839   0.01800   0.07182
 Alpha virt. eigenvalues --    0.08916   0.19178   0.23844   0.24822   0.39550
 Alpha virt. eigenvalues --    0.40801   0.42143   0.44006   0.45332   0.45889
 Alpha virt. eigenvalues --    0.49608   0.49719   0.51803   0.52199   0.54730
 Alpha virt. eigenvalues --    0.56164   0.63815   0.66825   0.84852   0.85174
 Alpha virt. eigenvalues --    0.92096   1.01773   1.27323   1.31631   1.39080
 Alpha virt. eigenvalues --    1.62156   1.64170   1.65345   1.67460   1.68594
 Alpha virt. eigenvalues --    1.75714   1.76649   1.80428   1.83799   1.88884
 Alpha virt. eigenvalues --    1.99847   2.10128   2.19598   2.22436   2.26741
 Alpha virt. eigenvalues --    2.40527   2.47727   2.49847   2.51674   2.74432
 Alpha virt. eigenvalues --    2.85883   3.21854   3.40731
          Condensed to atoms (all electrons):
               1          2          3          4          5          6
     1  C    5.069607   0.287865   0.415747   0.394876  -0.022857  -0.041869
     2  C    0.287865   5.187761  -0.042678  -0.023776   0.368374   0.413086
     3  C    0.415747  -0.042678   5.639940  -0.019019  -0.002936   0.000821
     4  H    0.394876  -0.023776  -0.019019   0.533018   0.008663  -0.007094
     5  H   -0.022857   0.368374  -0.002936   0.008663   0.506318  -0.013466
     6  C   -0.041869   0.413086   0.000821  -0.007094  -0.013466   5.631886
 Mulliken charges:
               1
     1  C   -0.103368
     2  C   -0.190631
     3  C    0.008125
     4  H    0.113333
     5  H    0.155904
     6  C    0.016637
 Sum of Mulliken charges =  -0.00000
 Mulliken charges with hydrogens summed into heavy atoms:
               1
     1  C    0.009965
     2  C   -0.034727
     3  C    0.008125
     6  C    0.016637
 Electronic spatial extent (au):  <R**2>=            255.8842
 Charge=             -0.0000 electrons
 Dipole moment (field-independent basis, Debye):
    X=             -0.1988    Y=              0.2998    Z=              0.2226  Tot=              0.4231
 Quadrupole moment (field-independent basis, Debye-Ang):
   XX=            -34.2447   YY=            -19.9706   ZZ=            -26.8854
   XY=             -4.0957   XZ=              0.0155   YZ=             -0.1434
 Traceless Quadrupole moment (field-independent basis, Debye-Ang):
   XX=             -7.2111   YY=              7.0629   ZZ=              0.1482
   XY=             -4.0957   XZ=              0.0155   YZ=             -0.1434
 Octapole moment (field-independent basis, Debye-Ang**2):
  XXX=             -3.4308  YYY=              0.9791  ZZZ=              0.3871  XYY=              0.6348
  XXY=              2.1070  XXZ=              0.5538  XZZ=             -0.3316  YZZ=              0.2588
  YYZ=              0.5965  XYZ=             -0.5665
 Hexadecapole moment (field-independent basis, Debye-Ang**3):
 XXXX=           -408.0200 YYYY=            -45.4611 ZZZZ=            -34.0462 XXXY=            -32.0344
 XXXZ=             -0.1526 YYYX=             -7.3549 YYYZ=             -0.3900 ZZZX=              0.0876
 ZZZY=             -0.1493 XXYY=            -61.8492 XXZZ=            -65.9179 YYZZ=            -14.9222
 XXYZ=             -0.1702 YYXZ=              0.0853 ZZXY=             -1.6259
 N-N= 7.446318413287D+01 E-N=-5.037367294880D+02  KE= 1.522351814091D+02
 There are a total of      132140 grid points.
 ElSum from          density=       26.0000005655
 ElSum from atomic densities=       26.0000004327
 Hirshfeld populations at iteration   1 (CA, CB, DipXYZ):
               1          2          3          4          5
     1  C    3.026977   3.026977   0.081961   0.078928   0.004721
     2  C    3.028470   3.028470  -0.093295  -0.036386   0.003350
     3  C    3.007161   3.007161   0.286160   0.177080   0.006096
     4  H    0.464427   0.464427   0.007311   0.176685   0.012800
     5  H    0.463321   0.463321  -0.017450  -0.170152   0.026997
     6  C    3.009643   3.009643  -0.311385  -0.100473   0.003908
       Tot  13.000000  13.000000  -0.046697   0.125681   0.057872

 Dip from Atomic Chgs             -0.031516  -0.007720   0.029718
         Total Dipole             -0.078213   0.117961   0.087590

 Hirshfeld charges, spin densities, dipoles, and CM5 charges using IRadAn=      5:
              Q-H        S-H        Dx         Dy         Dz        Q-CM5   
     1  C   -0.053954   0.000000   0.081961   0.078928   0.004721  -0.114178
     2  C   -0.056941   0.000000  -0.093295  -0.036386   0.003350  -0.108641
     3  C   -0.014323   0.000000   0.286160   0.177080   0.006096  -0.019100
     4  H    0.071147   0.000000   0.007311   0.176685   0.012800   0.135839
     5  H    0.073357   0.000000  -0.017450  -0.170152   0.026997   0.129511
     6  C   -0.019287   0.000000  -0.311385  -0.100473   0.003908  -0.023432
       Tot  -0.000001   0.000000  -0.046697   0.125681   0.057872  -0.000001
 Hirshfeld charges with hydrogens summed into heavy atoms:
              Q-H       Q-CM5   
     1  C    0.017192   0.021661
     2  C    0.016416   0.020869
     3  C   -0.014323  -0.019100
     6  C   -0.019287  -0.023432
 
 EQQ= 0.000000000000E+00 EQD= 0.000000000000E+00 EDD= 0.503211111840E-02
 EQQ+QD+DD= 0.503211111840E-02
 
 No NMR shielding tensors so no spin-rotation constants.
 Leave Link  601 at Fri Sep 22 16:27:45 2023, MaxMem=   268435456 cpu:               0.9 elap:               0.5
 (Enter /share/apps/gaussian/g16/l9999.exe)
 1\1\GINC-NODE99\SP\RB3LYP\Gen\C4H2\YANZ\22-Sep-2023\0\\#p b3lyp/gen sc
 rf=(cpcm,solvent=toluene) pop=hirshfeld empiricaldispersion=gd3bj\\tmp
 dir/M2_ref_2.gjf\\0,1\C,0,-0.810681,-1.231316,-2.65928698\C,0,-0.69305
 3,-1.105833,-1.23513496\C,0,-2.05299,-1.679097,-3.1874249\H,0,-0.05911
 577,-0.97177391,-3.29668747\H,0,-1.593061,-1.181154,-0.63313597\C,0,0.
 47757944,-0.63667623,-0.52324321\\Version=ES64L-G16RevA.03\State=1-A\H
 F=-153.283735\RMSD=3.780e-09\Dipole=0.0154961,0.0852388,-0.14212\Quadr
 upole=-1.560448,-0.3825077,1.9429558,-1.0787665,-5.5442669,-1.5387902\
 PG=C01 [X(C4H2)]\\@


            THE IRISH PIG
 'TWAS AN EVENING IN NOVEMBER,
 AS I VERY WELL REMEMBER
 I WAS STROLLING DOWN THE STREET IN DRUNKEN PRIDE,
 BUT MY KNEES WERE ALL A'FLUTTER
 SO I LANDED IN THE GUTTER,
 AND A PIG CAME UP AND LAY DOWN BY MY SIDE.

 YES, I LAY THERE IN THE GUTTER
 THINKING THOUGHTS I COULD NOT UTTER
 WHEN A COLLEEN PASSING BY DID SOFTLY SAY,
 'YE CAN TELL A MAN THAT BOOZES
 BY THE COMPANY THAT HE CHOOSES.' -
 AT THAT, THE PIG GOT UP AND WALKED AWAY!
     -- THE ECONOMIST, AUGUST 23, 1986
 Job cpu time:       0 days  0 hours  0 minutes 20.4 seconds.
 Elapsed time:       0 days  0 hours  0 minutes 10.4 seconds.
 File lengths (MBytes):  RWF=     12 Int=      0 D2E=      0 Chk=      2 Scr=      1
 Normal termination of Gaussian 16 at Fri Sep 22 16:27:45 2023.
