 Entering Gaussian System, Link 0=g16
 Initial command:
 /share/apps/gaussian/g16/l1.exe "/tmp/55556.mgr/Gau-81214.inp" -scrdir="/tmp/55556.mgr/"
 Entering Link 1 = /share/apps/gaussian/g16/l1.exe PID=     81216.
  
 Copyright (c) 1988,1990,1992,1993,1995,1998,2003,2009,2016,
            Gaussian, Inc.  All Rights Reserved.
  
 This is part of the Gaussian(R) 16 program.  It is based on
 the Gaussian(R) 09 system (copyright 2009, Gaussian, Inc.),
 the Gaussian(R) 03 system (copyright 2003, Gaussian, Inc.),
 the Gaussian(R) 98 system (copyright 1998, Gaussian, Inc.),
 the Gaussian(R) 94 system (copyright 1995, Gaussian, Inc.),
 the Gaussian 92(TM) system (copyright 1992, Gaussian, Inc.),
 the Gaussian 90(TM) system (copyright 1990, Gaussian, Inc.),
 the Gaussian 88(TM) system (copyright 1988, Gaussian, Inc.),
 the Gaussian 86(TM) system (copyright 1986, Carnegie Mellon
 University), and the Gaussian 82(TM) system (copyright 1983,
 Carnegie Mellon University). Gaussian is a federally registered
 trademark of Gaussian, Inc.
  
 This software contains proprietary and confidential information,
 including trade secrets, belonging to Gaussian, Inc.
  
 This software is provided under written license and may be
 used, copied, transmitted, or stored only in accord with that
 written license.
  
 The following legend is applicable only to US Government
 contracts under FAR:
  
                    RESTRICTED RIGHTS LEGEND
  
 Use, reproduction and disclosure by the US Government is
 subject to restrictions as set forth in subparagraphs (a)
 and (c) of the Commercial Computer Software - Restricted
 Rights clause in FAR 52.227-19.
  
 Gaussian, Inc.
 340 Quinnipiac St., Bldg. 40, Wallingford CT 06492
  
  
 ---------------------------------------------------------------
 Warning -- This program may not be used in any manner that
 competes with the business of Gaussian, Inc. or will provide
 assistance to any competitor of Gaussian, Inc.  The licensee
 of this program is prohibited from giving any competitor of
 Gaussian, Inc. access to this program.  By using this program,
 the user acknowledges that Gaussian, Inc. is engaged in the
 business of creating and licensing software in the field of
 computational chemistry and represents and warrants to the
 licensee that it is not a competitor of Gaussian, Inc. and that
 it will not use this program in any manner prohibited above.
 ---------------------------------------------------------------
  

 Cite this work as:
 Gaussian 16, Revision A.03,
 M. J. Frisch, G. W. Trucks, H. B. Schlegel, G. E. Scuseria, 
 M. A. Robb, J. R. Cheeseman, G. Scalmani, V. Barone, 
 G. A. Petersson, H. Nakatsuji, X. Li, M. Caricato, A. V. Marenich, 
 J. Bloino, B. G. Janesko, R. Gomperts, B. Mennucci, H. P. Hratchian, 
 J. V. Ortiz, A. F. Izmaylov, J. L. Sonnenberg, D. Williams-Young, 
 F. Ding, F. Lipparini, F. Egidi, J. Goings, B. Peng, A. Petrone, 
 T. Henderson, D. Ranasinghe, V. G. Zakrzewski, J. Gao, N. Rega, 
 G. Zheng, W. Liang, M. Hada, M. Ehara, K. Toyota, R. Fukuda, 
 J. Hasegawa, M. Ishida, T. Nakajima, Y. Honda, O. Kitao, H. Nakai, 
 T. Vreven, K. Throssell, J. A. Montgomery, Jr., J. E. Peralta, 
 F. Ogliaro, M. J. Bearpark, J. J. Heyd, E. N. Brothers, K. N. Kudin, 
 V. N. Staroverov, T. A. Keith, R. Kobayashi, J. Normand, 
 K. Raghavachari, A. P. Rendell, J. C. Burant, S. S. Iyengar, 
 J. Tomasi, M. Cossi, J. M. Millam, M. Klene, C. Adamo, R. Cammi, 
 J. W. Ochterski, R. L. Martin, K. Morokuma, O. Farkas, 
 J. B. Foresman, and D. J. Fox, Gaussian, Inc., Wallingford CT, 2016.
 
 ******************************************
 Gaussian 16:  ES64L-G16RevA.03 25-Dec-2016
                22-Sep-2023 
 ******************************************
 %nprocshared=2
 Will use up to    2 processors via shared memory.
 %mem=2GB
 ----------------------------------------------------------------------
 #p b3lyp/gen scrf=(cpcm,solvent=toluene) pop=hirshfeld empiricaldisper
 sion=gd3bj
 ----------------------------------------------------------------------
 1/38=1,172=1/1;
 2/12=2,17=6,18=5,40=1/2;
 3/5=7,11=2,25=1,30=1,70=2101,72=13,74=-5,124=41/1,2,3;
 4//1;
 5/5=2,38=5,53=13/2;
 6/7=2,8=2,9=2,10=2,28=1,79=1/1;
 99/5=1,9=1/99;
 Leave Link    1 at Fri Sep 22 16:30:09 2023, MaxMem=   268435456 cpu:               0.1 elap:               0.0
 (Enter /share/apps/gaussian/g16/l101.exe)
 ---------------------
 tmpdir/M2_ref_290.gjf
 ---------------------
 Symbolic Z-matrix:
 Charge =  0 Multiplicity = 1
 C                    -1.97333   1.0814    1.37211 
 C                    -3.26151   0.48705   1.26309 
 H                    -1.46154   1.21577   2.29983 
 C                    -1.38515   1.61014   0.23974 
 C                    -3.91752   0.44448   0.05445 
 H                    -3.74433   0.08437   2.15081 
 
 ITRead=  0  0  0  0  0  0
 MicOpt= -1 -1 -1 -1 -1 -1
 NAtoms=      6 NQM=        6 NQMF=       0 NMMI=      0 NMMIF=      0
                NMic=       0 NMicF=      0.
                    Isotopes and Nuclear Properties:
 (Nuclear quadrupole moments (NQMom) in fm**2, nuclear magnetic moments (NMagM)
  in nuclear magnetons)

  Atom         1           2           3           4           5           6
 IAtWgt=          12          12           1          12          12           1
 AtmWgt=  12.0000000  12.0000000   1.0078250  12.0000000  12.0000000   1.0078250
 NucSpn=           0           0           1           0           0           1
 AtZEff=  -0.0000000  -0.0000000  -0.0000000  -0.0000000  -0.0000000  -0.0000000
 NQMom=    0.0000000   0.0000000   0.0000000   0.0000000   0.0000000   0.0000000
 NMagM=    0.0000000   0.0000000   2.7928460   0.0000000   0.0000000   2.7928460
 AtZNuc=   6.0000000   6.0000000   1.0000000   6.0000000   6.0000000   1.0000000
 Leave Link  101 at Fri Sep 22 16:30:09 2023, MaxMem=   268435456 cpu:               0.4 elap:               0.2
 (Enter /share/apps/gaussian/g16/l202.exe)
                          Input orientation:                          
 ---------------------------------------------------------------------
 Center     Atomic      Atomic             Coordinates (Angstroms)
 Number     Number       Type             X           Y           Z
 ---------------------------------------------------------------------
      1          6           0       -1.973327    1.081404    1.372114
      2          6           0       -3.261506    0.487047    1.263092
      3          1           0       -1.461537    1.215774    2.299827
      4          6           0       -1.385146    1.610136    0.239742
      5          6           0       -3.917516    0.444478    0.054453
      6          1           0       -3.744334    0.084365    2.150805
 ---------------------------------------------------------------------
                    Distance matrix (angstroms):
                    1          2          3          4          5
     1  C    0.000000
     2  C    1.422867   0.000000
     3  H    1.068006   2.201306   0.000000
     4  C    1.381224   2.414395   2.098883   0.000000
     5  C    2.433470   1.375852   3.415909   2.793920   0.000000
     6  H    2.176445   1.087801   2.552147   3.397927   2.134096
                    6
     6  H    0.000000
 Stoichiometry    C4H2
 Framework group  C1[X(C4H2)]
 Deg. of freedom    12
 Full point group                 C1      NOp   1
 Largest Abelian subgroup         C1      NOp   1
 Largest concise Abelian subgroup C1      NOp   1
                         Standard orientation:                         
 ---------------------------------------------------------------------
 Center     Atomic      Atomic             Coordinates (Angstroms)
 Number     Number       Type             X           Y           Z
 ---------------------------------------------------------------------
      1          6           0       -0.716317    0.484014   -0.009906
      2          6           0        0.706541    0.478810   -0.009327
      3          1           0       -1.303654    1.373038    0.062943
      4          6           0       -1.387341   -0.723220   -0.000340
      5          6           0        1.406508   -0.705543    0.008604
      6          1           0        1.247305    1.422598    0.002875
 ---------------------------------------------------------------------
 Rotational constants (GHZ):          23.3916316           8.1158240           6.0262533
 Leave Link  202 at Fri Sep 22 16:30:09 2023, MaxMem=   268435456 cpu:               0.1 elap:               0.0
 (Enter /share/apps/gaussian/g16/l301.exe)
 General basis read from cards:  (5D, 7F)
 Centers:       3      6
 S 3 1.00
     Exponent=  1.2251800000D+01 Coefficients=  2.3337100000D-02
     Exponent=  1.8687100000D+00 Coefficients=  1.5915000000D-01
     Exponent=  4.1820800000D-01 Coefficients=  5.0000000000D-01
 S 1 1.00
     Exponent=  1.0610000000D-01 Coefficients=  1.0000000000D+00
 P 1 1.00
     Exponent=  1.0000000000D+00 Coefficients=  1.0000000000D+00
 ****
 Centers:       1      2      4      5
 S 5 1.00
     Exponent=  1.2432000000D+03 Coefficients=  6.0336600000D-03
     Exponent=  1.8714500000D+02 Coefficients=  4.4957600000D-02
     Exponent=  4.2512600000D+01 Coefficients=  1.9790100000D-01
     Exponent=  1.1739300000D+01 Coefficients=  5.0000000000D-01
     Exponent=  3.5054800000D+00 Coefficients=  4.8036400000D-01
 S 2 1.00
     Exponent=  5.3908900000D+00 Coefficients= -7.0398000000D-02
     Exponent=  4.9334100000D-01 Coefficients=  5.0000000000D-01
 S 1 1.00
     Exponent=  1.4974100000D-01 Coefficients=  1.0000000000D+00
 P 3 1.00
     Exponent=  9.1805600000D+00 Coefficients=  4.3170100000D-02
     Exponent=  1.9365800000D+00 Coefficients=  2.2499900000D-01
     Exponent=  5.2629600000D-01 Coefficients=  5.0000000000D-01
 P 1 1.00
     Exponent=  1.3631900000D-01 Coefficients=  1.0000000000D+00
 D 1 1.00
     Exponent=  8.0000000000D-01 Coefficients=  1.0000000000D+00
 ****
 Ernie: Thresh=  0.10000D-02 Tol=  0.10000D-05 Strict=F.
 There are    70 symmetry adapted cartesian basis functions of A   symmetry.
 There are    66 symmetry adapted basis functions of A   symmetry.
    66 basis functions,   118 primitive gaussians,    70 cartesian basis functions
    13 alpha electrons       13 beta electrons
       nuclear repulsion energy        77.4293175220 Hartrees.
 IExCor=  402 DFT=T Ex+Corr=B3LYP ExCW=0 ScaHFX=  0.200000
 ScaDFX=  0.800000  0.720000  1.000000  0.810000 ScalE2=  1.000000  1.000000
 IRadAn=      5 IRanWt=     -1 IRanGd=            0 ICorTp=0 IEmpDi=141
 NAtoms=    6 NActive=    6 NUniq=    6 SFac= 1.00D+00 NAtFMM=   60 NAOKFM=F Big=F
 Integral buffers will be    131072 words long.
 Raffenetti 2 integral format.
 Two-electron integral symmetry is turned on.
 R6Disp:  Grimme-D3(BJ) Dispersion energy=       -0.0080200100 Hartrees.
 Nuclear repulsion after empirical dispersion term =       77.4212975121 Hartrees.
 ------------------------------------------------------------------------------
 Polarizable Continuum Model (PCM)
 =================================
 Model                : C-PCM.
 Atomic radii         : UFF (Universal Force Field).
 Polarization charges : Total charges.
 Charge compensation  : None.
 Solution method      : On-the-fly selection.
 Cavity type          : Scaled VdW (van der Waals Surface) (Alpha=1.100).
 Cavity algorithm     : GePol (No added spheres)
                        Default sphere list used, NSphG=    6.
                        Lebedev-Laikov grids with approx.  5.0 points / Ang**2.
                        Smoothing algorithm: York/Karplus (Gamma=1.0000).
                        Polarization charges: spherical gaussians, with
                                              point-specific exponents (IZeta= 3).
                        Self-potential: point-specific (ISelfS= 7).
                        Self-field    : sphere-specific E.n sum rule (ISelfD= 2).
 Solvent              : Toluene, Eps=   2.374100 Eps(inf)=   2.238315
 ------------------------------------------------------------------------------
 Spheres list:
 ISph  on   Nord     Re0    Alpha      Xe            Ye            Ze
    1   C      1    1.9255  1.100     -0.716317      0.484014     -0.009906
    2   C      2    1.9255  1.100      0.706541      0.478810     -0.009327
    3   H      3    1.4430  1.100     -1.303654      1.373038      0.062943
    4   C      4    1.9255  1.100     -1.387341     -0.723220     -0.000340
    5   C      5    1.9255  1.100      1.406508     -0.705543      0.008604
    6   H      6    1.4430  1.100      1.247305      1.422598      0.002875
 ------------------------------------------------------------------------------
 GePol: Number of generator spheres                  =       6
 GePol: Total number of spheres                      =       6
 GePol: Number of exposed spheres                    =       6 (100.00%)
 GePol: Number of points                             =     761
 GePol: Average weight of points                     =       0.15
 GePol: Minimum weight of points                     =   0.54D-09
 GePol: Maximum weight of points                     =    0.20577
 GePol: Number of points with low weight             =      35
 GePol: Fraction of low-weight points (<1% of avg)   =       4.60%
 GePol: Cavity surface area                          =    114.566 Ang**2
 GePol: Cavity volume                                =    100.723 Ang**3
 Leave Link  301 at Fri Sep 22 16:30:09 2023, MaxMem=   268435456 cpu:               0.3 elap:               0.1
 (Enter /share/apps/gaussian/g16/l302.exe)
 NPDir=0 NMtPBC=     1 NCelOv=     1 NCel=       1 NClECP=     1 NCelD=      1
         NCelK=      1 NCelE2=     1 NClLst=     1 CellRange=     0.0.
 One-electron integrals computed using PRISM.
 One-electron integral symmetry used in STVInt
 NBasis=    66 RedAO= T EigKep=  2.70D-03  NBF=    66
 NBsUse=    66 1.00D-06 EigRej= -1.00D+00 NBFU=    66
 Precomputing XC quadrature grid using
 IXCGrd= 4 IRadAn=           5 IRanWt=          -1 IRanGd=           0 AccXCQ= 0.00D+00.
 Generated NRdTot=       0 NPtTot=           0 NUsed=           0 NTot=          32
 NSgBfM=    70    70    70    70    70 MxSgAt=     6 MxSgA2=     6.
 Leave Link  302 at Fri Sep 22 16:30:09 2023, MaxMem=   268435456 cpu:               0.4 elap:               0.2
 (Enter /share/apps/gaussian/g16/l303.exe)
 DipDrv:  MaxL=1.
 Leave Link  303 at Fri Sep 22 16:30:09 2023, MaxMem=   268435456 cpu:               0.1 elap:               0.1
 (Enter /share/apps/gaussian/g16/l401.exe)
 ExpMin= 1.06D-01 ExpMax= 1.24D+03 ExpMxC= 1.87D+02 IAcc=3 IRadAn=         5 AccDes= 0.00D+00
 Harris functional with IExCor=  402 and IRadAn=       5 diagonalized for initial guess.
 HarFok:  IExCor=  402 AccDes= 0.00D+00 IRadAn=         5 IDoV= 1 UseB2=F ITyADJ=14
 ICtDFT=  3500011 ScaDFX=  1.000000  1.000000  1.000000  1.000000
 FoFCou: FMM=F IPFlag=           0 FMFlag=      100000 FMFlg1=           0
         NFxFlg=           0 DoJE=T BraDBF=F KetDBF=T FulRan=T
         wScrn=  0.000000 ICntrl=       500 IOpCl=  0 I1Cent=   200000004 NGrid=           0
         NMat0=    1 NMatS0=      1 NMatT0=    0 NMatD0=    1 NMtDS0=    0 NMtDT0=    0
 Petite list used in FoFCou.
 Harris En= -153.299538571285    
 JPrj=0 DoOrth=F DoCkMO=F.
 Leave Link  401 at Fri Sep 22 16:30:10 2023, MaxMem=   268435456 cpu:               1.2 elap:               0.6
 (Enter /share/apps/gaussian/g16/l502.exe)
 Keep R1 ints in memory in canonical form, NReq=4230386.
 FoFCou: FMM=F IPFlag=           0 FMFlag=           0 FMFlg1=           0
         NFxFlg=           0 DoJE=F BraDBF=F KetDBF=F FulRan=T
         wScrn=  0.000000 ICntrl=       600 IOpCl=  0 I1Cent=           0 NGrid=           0
         NMat0=    1 NMatS0=   2211 NMatT0=    0 NMatD0=    1 NMtDS0=    0 NMtDT0=    0
 Symmetry not used in FoFCou.
 Two-electron integral symmetry not used.
 Closed shell SCF:
 Using DIIS extrapolation, IDIIS=  1040.
 NGot=   268435456 LenX=   265979008 LenY=   265973667
 Requested convergence on RMS density matrix=1.00D-08 within 128 cycles.
 Requested convergence on MAX density matrix=1.00D-06.
 Requested convergence on             energy=1.00D-06.
 No special actions if energy rises.

 Cycle   1  Pass 1  IDiag  1:
 Inv3:  Mode=1 IEnd=     1737363.
 Iteration    1 A*A^-1 deviation from unit magnitude is 4.88D-15 for    760.
 Iteration    1 A*A^-1 deviation from orthogonality  is 3.26D-15 for    760    346.
 Iteration    1 A^-1*A deviation from unit magnitude is 4.00D-15 for    760.
 Iteration    1 A^-1*A deviation from orthogonality  is 1.11D-15 for    761    347.
 E= -153.218377692018    
 DIIS: error= 3.10D-02 at cycle   1 NSaved=   1.
 NSaved= 1 IEnMin= 1 EnMin= -153.218377692018     IErMin= 1 ErrMin= 3.10D-02
 ErrMax= 3.10D-02  0.00D+00 EMaxC= 1.00D-01 BMatC= 7.34D-02 BMatP= 7.34D-02
 IDIUse=3 WtCom= 6.90D-01 WtEn= 3.10D-01
 Coeff-Com:  0.100D+01
 Coeff-En:   0.100D+01
 Coeff:      0.100D+01
 Gap=     0.079 Goal=   None    Shift=    0.000
 GapD=    0.079 DampG=0.500 DampE=0.500 DampFc=0.2500 IDamp=-1.
 Damping current iteration by 2.50D-01
 RMSDP=8.14D-03 MaxDP=1.68D-01              OVMax= 2.64D-01

 Cycle   2  Pass 1  IDiag  1:
 E= -153.245420542851     Delta-E=       -0.027042850834 Rises=F Damp=T
 DIIS: error= 1.50D-02 at cycle   2 NSaved=   2.
 NSaved= 2 IEnMin= 2 EnMin= -153.245420542851     IErMin= 2 ErrMin= 1.50D-02
 ErrMax= 1.50D-02  0.00D+00 EMaxC= 1.00D-01 BMatC= 1.14D-02 BMatP= 7.34D-02
 IDIUse=3 WtCom= 8.50D-01 WtEn= 1.50D-01
 Coeff-Com: -0.414D+00 0.141D+01
 Coeff-En:   0.000D+00 0.100D+01
 Coeff:     -0.352D+00 0.135D+01
 Gap=     0.103 Goal=   None    Shift=    0.000
 RMSDP=3.33D-03 MaxDP=3.80D-02 DE=-2.70D-02 OVMax= 2.00D-01

 Cycle   3  Pass 1  IDiag  1:
 E= -153.292134762790     Delta-E=       -0.046714219939 Rises=F Damp=F
 DIIS: error= 7.37D-03 at cycle   3 NSaved=   3.
 NSaved= 3 IEnMin= 3 EnMin= -153.292134762790     IErMin= 3 ErrMin= 7.37D-03
 ErrMax= 7.37D-03  0.00D+00 EMaxC= 1.00D-01 BMatC= 3.19D-03 BMatP= 1.14D-02
 IDIUse=3 WtCom= 9.26D-01 WtEn= 7.37D-02
 Coeff-Com: -0.233D+00 0.635D+00 0.599D+00
 Coeff-En:   0.000D+00 0.000D+00 0.100D+01
 Coeff:     -0.216D+00 0.588D+00 0.628D+00
 Gap=     0.117 Goal=   None    Shift=    0.000
 RMSDP=1.23D-03 MaxDP=1.71D-02 DE=-4.67D-02 OVMax= 2.48D-02

 Cycle   4  Pass 1  IDiag  1:
 E= -153.296073515525     Delta-E=       -0.003938752735 Rises=F Damp=F
 DIIS: error= 1.52D-03 at cycle   4 NSaved=   4.
 NSaved= 4 IEnMin= 4 EnMin= -153.296073515525     IErMin= 4 ErrMin= 1.52D-03
 ErrMax= 1.52D-03  0.00D+00 EMaxC= 1.00D-01 BMatC= 1.46D-04 BMatP= 3.19D-03
 IDIUse=3 WtCom= 9.85D-01 WtEn= 1.52D-02
 Coeff-Com: -0.273D-01 0.772D-01 0.201D+00 0.749D+00
 Coeff-En:   0.000D+00 0.000D+00 0.000D+00 0.100D+01
 Coeff:     -0.269D-01 0.760D-01 0.198D+00 0.753D+00
 Gap=     0.117 Goal=   None    Shift=    0.000
 RMSDP=2.17D-04 MaxDP=2.81D-03 DE=-3.94D-03 OVMax= 4.37D-03

 Cycle   5  Pass 1  IDiag  1:
 E= -153.296249638746     Delta-E=       -0.000176123221 Rises=F Damp=F
 DIIS: error= 2.83D-04 at cycle   5 NSaved=   5.
 NSaved= 5 IEnMin= 5 EnMin= -153.296249638746     IErMin= 5 ErrMin= 2.83D-04
 ErrMax= 2.83D-04  0.00D+00 EMaxC= 1.00D-01 BMatC= 4.98D-06 BMatP= 1.46D-04
 IDIUse=3 WtCom= 9.97D-01 WtEn= 2.83D-03
 Coeff-Com:  0.145D-02-0.281D-02 0.329D-01 0.234D+00 0.735D+00
 Coeff-En:   0.000D+00 0.000D+00 0.000D+00 0.000D+00 0.100D+01
 Coeff:      0.145D-02-0.280D-02 0.328D-01 0.233D+00 0.735D+00
 Gap=     0.117 Goal=   None    Shift=    0.000
 RMSDP=4.59D-05 MaxDP=4.41D-04 DE=-1.76D-04 OVMax= 9.32D-04

 Cycle   6  Pass 1  IDiag  1:
 E= -153.296255332466     Delta-E=       -0.000005693720 Rises=F Damp=F
 DIIS: error= 5.22D-05 at cycle   6 NSaved=   6.
 NSaved= 6 IEnMin= 6 EnMin= -153.296255332466     IErMin= 6 ErrMin= 5.22D-05
 ErrMax= 5.22D-05  0.00D+00 EMaxC= 1.00D-01 BMatC= 2.95D-07 BMatP= 4.98D-06
 IDIUse=1 WtCom= 1.00D+00 WtEn= 0.00D+00
 Coeff-Com:  0.247D-02-0.493D-02 0.315D-02 0.443D-01 0.231D+00 0.724D+00
 Coeff:      0.247D-02-0.493D-02 0.315D-02 0.443D-01 0.231D+00 0.724D+00
 Gap=     0.117 Goal=   None    Shift=    0.000
 RMSDP=1.45D-05 MaxDP=2.50D-04 DE=-5.69D-06 OVMax= 5.61D-04

 Cycle   7  Pass 1  IDiag  1:
 E= -153.296255548531     Delta-E=       -0.000000216065 Rises=F Damp=F
 DIIS: error= 5.13D-05 at cycle   7 NSaved=   7.
 NSaved= 7 IEnMin= 7 EnMin= -153.296255548531     IErMin= 7 ErrMin= 5.13D-05
 ErrMax= 5.13D-05  0.00D+00 EMaxC= 1.00D-01 BMatC= 1.48D-07 BMatP= 2.95D-07
 IDIUse=1 WtCom= 1.00D+00 WtEn= 0.00D+00
 Coeff-Com:  0.170D-02-0.326D-02-0.455D-03 0.105D-01 0.902D-01 0.471D+00
 Coeff-Com:  0.431D+00
 Coeff:      0.170D-02-0.326D-02-0.455D-03 0.105D-01 0.902D-01 0.471D+00
 Coeff:      0.431D+00
 Gap=     0.117 Goal=   None    Shift=    0.000
 RMSDP=7.16D-06 MaxDP=1.41D-04 DE=-2.16D-07 OVMax= 3.29D-04

 Cycle   8  Pass 1  IDiag  1:
 E= -153.296255744135     Delta-E=       -0.000000195604 Rises=F Damp=F
 DIIS: error= 7.71D-06 at cycle   8 NSaved=   8.
 NSaved= 8 IEnMin= 8 EnMin= -153.296255744135     IErMin= 8 ErrMin= 7.71D-06
 ErrMax= 7.71D-06  0.00D+00 EMaxC= 1.00D-01 BMatC= 5.42D-09 BMatP= 1.48D-07
 IDIUse=1 WtCom= 1.00D+00 WtEn= 0.00D+00
 Coeff-Com:  0.328D-03-0.512D-03-0.378D-03-0.250D-02-0.833D-02 0.448D-01
 Coeff-Com:  0.162D+00 0.804D+00
 Coeff:      0.328D-03-0.512D-03-0.378D-03-0.250D-02-0.833D-02 0.448D-01
 Coeff:      0.162D+00 0.804D+00
 Gap=     0.117 Goal=   None    Shift=    0.000
 RMSDP=1.48D-06 MaxDP=1.65D-05 DE=-1.96D-07 OVMax= 5.94D-05

 Cycle   9  Pass 1  IDiag  1:
 E= -153.296255751756     Delta-E=       -0.000000007620 Rises=F Damp=F
 DIIS: error= 1.76D-06 at cycle   9 NSaved=   9.
 NSaved= 9 IEnMin= 9 EnMin= -153.296255751756     IErMin= 9 ErrMin= 1.76D-06
 ErrMax= 1.76D-06  0.00D+00 EMaxC= 1.00D-01 BMatC= 2.87D-10 BMatP= 5.42D-09
 IDIUse=1 WtCom= 1.00D+00 WtEn= 0.00D+00
 Coeff-Com:  0.606D-04-0.728D-04-0.120D-03-0.143D-02-0.753D-02-0.214D-02
 Coeff-Com:  0.495D-01 0.319D+00 0.643D+00
 Coeff:      0.606D-04-0.728D-04-0.120D-03-0.143D-02-0.753D-02-0.214D-02
 Coeff:      0.495D-01 0.319D+00 0.643D+00
 Gap=     0.117 Goal=   None    Shift=    0.000
 RMSDP=4.46D-07 MaxDP=4.83D-06 DE=-7.62D-09 OVMax= 2.01D-05

 Cycle  10  Pass 1  IDiag  1:
 E= -153.296255752266     Delta-E=       -0.000000000511 Rises=F Damp=F
 DIIS: error= 5.90D-07 at cycle  10 NSaved=  10.
 NSaved=10 IEnMin=10 EnMin= -153.296255752266     IErMin=10 ErrMin= 5.90D-07
 ErrMax= 5.90D-07  0.00D+00 EMaxC= 1.00D-01 BMatC= 3.17D-11 BMatP= 2.87D-10
 IDIUse=1 WtCom= 1.00D+00 WtEn= 0.00D+00
 Coeff-Com: -0.260D-04 0.458D-04 0.610D-05-0.196D-03-0.166D-02-0.617D-02
 Coeff-Com: -0.572D-02-0.724D-03 0.232D+00 0.783D+00
 Coeff:     -0.260D-04 0.458D-04 0.610D-05-0.196D-03-0.166D-02-0.617D-02
 Coeff:     -0.572D-02-0.724D-03 0.232D+00 0.783D+00
 Gap=     0.117 Goal=   None    Shift=    0.000
 RMSDP=2.65D-07 MaxDP=2.67D-06 DE=-5.11D-10 OVMax= 1.63D-05

 Cycle  11  Pass 1  IDiag  1:
 E= -153.296255752405     Delta-E=       -0.000000000139 Rises=F Damp=F
 DIIS: error= 2.98D-07 at cycle  11 NSaved=  11.
 NSaved=11 IEnMin=11 EnMin= -153.296255752405     IErMin=11 ErrMin= 2.98D-07
 ErrMax= 2.98D-07  0.00D+00 EMaxC= 1.00D-01 BMatC= 1.72D-12 BMatP= 3.17D-11
 IDIUse=1 WtCom= 1.00D+00 WtEn= 0.00D+00
 Coeff-Com:  0.235D-05-0.765D-05 0.916D-05 0.204D-03 0.131D-02 0.288D-02
 Coeff-Com: -0.305D-02-0.372D-01-0.140D+00-0.214D+00 0.139D+01
 Coeff:      0.235D-05-0.765D-05 0.916D-05 0.204D-03 0.131D-02 0.288D-02
 Coeff:     -0.305D-02-0.372D-01-0.140D+00-0.214D+00 0.139D+01
 Gap=     0.117 Goal=   None    Shift=    0.000
 RMSDP=2.11D-07 MaxDP=2.31D-06 DE=-1.39D-10 OVMax= 1.39D-05

 Cycle  12  Pass 1  IDiag  1:
 E= -153.296255752442     Delta-E=       -0.000000000037 Rises=F Damp=F
 DIIS: error= 5.37D-08 at cycle  12 NSaved=  12.
 NSaved=12 IEnMin=12 EnMin= -153.296255752442     IErMin=12 ErrMin= 5.37D-08
 ErrMax= 5.37D-08  0.00D+00 EMaxC= 1.00D-01 BMatC= 6.69D-14 BMatP= 1.72D-12
 IDIUse=1 WtCom= 1.00D+00 WtEn= 0.00D+00
 Coeff-Com:  0.850D-06-0.107D-05-0.197D-05-0.702D-05-0.689D-05-0.999D-04
 Coeff-Com:  0.430D-03 0.313D-02-0.647D-02-0.422D-01-0.106D+00 0.115D+01
 Coeff:      0.850D-06-0.107D-05-0.197D-05-0.702D-05-0.689D-05-0.999D-04
 Coeff:      0.430D-03 0.313D-02-0.647D-02-0.422D-01-0.106D+00 0.115D+01
 Gap=     0.117 Goal=   None    Shift=    0.000
 RMSDP=4.40D-08 MaxDP=4.67D-07 DE=-3.68D-11 OVMax= 2.88D-06

 Cycle  13  Pass 1  IDiag  1:
 E= -153.296255752444     Delta-E=       -0.000000000002 Rises=F Damp=F
 DIIS: error= 8.42D-09 at cycle  13 NSaved=  13.
 NSaved=13 IEnMin=13 EnMin= -153.296255752444     IErMin=13 ErrMin= 8.42D-09
 ErrMax= 8.42D-09  0.00D+00 EMaxC= 1.00D-01 BMatC= 5.09D-15 BMatP= 6.69D-14
 IDIUse=1 WtCom= 1.00D+00 WtEn= 0.00D+00
 Coeff-Com:  0.268D-06-0.307D-06-0.634D-06-0.506D-05-0.276D-04-0.920D-04
 Coeff-Com:  0.287D-03 0.247D-02 0.333D-02-0.370D-02-0.663D-01 0.239D+00
 Coeff-Com:  0.825D+00
 Coeff:      0.268D-06-0.307D-06-0.634D-06-0.506D-05-0.276D-04-0.920D-04
 Coeff:      0.287D-03 0.247D-02 0.333D-02-0.370D-02-0.663D-01 0.239D+00
 Coeff:      0.825D+00
 Gap=     0.117 Goal=   None    Shift=    0.000
 RMSDP=2.72D-09 MaxDP=2.60D-08 DE=-1.73D-12 OVMax= 1.44D-07

 Error on total polarization charges =  0.00572
 SCF Done:  E(RB3LYP) =  -153.296255752     A.U. after   13 cycles
            NFock= 13  Conv=0.27D-08     -V/T= 2.0056
 KE= 1.524409602793D+02 PE=-5.099264049437D+02 EE= 1.267678913999D+02
 Leave Link  502 at Fri Sep 22 16:30:19 2023, MaxMem=   268435456 cpu:              17.2 elap:               8.7
 (Enter /share/apps/gaussian/g16/l601.exe)
 Copying SCF densities to generalized density rwf, IOpCl= 0 IROHF=0.

 **********************************************************************

            Population analysis using the SCF density.

 **********************************************************************

 Orbital symmetries:
       Occupied  (A) (A) (A) (A) (A) (A) (A) (A) (A) (A) (A) (A)
                 (A)
       Virtual   (A) (A) (A) (A) (A) (A) (A) (A) (A) (A) (A) (A)
                 (A) (A) (A) (A) (A) (A) (A) (A) (A) (A) (A) (A)
                 (A) (A) (A) (A) (A) (A) (A) (A) (A) (A) (A) (A)
                 (A) (A) (A) (A) (A) (A) (A) (A) (A) (A) (A) (A)
                 (A) (A) (A) (A) (A)
 The electronic state is 1-A.
 Alpha  occ. eigenvalues --  -10.27107 -10.26993 -10.22466 -10.22369  -0.86088
 Alpha  occ. eigenvalues --   -0.74089  -0.61390  -0.51058  -0.49721  -0.37214
 Alpha  occ. eigenvalues --   -0.33244  -0.31336  -0.25954
 Alpha virt. eigenvalues --   -0.14264  -0.11500  -0.07615   0.04690   0.05900
 Alpha virt. eigenvalues --    0.09485   0.20089   0.26748   0.30573   0.35916
 Alpha virt. eigenvalues --    0.39087   0.43324   0.44276   0.44634   0.45984
 Alpha virt. eigenvalues --    0.48133   0.50853   0.51436   0.53691   0.56429
 Alpha virt. eigenvalues --    0.61557   0.62882   0.68402   0.85844   0.87553
 Alpha virt. eigenvalues --    0.94760   1.06551   1.26397   1.30773   1.39687
 Alpha virt. eigenvalues --    1.60796   1.62840   1.64906   1.68783   1.69960
 Alpha virt. eigenvalues --    1.76544   1.77681   1.87964   1.89613   1.90959
 Alpha virt. eigenvalues --    1.97628   2.11746   2.23978   2.27406   2.29188
 Alpha virt. eigenvalues --    2.41371   2.44694   2.49819   2.56943   2.71436
 Alpha virt. eigenvalues --    3.00223   3.06534   3.41458
          Condensed to atoms (all electrons):
               1          2          3          4          5          6
     1  C    5.043334   0.338728   0.375807   0.462883  -0.070019  -0.004698
     2  C    0.338728   5.067491  -0.003211  -0.070841   0.460436   0.371332
     3  H    0.375807  -0.003211   0.499307  -0.018259   0.006648  -0.012431
     4  C    0.462883  -0.070841  -0.018259   5.633386  -0.008154   0.006691
     5  C   -0.070019   0.460436   0.006648  -0.008154   5.631778  -0.017633
     6  H   -0.004698   0.371332  -0.012431   0.006691  -0.017633   0.490145
 Mulliken charges:
               1
     1  C   -0.146035
     2  C   -0.163936
     3  H    0.152139
     4  C   -0.005706
     5  C   -0.003056
     6  H    0.166594
 Sum of Mulliken charges =  -0.00000
 Mulliken charges with hydrogens summed into heavy atoms:
               1
     1  C    0.006104
     2  C    0.002659
     4  C   -0.005706
     5  C   -0.003056
 Electronic spatial extent (au):  <R**2>=            219.6206
 Charge=              0.0000 electrons
 Dipole moment (field-independent basis, Debye):
    X=             -0.1108    Y=              4.0968    Z=              0.0829  Tot=              4.0992
 Quadrupole moment (field-independent basis, Debye-Ang):
   XX=            -25.5783   YY=            -24.4096   ZZ=            -26.5380
   XY=              0.0348   XZ=             -0.1971   YZ=              0.1737
 Traceless Quadrupole moment (field-independent basis, Debye-Ang):
   XX=             -0.0697   YY=              1.0990   ZZ=             -1.0293
   XY=              0.0348   XZ=             -0.1971   YZ=              0.1737
 Octapole moment (field-independent basis, Debye-Ang**2):
  XXX=             -1.0290  YYY=             16.9210  ZZZ=              0.1333  XYY=              0.1174
  XXY=             15.7816  XXZ=              0.3496  XZZ=             -0.0831  YZZ=              2.2716
  YYZ=              0.1545  XYZ=             -0.0855
 Hexadecapole moment (field-independent basis, Debye-Ang**3):
 XXXX=           -214.0062 YYYY=            -97.5594 ZZZZ=            -32.9407 XXXY=              0.2405
 XXXZ=             -0.8746 YYYX=              0.0129 YYYZ=              0.4990 ZZZX=             -0.2475
 ZZZY=              0.1935 XXYY=            -61.5083 XXZZ=            -45.3142 YYZZ=            -22.6323
 XXYZ=              0.3225 YYXZ=             -0.3046 ZZXY=             -0.0416
 N-N= 7.742129751206D+01 E-N=-5.099264049144D+02  KE= 1.524409602793D+02
 There are a total of      132140 grid points.
 ElSum from          density=       25.9999998404
 ElSum from atomic densities=       25.9999990832
 Hirshfeld populations at iteration   1 (CA, CB, DipXYZ):
               1          2          3          4          5
     1  C    3.026813   3.026813   0.051516   0.132646   0.003310
     2  C    3.027302   3.027302  -0.054434   0.123563   0.000644
     3  H    0.457149   0.457149  -0.090334   0.154664   0.013050
     4  C    3.015374   3.015374   0.143321   0.295098   0.005210
     5  C    3.017893   3.017893  -0.154622   0.289991  -0.004829
     6  H    0.455469   0.455469   0.077006   0.162771   0.003139
       Tot  13.000000  13.000000  -0.027547   1.158734   0.020525

 Dip from Atomic Chgs             -0.016026   0.453080   0.012082
         Total Dipole             -0.043573   1.611814   0.032607

 Hirshfeld charges, spin densities, dipoles, and CM5 charges using IRadAn=      5:
              Q-H        S-H        Dx         Dy         Dz        Q-CM5   
     1  C   -0.053627   0.000000   0.051516   0.132646   0.003310  -0.107325
     2  C   -0.054604   0.000000  -0.054434   0.123563   0.000644  -0.105697
     3  H    0.085703   0.000000  -0.090334   0.154664   0.013050   0.143296
     4  C   -0.030748   0.000000   0.143321   0.295098   0.005210  -0.034844
     5  C   -0.035787   0.000000  -0.154622   0.289991  -0.004829  -0.039547
     6  H    0.089063   0.000000   0.077006   0.162771   0.003139   0.144118
       Tot   0.000000   0.000000  -0.027547   1.158734   0.020525   0.000000
 Hirshfeld charges with hydrogens summed into heavy atoms:
              Q-H       Q-CM5   
     1  C    0.032076   0.035971
     2  C    0.034459   0.038420
     4  C   -0.030748  -0.034844
     5  C   -0.035787  -0.039547
 
 EQQ= 0.000000000000E+00 EQD= 0.000000000000E+00 EDD= 0.130164087084E-01
 EQQ+QD+DD= 0.130164087084E-01
 
 No NMR shielding tensors so no spin-rotation constants.
 Leave Link  601 at Fri Sep 22 16:30:19 2023, MaxMem=   268435456 cpu:               0.9 elap:               0.4
 (Enter /share/apps/gaussian/g16/l9999.exe)
 1\1\GINC-NODE99\SP\RB3LYP\Gen\C4H2\YANZ\22-Sep-2023\0\\#p b3lyp/gen sc
 rf=(cpcm,solvent=toluene) pop=hirshfeld empiricaldispersion=gd3bj\\tmp
 dir/M2_ref_290.gjf\\0,1\C,0,-1.973327,1.081404,1.37211394\C,0,-3.26150
 6,0.487047,1.26309204\H,0,-1.46153743,1.21577389,2.29982742\C,0,-1.385
 146,1.610136,0.239742\C,0,-3.917516,0.444478,0.054453\H,0,-3.744334,0.
 084365,2.150805\\Version=ES64L-G16RevA.03\State=1-A\HF=-153.2962558\RM
 SD=2.723e-09\Dipole=0.0457656,-0.2722516,1.5889263\Quadrupole=-0.29521
 46,-0.5102834,0.805498,0.3748215,0.0101142,-0.1674167\PG=C01 [X(C4H2)]
 \\@


 The best way to pay for a lovely moment is to enjoy it.
 -- Richard Bach
 Job cpu time:       0 days  0 hours  0 minutes 20.6 seconds.
 Elapsed time:       0 days  0 hours  0 minutes 10.5 seconds.
 File lengths (MBytes):  RWF=     12 Int=      0 D2E=      0 Chk=      2 Scr=      1
 Normal termination of Gaussian 16 at Fri Sep 22 16:30:19 2023.
