 Entering Gaussian System, Link 0=g16
 Initial command:
 /share/apps/gaussian/g16/l1.exe "/tmp/55556.mgr/Gau-80941.inp" -scrdir="/tmp/55556.mgr/"
 Entering Link 1 = /share/apps/gaussian/g16/l1.exe PID=     80942.
  
 Copyright (c) 1988,1990,1992,1993,1995,1998,2003,2009,2016,
            Gaussian, Inc.  All Rights Reserved.
  
 This is part of the Gaussian(R) 16 program.  It is based on
 the Gaussian(R) 09 system (copyright 2009, Gaussian, Inc.),
 the Gaussian(R) 03 system (copyright 2003, Gaussian, Inc.),
 the Gaussian(R) 98 system (copyright 1998, Gaussian, Inc.),
 the Gaussian(R) 94 system (copyright 1995, Gaussian, Inc.),
 the Gaussian 92(TM) system (copyright 1992, Gaussian, Inc.),
 the Gaussian 90(TM) system (copyright 1990, Gaussian, Inc.),
 the Gaussian 88(TM) system (copyright 1988, Gaussian, Inc.),
 the Gaussian 86(TM) system (copyright 1986, Carnegie Mellon
 University), and the Gaussian 82(TM) system (copyright 1983,
 Carnegie Mellon University). Gaussian is a federally registered
 trademark of Gaussian, Inc.
  
 This software contains proprietary and confidential information,
 including trade secrets, belonging to Gaussian, Inc.
  
 This software is provided under written license and may be
 used, copied, transmitted, or stored only in accord with that
 written license.
  
 The following legend is applicable only to US Government
 contracts under FAR:
  
                    RESTRICTED RIGHTS LEGEND
  
 Use, reproduction and disclosure by the US Government is
 subject to restrictions as set forth in subparagraphs (a)
 and (c) of the Commercial Computer Software - Restricted
 Rights clause in FAR 52.227-19.
  
 Gaussian, Inc.
 340 Quinnipiac St., Bldg. 40, Wallingford CT 06492
  
  
 ---------------------------------------------------------------
 Warning -- This program may not be used in any manner that
 competes with the business of Gaussian, Inc. or will provide
 assistance to any competitor of Gaussian, Inc.  The licensee
 of this program is prohibited from giving any competitor of
 Gaussian, Inc. access to this program.  By using this program,
 the user acknowledges that Gaussian, Inc. is engaged in the
 business of creating and licensing software in the field of
 computational chemistry and represents and warrants to the
 licensee that it is not a competitor of Gaussian, Inc. and that
 it will not use this program in any manner prohibited above.
 ---------------------------------------------------------------
  

 Cite this work as:
 Gaussian 16, Revision A.03,
 M. J. Frisch, G. W. Trucks, H. B. Schlegel, G. E. Scuseria, 
 M. A. Robb, J. R. Cheeseman, G. Scalmani, V. Barone, 
 G. A. Petersson, H. Nakatsuji, X. Li, M. Caricato, A. V. Marenich, 
 J. Bloino, B. G. Janesko, R. Gomperts, B. Mennucci, H. P. Hratchian, 
 J. V. Ortiz, A. F. Izmaylov, J. L. Sonnenberg, D. Williams-Young, 
 F. Ding, F. Lipparini, F. Egidi, J. Goings, B. Peng, A. Petrone, 
 T. Henderson, D. Ranasinghe, V. G. Zakrzewski, J. Gao, N. Rega, 
 G. Zheng, W. Liang, M. Hada, M. Ehara, K. Toyota, R. Fukuda, 
 J. Hasegawa, M. Ishida, T. Nakajima, Y. Honda, O. Kitao, H. Nakai, 
 T. Vreven, K. Throssell, J. A. Montgomery, Jr., J. E. Peralta, 
 F. Ogliaro, M. J. Bearpark, J. J. Heyd, E. N. Brothers, K. N. Kudin, 
 V. N. Staroverov, T. A. Keith, R. Kobayashi, J. Normand, 
 K. Raghavachari, A. P. Rendell, J. C. Burant, S. S. Iyengar, 
 J. Tomasi, M. Cossi, J. M. Millam, M. Klene, C. Adamo, R. Cammi, 
 J. W. Ochterski, R. L. Martin, K. Morokuma, O. Farkas, 
 J. B. Foresman, and D. J. Fox, Gaussian, Inc., Wallingford CT, 2016.
 
 ******************************************
 Gaussian 16:  ES64L-G16RevA.03 25-Dec-2016
                22-Sep-2023 
 ******************************************
 %nprocshared=2
 Will use up to    2 processors via shared memory.
 %mem=2GB
 ----------------------------------------------------------------------
 #p b3lyp/gen scrf=(cpcm,solvent=toluene) pop=hirshfeld empiricaldisper
 sion=gd3bj
 ----------------------------------------------------------------------
 1/38=1,172=1/1;
 2/12=2,17=6,18=5,40=1/2;
 3/5=7,11=2,25=1,30=1,70=2101,72=13,74=-5,124=41/1,2,3;
 4//1;
 5/5=2,38=5,53=13/2;
 6/7=2,8=2,9=2,10=2,28=1,79=1/1;
 99/5=1,9=1/99;
 Leave Link    1 at Fri Sep 22 16:29:54 2023, MaxMem=   268435456 cpu:               0.1 elap:               0.0
 (Enter /share/apps/gaussian/g16/l101.exe)
 ---------------------
 tmpdir/M2_ref_229.gjf
 ---------------------
 Symbolic Z-matrix:
 Charge =  0 Multiplicity = 1
 C                     2.15655   2.87429   0.63849 
 C                     1.64048   3.77672  -0.33098 
 C                     0.65469   4.75079  -0.02392 
 H                     2.85556   2.20925   0.39688 
 H                     1.75941   2.90044   1.6526 
 H                     1.99111   3.70606  -1.30265 
 O                     0.20039   5.46599  -0.89284 
 H                     0.32576   4.85519   1.00663 
 
 ITRead=  0  0  0  0  0  0  0  0
 MicOpt= -1 -1 -1 -1 -1 -1 -1 -1
 NAtoms=      8 NQM=        8 NQMF=       0 NMMI=      0 NMMIF=      0
                NMic=       0 NMicF=      0.
                    Isotopes and Nuclear Properties:
 (Nuclear quadrupole moments (NQMom) in fm**2, nuclear magnetic moments (NMagM)
  in nuclear magnetons)

  Atom         1           2           3           4           5           6           7           8
 IAtWgt=          12          12          12           1           1           1          16           1
 AtmWgt=  12.0000000  12.0000000  12.0000000   1.0078250   1.0078250   1.0078250  15.9949146   1.0078250
 NucSpn=           0           0           0           1           1           1           0           1
 AtZEff=  -0.0000000  -0.0000000  -0.0000000  -0.0000000  -0.0000000  -0.0000000  -0.0000000  -0.0000000
 NQMom=    0.0000000   0.0000000   0.0000000   0.0000000   0.0000000   0.0000000   0.0000000   0.0000000
 NMagM=    0.0000000   0.0000000   0.0000000   2.7928460   2.7928460   2.7928460   0.0000000   2.7928460
 AtZNuc=   6.0000000   6.0000000   6.0000000   1.0000000   1.0000000   1.0000000   8.0000000   1.0000000
 Leave Link  101 at Fri Sep 22 16:29:54 2023, MaxMem=   268435456 cpu:               0.2 elap:               0.1
 (Enter /share/apps/gaussian/g16/l202.exe)
                          Input orientation:                          
 ---------------------------------------------------------------------
 Center     Atomic      Atomic             Coordinates (Angstroms)
 Number     Number       Type             X           Y           Z
 ---------------------------------------------------------------------
      1          6           0        2.156554    2.874293    0.638489
      2          6           0        1.640478    3.776720   -0.330975
      3          6           0        0.654688    4.750794   -0.023924
      4          1           0        2.855558    2.209252    0.396877
      5          1           0        1.759414    2.900438    1.652595
      6          1           0        1.991107    3.706057   -1.302654
      7          8           0        0.200390    5.465990   -0.892840
      8          1           0        0.325761    4.855187    1.006630
 ---------------------------------------------------------------------
                    Distance matrix (angstroms):
                    1          2          3          4          5
     1  C    0.000000
     2  C    1.421467   0.000000
     3  C    2.493120   1.419466   0.000000
     4  H    0.994616   2.112615   3.388264   0.000000
     5  H    1.089410   2.171766   2.730376   1.804466   0.000000
     6  H    2.118310   1.035420   2.124298   2.424067   3.071840
     7  O    3.590047   2.289799   1.213634   4.395409   3.935969
     8  H    2.722365   2.163506   1.086799   3.711151   2.508720
                    6          7          8
     6  H    0.000000
     7  O    2.544008   0.000000
     8  H    3.070288   1.999196   0.000000
 Stoichiometry    C3H4O
 Framework group  C1[X(C3H4O)]
 Deg. of freedom    18
 Full point group                 C1      NOp   1
 Largest Abelian subgroup         C1      NOp   1
 Largest concise Abelian subgroup C1      NOp   1
                         Standard orientation:                         
 ---------------------------------------------------------------------
 Center     Atomic      Atomic             Coordinates (Angstroms)
 Number     Number       Type             X           Y           Z
 ---------------------------------------------------------------------
      1          6           0        1.808579    0.114844    0.009005
      2          6           0        0.496842   -0.432274   -0.015009
      3          6           0       -0.670822    0.374847   -0.015871
      4          1           0        2.608977   -0.475490   -0.002386
      5          1           0        1.931956    1.195795    0.065036
      6          1           0        0.395077   -1.462678   -0.016974
      7          8           0       -1.772950   -0.132129    0.018720
      8          1           0       -0.560000    1.454901   -0.064184
 ---------------------------------------------------------------------
 Rotational constants (GHZ):          48.8969223           4.6504536           4.2480587
 Leave Link  202 at Fri Sep 22 16:29:54 2023, MaxMem=   268435456 cpu:               0.0 elap:               0.0
 (Enter /share/apps/gaussian/g16/l301.exe)
 General basis read from cards:  (5D, 7F)
 Centers:       4      5      6      8
 S 3 1.00
     Exponent=  1.2251800000D+01 Coefficients=  2.3337100000D-02
     Exponent=  1.8687100000D+00 Coefficients=  1.5915000000D-01
     Exponent=  4.1820800000D-01 Coefficients=  5.0000000000D-01
 S 1 1.00
     Exponent=  1.0610000000D-01 Coefficients=  1.0000000000D+00
 P 1 1.00
     Exponent=  1.0000000000D+00 Coefficients=  1.0000000000D+00
 ****
 Centers:       1      2      3
 S 5 1.00
     Exponent=  1.2432000000D+03 Coefficients=  6.0336600000D-03
     Exponent=  1.8714500000D+02 Coefficients=  4.4957600000D-02
     Exponent=  4.2512600000D+01 Coefficients=  1.9790100000D-01
     Exponent=  1.1739300000D+01 Coefficients=  5.0000000000D-01
     Exponent=  3.5054800000D+00 Coefficients=  4.8036400000D-01
 S 2 1.00
     Exponent=  5.3908900000D+00 Coefficients= -7.0398000000D-02
     Exponent=  4.9334100000D-01 Coefficients=  5.0000000000D-01
 S 1 1.00
     Exponent=  1.4974100000D-01 Coefficients=  1.0000000000D+00
 P 3 1.00
     Exponent=  9.1805600000D+00 Coefficients=  4.3170100000D-02
     Exponent=  1.9365800000D+00 Coefficients=  2.2499900000D-01
     Exponent=  5.2629600000D-01 Coefficients=  5.0000000000D-01
 P 1 1.00
     Exponent=  1.3631900000D-01 Coefficients=  1.0000000000D+00
 D 1 1.00
     Exponent=  8.0000000000D-01 Coefficients=  1.0000000000D+00
 ****
 Centers:       7
 S 5 1.00
     Exponent=  2.2886400000D+03 Coefficients=  5.8546800000D-03
     Exponent=  3.4441600000D+02 Coefficients=  4.3733300000D-02
     Exponent=  7.8253800000D+01 Coefficients=  1.9479600000D-01
     Exponent=  2.1719500000D+01 Coefficients=  5.0000000000D-01
     Exponent=  6.5590700000D+00 Coefficients=  4.8461400000D-01
 S 2 1.00
     Exponent=  1.0465600000D+01 Coefficients= -7.1334300000D-02
     Exponent=  9.6435100000D-01 Coefficients=  5.0000000000D-01
 S 1 1.00
     Exponent=  2.8512700000D-01 Coefficients=  1.0000000000D+00
 P 3 1.00
     Exponent=  1.7059000000D+01 Coefficients=  4.7443900000D-02
     Exponent=  3.6899900000D+00 Coefficients=  2.4268900000D-01
     Exponent=  9.9299600000D-01 Coefficients=  5.0000000000D-01
 P 1 1.00
     Exponent=  2.4492400000D-01 Coefficients=  1.0000000000D+00
 D 1 1.00
     Exponent=  1.0000000000D+00 Coefficients=  1.0000000000D+00
 ****
 Ernie: Thresh=  0.10000D-02 Tol=  0.10000D-05 Strict=F.
 There are    80 symmetry adapted cartesian basis functions of A   symmetry.
 There are    76 symmetry adapted basis functions of A   symmetry.
    76 basis functions,   132 primitive gaussians,    80 cartesian basis functions
    15 alpha electrons       15 beta electrons
       nuclear repulsion energy       103.3782513029 Hartrees.
 IExCor=  402 DFT=T Ex+Corr=B3LYP ExCW=0 ScaHFX=  0.200000
 ScaDFX=  0.800000  0.720000  1.000000  0.810000 ScalE2=  1.000000  1.000000
 IRadAn=      5 IRanWt=     -1 IRanGd=            0 ICorTp=0 IEmpDi=141
 NAtoms=    8 NActive=    8 NUniq=    8 SFac= 1.00D+00 NAtFMM=   60 NAOKFM=F Big=F
 Integral buffers will be    131072 words long.
 Raffenetti 2 integral format.
 Two-electron integral symmetry is turned on.
 R6Disp:  Grimme-D3(BJ) Dispersion energy=       -0.0080533735 Hartrees.
 Nuclear repulsion after empirical dispersion term =      103.3701979293 Hartrees.
 ------------------------------------------------------------------------------
 Polarizable Continuum Model (PCM)
 =================================
 Model                : C-PCM.
 Atomic radii         : UFF (Universal Force Field).
 Polarization charges : Total charges.
 Charge compensation  : None.
 Solution method      : On-the-fly selection.
 Cavity type          : Scaled VdW (van der Waals Surface) (Alpha=1.100).
 Cavity algorithm     : GePol (No added spheres)
                        Default sphere list used, NSphG=    8.
                        Lebedev-Laikov grids with approx.  5.0 points / Ang**2.
                        Smoothing algorithm: York/Karplus (Gamma=1.0000).
                        Polarization charges: spherical gaussians, with
                                              point-specific exponents (IZeta= 3).
                        Self-potential: point-specific (ISelfS= 7).
                        Self-field    : sphere-specific E.n sum rule (ISelfD= 2).
 Solvent              : Toluene, Eps=   2.374100 Eps(inf)=   2.238315
 ------------------------------------------------------------------------------
 Spheres list:
 ISph  on   Nord     Re0    Alpha      Xe            Ye            Ze
    1   C      1    1.9255  1.100      1.808579      0.114844      0.009005
    2   C      2    1.9255  1.100      0.496842     -0.432274     -0.015009
    3   C      3    1.9255  1.100     -0.670822      0.374847     -0.015871
    4   H      4    1.4430  1.100      2.608977     -0.475490     -0.002386
    5   H      5    1.4430  1.100      1.931956      1.195795      0.065036
    6   H      6    1.4430  1.100      0.395077     -1.462678     -0.016974
    7   O      7    1.7500  1.100     -1.772950     -0.132129      0.018720
    8   H      8    1.4430  1.100     -0.560000      1.454901     -0.064184
 ------------------------------------------------------------------------------
 GePol: Number of generator spheres                  =       8
 GePol: Total number of spheres                      =       8
 GePol: Number of exposed spheres                    =       8 (100.00%)
 GePol: Number of points                             =     841
 GePol: Average weight of points                     =       0.14
 GePol: Minimum weight of points                     =   0.46D-07
 GePol: Maximum weight of points                     =    0.20577
 GePol: Number of points with low weight             =      48
 GePol: Fraction of low-weight points (<1% of avg)   =       5.71%
 GePol: Cavity surface area                          =    115.245 Ang**2
 GePol: Cavity volume                                =     98.981 Ang**3
 Leave Link  301 at Fri Sep 22 16:29:55 2023, MaxMem=   268435456 cpu:               0.2 elap:               0.1
 (Enter /share/apps/gaussian/g16/l302.exe)
 NPDir=0 NMtPBC=     1 NCelOv=     1 NCel=       1 NClECP=     1 NCelD=      1
         NCelK=      1 NCelE2=     1 NClLst=     1 CellRange=     0.0.
 One-electron integrals computed using PRISM.
 One-electron integral symmetry used in STVInt
 NBasis=    76 RedAO= T EigKep=  3.37D-03  NBF=    76
 NBsUse=    76 1.00D-06 EigRej= -1.00D+00 NBFU=    76
 Precomputing XC quadrature grid using
 IXCGrd= 4 IRadAn=           5 IRanWt=          -1 IRanGd=           0 AccXCQ= 0.00D+00.
 Generated NRdTot=       0 NPtTot=           0 NUsed=           0 NTot=          32
 NSgBfM=    80    80    80    80    80 MxSgAt=     8 MxSgA2=     8.
 Leave Link  302 at Fri Sep 22 16:29:55 2023, MaxMem=   268435456 cpu:               0.3 elap:               0.2
 (Enter /share/apps/gaussian/g16/l303.exe)
 DipDrv:  MaxL=1.
 Leave Link  303 at Fri Sep 22 16:29:55 2023, MaxMem=   268435456 cpu:               0.1 elap:               0.0
 (Enter /share/apps/gaussian/g16/l401.exe)
 ExpMin= 1.06D-01 ExpMax= 2.29D+03 ExpMxC= 3.44D+02 IAcc=3 IRadAn=         5 AccDes= 0.00D+00
 Harris functional with IExCor=  402 and IRadAn=       5 diagonalized for initial guess.
 HarFok:  IExCor=  402 AccDes= 0.00D+00 IRadAn=         5 IDoV= 1 UseB2=F ITyADJ=14
 ICtDFT=  3500011 ScaDFX=  1.000000  1.000000  1.000000  1.000000
 FoFCou: FMM=F IPFlag=           0 FMFlag=      100000 FMFlg1=           0
         NFxFlg=           0 DoJE=T BraDBF=F KetDBF=T FulRan=T
         wScrn=  0.000000 ICntrl=       500 IOpCl=  0 I1Cent=   200000004 NGrid=           0
         NMat0=    1 NMatS0=      1 NMatT0=    0 NMatD0=    1 NMtDS0=    0 NMtDT0=    0
 Petite list used in FoFCou.
 Harris En= -191.897424479989    
 JPrj=0 DoOrth=F DoCkMO=F.
 Leave Link  401 at Fri Sep 22 16:29:56 2023, MaxMem=   268435456 cpu:               1.5 elap:               0.8
 (Enter /share/apps/gaussian/g16/l502.exe)
 Keep R1 ints in memory in canonical form, NReq=6092111.
 FoFCou: FMM=F IPFlag=           0 FMFlag=           0 FMFlg1=           0
         NFxFlg=           0 DoJE=F BraDBF=F KetDBF=F FulRan=T
         wScrn=  0.000000 ICntrl=       600 IOpCl=  0 I1Cent=           0 NGrid=           0
         NMat0=    1 NMatS0=   2926 NMatT0=    0 NMatD0=    1 NMtDS0=    0 NMtDT0=    0
 Symmetry not used in FoFCou.
 Two-electron integral symmetry not used.
 Closed shell SCF:
 Using DIIS extrapolation, IDIIS=  1040.
 NGot=   268435456 LenX=   264138979 LenY=   264132138
 Requested convergence on RMS density matrix=1.00D-08 within 128 cycles.
 Requested convergence on MAX density matrix=1.00D-06.
 Requested convergence on             energy=1.00D-06.
 No special actions if energy rises.

 Cycle   1  Pass 1  IDiag  1:
 Inv3:  Mode=1 IEnd=     2121843.
 Iteration    1 A*A^-1 deviation from unit magnitude is 4.22D-15 for    809.
 Iteration    1 A*A^-1 deviation from orthogonality  is 1.64D-15 for    828    690.
 Iteration    1 A^-1*A deviation from unit magnitude is 4.00D-15 for    809.
 Iteration    1 A^-1*A deviation from orthogonality  is 1.47D-15 for    826    188.
 E= -191.781468668953    
 DIIS: error= 3.51D-02 at cycle   1 NSaved=   1.
 NSaved= 1 IEnMin= 1 EnMin= -191.781468668953     IErMin= 1 ErrMin= 3.51D-02
 ErrMax= 3.51D-02  0.00D+00 EMaxC= 1.00D-01 BMatC= 9.77D-02 BMatP= 9.77D-02
 IDIUse=3 WtCom= 6.49D-01 WtEn= 3.51D-01
 Coeff-Com:  0.100D+01
 Coeff-En:   0.100D+01
 Coeff:      0.100D+01
 Gap=     0.133 Goal=   None    Shift=    0.000
 GapD=    0.133 DampG=1.000 DampE=0.500 DampFc=0.5000 IDamp=-1.
 Damping current iteration by 5.00D-01
 RMSDP=1.06D-02 MaxDP=2.25D-01              OVMax= 2.06D-01

 Cycle   2  Pass 1  IDiag  1:
 E= -191.812195837280     Delta-E=       -0.030727168327 Rises=F Damp=T
 DIIS: error= 1.23D-02 at cycle   2 NSaved=   2.
 NSaved= 2 IEnMin= 2 EnMin= -191.812195837280     IErMin= 2 ErrMin= 1.23D-02
 ErrMax= 1.23D-02  0.00D+00 EMaxC= 1.00D-01 BMatC= 1.44D-02 BMatP= 9.77D-02
 IDIUse=3 WtCom= 8.77D-01 WtEn= 1.23D-01
 Coeff-Com:  0.213D+00 0.787D+00
 Coeff-En:   0.289D+00 0.711D+00
 Coeff:      0.222D+00 0.778D+00
 Gap=     0.198 Goal=   None    Shift=    0.000
 RMSDP=3.11D-03 MaxDP=5.11D-02 DE=-3.07D-02 OVMax= 1.74D-01

 Cycle   3  Pass 1  IDiag  1:
 E= -191.863970497881     Delta-E=       -0.051774660600 Rises=F Damp=F
 DIIS: error= 1.52D-02 at cycle   3 NSaved=   3.
 NSaved= 3 IEnMin= 3 EnMin= -191.863970497881     IErMin= 2 ErrMin= 1.23D-02
 ErrMax= 1.52D-02  0.00D+00 EMaxC= 1.00D-01 BMatC= 1.38D-02 BMatP= 1.44D-02
 IDIUse=3 WtCom= 8.48D-01 WtEn= 1.52D-01
 Coeff-Com:  0.568D-01 0.493D+00 0.450D+00
 Coeff-En:   0.000D+00 0.000D+00 0.100D+01
 Coeff:      0.482D-01 0.419D+00 0.533D+00
 Gap=     0.205 Goal=   None    Shift=    0.000
 RMSDP=1.91D-03 MaxDP=3.86D-02 DE=-5.18D-02 OVMax= 7.17D-02

 Cycle   4  Pass 1  IDiag  1:
 E= -191.874918936251     Delta-E=       -0.010948438370 Rises=F Damp=F
 DIIS: error= 5.84D-03 at cycle   4 NSaved=   4.
 NSaved= 4 IEnMin= 4 EnMin= -191.874918936251     IErMin= 4 ErrMin= 5.84D-03
 ErrMax= 5.84D-03  0.00D+00 EMaxC= 1.00D-01 BMatC= 2.44D-03 BMatP= 1.38D-02
 IDIUse=3 WtCom= 9.42D-01 WtEn= 5.84D-02
 Coeff-Com:  0.193D-01 0.480D-01 0.293D+00 0.640D+00
 Coeff-En:   0.000D+00 0.000D+00 0.171D+00 0.829D+00
 Coeff:      0.181D-01 0.452D-01 0.285D+00 0.651D+00
 Gap=     0.183 Goal=   None    Shift=    0.000
 RMSDP=6.82D-04 MaxDP=1.20D-02 DE=-1.09D-02 OVMax= 2.73D-02

 Cycle   5  Pass 1  IDiag  1:
 E= -191.876979327151     Delta-E=       -0.002060390900 Rises=F Damp=F
 DIIS: error= 9.56D-04 at cycle   5 NSaved=   5.
 NSaved= 5 IEnMin= 5 EnMin= -191.876979327151     IErMin= 5 ErrMin= 9.56D-04
 ErrMax= 9.56D-04  0.00D+00 EMaxC= 1.00D-01 BMatC= 1.02D-04 BMatP= 2.44D-03
 IDIUse=3 WtCom= 9.90D-01 WtEn= 9.56D-03
 Coeff-Com:  0.808D-02 0.152D-02 0.146D+00 0.388D+00 0.457D+00
 Coeff-En:   0.000D+00 0.000D+00 0.000D+00 0.000D+00 0.100D+01
 Coeff:      0.800D-02 0.150D-02 0.145D+00 0.384D+00 0.462D+00
 Gap=     0.181 Goal=   None    Shift=    0.000
 RMSDP=1.53D-04 MaxDP=3.75D-03 DE=-2.06D-03 OVMax= 8.38D-03

 Cycle   6  Pass 1  IDiag  1:
 E= -191.877084125224     Delta-E=       -0.000104798072 Rises=F Damp=F
 DIIS: error= 2.84D-04 at cycle   6 NSaved=   6.
 NSaved= 6 IEnMin= 6 EnMin= -191.877084125224     IErMin= 6 ErrMin= 2.84D-04
 ErrMax= 2.84D-04  0.00D+00 EMaxC= 1.00D-01 BMatC= 9.83D-06 BMatP= 1.02D-04
 IDIUse=3 WtCom= 9.97D-01 WtEn= 2.84D-03
 Coeff-Com:  0.214D-02-0.559D-02 0.408D-01 0.118D+00 0.268D+00 0.576D+00
 Coeff-En:   0.000D+00 0.000D+00 0.000D+00 0.000D+00 0.721D-01 0.928D+00
 Coeff:      0.214D-02-0.557D-02 0.407D-01 0.118D+00 0.268D+00 0.577D+00
 Gap=     0.181 Goal=   None    Shift=    0.000
 RMSDP=3.94D-05 MaxDP=9.91D-04 DE=-1.05D-04 OVMax= 2.02D-03

 Cycle   7  Pass 1  IDiag  1:
 E= -191.877094259076     Delta-E=       -0.000010133852 Rises=F Damp=F
 DIIS: error= 6.32D-05 at cycle   7 NSaved=   7.
 NSaved= 7 IEnMin= 7 EnMin= -191.877094259076     IErMin= 7 ErrMin= 6.32D-05
 ErrMax= 6.32D-05  0.00D+00 EMaxC= 1.00D-01 BMatC= 6.04D-07 BMatP= 9.83D-06
 IDIUse=1 WtCom= 1.00D+00 WtEn= 0.00D+00
 Coeff-Com:  0.426D-03-0.304D-02 0.736D-02 0.224D-01 0.979D-01 0.288D+00
 Coeff-Com:  0.587D+00
 Coeff:      0.426D-03-0.304D-02 0.736D-02 0.224D-01 0.979D-01 0.288D+00
 Coeff:      0.587D+00
 Gap=     0.181 Goal=   None    Shift=    0.000
 RMSDP=1.07D-05 MaxDP=1.72D-04 DE=-1.01D-05 OVMax= 2.09D-04

 Cycle   8  Pass 1  IDiag  1:
 E= -191.877094831219     Delta-E=       -0.000000572144 Rises=F Damp=F
 DIIS: error= 5.08D-06 at cycle   8 NSaved=   8.
 NSaved= 8 IEnMin= 8 EnMin= -191.877094831219     IErMin= 8 ErrMin= 5.08D-06
 ErrMax= 5.08D-06  0.00D+00 EMaxC= 1.00D-01 BMatC= 3.71D-09 BMatP= 6.04D-07
 IDIUse=1 WtCom= 1.00D+00 WtEn= 0.00D+00
 Coeff-Com:  0.755D-05-0.121D-03-0.441D-03-0.180D-02 0.200D-02 0.411D-02
 Coeff-Com:  0.434D-01 0.953D+00
 Coeff:      0.755D-05-0.121D-03-0.441D-03-0.180D-02 0.200D-02 0.411D-02
 Coeff:      0.434D-01 0.953D+00
 Gap=     0.181 Goal=   None    Shift=    0.000
 RMSDP=1.36D-06 MaxDP=2.42D-05 DE=-5.72D-07 OVMax= 2.93D-05

 Cycle   9  Pass 1  IDiag  1:
 E= -191.877094835210     Delta-E=       -0.000000003990 Rises=F Damp=F
 DIIS: error= 5.77D-07 at cycle   9 NSaved=   9.
 NSaved= 9 IEnMin= 9 EnMin= -191.877094835210     IErMin= 9 ErrMin= 5.77D-07
 ErrMax= 5.77D-07  0.00D+00 EMaxC= 1.00D-01 BMatC= 4.56D-11 BMatP= 3.71D-09
 IDIUse=1 WtCom= 1.00D+00 WtEn= 0.00D+00
 Coeff-Com: -0.991D-05 0.426D-04-0.214D-03-0.741D-03-0.144D-02-0.503D-02
 Coeff-Com: -0.479D-02 0.150D+00 0.862D+00
 Coeff:     -0.991D-05 0.426D-04-0.214D-03-0.741D-03-0.144D-02-0.503D-02
 Coeff:     -0.479D-02 0.150D+00 0.862D+00
 Gap=     0.181 Goal=   None    Shift=    0.000
 RMSDP=1.72D-07 MaxDP=1.94D-06 DE=-3.99D-09 OVMax= 3.15D-06

 Cycle  10  Pass 1  IDiag  1:
 E= -191.877094835262     Delta-E=       -0.000000000052 Rises=F Damp=F
 DIIS: error= 1.32D-07 at cycle  10 NSaved=  10.
 NSaved=10 IEnMin=10 EnMin= -191.877094835262     IErMin=10 ErrMin= 1.32D-07
 ErrMax= 1.32D-07  0.00D+00 EMaxC= 1.00D-01 BMatC= 1.77D-12 BMatP= 4.56D-11
 IDIUse=1 WtCom= 1.00D+00 WtEn= 0.00D+00
 Coeff-Com: -0.182D-05 0.947D-05-0.168D-04-0.681D-04-0.248D-03-0.888D-03
 Coeff-Com: -0.166D-02-0.376D-02 0.120D+00 0.886D+00
 Coeff:     -0.182D-05 0.947D-05-0.168D-04-0.681D-04-0.248D-03-0.888D-03
 Coeff:     -0.166D-02-0.376D-02 0.120D+00 0.886D+00
 Gap=     0.181 Goal=   None    Shift=    0.000
 RMSDP=3.07D-08 MaxDP=4.63D-07 DE=-5.25D-11 OVMax= 6.91D-07

 Cycle  11  Pass 1  IDiag  1:
 E= -191.877094835265     Delta-E=       -0.000000000003 Rises=F Damp=F
 DIIS: error= 3.46D-08 at cycle  11 NSaved=  11.
 NSaved=11 IEnMin=11 EnMin= -191.877094835265     IErMin=11 ErrMin= 3.46D-08
 ErrMax= 3.46D-08  0.00D+00 EMaxC= 1.00D-01 BMatC= 1.13D-13 BMatP= 1.77D-12
 IDIUse=1 WtCom= 1.00D+00 WtEn= 0.00D+00
 Coeff-Com: -0.280D-07 0.215D-06 0.263D-05 0.366D-05-0.136D-06-0.296D-04
 Coeff-Com: -0.147D-03-0.417D-02-0.457D-02 0.127D+00 0.882D+00
 Coeff:     -0.280D-07 0.215D-06 0.263D-05 0.366D-05-0.136D-06-0.296D-04
 Coeff:     -0.147D-03-0.417D-02-0.457D-02 0.127D+00 0.882D+00
 Gap=     0.181 Goal=   None    Shift=    0.000
 RMSDP=6.16D-09 MaxDP=1.07D-07 DE=-2.73D-12 OVMax= 9.21D-08

 Error on total polarization charges =  0.00462
 SCF Done:  E(RB3LYP) =  -191.877094835     A.U. after   11 cycles
            NFock= 11  Conv=0.62D-08     -V/T= 2.0038
 KE= 1.911439402237D+02 PE=-6.548914322399D+02 EE= 1.685001992516D+02
 Leave Link  502 at Fri Sep 22 16:30:06 2023, MaxMem=   268435456 cpu:              21.2 elap:              10.7
 (Enter /share/apps/gaussian/g16/l601.exe)
 Copying SCF densities to generalized density rwf, IOpCl= 0 IROHF=0.

 **********************************************************************

            Population analysis using the SCF density.

 **********************************************************************

 Orbital symmetries:
       Occupied  (A) (A) (A) (A) (A) (A) (A) (A) (A) (A) (A) (A)
                 (A) (A) (A)
       Virtual   (A) (A) (A) (A) (A) (A) (A) (A) (A) (A) (A) (A)
                 (A) (A) (A) (A) (A) (A) (A) (A) (A) (A) (A) (A)
                 (A) (A) (A) (A) (A) (A) (A) (A) (A) (A) (A) (A)
                 (A) (A) (A) (A) (A) (A) (A) (A) (A) (A) (A) (A)
                 (A) (A) (A) (A) (A) (A) (A) (A) (A) (A) (A) (A)
                 (A)
 The electronic state is 1-A.
 Alpha  occ. eigenvalues --  -19.12237 -10.26532 -10.21671 -10.20172  -1.05811
 Alpha  occ. eigenvalues --   -0.80410  -0.67182  -0.58862  -0.49225  -0.48610
 Alpha  occ. eigenvalues --   -0.43045  -0.41243  -0.40865  -0.29105  -0.26966
 Alpha virt. eigenvalues --   -0.08822   0.03821   0.06248   0.07297   0.10696
 Alpha virt. eigenvalues --    0.13314   0.20973   0.25419   0.29328   0.39696
 Alpha virt. eigenvalues --    0.41379   0.45441   0.46712   0.49461   0.50835
 Alpha virt. eigenvalues --    0.52513   0.61620   0.62129   0.64406   0.66881
 Alpha virt. eigenvalues --    0.71767   0.72600   0.84468   0.89576   0.92309
 Alpha virt. eigenvalues --    0.93743   1.03660   1.12027   1.27450   1.31357
 Alpha virt. eigenvalues --    1.38337   1.49157   1.67195   1.69521   1.80207
 Alpha virt. eigenvalues --    1.80338   1.82646   1.86172   1.87072   1.92335
 Alpha virt. eigenvalues --    1.98448   2.06022   2.12306   2.18488   2.26296
 Alpha virt. eigenvalues --    2.29293   2.34391   2.35575   2.42591   2.53183
 Alpha virt. eigenvalues --    2.55380   2.64298   2.66850   2.82319   2.84670
 Alpha virt. eigenvalues --    2.98213   3.16134   3.27235   3.30508   3.45923
 Alpha virt. eigenvalues --    3.61032
          Condensed to atoms (all electrons):
               1          2          3          4          5          6
     1  C    4.770340   0.528942  -0.052671   0.392968   0.397795  -0.028346
     2  C    0.528942   5.176146   0.344572  -0.005874  -0.038013   0.401070
     3  C   -0.052671   0.344572   4.437383   0.006728  -0.008599  -0.029998
     4  H    0.392968  -0.005874   0.006728   0.570267  -0.039379  -0.011570
     5  H    0.397795  -0.038013  -0.008599  -0.039379   0.554596   0.008027
     6  H   -0.028346   0.401070  -0.029998  -0.011570   0.008027   0.577090
     7  O    0.006577  -0.079999   0.593944  -0.000297   0.000231   0.003556
     8  H    0.009407  -0.115352   0.421244  -0.000023   0.006315   0.008934
               7          8
     1  C    0.006577   0.009407
     2  C   -0.079999  -0.115352
     3  C    0.593944   0.421244
     4  H   -0.000297  -0.000023
     5  H    0.000231   0.006315
     6  H    0.003556   0.008934
     7  O    7.905846  -0.051664
     8  H   -0.051664   0.671283
 Mulliken charges:
               1
     1  C   -0.025013
     2  C   -0.211491
     3  C    0.287398
     4  H    0.087181
     5  H    0.119027
     6  H    0.071237
     7  O   -0.378195
     8  H    0.049856
 Sum of Mulliken charges =  -0.00000
 Mulliken charges with hydrogens summed into heavy atoms:
               1
     1  C    0.181195
     2  C   -0.140254
     3  C    0.337254
     7  O   -0.378195
 Electronic spatial extent (au):  <R**2>=            298.0046
 Charge=             -0.0000 electrons
 Dipole moment (field-independent basis, Debye):
    X=              3.8034    Y=              0.8966    Z=             -0.0448  Tot=              3.9079
 Quadrupole moment (field-independent basis, Debye-Ang):
   XX=            -27.1180   YY=            -21.6531   ZZ=            -25.0887
   XY=             -1.0077   XZ=              0.1898   YZ=              0.0659
 Traceless Quadrupole moment (field-independent basis, Debye-Ang):
   XX=             -2.4981   YY=              2.9669   ZZ=             -0.4688
   XY=             -1.0077   XZ=              0.1898   YZ=              0.0659
 Octapole moment (field-independent basis, Debye-Ang**2):
  XXX=             16.3306  YYY=              0.2350  ZZZ=              0.0929  XYY=             -0.0721
  XXY=              0.8518  XXZ=             -0.0313  XZZ=             -4.1402  YZZ=              0.1456
  YYZ=              0.0273  XYZ=              0.1490
 Hexadecapole moment (field-independent basis, Debye-Ang**3):
 XXXX=           -301.9336 YYYY=            -54.2322 ZZZZ=            -26.7876 XXXY=             -3.2701
 XXXZ=              0.4333 YYYX=              0.3416 YYYZ=              0.0985 ZZZX=             -0.0241
 ZZZY=              0.0390 XXYY=            -56.7756 XXZZ=            -56.1684 YYZZ=            -14.9099
 XXYZ=              0.3284 YYXZ=              0.1973 ZZXY=              0.2878
 N-N= 1.033701979293D+02 E-N=-6.548914325493D+02  KE= 1.911439402237D+02
 There are a total of      177562 grid points.
 ElSum from          density=       29.9999987521
 ElSum from atomic densities=       29.9999971441
 Hirshfeld populations at iteration   1 (CA, CB, DipXYZ):
               1          2          3          4          5
     1  C    3.007142   3.007142   0.102055   0.022631   0.001211
     2  C    3.015204   3.015204  -0.060095  -0.030592  -0.001420
     3  C    2.939360   2.939360   0.030282   0.043056  -0.000825
     4  H    0.474531   0.474531   0.135117  -0.095344  -0.002050
     5  H    0.473739   0.473739   0.029001   0.150370   0.009379
     6  H    0.477057   0.477057  -0.006798  -0.158460   0.000207
     7  O    4.134146   4.134146   0.157773   0.053606  -0.005161
     8  H    0.478821   0.478821   0.008956   0.130293  -0.006055
       Tot  14.999999  14.999999   0.396291   0.115559  -0.004712

 Dip from Atomic Chgs              1.100088   0.237182  -0.012893
         Total Dipole              1.496379   0.352741  -0.017605

 Hirshfeld charges, spin densities, dipoles, and CM5 charges using IRadAn=      5:
              Q-H        S-H        Dx         Dy         Dz        Q-CM5   
     1  C   -0.014285   0.000000   0.102055   0.022631   0.001211  -0.127117
     2  C   -0.030408   0.000000  -0.060095  -0.030592  -0.001420  -0.093015
     3  C    0.121281   0.000000   0.030282   0.043056  -0.000825   0.104639
     4  H    0.050938   0.000000   0.135117  -0.095344  -0.002050   0.115432
     5  H    0.052523   0.000000   0.029001   0.150370   0.009379   0.104589
     6  H    0.045886   0.000000  -0.006798  -0.158460   0.000207   0.111339
     7  O   -0.268291   0.000000   0.157773   0.053606  -0.005161  -0.323355
     8  H    0.042358   0.000000   0.008956   0.130293  -0.006055   0.107489
       Tot   0.000001   0.000000   0.396291   0.115559  -0.004712   0.000001
 Hirshfeld charges with hydrogens summed into heavy atoms:
              Q-H       Q-CM5   
     1  C    0.089176   0.092904
     2  C    0.015478   0.018324
     3  C    0.163638   0.212128
     7  O   -0.268291  -0.323355
 
 EQQ= 0.000000000000E+00 EQD= 0.000000000000E+00 EDD= 0.349774147939E-02
 EQQ+QD+DD= 0.349774147939E-02
 
 No NMR shielding tensors so no spin-rotation constants.
 Leave Link  601 at Fri Sep 22 16:30:07 2023, MaxMem=   268435456 cpu:               1.2 elap:               0.6
 (Enter /share/apps/gaussian/g16/l9999.exe)
 1\1\GINC-NODE99\SP\RB3LYP\Gen\C3H4O1\YANZ\22-Sep-2023\0\\#p b3lyp/gen 
 scrf=(cpcm,solvent=toluene) pop=hirshfeld empiricaldispersion=gd3bj\\t
 mpdir/M2_ref_229.gjf\\0,1\C,0,2.156554,2.874293,0.63848901\C,0,1.64047
 8,3.77672,-0.330975\C,0,0.654688,4.750794,-0.023924\H,0,2.85555787,2.2
 0925242,0.39687684\H,0,1.759414,2.900438,1.65259504\H,0,1.99110739,3.7
 0605714,-1.30265373\O,0,0.20039039,5.46598999,-0.8928403\H,0,0.325761,
 4.855187,1.00662994\\Version=ES64L-G16RevA.03\State=1-A\HF=-191.877094
 8\RMSD=6.161e-09\Dipole=0.7283806,-1.038292,0.8690819\Quadrupole=-0.19
 16149,-0.8270971,1.018712,0.2403078,-1.5929468,1.152064\PG=C01 [X(C3H4
 O1)]\\@


 I DO NOT KNOW WHAT I MAY APPEAR TO THE WORLD; BUT TO MYSELF
 I SEEM TO HAVE BEEN ONLY LIKE A BOY PLAYING ON THE SEASHORE,
 AND DIVERTING MYSELF IN NOW AND THEN FINDING A SMOOTHER PEBBLE
 OR A PRETTIER SHELL THAN ORDINARY, WHILST THE GREAT OCEAN OF
 TRUTH LAY ALL UNDISCOVERED BEFORE ME.
                                          -- NEWTON (1642-1726)
 Job cpu time:       0 days  0 hours  0 minutes 24.8 seconds.
 Elapsed time:       0 days  0 hours  0 minutes 12.6 seconds.
 File lengths (MBytes):  RWF=     13 Int=      0 D2E=      0 Chk=      2 Scr=      1
 Normal termination of Gaussian 16 at Fri Sep 22 16:30:07 2023.
