 Entering Gaussian System, Link 0=g16
 Initial command:
 /share/apps/gaussian/g16/l1.exe "/tmp/55556.mgr/Gau-80707.inp" -scrdir="/tmp/55556.mgr/"
 Entering Link 1 = /share/apps/gaussian/g16/l1.exe PID=     80708.
  
 Copyright (c) 1988,1990,1992,1993,1995,1998,2003,2009,2016,
            Gaussian, Inc.  All Rights Reserved.
  
 This is part of the Gaussian(R) 16 program.  It is based on
 the Gaussian(R) 09 system (copyright 2009, Gaussian, Inc.),
 the Gaussian(R) 03 system (copyright 2003, Gaussian, Inc.),
 the Gaussian(R) 98 system (copyright 1998, Gaussian, Inc.),
 the Gaussian(R) 94 system (copyright 1995, Gaussian, Inc.),
 the Gaussian 92(TM) system (copyright 1992, Gaussian, Inc.),
 the Gaussian 90(TM) system (copyright 1990, Gaussian, Inc.),
 the Gaussian 88(TM) system (copyright 1988, Gaussian, Inc.),
 the Gaussian 86(TM) system (copyright 1986, Carnegie Mellon
 University), and the Gaussian 82(TM) system (copyright 1983,
 Carnegie Mellon University). Gaussian is a federally registered
 trademark of Gaussian, Inc.
  
 This software contains proprietary and confidential information,
 including trade secrets, belonging to Gaussian, Inc.
  
 This software is provided under written license and may be
 used, copied, transmitted, or stored only in accord with that
 written license.
  
 The following legend is applicable only to US Government
 contracts under FAR:
  
                    RESTRICTED RIGHTS LEGEND
  
 Use, reproduction and disclosure by the US Government is
 subject to restrictions as set forth in subparagraphs (a)
 and (c) of the Commercial Computer Software - Restricted
 Rights clause in FAR 52.227-19.
  
 Gaussian, Inc.
 340 Quinnipiac St., Bldg. 40, Wallingford CT 06492
  
  
 ---------------------------------------------------------------
 Warning -- This program may not be used in any manner that
 competes with the business of Gaussian, Inc. or will provide
 assistance to any competitor of Gaussian, Inc.  The licensee
 of this program is prohibited from giving any competitor of
 Gaussian, Inc. access to this program.  By using this program,
 the user acknowledges that Gaussian, Inc. is engaged in the
 business of creating and licensing software in the field of
 computational chemistry and represents and warrants to the
 licensee that it is not a competitor of Gaussian, Inc. and that
 it will not use this program in any manner prohibited above.
 ---------------------------------------------------------------
  

 Cite this work as:
 Gaussian 16, Revision A.03,
 M. J. Frisch, G. W. Trucks, H. B. Schlegel, G. E. Scuseria, 
 M. A. Robb, J. R. Cheeseman, G. Scalmani, V. Barone, 
 G. A. Petersson, H. Nakatsuji, X. Li, M. Caricato, A. V. Marenich, 
 J. Bloino, B. G. Janesko, R. Gomperts, B. Mennucci, H. P. Hratchian, 
 J. V. Ortiz, A. F. Izmaylov, J. L. Sonnenberg, D. Williams-Young, 
 F. Ding, F. Lipparini, F. Egidi, J. Goings, B. Peng, A. Petrone, 
 T. Henderson, D. Ranasinghe, V. G. Zakrzewski, J. Gao, N. Rega, 
 G. Zheng, W. Liang, M. Hada, M. Ehara, K. Toyota, R. Fukuda, 
 J. Hasegawa, M. Ishida, T. Nakajima, Y. Honda, O. Kitao, H. Nakai, 
 T. Vreven, K. Throssell, J. A. Montgomery, Jr., J. E. Peralta, 
 F. Ogliaro, M. J. Bearpark, J. J. Heyd, E. N. Brothers, K. N. Kudin, 
 V. N. Staroverov, T. A. Keith, R. Kobayashi, J. Normand, 
 K. Raghavachari, A. P. Rendell, J. C. Burant, S. S. Iyengar, 
 J. Tomasi, M. Cossi, J. M. Millam, M. Klene, C. Adamo, R. Cammi, 
 J. W. Ochterski, R. L. Martin, K. Morokuma, O. Farkas, 
 J. B. Foresman, and D. J. Fox, Gaussian, Inc., Wallingford CT, 2016.
 
 ******************************************
 Gaussian 16:  ES64L-G16RevA.03 25-Dec-2016
                22-Sep-2023 
 ******************************************
 %nprocshared=2
 Will use up to    2 processors via shared memory.
 %mem=2GB
 ----------------------------------------------------------------------
 #p b3lyp/gen scrf=(cpcm,solvent=toluene) pop=hirshfeld empiricaldisper
 sion=gd3bj
 ----------------------------------------------------------------------
 1/38=1,172=1/1;
 2/12=2,17=6,18=5,40=1/2;
 3/5=7,11=2,25=1,30=1,70=2101,72=13,74=-5,124=41/1,2,3;
 4//1;
 5/5=2,38=5,53=13/2;
 6/7=2,8=2,9=2,10=2,28=1,79=1/1;
 99/5=1,9=1/99;
 Leave Link    1 at Fri Sep 22 16:29:40 2023, MaxMem=   268435456 cpu:               0.1 elap:               0.0
 (Enter /share/apps/gaussian/g16/l101.exe)
 ---------------------
 tmpdir/M2_ref_205.gjf
 ---------------------
 Symbolic Z-matrix:
 Charge =  0 Multiplicity = 1
 C                     3.14336   2.7375   -1.97405 
 C                     3.65745   1.89526  -1.01316 
 C                     3.12218   1.95558   0.30472 
 O                     2.24542   3.56763  -1.70889 
 H                     3.50567   2.70149  -2.99779 
 H                     4.50419   1.21858  -1.23895 
 H                     2.42318   2.62062   0.54633 
 H                     3.45514   1.2478    1.05984 
 
 ITRead=  0  0  0  0  0  0  0  0
 MicOpt= -1 -1 -1 -1 -1 -1 -1 -1
 NAtoms=      8 NQM=        8 NQMF=       0 NMMI=      0 NMMIF=      0
                NMic=       0 NMicF=      0.
                    Isotopes and Nuclear Properties:
 (Nuclear quadrupole moments (NQMom) in fm**2, nuclear magnetic moments (NMagM)
  in nuclear magnetons)

  Atom         1           2           3           4           5           6           7           8
 IAtWgt=          12          12          12          16           1           1           1           1
 AtmWgt=  12.0000000  12.0000000  12.0000000  15.9949146   1.0078250   1.0078250   1.0078250   1.0078250
 NucSpn=           0           0           0           0           1           1           1           1
 AtZEff=  -0.0000000  -0.0000000  -0.0000000  -0.0000000  -0.0000000  -0.0000000  -0.0000000  -0.0000000
 NQMom=    0.0000000   0.0000000   0.0000000   0.0000000   0.0000000   0.0000000   0.0000000   0.0000000
 NMagM=    0.0000000   0.0000000   0.0000000   0.0000000   2.7928460   2.7928460   2.7928460   2.7928460
 AtZNuc=   6.0000000   6.0000000   6.0000000   8.0000000   1.0000000   1.0000000   1.0000000   1.0000000
 Leave Link  101 at Fri Sep 22 16:29:40 2023, MaxMem=   268435456 cpu:               0.2 elap:               0.1
 (Enter /share/apps/gaussian/g16/l202.exe)
                          Input orientation:                          
 ---------------------------------------------------------------------
 Center     Atomic      Atomic             Coordinates (Angstroms)
 Number     Number       Type             X           Y           Z
 ---------------------------------------------------------------------
      1          6           0        3.143360    2.737497   -1.974051
      2          6           0        3.657451    1.895260   -1.013158
      3          6           0        3.122181    1.955584    0.304718
      4          8           0        2.245424    3.567633   -1.708890
      5          1           0        3.505671    2.701494   -2.997790
      6          1           0        4.504186    1.218582   -1.238948
      7          1           0        2.423177    2.620625    0.546330
      8          1           0        3.455140    1.247799    1.059839
 ---------------------------------------------------------------------
                    Distance matrix (angstroms):
                    1          2          3          4          5
     1  C    0.000000
     2  C    1.377305   0.000000
     3  C    2.409279   1.423710   0.000000
     4  O    1.251289   2.296670   2.724339   0.000000
     5  H    1.086558   2.147514   3.407346   1.999920   0.000000
     6  H    2.167792   1.107174   2.199094   3.292550   2.507904
     7  H    2.623860   2.116976   0.994616   2.452435   3.706632
     8  H    3.394244   2.181158   1.087212   3.809318   4.310468
                    6          7          8
     6  H    0.000000
     7  H    3.079535   0.000000
     8  H    2.527009   1.792565   0.000000
 Stoichiometry    C3H4O
 Framework group  C1[X(C3H4O)]
 Deg. of freedom    18
 Full point group                 C1      NOp   1
 Largest Abelian subgroup         C1      NOp   1
 Largest concise Abelian subgroup C1      NOp   1
                         Standard orientation:                         
 ---------------------------------------------------------------------
 Center     Atomic      Atomic             Coordinates (Angstroms)
 Number     Number       Type             X           Y           Z
 ---------------------------------------------------------------------
      1          6           0        0.783435    0.488557    0.010134
      2          6           0       -0.582709    0.662994   -0.003676
      3          6           0       -1.418256   -0.489743   -0.000529
      4          8           0        1.301337   -0.650422   -0.004970
      5          1           0        1.453815    1.343234    0.037045
      6          1           0       -1.029997    1.673756   -0.067913
      7          1           0       -1.031758   -1.405589   -0.033788
      8          1           0       -2.497573   -0.378875    0.068835
 ---------------------------------------------------------------------
 Rotational constants (GHZ):          20.6981322           6.9040856           5.1786317
 Leave Link  202 at Fri Sep 22 16:29:40 2023, MaxMem=   268435456 cpu:               0.0 elap:               0.0
 (Enter /share/apps/gaussian/g16/l301.exe)
 General basis read from cards:  (5D, 7F)
 Centers:       5      6      7      8
 S 3 1.00
     Exponent=  1.2251800000D+01 Coefficients=  2.3337100000D-02
     Exponent=  1.8687100000D+00 Coefficients=  1.5915000000D-01
     Exponent=  4.1820800000D-01 Coefficients=  5.0000000000D-01
 S 1 1.00
     Exponent=  1.0610000000D-01 Coefficients=  1.0000000000D+00
 P 1 1.00
     Exponent=  1.0000000000D+00 Coefficients=  1.0000000000D+00
 ****
 Centers:       1      2      3
 S 5 1.00
     Exponent=  1.2432000000D+03 Coefficients=  6.0336600000D-03
     Exponent=  1.8714500000D+02 Coefficients=  4.4957600000D-02
     Exponent=  4.2512600000D+01 Coefficients=  1.9790100000D-01
     Exponent=  1.1739300000D+01 Coefficients=  5.0000000000D-01
     Exponent=  3.5054800000D+00 Coefficients=  4.8036400000D-01
 S 2 1.00
     Exponent=  5.3908900000D+00 Coefficients= -7.0398000000D-02
     Exponent=  4.9334100000D-01 Coefficients=  5.0000000000D-01
 S 1 1.00
     Exponent=  1.4974100000D-01 Coefficients=  1.0000000000D+00
 P 3 1.00
     Exponent=  9.1805600000D+00 Coefficients=  4.3170100000D-02
     Exponent=  1.9365800000D+00 Coefficients=  2.2499900000D-01
     Exponent=  5.2629600000D-01 Coefficients=  5.0000000000D-01
 P 1 1.00
     Exponent=  1.3631900000D-01 Coefficients=  1.0000000000D+00
 D 1 1.00
     Exponent=  8.0000000000D-01 Coefficients=  1.0000000000D+00
 ****
 Centers:       4
 S 5 1.00
     Exponent=  2.2886400000D+03 Coefficients=  5.8546800000D-03
     Exponent=  3.4441600000D+02 Coefficients=  4.3733300000D-02
     Exponent=  7.8253800000D+01 Coefficients=  1.9479600000D-01
     Exponent=  2.1719500000D+01 Coefficients=  5.0000000000D-01
     Exponent=  6.5590700000D+00 Coefficients=  4.8461400000D-01
 S 2 1.00
     Exponent=  1.0465600000D+01 Coefficients= -7.1334300000D-02
     Exponent=  9.6435100000D-01 Coefficients=  5.0000000000D-01
 S 1 1.00
     Exponent=  2.8512700000D-01 Coefficients=  1.0000000000D+00
 P 3 1.00
     Exponent=  1.7059000000D+01 Coefficients=  4.7443900000D-02
     Exponent=  3.6899900000D+00 Coefficients=  2.4268900000D-01
     Exponent=  9.9299600000D-01 Coefficients=  5.0000000000D-01
 P 1 1.00
     Exponent=  2.4492400000D-01 Coefficients=  1.0000000000D+00
 D 1 1.00
     Exponent=  1.0000000000D+00 Coefficients=  1.0000000000D+00
 ****
 Ernie: Thresh=  0.10000D-02 Tol=  0.10000D-05 Strict=F.
 There are    80 symmetry adapted cartesian basis functions of A   symmetry.
 There are    76 symmetry adapted basis functions of A   symmetry.
    76 basis functions,   132 primitive gaussians,    80 cartesian basis functions
    15 alpha electrons       15 beta electrons
       nuclear repulsion energy       105.5175674752 Hartrees.
 IExCor=  402 DFT=T Ex+Corr=B3LYP ExCW=0 ScaHFX=  0.200000
 ScaDFX=  0.800000  0.720000  1.000000  0.810000 ScalE2=  1.000000  1.000000
 IRadAn=      5 IRanWt=     -1 IRanGd=            0 ICorTp=0 IEmpDi=141
 NAtoms=    8 NActive=    8 NUniq=    8 SFac= 1.00D+00 NAtFMM=   60 NAOKFM=F Big=F
 Integral buffers will be    131072 words long.
 Raffenetti 2 integral format.
 Two-electron integral symmetry is turned on.
 R6Disp:  Grimme-D3(BJ) Dispersion energy=       -0.0082330311 Hartrees.
 Nuclear repulsion after empirical dispersion term =      105.5093344441 Hartrees.
 ------------------------------------------------------------------------------
 Polarizable Continuum Model (PCM)
 =================================
 Model                : C-PCM.
 Atomic radii         : UFF (Universal Force Field).
 Polarization charges : Total charges.
 Charge compensation  : None.
 Solution method      : On-the-fly selection.
 Cavity type          : Scaled VdW (van der Waals Surface) (Alpha=1.100).
 Cavity algorithm     : GePol (No added spheres)
                        Default sphere list used, NSphG=    8.
                        Lebedev-Laikov grids with approx.  5.0 points / Ang**2.
                        Smoothing algorithm: York/Karplus (Gamma=1.0000).
                        Polarization charges: spherical gaussians, with
                                              point-specific exponents (IZeta= 3).
                        Self-potential: point-specific (ISelfS= 7).
                        Self-field    : sphere-specific E.n sum rule (ISelfD= 2).
 Solvent              : Toluene, Eps=   2.374100 Eps(inf)=   2.238315
 ------------------------------------------------------------------------------
 Spheres list:
 ISph  on   Nord     Re0    Alpha      Xe            Ye            Ze
    1   C      1    1.9255  1.100      0.783435      0.488557      0.010134
    2   C      2    1.9255  1.100     -0.582709      0.662994     -0.003676
    3   C      3    1.9255  1.100     -1.418256     -0.489743     -0.000529
    4   O      4    1.7500  1.100      1.301337     -0.650422     -0.004970
    5   H      5    1.4430  1.100      1.453815      1.343234      0.037045
    6   H      6    1.4430  1.100     -1.029997      1.673756     -0.067913
    7   H      7    1.4430  1.100     -1.031758     -1.405589     -0.033788
    8   H      8    1.4430  1.100     -2.497573     -0.378875      0.068835
 ------------------------------------------------------------------------------
 GePol: Number of generator spheres                  =       8
 GePol: Total number of spheres                      =       8
 GePol: Number of exposed spheres                    =       8 (100.00%)
 GePol: Number of points                             =     839
 GePol: Average weight of points                     =       0.14
 GePol: Minimum weight of points                     =   0.81D-08
 GePol: Maximum weight of points                     =    0.20577
 GePol: Number of points with low weight             =      41
 GePol: Fraction of low-weight points (<1% of avg)   =       4.89%
 GePol: Cavity surface area                          =    113.952 Ang**2
 GePol: Cavity volume                                =     98.612 Ang**3
 Leave Link  301 at Fri Sep 22 16:29:40 2023, MaxMem=   268435456 cpu:               0.3 elap:               0.1
 (Enter /share/apps/gaussian/g16/l302.exe)
 NPDir=0 NMtPBC=     1 NCelOv=     1 NCel=       1 NClECP=     1 NCelD=      1
         NCelK=      1 NCelE2=     1 NClLst=     1 CellRange=     0.0.
 One-electron integrals computed using PRISM.
 One-electron integral symmetry used in STVInt
 NBasis=    76 RedAO= T EigKep=  3.02D-03  NBF=    76
 NBsUse=    76 1.00D-06 EigRej= -1.00D+00 NBFU=    76
 Precomputing XC quadrature grid using
 IXCGrd= 4 IRadAn=           5 IRanWt=          -1 IRanGd=           0 AccXCQ= 0.00D+00.
 Generated NRdTot=       0 NPtTot=           0 NUsed=           0 NTot=          32
 NSgBfM=    80    80    80    80    80 MxSgAt=     8 MxSgA2=     8.
 Leave Link  302 at Fri Sep 22 16:29:40 2023, MaxMem=   268435456 cpu:               0.3 elap:               0.2
 (Enter /share/apps/gaussian/g16/l303.exe)
 DipDrv:  MaxL=1.
 Leave Link  303 at Fri Sep 22 16:29:40 2023, MaxMem=   268435456 cpu:               0.1 elap:               0.1
 (Enter /share/apps/gaussian/g16/l401.exe)
 ExpMin= 1.06D-01 ExpMax= 2.29D+03 ExpMxC= 3.44D+02 IAcc=3 IRadAn=         5 AccDes= 0.00D+00
 Harris functional with IExCor=  402 and IRadAn=       5 diagonalized for initial guess.
 HarFok:  IExCor=  402 AccDes= 0.00D+00 IRadAn=         5 IDoV= 1 UseB2=F ITyADJ=14
 ICtDFT=  3500011 ScaDFX=  1.000000  1.000000  1.000000  1.000000
 FoFCou: FMM=F IPFlag=           0 FMFlag=      100000 FMFlg1=           0
         NFxFlg=           0 DoJE=T BraDBF=F KetDBF=T FulRan=T
         wScrn=  0.000000 ICntrl=       500 IOpCl=  0 I1Cent=   200000004 NGrid=           0
         NMat0=    1 NMatS0=      1 NMatT0=    0 NMatD0=    1 NMtDS0=    0 NMtDT0=    0
 Petite list used in FoFCou.
 Harris En= -191.886946986703    
 JPrj=0 DoOrth=F DoCkMO=F.
 Leave Link  401 at Fri Sep 22 16:29:41 2023, MaxMem=   268435456 cpu:               1.5 elap:               0.8
 (Enter /share/apps/gaussian/g16/l502.exe)
 Keep R1 ints in memory in canonical form, NReq=6092111.
 FoFCou: FMM=F IPFlag=           0 FMFlag=           0 FMFlg1=           0
         NFxFlg=           0 DoJE=F BraDBF=F KetDBF=F FulRan=T
         wScrn=  0.000000 ICntrl=       600 IOpCl=  0 I1Cent=           0 NGrid=           0
         NMat0=    1 NMatS0=   2926 NMatT0=    0 NMatD0=    1 NMtDS0=    0 NMtDT0=    0
 Symmetry not used in FoFCou.
 Two-electron integral symmetry not used.
 Closed shell SCF:
 Using DIIS extrapolation, IDIIS=  1040.
 NGot=   268435456 LenX=   264138979 LenY=   264132138
 Requested convergence on RMS density matrix=1.00D-08 within 128 cycles.
 Requested convergence on MAX density matrix=1.00D-06.
 Requested convergence on             energy=1.00D-06.
 No special actions if energy rises.

 Cycle   1  Pass 1  IDiag  1:
 Inv3:  Mode=1 IEnd=     2111763.
 Iteration    1 A*A^-1 deviation from unit magnitude is 3.66D-15 for    819.
 Iteration    1 A*A^-1 deviation from orthogonality  is 1.78D-15 for    839    370.
 Iteration    1 A^-1*A deviation from unit magnitude is 3.66D-15 for    819.
 Iteration    1 A^-1*A deviation from orthogonality  is 1.10D-15 for    628     64.
 E= -191.774184902518    
 DIIS: error= 3.24D-02 at cycle   1 NSaved=   1.
 NSaved= 1 IEnMin= 1 EnMin= -191.774184902518     IErMin= 1 ErrMin= 3.24D-02
 ErrMax= 3.24D-02  0.00D+00 EMaxC= 1.00D-01 BMatC= 9.75D-02 BMatP= 9.75D-02
 IDIUse=3 WtCom= 6.76D-01 WtEn= 3.24D-01
 Coeff-Com:  0.100D+01
 Coeff-En:   0.100D+01
 Coeff:      0.100D+01
 Gap=     0.105 Goal=   None    Shift=    0.000
 GapD=    0.105 DampG=1.000 DampE=0.500 DampFc=0.5000 IDamp=-1.
 Damping current iteration by 5.00D-01
 RMSDP=1.22D-02 MaxDP=2.79D-01              OVMax= 2.41D-01

 Cycle   2  Pass 1  IDiag  1:
 E= -191.797972928800     Delta-E=       -0.023788026282 Rises=F Damp=T
 DIIS: error= 1.34D-02 at cycle   2 NSaved=   2.
 NSaved= 2 IEnMin= 2 EnMin= -191.797972928800     IErMin= 2 ErrMin= 1.34D-02
 ErrMax= 1.34D-02  0.00D+00 EMaxC= 1.00D-01 BMatC= 1.89D-02 BMatP= 9.75D-02
 IDIUse=3 WtCom= 8.66D-01 WtEn= 1.34D-01
 Coeff-Com:  0.253D+00 0.747D+00
 Coeff-En:   0.358D+00 0.642D+00
 Coeff:      0.267D+00 0.733D+00
 Gap=     0.182 Goal=   None    Shift=    0.000
 RMSDP=3.78D-03 MaxDP=7.58D-02 DE=-2.38D-02 OVMax= 1.75D-01

 Cycle   3  Pass 1  IDiag  1:
 E= -191.854225252614     Delta-E=       -0.056252323814 Rises=F Damp=F
 DIIS: error= 1.64D-02 at cycle   3 NSaved=   3.
 NSaved= 3 IEnMin= 3 EnMin= -191.854225252614     IErMin= 2 ErrMin= 1.34D-02
 ErrMax= 1.64D-02  0.00D+00 EMaxC= 1.00D-01 BMatC= 1.57D-02 BMatP= 1.89D-02
 IDIUse=3 WtCom= 8.36D-01 WtEn= 1.64D-01
 Coeff-Com:  0.770D-01 0.474D+00 0.449D+00
 Coeff-En:   0.000D+00 0.000D+00 0.100D+01
 Coeff:      0.643D-01 0.396D+00 0.540D+00
 Gap=     0.183 Goal=   None    Shift=    0.000
 RMSDP=2.11D-03 MaxDP=4.26D-02 DE=-5.63D-02 OVMax= 8.15D-02

 Cycle   4  Pass 1  IDiag  1:
 E= -191.866601357553     Delta-E=       -0.012376104939 Rises=F Damp=F
 DIIS: error= 7.05D-03 at cycle   4 NSaved=   4.
 NSaved= 4 IEnMin= 4 EnMin= -191.866601357553     IErMin= 4 ErrMin= 7.05D-03
 ErrMax= 7.05D-03  0.00D+00 EMaxC= 1.00D-01 BMatC= 3.06D-03 BMatP= 1.57D-02
 IDIUse=3 WtCom= 9.29D-01 WtEn= 7.05D-02
 Coeff-Com:  0.238D-01 0.420D-01 0.300D+00 0.635D+00
 Coeff-En:   0.000D+00 0.000D+00 0.185D+00 0.815D+00
 Coeff:      0.222D-01 0.390D-01 0.291D+00 0.647D+00
 Gap=     0.167 Goal=   None    Shift=    0.000
 RMSDP=7.46D-04 MaxDP=1.41D-02 DE=-1.24D-02 OVMax= 2.98D-02

 Cycle   5  Pass 1  IDiag  1:
 E= -191.869196900763     Delta-E=       -0.002595543210 Rises=F Damp=F
 DIIS: error= 1.01D-03 at cycle   5 NSaved=   5.
 NSaved= 5 IEnMin= 5 EnMin= -191.869196900763     IErMin= 5 ErrMin= 1.01D-03
 ErrMax= 1.01D-03  0.00D+00 EMaxC= 1.00D-01 BMatC= 8.02D-05 BMatP= 3.06D-03
 IDIUse=3 WtCom= 9.90D-01 WtEn= 1.01D-02
 Coeff-Com:  0.876D-02 0.178D-02 0.140D+00 0.356D+00 0.493D+00
 Coeff-En:   0.000D+00 0.000D+00 0.000D+00 0.000D+00 0.100D+01
 Coeff:      0.867D-02 0.176D-02 0.138D+00 0.353D+00 0.499D+00
 Gap=     0.165 Goal=   None    Shift=    0.000
 RMSDP=1.56D-04 MaxDP=3.88D-03 DE=-2.60D-03 OVMax= 8.78D-03

 Cycle   6  Pass 1  IDiag  1:
 E= -191.869271271305     Delta-E=       -0.000074370542 Rises=F Damp=F
 DIIS: error= 4.55D-04 at cycle   6 NSaved=   6.
 NSaved= 6 IEnMin= 6 EnMin= -191.869271271305     IErMin= 6 ErrMin= 4.55D-04
 ErrMax= 4.55D-04  0.00D+00 EMaxC= 1.00D-01 BMatC= 1.64D-05 BMatP= 8.02D-05
 IDIUse=3 WtCom= 9.95D-01 WtEn= 4.55D-03
 Coeff-Com:  0.169D-02-0.599D-02 0.342D-01 0.101D+00 0.330D+00 0.539D+00
 Coeff-En:   0.000D+00 0.000D+00 0.000D+00 0.000D+00 0.197D+00 0.803D+00
 Coeff:      0.168D-02-0.596D-02 0.341D-01 0.101D+00 0.329D+00 0.540D+00
 Gap=     0.165 Goal=   None    Shift=    0.000
 RMSDP=4.78D-05 MaxDP=1.25D-03 DE=-7.44D-05 OVMax= 2.61D-03

 Cycle   7  Pass 1  IDiag  1:
 E= -191.869288863374     Delta-E=       -0.000017592069 Rises=F Damp=F
 DIIS: error= 6.19D-05 at cycle   7 NSaved=   7.
 NSaved= 7 IEnMin= 7 EnMin= -191.869288863374     IErMin= 7 ErrMin= 6.19D-05
 ErrMax= 6.19D-05  0.00D+00 EMaxC= 1.00D-01 BMatC= 4.72D-07 BMatP= 1.64D-05
 IDIUse=1 WtCom= 1.00D+00 WtEn= 0.00D+00
 Coeff-Com:  0.439D-03-0.312D-02 0.922D-02 0.283D-01 0.139D+00 0.253D+00
 Coeff-Com:  0.574D+00
 Coeff:      0.439D-03-0.312D-02 0.922D-02 0.283D-01 0.139D+00 0.253D+00
 Coeff:      0.574D+00
 Gap=     0.166 Goal=   None    Shift=    0.000
 RMSDP=1.06D-05 MaxDP=1.90D-04 DE=-1.76D-05 OVMax= 1.84D-04

 Cycle   8  Pass 1  IDiag  1:
 E= -191.869289297156     Delta-E=       -0.000000433782 Rises=F Damp=F
 DIIS: error= 1.37D-05 at cycle   8 NSaved=   8.
 NSaved= 8 IEnMin= 8 EnMin= -191.869289297156     IErMin= 8 ErrMin= 1.37D-05
 ErrMax= 1.37D-05  0.00D+00 EMaxC= 1.00D-01 BMatC= 1.55D-08 BMatP= 4.72D-07
 IDIUse=1 WtCom= 1.00D+00 WtEn= 0.00D+00
 Coeff-Com:  0.363D-04-0.408D-03-0.138D-03-0.820D-03 0.131D-01 0.193D-01
 Coeff-Com:  0.141D+00 0.828D+00
 Coeff:      0.363D-04-0.408D-03-0.138D-03-0.820D-03 0.131D-01 0.193D-01
 Coeff:      0.141D+00 0.828D+00
 Gap=     0.166 Goal=   None    Shift=    0.000
 RMSDP=1.86D-06 MaxDP=2.70D-05 DE=-4.34D-07 OVMax= 6.06D-05

 Cycle   9  Pass 1  IDiag  1:
 E= -191.869289312436     Delta-E=       -0.000000015280 Rises=F Damp=F
 DIIS: error= 1.05D-06 at cycle   9 NSaved=   9.
 NSaved= 9 IEnMin= 9 EnMin= -191.869289312436     IErMin= 9 ErrMin= 1.05D-06
 ErrMax= 1.05D-06  0.00D+00 EMaxC= 1.00D-01 BMatC= 1.33D-10 BMatP= 1.55D-08
 IDIUse=1 WtCom= 1.00D+00 WtEn= 0.00D+00
 Coeff-Com: -0.645D-05 0.451D-04-0.240D-03-0.850D-03-0.219D-02-0.484D-02
 Coeff-Com: -0.625D-02 0.882D-01 0.926D+00
 Coeff:     -0.645D-05 0.451D-04-0.240D-03-0.850D-03-0.219D-02-0.484D-02
 Coeff:     -0.625D-02 0.882D-01 0.926D+00
 Gap=     0.166 Goal=   None    Shift=    0.000
 RMSDP=3.89D-07 MaxDP=7.70D-06 DE=-1.53D-08 OVMax= 5.03D-06

 Cycle  10  Pass 1  IDiag  1:
 E= -191.869289312607     Delta-E=       -0.000000000171 Rises=F Damp=F
 DIIS: error= 2.00D-07 at cycle  10 NSaved=  10.
 NSaved=10 IEnMin=10 EnMin= -191.869289312607     IErMin=10 ErrMin= 2.00D-07
 ErrMax= 2.00D-07  0.00D+00 EMaxC= 1.00D-01 BMatC= 2.57D-12 BMatP= 1.33D-10
 IDIUse=1 WtCom= 1.00D+00 WtEn= 0.00D+00
 Coeff-Com: -0.324D-05 0.155D-04-0.354D-04-0.118D-03-0.499D-03-0.105D-02
 Coeff-Com: -0.331D-02-0.153D-02 0.145D+00 0.861D+00
 Coeff:     -0.324D-05 0.155D-04-0.354D-04-0.118D-03-0.499D-03-0.105D-02
 Coeff:     -0.331D-02-0.153D-02 0.145D+00 0.861D+00
 Gap=     0.166 Goal=   None    Shift=    0.000
 RMSDP=3.69D-08 MaxDP=4.27D-07 DE=-1.71D-10 OVMax= 1.36D-06

 Cycle  11  Pass 1  IDiag  1:
 E= -191.869289312610     Delta-E=       -0.000000000003 Rises=F Damp=F
 DIIS: error= 3.05D-08 at cycle  11 NSaved=  11.
 NSaved=11 IEnMin=11 EnMin= -191.869289312610     IErMin=11 ErrMin= 3.05D-08
 ErrMax= 3.05D-08  0.00D+00 EMaxC= 1.00D-01 BMatC= 1.52D-13 BMatP= 2.57D-12
 IDIUse=1 WtCom= 1.00D+00 WtEn= 0.00D+00
 Coeff-Com: -0.446D-06 0.112D-05 0.103D-05 0.255D-05-0.511D-05-0.351D-04
 Coeff-Com: -0.314D-03-0.303D-02-0.111D-01 0.102D+00 0.912D+00
 Coeff:     -0.446D-06 0.112D-05 0.103D-05 0.255D-05-0.511D-05-0.351D-04
 Coeff:     -0.314D-03-0.303D-02-0.111D-01 0.102D+00 0.912D+00
 Gap=     0.166 Goal=   None    Shift=    0.000
 RMSDP=9.63D-09 MaxDP=1.25D-07 DE=-3.24D-12 OVMax= 2.56D-07

 Error on total polarization charges =  0.00464
 SCF Done:  E(RB3LYP) =  -191.869289313     A.U. after   11 cycles
            NFock= 11  Conv=0.96D-08     -V/T= 2.0044
 KE= 1.910354494674D+02 PE=-6.592587945723D+02 EE= 1.708447213483D+02
 Leave Link  502 at Fri Sep 22 16:29:52 2023, MaxMem=   268435456 cpu:              21.8 elap:              11.0
 (Enter /share/apps/gaussian/g16/l601.exe)
 Copying SCF densities to generalized density rwf, IOpCl= 0 IROHF=0.

 **********************************************************************

            Population analysis using the SCF density.

 **********************************************************************

 Orbital symmetries:
       Occupied  (A) (A) (A) (A) (A) (A) (A) (A) (A) (A) (A) (A)
                 (A) (A) (A)
       Virtual   (A) (A) (A) (A) (A) (A) (A) (A) (A) (A) (A) (A)
                 (A) (A) (A) (A) (A) (A) (A) (A) (A) (A) (A) (A)
                 (A) (A) (A) (A) (A) (A) (A) (A) (A) (A) (A) (A)
                 (A) (A) (A) (A) (A) (A) (A) (A) (A) (A) (A) (A)
                 (A) (A) (A) (A) (A) (A) (A) (A) (A) (A) (A) (A)
                 (A)
 The electronic state is 1-A.
 Alpha  occ. eigenvalues --  -19.11519 -10.26181 -10.21729 -10.20474  -1.03508
 Alpha  occ. eigenvalues --   -0.80230  -0.68530  -0.55797  -0.52372  -0.45781
 Alpha  occ. eigenvalues --   -0.42522  -0.40509  -0.39777  -0.28380  -0.26677
 Alpha virt. eigenvalues --   -0.10115   0.04862   0.05529   0.08146   0.10651
 Alpha virt. eigenvalues --    0.13227   0.21356   0.24573   0.29051   0.40250
 Alpha virt. eigenvalues --    0.42232   0.44312   0.46215   0.47361   0.51155
 Alpha virt. eigenvalues --    0.52104   0.59462   0.61850   0.64210   0.66293
 Alpha virt. eigenvalues --    0.72202   0.76492   0.84899   0.90685   0.94584
 Alpha virt. eigenvalues --    0.94898   1.00951   1.11295   1.28099   1.31090
 Alpha virt. eigenvalues --    1.37813   1.50521   1.67007   1.70156   1.73638
 Alpha virt. eigenvalues --    1.81766   1.84944   1.86693   1.89530   1.91918
 Alpha virt. eigenvalues --    2.02708   2.09103   2.13104   2.20955   2.21744
 Alpha virt. eigenvalues --    2.22803   2.27523   2.35758   2.40972   2.45366
 Alpha virt. eigenvalues --    2.59249   2.64611   2.67347   2.80757   2.85602
 Alpha virt. eigenvalues --    3.00912   3.04209   3.18056   3.23282   3.45609
 Alpha virt. eigenvalues --    3.62941
          Condensed to atoms (all electrons):
               1          2          3          4          5          6
     1  C    4.480590   0.274104  -0.067241   0.619044   0.427823  -0.032026
     2  C    0.274104   5.346768   0.565017  -0.127928  -0.114242   0.395364
     3  C   -0.067241   0.565017   4.709435  -0.003568   0.014227  -0.032617
     4  O    0.619044  -0.127928  -0.003568   7.950242  -0.054988   0.004511
     5  H    0.427823  -0.114242   0.014227  -0.054988   0.671370  -0.005804
     6  H   -0.032026   0.395364  -0.032617   0.004511  -0.005804   0.569629
     7  H   -0.018716  -0.032018   0.411375   0.023705   0.002149   0.007539
     8  H    0.009562  -0.030178   0.389436   0.000926  -0.000009  -0.009625
               7          8
     1  C   -0.018716   0.009562
     2  C   -0.032018  -0.030178
     3  C    0.411375   0.389436
     4  O    0.023705   0.000926
     5  H    0.002149  -0.000009
     6  H    0.007539  -0.009625
     7  H    0.561584  -0.036017
     8  H   -0.036017   0.550775
 Mulliken charges:
               1
     1  C    0.306861
     2  C   -0.276888
     3  C    0.013935
     4  O   -0.411943
     5  H    0.059474
     6  H    0.103030
     7  H    0.080399
     8  H    0.125131
 Sum of Mulliken charges =  -0.00000
 Mulliken charges with hydrogens summed into heavy atoms:
               1
     1  C    0.366335
     2  C   -0.173858
     3  C    0.219465
     4  O   -0.411943
 Electronic spatial extent (au):  <R**2>=            258.2069
 Charge=             -0.0000 electrons
 Dipole moment (field-independent basis, Debye):
    X=             -2.7267    Y=              2.0433    Z=              0.0048  Tot=              3.4074
 Quadrupole moment (field-independent basis, Debye-Ang):
   XX=            -23.9049   YY=            -22.3954   ZZ=            -25.0815
   XY=              3.7056   XZ=             -0.0078   YZ=             -0.0826
 Traceless Quadrupole moment (field-independent basis, Debye-Ang):
   XX=             -0.1110   YY=              1.3986   ZZ=             -1.2876
   XY=              3.7056   XZ=             -0.0078   YZ=             -0.0826
 Octapole moment (field-independent basis, Debye-Ang**2):
  XXX=             -7.6385  YYY=              0.1093  ZZZ=             -0.0363  XYY=             -1.1118
  XXY=              2.6618  XXZ=              0.3283  XZZ=              3.0965  YZZ=             -1.1827
  YYZ=             -0.2637  XYZ=              0.1472
 Hexadecapole moment (field-independent basis, Debye-Ang**3):
 XXXX=           -207.0827 YYYY=            -88.2836 ZZZZ=            -26.6218 XXXY=              7.0394
 XXXZ=             -0.9528 YYYX=             -0.6089 YYYZ=             -0.2951 ZZZX=             -0.0468
 ZZZY=             -0.0511 XXYY=            -50.3445 XXZZ=            -42.4248 YYZZ=            -20.6964
 XXYZ=             -0.1849 YYXZ=              0.3350 ZZXY=             -0.1746
 N-N= 1.055093344441D+02 E-N=-6.592587944750D+02  KE= 1.910354494674D+02
 There are a total of      177562 grid points.
 ElSum from          density=       30.0000034758
 ElSum from atomic densities=       29.9999981878
 Hirshfeld populations at iteration   1 (CA, CB, DipXYZ):
               1          2          3          4          5
     1  C    2.943161   2.943161   0.003692   0.068705   0.001155
     2  C    3.018391   3.018391   0.041107   0.072501  -0.001592
     3  C    2.997464   2.997464  -0.068088  -0.088198  -0.001335
     4  O    4.139616   4.139616  -0.113487   0.139223   0.001567
     5  H    0.477558   0.477558   0.081203   0.109437   0.002911
     6  H    0.475265   0.475265  -0.057733   0.144157  -0.012475
     7  H    0.476959   0.476959   0.019541  -0.152169  -0.006565
     8  H    0.471587   0.471587  -0.156506   0.005553   0.011930
       Tot  15.000002  15.000002  -0.250272   0.299209  -0.004403

 Dip from Atomic Chgs             -0.822503   0.504699   0.006293
         Total Dipole             -1.072775   0.803907   0.001889

 Hirshfeld charges, spin densities, dipoles, and CM5 charges using IRadAn=      5:
              Q-H        S-H        Dx         Dy         Dz        Q-CM5   
     1  C    0.113677   0.000000   0.003692   0.068705   0.001155   0.093918
     2  C   -0.036783   0.000000   0.041107   0.072501  -0.001592  -0.090557
     3  C    0.005073   0.000000  -0.068088  -0.088198  -0.001335  -0.105892
     4  O   -0.279232   0.000000  -0.113487   0.139223   0.001567  -0.333141
     5  H    0.044884   0.000000   0.081203   0.109437   0.002911   0.109469
     6  H    0.049470   0.000000  -0.057733   0.144157  -0.012475   0.102174
     7  H    0.046081   0.000000   0.019541  -0.152169  -0.006565   0.115576
     8  H    0.056826   0.000000  -0.156506   0.005553   0.011930   0.108451
       Tot  -0.000003   0.000000  -0.250272   0.299209  -0.004403  -0.000003
 Hirshfeld charges with hydrogens summed into heavy atoms:
              Q-H       Q-CM5   
     1  C    0.158561   0.203387
     2  C    0.012687   0.011616
     3  C    0.107980   0.118134
     4  O   -0.279232  -0.333141
 
 EQQ= 0.000000000000E+00 EQD= 0.000000000000E+00 EDD= 0.499996560669E-02
 EQQ+QD+DD= 0.499996560669E-02
 
 No NMR shielding tensors so no spin-rotation constants.
 Leave Link  601 at Fri Sep 22 16:29:53 2023, MaxMem=   268435456 cpu:               1.2 elap:               0.6
 (Enter /share/apps/gaussian/g16/l9999.exe)
 1\1\GINC-NODE99\SP\RB3LYP\Gen\C3H4O1\YANZ\22-Sep-2023\0\\#p b3lyp/gen 
 scrf=(cpcm,solvent=toluene) pop=hirshfeld empiricaldispersion=gd3bj\\t
 mpdir/M2_ref_205.gjf\\0,1\C,0,3.14336,2.737497,-1.974051\C,0,3.657451,
 1.89526,-1.01315796\C,0,3.122181,1.955584,0.30471799\O,0,2.24542441,3.
 5676328,-1.70889004\H,0,3.505671,2.701494,-2.9977901\H,0,4.50418552,1.
 21858223,-1.2389482\H,0,2.42317713,2.62062458,0.54633016\H,0,3.45514,1
 .247799,1.05983901\\Version=ES64L-G16RevA.03\State=1-A\HF=-191.8692893
 \RMSD=9.627e-09\Dipole=0.8406786,-0.9789957,0.363249\Quadrupole=-0.986
 4456,-1.724834,2.7112796,0.6526084,-1.5742091,0.2064998\PG=C01 [X(C3H4
 O1)]\\@


 THERE'S A SUCKER BORN EVERY MINUTE

              -- PHINEAS TAYLOR (P.T.) BARNUM
 Job cpu time:       0 days  0 hours  0 minutes 25.6 seconds.
 Elapsed time:       0 days  0 hours  0 minutes 13.0 seconds.
 File lengths (MBytes):  RWF=     13 Int=      0 D2E=      0 Chk=      2 Scr=      1
 Normal termination of Gaussian 16 at Fri Sep 22 16:29:53 2023.
