 Entering Gaussian System, Link 0=g16
 Initial command:
 /share/apps/gaussian/g16/l1.exe "/tmp/55556.mgr/Gau-79058.inp" -scrdir="/tmp/55556.mgr/"
 Entering Link 1 = /share/apps/gaussian/g16/l1.exe PID=     79059.
  
 Copyright (c) 1988,1990,1992,1993,1995,1998,2003,2009,2016,
            Gaussian, Inc.  All Rights Reserved.
  
 This is part of the Gaussian(R) 16 program.  It is based on
 the Gaussian(R) 09 system (copyright 2009, Gaussian, Inc.),
 the Gaussian(R) 03 system (copyright 2003, Gaussian, Inc.),
 the Gaussian(R) 98 system (copyright 1998, Gaussian, Inc.),
 the Gaussian(R) 94 system (copyright 1995, Gaussian, Inc.),
 the Gaussian 92(TM) system (copyright 1992, Gaussian, Inc.),
 the Gaussian 90(TM) system (copyright 1990, Gaussian, Inc.),
 the Gaussian 88(TM) system (copyright 1988, Gaussian, Inc.),
 the Gaussian 86(TM) system (copyright 1986, Carnegie Mellon
 University), and the Gaussian 82(TM) system (copyright 1983,
 Carnegie Mellon University). Gaussian is a federally registered
 trademark of Gaussian, Inc.
  
 This software contains proprietary and confidential information,
 including trade secrets, belonging to Gaussian, Inc.
  
 This software is provided under written license and may be
 used, copied, transmitted, or stored only in accord with that
 written license.
  
 The following legend is applicable only to US Government
 contracts under FAR:
  
                    RESTRICTED RIGHTS LEGEND
  
 Use, reproduction and disclosure by the US Government is
 subject to restrictions as set forth in subparagraphs (a)
 and (c) of the Commercial Computer Software - Restricted
 Rights clause in FAR 52.227-19.
  
 Gaussian, Inc.
 340 Quinnipiac St., Bldg. 40, Wallingford CT 06492
  
  
 ---------------------------------------------------------------
 Warning -- This program may not be used in any manner that
 competes with the business of Gaussian, Inc. or will provide
 assistance to any competitor of Gaussian, Inc.  The licensee
 of this program is prohibited from giving any competitor of
 Gaussian, Inc. access to this program.  By using this program,
 the user acknowledges that Gaussian, Inc. is engaged in the
 business of creating and licensing software in the field of
 computational chemistry and represents and warrants to the
 licensee that it is not a competitor of Gaussian, Inc. and that
 it will not use this program in any manner prohibited above.
 ---------------------------------------------------------------
  

 Cite this work as:
 Gaussian 16, Revision A.03,
 M. J. Frisch, G. W. Trucks, H. B. Schlegel, G. E. Scuseria, 
 M. A. Robb, J. R. Cheeseman, G. Scalmani, V. Barone, 
 G. A. Petersson, H. Nakatsuji, X. Li, M. Caricato, A. V. Marenich, 
 J. Bloino, B. G. Janesko, R. Gomperts, B. Mennucci, H. P. Hratchian, 
 J. V. Ortiz, A. F. Izmaylov, J. L. Sonnenberg, D. Williams-Young, 
 F. Ding, F. Lipparini, F. Egidi, J. Goings, B. Peng, A. Petrone, 
 T. Henderson, D. Ranasinghe, V. G. Zakrzewski, J. Gao, N. Rega, 
 G. Zheng, W. Liang, M. Hada, M. Ehara, K. Toyota, R. Fukuda, 
 J. Hasegawa, M. Ishida, T. Nakajima, Y. Honda, O. Kitao, H. Nakai, 
 T. Vreven, K. Throssell, J. A. Montgomery, Jr., J. E. Peralta, 
 F. Ogliaro, M. J. Bearpark, J. J. Heyd, E. N. Brothers, K. N. Kudin, 
 V. N. Staroverov, T. A. Keith, R. Kobayashi, J. Normand, 
 K. Raghavachari, A. P. Rendell, J. C. Burant, S. S. Iyengar, 
 J. Tomasi, M. Cossi, J. M. Millam, M. Klene, C. Adamo, R. Cammi, 
 J. W. Ochterski, R. L. Martin, K. Morokuma, O. Farkas, 
 J. B. Foresman, and D. J. Fox, Gaussian, Inc., Wallingford CT, 2016.
 
 ******************************************
 Gaussian 16:  ES64L-G16RevA.03 25-Dec-2016
                22-Sep-2023 
 ******************************************
 %nprocshared=2
 Will use up to    2 processors via shared memory.
 %mem=2GB
 ----------------------------------------------------------------------
 #p b3lyp/gen scrf=(cpcm,solvent=toluene) pop=hirshfeld empiricaldisper
 sion=gd3bj
 ----------------------------------------------------------------------
 1/38=1,172=1/1;
 2/12=2,17=6,18=5,40=1/2;
 3/5=7,11=2,25=1,30=1,70=2101,72=13,74=-5,124=41/1,2,3;
 4//1;
 5/5=2,38=5,53=13/2;
 6/7=2,8=2,9=2,10=2,28=1,79=1/1;
 99/5=1,9=1/99;
 Leave Link    1 at Fri Sep 22 16:28:15 2023, MaxMem=   268435456 cpu:               0.1 elap:               0.1
 (Enter /share/apps/gaussian/g16/l101.exe)
 --------------------
 tmpdir/M2_ref_52.gjf
 --------------------
 Symbolic Z-matrix:
 Charge =  0 Multiplicity = 1
 N                     0.51234  -2.17858   2.0284 
 H                    -0.03841  -2.62595   1.28528 
 H                     1.43482  -2.1048    1.84445 
 H                     0.06362  -2.19059   2.94299 
 
 ITRead=  0  0  0  0
 MicOpt= -1 -1 -1 -1
 NAtoms=      4 NQM=        4 NQMF=       0 NMMI=      0 NMMIF=      0
                NMic=       0 NMicF=      0.
                    Isotopes and Nuclear Properties:
 (Nuclear quadrupole moments (NQMom) in fm**2, nuclear magnetic moments (NMagM)
  in nuclear magnetons)

  Atom         1           2           3           4
 IAtWgt=          14           1           1           1
 AtmWgt=  14.0030740   1.0078250   1.0078250   1.0078250
 NucSpn=           2           1           1           1
 AtZEff=  -0.0000000  -0.0000000  -0.0000000  -0.0000000
 NQMom=    2.0440000   0.0000000   0.0000000   0.0000000
 NMagM=    0.4037610   2.7928460   2.7928460   2.7928460
 AtZNuc=   7.0000000   1.0000000   1.0000000   1.0000000
 Leave Link  101 at Fri Sep 22 16:28:15 2023, MaxMem=   268435456 cpu:               0.2 elap:               0.1
 (Enter /share/apps/gaussian/g16/l202.exe)
                          Input orientation:                          
 ---------------------------------------------------------------------
 Center     Atomic      Atomic             Coordinates (Angstroms)
 Number     Number       Type             X           Y           Z
 ---------------------------------------------------------------------
      1          7           0        0.512336   -2.178578    2.028396
      2          1           0       -0.038410   -2.625953    1.285281
      3          1           0        1.434822   -2.104804    1.844446
      4          1           0        0.063623   -2.190587    2.942992
 ---------------------------------------------------------------------
                    Distance matrix (angstroms):
                    1          2          3          4
     1  N    0.000000
     2  H    1.027466   0.000000
     3  H    0.943536   1.659721   0.000000
     4  H    1.018810   1.716963   1.759076   0.000000
 Stoichiometry    H3N
 Framework group  C1[X(H3N)]
 Deg. of freedom     6
 Full point group                 C1      NOp   1
 Largest Abelian subgroup         C1      NOp   1
 Largest concise Abelian subgroup C1      NOp   1
                         Standard orientation:                         
 ---------------------------------------------------------------------
 Center     Atomic      Atomic             Coordinates (Angstroms)
 Number     Number       Type             X           Y           Z
 ---------------------------------------------------------------------
      1          7           0       -0.001839   -0.019884   -0.033897
      2          1           0       -0.295173    0.959442    0.068873
      3          1           0       -0.691555   -0.652141    0.087777
      4          1           0        0.999603   -0.168112    0.080628
 ---------------------------------------------------------------------
 Rotational constants (GHZ):         355.6067545         314.1372280         170.3843445
 Leave Link  202 at Fri Sep 22 16:28:15 2023, MaxMem=   268435456 cpu:               0.0 elap:               0.0
 (Enter /share/apps/gaussian/g16/l301.exe)
 General basis read from cards:  (5D, 7F)
 Centers:       2      3      4
 S 3 1.00
     Exponent=  1.2251800000D+01 Coefficients=  2.3337100000D-02
     Exponent=  1.8687100000D+00 Coefficients=  1.5915000000D-01
     Exponent=  4.1820800000D-01 Coefficients=  5.0000000000D-01
 S 1 1.00
     Exponent=  1.0610000000D-01 Coefficients=  1.0000000000D+00
 P 1 1.00
     Exponent=  1.0000000000D+00 Coefficients=  1.0000000000D+00
 ****
 Centers:       1
 S 5 1.00
     Exponent=  1.7263200000D+03 Coefficients=  5.9307700000D-03
     Exponent=  2.5982700000D+02 Coefficients=  4.4253900000D-02
     Exponent=  5.9033500000D+01 Coefficients=  1.9609600000D-01
     Exponent=  1.6350900000D+01 Coefficients=  5.0000000000D-01
     Exponent=  4.9108400000D+00 Coefficients=  4.8298700000D-01
 S 2 1.00
     Exponent=  7.7589400000D+00 Coefficients= -7.0335600000D-02
     Exponent=  7.0557300000D-01 Coefficients=  5.0000000000D-01
 S 1 1.00
     Exponent=  2.0928600000D-01 Coefficients=  1.0000000000D+00
 P 3 1.00
     Exponent=  1.3184400000D+01 Coefficients=  4.4074700000D-02
     Exponent=  2.8186000000D+00 Coefficients=  2.3047800000D-01
     Exponent=  7.6557100000D-01 Coefficients=  5.0000000000D-01
 P 1 1.00
     Exponent=  1.9594900000D-01 Coefficients=  1.0000000000D+00
 D 1 1.00
     Exponent=  9.0000000000D-01 Coefficients=  1.0000000000D+00
 ****
 Ernie: Thresh=  0.10000D-02 Tol=  0.10000D-05 Strict=F.
 There are    30 symmetry adapted cartesian basis functions of A   symmetry.
 There are    29 symmetry adapted basis functions of A   symmetry.
    29 basis functions,    47 primitive gaussians,    30 cartesian basis functions
     5 alpha electrons        5 beta electrons
       nuclear repulsion energy        12.0948532675 Hartrees.
 IExCor=  402 DFT=T Ex+Corr=B3LYP ExCW=0 ScaHFX=  0.200000
 ScaDFX=  0.800000  0.720000  1.000000  0.810000 ScalE2=  1.000000  1.000000
 IRadAn=      5 IRanWt=     -1 IRanGd=            0 ICorTp=0 IEmpDi=141
 NAtoms=    4 NActive=    4 NUniq=    4 SFac= 1.00D+00 NAtFMM=   60 NAOKFM=F Big=F
 Integral buffers will be    131072 words long.
 Raffenetti 2 integral format.
 Two-electron integral symmetry is turned on.
 R6Disp:  Grimme-D3(BJ) Dispersion energy=       -0.0012169420 Hartrees.
 Nuclear repulsion after empirical dispersion term =       12.0936363255 Hartrees.
 ------------------------------------------------------------------------------
 Polarizable Continuum Model (PCM)
 =================================
 Model                : C-PCM.
 Atomic radii         : UFF (Universal Force Field).
 Polarization charges : Total charges.
 Charge compensation  : None.
 Solution method      : On-the-fly selection.
 Cavity type          : Scaled VdW (van der Waals Surface) (Alpha=1.100).
 Cavity algorithm     : GePol (No added spheres)
                        Default sphere list used, NSphG=    4.
                        Lebedev-Laikov grids with approx.  5.0 points / Ang**2.
                        Smoothing algorithm: York/Karplus (Gamma=1.0000).
                        Polarization charges: spherical gaussians, with
                                              point-specific exponents (IZeta= 3).
                        Self-potential: point-specific (ISelfS= 7).
                        Self-field    : sphere-specific E.n sum rule (ISelfD= 2).
 Solvent              : Toluene, Eps=   2.374100 Eps(inf)=   2.238315
 ------------------------------------------------------------------------------
 Spheres list:
 ISph  on   Nord     Re0    Alpha      Xe            Ye            Ze
    1   N      1    1.8300  1.100     -0.001839     -0.019884     -0.033897
    2   H      2    1.4430  1.100     -0.295173      0.959442      0.068873
    3   H      3    1.4430  1.100     -0.691555     -0.652141      0.087777
    4   H      4    1.4430  1.100      0.999603     -0.168112      0.080628
 ------------------------------------------------------------------------------
 GePol: Number of generator spheres                  =       4
 GePol: Total number of spheres                      =       4
 GePol: Number of exposed spheres                    =       4 (100.00%)
 GePol: Number of points                             =     439
 GePol: Average weight of points                     =       0.14
 GePol: Minimum weight of points                     =   0.21D-06
 GePol: Maximum weight of points                     =    0.20212
 GePol: Number of points with low weight             =      15
 GePol: Fraction of low-weight points (<1% of avg)   =       3.42%
 GePol: Cavity surface area                          =     61.943 Ang**2
 GePol: Cavity volume                                =     43.596 Ang**3
 Leave Link  301 at Fri Sep 22 16:28:15 2023, MaxMem=   268435456 cpu:               0.2 elap:               0.1
 (Enter /share/apps/gaussian/g16/l302.exe)
 NPDir=0 NMtPBC=     1 NCelOv=     1 NCel=       1 NClECP=     1 NCelD=      1
         NCelK=      1 NCelE2=     1 NClLst=     1 CellRange=     0.0.
 One-electron integrals computed using PRISM.
 One-electron integral symmetry used in STVInt
 NBasis=    29 RedAO= T EigKep=  4.37D-02  NBF=    29
 NBsUse=    29 1.00D-06 EigRej= -1.00D+00 NBFU=    29
 Precomputing XC quadrature grid using
 IXCGrd= 4 IRadAn=           5 IRanWt=          -1 IRanGd=           0 AccXCQ= 0.00D+00.
 Generated NRdTot=       0 NPtTot=           0 NUsed=           0 NTot=          32
 NSgBfM=    30    30    30    30    30 MxSgAt=     4 MxSgA2=     4.
 Leave Link  302 at Fri Sep 22 16:28:15 2023, MaxMem=   268435456 cpu:               0.2 elap:               0.1
 (Enter /share/apps/gaussian/g16/l303.exe)
 DipDrv:  MaxL=1.
 Leave Link  303 at Fri Sep 22 16:28:15 2023, MaxMem=   268435456 cpu:               0.1 elap:               0.0
 (Enter /share/apps/gaussian/g16/l401.exe)
 ExpMin= 1.06D-01 ExpMax= 1.73D+03 ExpMxC= 2.60D+02 IAcc=3 IRadAn=         5 AccDes= 0.00D+00
 Harris functional with IExCor=  402 and IRadAn=       5 diagonalized for initial guess.
 HarFok:  IExCor=  402 AccDes= 0.00D+00 IRadAn=         5 IDoV= 1 UseB2=F ITyADJ=14
 ICtDFT=  3500011 ScaDFX=  1.000000  1.000000  1.000000  1.000000
 FoFCou: FMM=F IPFlag=           0 FMFlag=      100000 FMFlg1=           0
         NFxFlg=           0 DoJE=T BraDBF=F KetDBF=T FulRan=T
         wScrn=  0.000000 ICntrl=       500 IOpCl=  0 I1Cent=   200000004 NGrid=           0
         NMat0=    1 NMatS0=      1 NMatT0=    0 NMatD0=    1 NMtDS0=    0 NMtDT0=    0
 Petite list used in FoFCou.
 Harris En= -56.5672656935581    
 JPrj=0 DoOrth=F DoCkMO=F.
 Leave Link  401 at Fri Sep 22 16:28:15 2023, MaxMem=   268435456 cpu:               0.5 elap:               0.3
 (Enter /share/apps/gaussian/g16/l502.exe)
 Keep R1 ints in memory in canonical form, NReq=1819966.
 FoFCou: FMM=F IPFlag=           0 FMFlag=           0 FMFlg1=           0
         NFxFlg=           0 DoJE=F BraDBF=F KetDBF=F FulRan=T
         wScrn=  0.000000 ICntrl=       600 IOpCl=  0 I1Cent=           0 NGrid=           0
         NMat0=    1 NMatS0=    435 NMatT0=    0 NMatD0=    1 NMtDS0=    0 NMtDT0=    0
 Symmetry not used in FoFCou.
 Two-electron integral symmetry not used.
 Closed shell SCF:
 Using DIIS extrapolation, IDIIS=  1040.
 NGot=   268435456 LenX=   268338134 LenY=   268336793
 Requested convergence on RMS density matrix=1.00D-08 within 128 cycles.
 Requested convergence on MAX density matrix=1.00D-06.
 Requested convergence on             energy=1.00D-06.
 No special actions if energy rises.

 Cycle   1  Pass 1  IDiag  1:
 Inv3:  Mode=1 IEnd=      578163.
 Iteration    1 A*A^-1 deviation from unit magnitude is 2.66D-15 for    151.
 Iteration    1 A*A^-1 deviation from orthogonality  is 1.46D-15 for    413     56.
 Iteration    1 A^-1*A deviation from unit magnitude is 2.44D-15 for    151.
 Iteration    1 A^-1*A deviation from orthogonality  is 1.00D-15 for    430    172.
 E= -56.4419174031815    
 DIIS: error= 5.84D-02 at cycle   1 NSaved=   1.
 NSaved= 1 IEnMin= 1 EnMin= -56.4419174031815     IErMin= 1 ErrMin= 5.84D-02
 ErrMax= 5.84D-02  0.00D+00 EMaxC= 1.00D-01 BMatC= 1.12D-01 BMatP= 1.12D-01
 IDIUse=3 WtCom= 4.16D-01 WtEn= 5.84D-01
 Coeff-Com:  0.100D+01
 Coeff-En:   0.100D+01
 Coeff:      0.100D+01
 Gap=     0.149 Goal=   None    Shift=    0.000
 GapD=    0.149 DampG=1.000 DampE=0.500 DampFc=0.5000 IDamp=-1.
 Damping current iteration by 5.00D-01
 RMSDP=1.71D-02 MaxDP=2.20D-01              OVMax= 2.03D-01

 Cycle   2  Pass 1  IDiag  1:
 E= -56.4782801170105     Delta-E=       -0.036362713829 Rises=F Damp=T
 DIIS: error= 1.06D-02 at cycle   2 NSaved=   2.
 NSaved= 2 IEnMin= 2 EnMin= -56.4782801170105     IErMin= 2 ErrMin= 1.06D-02
 ErrMax= 1.06D-02  0.00D+00 EMaxC= 1.00D-01 BMatC= 3.79D-03 BMatP= 1.12D-01
 IDIUse=3 WtCom= 8.94D-01 WtEn= 1.06D-01
 Coeff-Com:  0.143D+00 0.857D+00
 Coeff-En:   0.253D+00 0.747D+00
 Coeff:      0.154D+00 0.846D+00
 Gap=     0.274 Goal=   None    Shift=    0.000
 RMSDP=1.71D-03 MaxDP=1.84D-02 DE=-3.64D-02 OVMax= 1.15D-01

 Cycle   3  Pass 1  IDiag  1:
 E= -56.5362176270141     Delta-E=       -0.057937510004 Rises=F Damp=F
 DIIS: error= 7.23D-04 at cycle   3 NSaved=   3.
 NSaved= 3 IEnMin= 3 EnMin= -56.5362176270141     IErMin= 3 ErrMin= 7.23D-04
 ErrMax= 7.23D-04  0.00D+00 EMaxC= 1.00D-01 BMatC= 2.49D-05 BMatP= 3.79D-03
 IDIUse=3 WtCom= 9.93D-01 WtEn= 7.23D-03
 Coeff-Com:  0.988D-02-0.149D-01 0.101D+01
 Coeff-En:   0.000D+00 0.000D+00 0.100D+01
 Coeff:      0.981D-02-0.148D-01 0.101D+01
 Gap=     0.285 Goal=   None    Shift=    0.000
 RMSDP=1.26D-04 MaxDP=1.15D-03 DE=-5.79D-02 OVMax= 1.55D-03

 Cycle   4  Pass 1  IDiag  1:
 E= -56.5362345329984     Delta-E=       -0.000016905984 Rises=F Damp=F
 DIIS: error= 2.06D-04 at cycle   4 NSaved=   4.
 NSaved= 4 IEnMin= 4 EnMin= -56.5362345329984     IErMin= 4 ErrMin= 2.06D-04
 ErrMax= 2.06D-04  0.00D+00 EMaxC= 1.00D-01 BMatC= 1.30D-06 BMatP= 2.49D-05
 IDIUse=3 WtCom= 9.98D-01 WtEn= 2.06D-03
 Coeff-Com:  0.227D-02-0.126D-01 0.245D+00 0.765D+00
 Coeff-En:   0.000D+00 0.000D+00 0.000D+00 0.100D+01
 Coeff:      0.226D-02-0.126D-01 0.245D+00 0.765D+00
 Gap=     0.285 Goal=   None    Shift=    0.000
 RMSDP=2.84D-05 MaxDP=2.60D-04 DE=-1.69D-05 OVMax= 3.90D-04

 Cycle   5  Pass 1  IDiag  1:
 E= -56.5362355853925     Delta-E=       -0.000001052394 Rises=F Damp=F
 DIIS: error= 3.28D-05 at cycle   5 NSaved=   5.
 NSaved= 5 IEnMin= 5 EnMin= -56.5362355853925     IErMin= 5 ErrMin= 3.28D-05
 ErrMax= 3.28D-05  0.00D+00 EMaxC= 1.00D-01 BMatC= 2.56D-08 BMatP= 1.30D-06
 IDIUse=1 WtCom= 1.00D+00 WtEn= 0.00D+00
 Coeff-Com:  0.554D-03-0.117D-02 0.164D-01 0.748D-01 0.909D+00
 Coeff:      0.554D-03-0.117D-02 0.164D-01 0.748D-01 0.909D+00
 Gap=     0.285 Goal=   None    Shift=    0.000
 RMSDP=3.79D-06 MaxDP=5.05D-05 DE=-1.05D-06 OVMax= 4.73D-05

 Cycle   6  Pass 1  IDiag  1:
 E= -56.5362356082991     Delta-E=       -0.000000022907 Rises=F Damp=F
 DIIS: error= 1.53D-06 at cycle   6 NSaved=   6.
 NSaved= 6 IEnMin= 6 EnMin= -56.5362356082991     IErMin= 6 ErrMin= 1.53D-06
 ErrMax= 1.53D-06  0.00D+00 EMaxC= 1.00D-01 BMatC= 5.38D-11 BMatP= 2.56D-08
 IDIUse=1 WtCom= 1.00D+00 WtEn= 0.00D+00
 Coeff-Com: -0.732D-05 0.221D-04-0.507D-03-0.537D-02-0.316D-01 0.104D+01
 Coeff:     -0.732D-05 0.221D-04-0.507D-03-0.537D-02-0.316D-01 0.104D+01
 Gap=     0.285 Goal=   None    Shift=    0.000
 RMSDP=2.38D-07 MaxDP=3.21D-06 DE=-2.29D-08 OVMax= 3.30D-06

 Cycle   7  Pass 1  IDiag  1:
 E= -56.5362356083499     Delta-E=       -0.000000000051 Rises=F Damp=F
 DIIS: error= 1.57D-07 at cycle   7 NSaved=   7.
 NSaved= 7 IEnMin= 7 EnMin= -56.5362356083499     IErMin= 7 ErrMin= 1.57D-07
 ErrMax= 1.57D-07  0.00D+00 EMaxC= 1.00D-01 BMatC= 8.78D-13 BMatP= 5.38D-11
 IDIUse=1 WtCom= 1.00D+00 WtEn= 0.00D+00
 Coeff-Com: -0.677D-05 0.145D-04-0.248D-03-0.190D-02-0.153D-01 0.223D+00
 Coeff-Com:  0.795D+00
 Coeff:     -0.677D-05 0.145D-04-0.248D-03-0.190D-02-0.153D-01 0.223D+00
 Coeff:      0.795D+00
 Gap=     0.285 Goal=   None    Shift=    0.000
 RMSDP=2.45D-08 MaxDP=2.52D-07 DE=-5.09D-11 OVMax= 3.03D-07

 Cycle   8  Pass 1  IDiag  1:
 E= -56.5362356083508     Delta-E=       -0.000000000001 Rises=F Damp=F
 DIIS: error= 1.41D-08 at cycle   8 NSaved=   8.
 NSaved= 8 IEnMin= 8 EnMin= -56.5362356083508     IErMin= 8 ErrMin= 1.41D-08
 ErrMax= 1.41D-08  0.00D+00 EMaxC= 1.00D-01 BMatC= 9.69D-15 BMatP= 8.78D-13
 IDIUse=1 WtCom= 1.00D+00 WtEn= 0.00D+00
 Coeff-Com: -0.540D-06 0.320D-06-0.598D-05-0.279D-04-0.342D-03-0.104D-01
 Coeff-Com:  0.586D-01 0.952D+00
 Coeff:     -0.540D-06 0.320D-06-0.598D-05-0.279D-04-0.342D-03-0.104D-01
 Coeff:      0.586D-01 0.952D+00
 Gap=     0.285 Goal=   None    Shift=    0.000
 RMSDP=6.44D-09 MaxDP=6.58D-08 DE=-8.67D-13 OVMax= 8.10D-08

 Error on total polarization charges =  0.00227
 SCF Done:  E(RB3LYP) =  -56.5362356084     A.U. after    8 cycles
            NFock=  8  Conv=0.64D-08     -V/T= 2.0051
 KE= 5.625020371854D+01 PE=-1.562604566056D+02 EE= 3.138038095325D+01
 Leave Link  502 at Fri Sep 22 16:28:17 2023, MaxMem=   268435456 cpu:               3.3 elap:               1.7
 (Enter /share/apps/gaussian/g16/l601.exe)
 Copying SCF densities to generalized density rwf, IOpCl= 0 IROHF=0.

 **********************************************************************

            Population analysis using the SCF density.

 **********************************************************************

 Orbital symmetries:
       Occupied  (A) (A) (A) (A) (A)
       Virtual   (A) (A) (A) (A) (A) (A) (A) (A) (A) (A) (A) (A)
                 (A) (A) (A) (A) (A) (A) (A) (A) (A) (A) (A) (A)
 The electronic state is 1-A.
 Alpha  occ. eigenvalues --  -14.27570  -0.83467  -0.49373  -0.45545  -0.23455
 Alpha virt. eigenvalues --    0.05082   0.12264   0.13098   0.49337   0.56845
 Alpha virt. eigenvalues --    0.61408   0.65962   0.76410   0.77766   1.07883
 Alpha virt. eigenvalues --    1.46528   1.49870   1.84522   1.98337   2.03278
 Alpha virt. eigenvalues --    2.09682   2.31092   2.48870   2.61484   2.72175
 Alpha virt. eigenvalues --    2.84875   3.23548   3.34521   3.52812
          Condensed to atoms (all electrons):
               1          2          3          4
     1  N    6.310410   0.387927   0.406528   0.389612
     2  H    0.387927   0.502670  -0.029283  -0.028493
     3  H    0.406528  -0.029283   0.501553  -0.025884
     4  H    0.389612  -0.028493  -0.025884   0.484550
 Mulliken charges:
               1
     1  N   -0.494478
     2  H    0.167179
     3  H    0.147085
     4  H    0.180213
 Sum of Mulliken charges =  -0.00000
 Mulliken charges with hydrogens summed into heavy atoms:
               1
     1  N   -0.000000
 Electronic spatial extent (au):  <R**2>=             25.9990
 Charge=              0.0000 electrons
 Dipole moment (field-independent basis, Debye):
    X=              0.0281    Y=              0.1716    Z=              0.6369  Tot=              0.6602
 Quadrupole moment (field-independent basis, Debye-Ang):
   XX=             -5.4739   YY=             -5.9414   ZZ=             -9.2962
   XY=              0.0715   XZ=             -0.0112   YZ=             -0.0333
 Traceless Quadrupole moment (field-independent basis, Debye-Ang):
   XX=              1.4299   YY=              0.9624   ZZ=             -2.3923
   XY=              0.0715   XZ=             -0.0112   YZ=             -0.0333
 Octapole moment (field-independent basis, Debye-Ang**2):
  XXX=              0.8652  YYY=              0.8088  ZZZ=              0.6063  XYY=             -0.7673
  XXY=             -0.5563  XXZ=              0.3251  XZZ=             -0.0338  YZZ=              0.0177
  YYZ=              0.2867  XYZ=              0.0077
 Hexadecapole moment (field-independent basis, Debye-Ang**3):
 XXXX=             -8.9698 YYYY=             -9.2452 ZZZZ=             -9.2780 XXXY=              0.1983
 XXXZ=              0.0787 YYYX=             -0.0004 YYYZ=              0.0359 ZZZX=             -0.0212
 ZZZY=             -0.0423 XXYY=             -3.1858 XXZZ=             -3.4351 YYZZ=             -3.3995
 XXYZ=             -0.0799 YYXZ=             -0.0888 ZZXY=              0.0485
 N-N= 1.209363632545D+01 E-N=-1.562604563584D+02  KE= 5.625020371854D+01
 There are a total of       87774 grid points.
 ElSum from          density=       10.0000000464
 ElSum from atomic densities=       10.0000000580
 Hirshfeld populations at iteration   1 (CA, CB, DipXYZ):
               1          2          3          4          5
     1  N    3.647233   3.647233  -0.001281  -0.008181   0.114134
     2  H    0.451729   0.451729  -0.057403   0.184012   0.023051
     3  H    0.453615   0.453615  -0.155691  -0.127739   0.027497
     4  H    0.447423   0.447423   0.200871  -0.018963   0.023058
       Tot   5.000000   5.000000  -0.013504   0.029130   0.187740

 Dip from Atomic Chgs              0.024568   0.038372   0.062837
         Total Dipole              0.011065   0.067502   0.250577

 Hirshfeld charges, spin densities, dipoles, and CM5 charges using IRadAn=      5:
              Q-H        S-H        Dx         Dy         Dz        Q-CM5   
     1  N   -0.294466   0.000000  -0.001281  -0.008181   0.114134  -0.866237
     2  H    0.096543   0.000000  -0.057403   0.184012   0.023051   0.272341
     3  H    0.092770   0.000000  -0.155691  -0.127739   0.027497   0.309138
     4  H    0.105153   0.000000   0.200871  -0.018963   0.023058   0.284757
       Tot  -0.000000   0.000000  -0.013504   0.029130   0.187740  -0.000000
 Hirshfeld charges with hydrogens summed into heavy atoms:
              Q-H       Q-CM5   
     1  N   -0.000000  -0.000000
 
 EQQ= 0.000000000000E+00 EQD= 0.000000000000E+00 EDD=-0.352551789938E-03
 EQQ+QD+DD=-0.352551789938E-03
 
 No NMR shielding tensors so no spin-rotation constants.
 Leave Link  601 at Fri Sep 22 16:28:17 2023, MaxMem=   268435456 cpu:               0.4 elap:               0.2
 (Enter /share/apps/gaussian/g16/l9999.exe)
 1\1\GINC-NODE99\SP\RB3LYP\Gen\H3N1\YANZ\22-Sep-2023\0\\#p b3lyp/gen sc
 rf=(cpcm,solvent=toluene) pop=hirshfeld empiricaldispersion=gd3bj\\tmp
 dir/M2_ref_52.gjf\\0,1\N,0,0.512336,-2.178578,2.02839589\H,0,-0.03841,
 -2.625953,1.28528094\H,0,1.4348217,-2.10480399,1.84444583\H,0,0.063623
 38,-2.19058694,2.94299196\\Version=ES64L-G16RevA.03\State=1-A\HF=-56.5
 362356\RMSD=6.443e-09\Dipole=0.0054763,-0.257727,0.0318553\Quadrupole=
 0.7357038,-1.4927873,0.7570836,0.5742078,-0.3245092,0.5476426\PG=C01 [
 X(H3N1)]\\@


 DESK:  A WASTEBASKET WITH DRAWERS.
 Job cpu time:       0 days  0 hours  0 minutes  5.1 seconds.
 Elapsed time:       0 days  0 hours  0 minutes  2.6 seconds.
 File lengths (MBytes):  RWF=      6 Int=      0 D2E=      0 Chk=      1 Scr=      1
 Normal termination of Gaussian 16 at Fri Sep 22 16:28:17 2023.
