 Entering Gaussian System, Link 0=g16
 Initial command:
 /share/apps/gaussian/g16/l1.exe "/tmp/55556.mgr/Gau-79539.inp" -scrdir="/tmp/55556.mgr/"
 Entering Link 1 = /share/apps/gaussian/g16/l1.exe PID=     79540.
  
 Copyright (c) 1988,1990,1992,1993,1995,1998,2003,2009,2016,
            Gaussian, Inc.  All Rights Reserved.
  
 This is part of the Gaussian(R) 16 program.  It is based on
 the Gaussian(R) 09 system (copyright 2009, Gaussian, Inc.),
 the Gaussian(R) 03 system (copyright 2003, Gaussian, Inc.),
 the Gaussian(R) 98 system (copyright 1998, Gaussian, Inc.),
 the Gaussian(R) 94 system (copyright 1995, Gaussian, Inc.),
 the Gaussian 92(TM) system (copyright 1992, Gaussian, Inc.),
 the Gaussian 90(TM) system (copyright 1990, Gaussian, Inc.),
 the Gaussian 88(TM) system (copyright 1988, Gaussian, Inc.),
 the Gaussian 86(TM) system (copyright 1986, Carnegie Mellon
 University), and the Gaussian 82(TM) system (copyright 1983,
 Carnegie Mellon University). Gaussian is a federally registered
 trademark of Gaussian, Inc.
  
 This software contains proprietary and confidential information,
 including trade secrets, belonging to Gaussian, Inc.
  
 This software is provided under written license and may be
 used, copied, transmitted, or stored only in accord with that
 written license.
  
 The following legend is applicable only to US Government
 contracts under FAR:
  
                    RESTRICTED RIGHTS LEGEND
  
 Use, reproduction and disclosure by the US Government is
 subject to restrictions as set forth in subparagraphs (a)
 and (c) of the Commercial Computer Software - Restricted
 Rights clause in FAR 52.227-19.
  
 Gaussian, Inc.
 340 Quinnipiac St., Bldg. 40, Wallingford CT 06492
  
  
 ---------------------------------------------------------------
 Warning -- This program may not be used in any manner that
 competes with the business of Gaussian, Inc. or will provide
 assistance to any competitor of Gaussian, Inc.  The licensee
 of this program is prohibited from giving any competitor of
 Gaussian, Inc. access to this program.  By using this program,
 the user acknowledges that Gaussian, Inc. is engaged in the
 business of creating and licensing software in the field of
 computational chemistry and represents and warrants to the
 licensee that it is not a competitor of Gaussian, Inc. and that
 it will not use this program in any manner prohibited above.
 ---------------------------------------------------------------
  

 Cite this work as:
 Gaussian 16, Revision A.03,
 M. J. Frisch, G. W. Trucks, H. B. Schlegel, G. E. Scuseria, 
 M. A. Robb, J. R. Cheeseman, G. Scalmani, V. Barone, 
 G. A. Petersson, H. Nakatsuji, X. Li, M. Caricato, A. V. Marenich, 
 J. Bloino, B. G. Janesko, R. Gomperts, B. Mennucci, H. P. Hratchian, 
 J. V. Ortiz, A. F. Izmaylov, J. L. Sonnenberg, D. Williams-Young, 
 F. Ding, F. Lipparini, F. Egidi, J. Goings, B. Peng, A. Petrone, 
 T. Henderson, D. Ranasinghe, V. G. Zakrzewski, J. Gao, N. Rega, 
 G. Zheng, W. Liang, M. Hada, M. Ehara, K. Toyota, R. Fukuda, 
 J. Hasegawa, M. Ishida, T. Nakajima, Y. Honda, O. Kitao, H. Nakai, 
 T. Vreven, K. Throssell, J. A. Montgomery, Jr., J. E. Peralta, 
 F. Ogliaro, M. J. Bearpark, J. J. Heyd, E. N. Brothers, K. N. Kudin, 
 V. N. Staroverov, T. A. Keith, R. Kobayashi, J. Normand, 
 K. Raghavachari, A. P. Rendell, J. C. Burant, S. S. Iyengar, 
 J. Tomasi, M. Cossi, J. M. Millam, M. Klene, C. Adamo, R. Cammi, 
 J. W. Ochterski, R. L. Martin, K. Morokuma, O. Farkas, 
 J. B. Foresman, and D. J. Fox, Gaussian, Inc., Wallingford CT, 2016.
 
 ******************************************
 Gaussian 16:  ES64L-G16RevA.03 25-Dec-2016
                22-Sep-2023 
 ******************************************
 %nprocshared=2
 Will use up to    2 processors via shared memory.
 %mem=2GB
 ----------------------------------------------------------------------
 #p b3lyp/gen scrf=(cpcm,solvent=toluene) pop=hirshfeld empiricaldisper
 sion=gd3bj
 ----------------------------------------------------------------------
 1/38=1,172=1/1;
 2/12=2,17=6,18=5,40=1/2;
 3/5=7,11=2,25=1,30=1,70=2101,72=13,74=-5,124=41/1,2,3;
 4//1;
 5/5=2,38=5,53=13/2;
 6/7=2,8=2,9=2,10=2,28=1,79=1/1;
 99/5=1,9=1/99;
 Leave Link    1 at Fri Sep 22 16:28:38 2023, MaxMem=   268435456 cpu:               0.1 elap:               0.0
 (Enter /share/apps/gaussian/g16/l101.exe)
 ---------------------
 tmpdir/M2_ref_129.gjf
 ---------------------
 Symbolic Z-matrix:
 Charge =  0 Multiplicity = 1
 C                     3.79062  -3.62652  -1.0173 
 C                     5.23846  -3.49199  -1.51444 
 H                     5.95222  -3.50312  -0.68045 
 H                     3.57099  -2.76954  -0.31001 
 H                     3.10282  -3.65044  -1.89183 
 H                     3.69192  -4.57175  -0.4375 
 H                     5.39122  -2.56894  -2.08784 
 H                     5.483    -4.33389  -2.17415 
 
 ITRead=  0  0  0  0  0  0  0  0
 MicOpt= -1 -1 -1 -1 -1 -1 -1 -1
 NAtoms=      8 NQM=        8 NQMF=       0 NMMI=      0 NMMIF=      0
                NMic=       0 NMicF=      0.
                    Isotopes and Nuclear Properties:
 (Nuclear quadrupole moments (NQMom) in fm**2, nuclear magnetic moments (NMagM)
  in nuclear magnetons)

  Atom         1           2           3           4           5           6           7           8
 IAtWgt=          12          12           1           1           1           1           1           1
 AtmWgt=  12.0000000  12.0000000   1.0078250   1.0078250   1.0078250   1.0078250   1.0078250   1.0078250
 NucSpn=           0           0           1           1           1           1           1           1
 AtZEff=  -0.0000000  -0.0000000  -0.0000000  -0.0000000  -0.0000000  -0.0000000  -0.0000000  -0.0000000
 NQMom=    0.0000000   0.0000000   0.0000000   0.0000000   0.0000000   0.0000000   0.0000000   0.0000000
 NMagM=    0.0000000   0.0000000   2.7928460   2.7928460   2.7928460   2.7928460   2.7928460   2.7928460
 AtZNuc=   6.0000000   6.0000000   1.0000000   1.0000000   1.0000000   1.0000000   1.0000000   1.0000000
 Leave Link  101 at Fri Sep 22 16:28:38 2023, MaxMem=   268435456 cpu:               0.2 elap:               0.1
 (Enter /share/apps/gaussian/g16/l202.exe)
                          Input orientation:                          
 ---------------------------------------------------------------------
 Center     Atomic      Atomic             Coordinates (Angstroms)
 Number     Number       Type             X           Y           Z
 ---------------------------------------------------------------------
      1          6           0        3.790623   -3.626523   -1.017301
      2          6           0        5.238456   -3.491989   -1.514443
      3          1           0        5.952221   -3.503116   -0.680452
      4          1           0        3.570989   -2.769539   -0.310014
      5          1           0        3.102819   -3.650438   -1.891835
      6          1           0        3.691918   -4.571748   -0.437499
      7          1           0        5.391221   -2.568939   -2.087837
      8          1           0        5.483004   -4.333893   -2.174148
 ---------------------------------------------------------------------
                    Distance matrix (angstroms):
                    1          2          3          4          5
     1  C    0.000000
     2  C    1.536708   0.000000
     3  H    2.191165   1.097782   0.000000
     4  H    1.132658   2.180144   2.519052   0.000000
     5  H    1.112859   2.174506   3.099717   1.870113   0.000000
     6  H    1.113267   2.171973   2.511965   1.810755   1.819600
     7  H    2.196917   1.097333   1.779927   2.552281   2.538669
     8  H    2.168599   1.097186   1.772423   3.094834   2.492407
                    6          7          8
     6  H    0.000000
     7  H    3.102014   0.000000
     8  H    2.506095   1.769445   0.000000
 Stoichiometry    C2H6
 Framework group  C1[X(C2H6)]
 Deg. of freedom    18
 Full point group                 C1      NOp   1
 Largest Abelian subgroup         C1      NOp   1
 Largest concise Abelian subgroup C1      NOp   1
                         Standard orientation:                         
 ---------------------------------------------------------------------
 Center     Atomic      Atomic             Coordinates (Angstroms)
 Number     Number       Type             X           Y           Z
 ---------------------------------------------------------------------
      1          6           0        0.773364    0.005685   -0.006177
      2          6           0       -0.763312   -0.002599   -0.000862
      3          1           0       -1.158576   -0.951037    0.385605
      4          1           0        1.136504   -0.853866   -0.648217
      5          1           0        1.133990    0.994907   -0.366518
      6          1           0        1.141233   -0.172310    1.029368
      7          1           0       -1.177914    0.161709   -1.003482
      8          1           0       -1.135543    0.802080    0.645477
 ---------------------------------------------------------------------
 Rotational constants (GHZ):          77.0313926          19.9426585          19.8352592
 Leave Link  202 at Fri Sep 22 16:28:38 2023, MaxMem=   268435456 cpu:               0.0 elap:               0.0
 (Enter /share/apps/gaussian/g16/l301.exe)
 General basis read from cards:  (5D, 7F)
 Centers:       3      4      5      6      7      8
 S 3 1.00
     Exponent=  1.2251800000D+01 Coefficients=  2.3337100000D-02
     Exponent=  1.8687100000D+00 Coefficients=  1.5915000000D-01
     Exponent=  4.1820800000D-01 Coefficients=  5.0000000000D-01
 S 1 1.00
     Exponent=  1.0610000000D-01 Coefficients=  1.0000000000D+00
 P 1 1.00
     Exponent=  1.0000000000D+00 Coefficients=  1.0000000000D+00
 ****
 Centers:       1      2
 S 5 1.00
     Exponent=  1.2432000000D+03 Coefficients=  6.0336600000D-03
     Exponent=  1.8714500000D+02 Coefficients=  4.4957600000D-02
     Exponent=  4.2512600000D+01 Coefficients=  1.9790100000D-01
     Exponent=  1.1739300000D+01 Coefficients=  5.0000000000D-01
     Exponent=  3.5054800000D+00 Coefficients=  4.8036400000D-01
 S 2 1.00
     Exponent=  5.3908900000D+00 Coefficients= -7.0398000000D-02
     Exponent=  4.9334100000D-01 Coefficients=  5.0000000000D-01
 S 1 1.00
     Exponent=  1.4974100000D-01 Coefficients=  1.0000000000D+00
 P 3 1.00
     Exponent=  9.1805600000D+00 Coefficients=  4.3170100000D-02
     Exponent=  1.9365800000D+00 Coefficients=  2.2499900000D-01
     Exponent=  5.2629600000D-01 Coefficients=  5.0000000000D-01
 P 1 1.00
     Exponent=  1.3631900000D-01 Coefficients=  1.0000000000D+00
 D 1 1.00
     Exponent=  8.0000000000D-01 Coefficients=  1.0000000000D+00
 ****
 Ernie: Thresh=  0.10000D-02 Tol=  0.10000D-05 Strict=F.
 There are    60 symmetry adapted cartesian basis functions of A   symmetry.
 There are    58 symmetry adapted basis functions of A   symmetry.
    58 basis functions,    94 primitive gaussians,    60 cartesian basis functions
     9 alpha electrons        9 beta electrons
       nuclear repulsion energy        41.8546139386 Hartrees.
 IExCor=  402 DFT=T Ex+Corr=B3LYP ExCW=0 ScaHFX=  0.200000
 ScaDFX=  0.800000  0.720000  1.000000  0.810000 ScalE2=  1.000000  1.000000
 IRadAn=      5 IRanWt=     -1 IRanGd=            0 ICorTp=0 IEmpDi=141
 NAtoms=    8 NActive=    8 NUniq=    8 SFac= 1.00D+00 NAtFMM=   60 NAOKFM=F Big=F
 Integral buffers will be    131072 words long.
 Raffenetti 2 integral format.
 Two-electron integral symmetry is turned on.
 R6Disp:  Grimme-D3(BJ) Dispersion energy=       -0.0054141251 Hartrees.
 Nuclear repulsion after empirical dispersion term =       41.8491998134 Hartrees.
 ------------------------------------------------------------------------------
 Polarizable Continuum Model (PCM)
 =================================
 Model                : C-PCM.
 Atomic radii         : UFF (Universal Force Field).
 Polarization charges : Total charges.
 Charge compensation  : None.
 Solution method      : On-the-fly selection.
 Cavity type          : Scaled VdW (van der Waals Surface) (Alpha=1.100).
 Cavity algorithm     : GePol (No added spheres)
                        Default sphere list used, NSphG=    8.
                        Lebedev-Laikov grids with approx.  5.0 points / Ang**2.
                        Smoothing algorithm: York/Karplus (Gamma=1.0000).
                        Polarization charges: spherical gaussians, with
                                              point-specific exponents (IZeta= 3).
                        Self-potential: point-specific (ISelfS= 7).
                        Self-field    : sphere-specific E.n sum rule (ISelfD= 2).
 Solvent              : Toluene, Eps=   2.374100 Eps(inf)=   2.238315
 ------------------------------------------------------------------------------
 Spheres list:
 ISph  on   Nord     Re0    Alpha      Xe            Ye            Ze
    1   C      1    1.9255  1.100      0.773364      0.005685     -0.006177
    2   C      2    1.9255  1.100     -0.763312     -0.002599     -0.000862
    3   H      3    1.4430  1.100     -1.158576     -0.951037      0.385605
    4   H      4    1.4430  1.100      1.136504     -0.853866     -0.648217
    5   H      5    1.4430  1.100      1.133990      0.994907     -0.366518
    6   H      6    1.4430  1.100      1.141233     -0.172310      1.029368
    7   H      7    1.4430  1.100     -1.177914      0.161709     -1.003482
    8   H      8    1.4430  1.100     -1.135543      0.802080      0.645477
 ------------------------------------------------------------------------------
 GePol: Number of generator spheres                  =       8
 GePol: Total number of spheres                      =       8
 GePol: Number of exposed spheres                    =       8 (100.00%)
 GePol: Number of points                             =     707
 GePol: Average weight of points                     =       0.14
 GePol: Minimum weight of points                     =   0.10D-05
 GePol: Maximum weight of points                     =    0.20577
 GePol: Number of points with low weight             =      28
 GePol: Fraction of low-weight points (<1% of avg)   =       3.96%
 GePol: Cavity surface area                          =     97.148 Ang**2
 GePol: Cavity volume                                =     78.575 Ang**3
 Leave Link  301 at Fri Sep 22 16:28:38 2023, MaxMem=   268435456 cpu:               0.2 elap:               0.1
 (Enter /share/apps/gaussian/g16/l302.exe)
 NPDir=0 NMtPBC=     1 NCelOv=     1 NCel=       1 NClECP=     1 NCelD=      1
         NCelK=      1 NCelE2=     1 NClLst=     1 CellRange=     0.0.
 One-electron integrals computed using PRISM.
 One-electron integral symmetry used in STVInt
 NBasis=    58 RedAO= T EigKep=  9.06D-03  NBF=    58
 NBsUse=    58 1.00D-06 EigRej= -1.00D+00 NBFU=    58
 Precomputing XC quadrature grid using
 IXCGrd= 4 IRadAn=           5 IRanWt=          -1 IRanGd=           0 AccXCQ= 0.00D+00.
 Generated NRdTot=       0 NPtTot=           0 NUsed=           0 NTot=          32
 NSgBfM=    60    60    60    60    60 MxSgAt=     8 MxSgA2=     8.
 Leave Link  302 at Fri Sep 22 16:28:38 2023, MaxMem=   268435456 cpu:               0.3 elap:               0.2
 (Enter /share/apps/gaussian/g16/l303.exe)
 DipDrv:  MaxL=1.
 Leave Link  303 at Fri Sep 22 16:28:38 2023, MaxMem=   268435456 cpu:               0.1 elap:               0.0
 (Enter /share/apps/gaussian/g16/l401.exe)
 ExpMin= 1.06D-01 ExpMax= 1.24D+03 ExpMxC= 1.87D+02 IAcc=3 IRadAn=         5 AccDes= 0.00D+00
 Harris functional with IExCor=  402 and IRadAn=       5 diagonalized for initial guess.
 HarFok:  IExCor=  402 AccDes= 0.00D+00 IRadAn=         5 IDoV= 1 UseB2=F ITyADJ=14
 ICtDFT=  3500011 ScaDFX=  1.000000  1.000000  1.000000  1.000000
 FoFCou: FMM=F IPFlag=           0 FMFlag=      100000 FMFlg1=           0
         NFxFlg=           0 DoJE=T BraDBF=F KetDBF=T FulRan=T
         wScrn=  0.000000 ICntrl=       500 IOpCl=  0 I1Cent=   200000004 NGrid=           0
         NMat0=    1 NMatS0=      1 NMatT0=    0 NMatD0=    1 NMtDS0=    0 NMtDT0=    0
 Petite list used in FoFCou.
 Harris En= -79.8613708975444    
 JPrj=0 DoOrth=F DoCkMO=F.
 Leave Link  401 at Fri Sep 22 16:28:39 2023, MaxMem=   268435456 cpu:               1.2 elap:               0.6
 (Enter /share/apps/gaussian/g16/l502.exe)
 Keep R1 ints in memory in canonical form, NReq=3233002.
 FoFCou: FMM=F IPFlag=           0 FMFlag=           0 FMFlg1=           0
         NFxFlg=           0 DoJE=F BraDBF=F KetDBF=F FulRan=T
         wScrn=  0.000000 ICntrl=       600 IOpCl=  0 I1Cent=           0 NGrid=           0
         NMat0=    1 NMatS0=   1711 NMatT0=    0 NMatD0=    1 NMtDS0=    0 NMtDT0=    0
 Symmetry not used in FoFCou.
 Two-electron integral symmetry not used.
 Closed shell SCF:
 Using DIIS extrapolation, IDIIS=  1040.
 NGot=   268435456 LenX=   266962412 LenY=   266958371
 Requested convergence on RMS density matrix=1.00D-08 within 128 cycles.
 Requested convergence on MAX density matrix=1.00D-06.
 Requested convergence on             energy=1.00D-06.
 No special actions if energy rises.

 Cycle   1  Pass 1  IDiag  1:
 Inv3:  Mode=1 IEnd=     1499547.
 Iteration    1 A*A^-1 deviation from unit magnitude is 3.11D-15 for    699.
 Iteration    1 A*A^-1 deviation from orthogonality  is 2.44D-15 for    707    238.
 Iteration    1 A^-1*A deviation from unit magnitude is 3.11D-15 for    699.
 Iteration    1 A^-1*A deviation from orthogonality  is 7.60D-16 for    674    311.
 E= -79.7013896478941    
 DIIS: error= 4.18D-02 at cycle   1 NSaved=   1.
 NSaved= 1 IEnMin= 1 EnMin= -79.7013896478941     IErMin= 1 ErrMin= 4.18D-02
 ErrMax= 4.18D-02  0.00D+00 EMaxC= 1.00D-01 BMatC= 1.01D-01 BMatP= 1.01D-01
 IDIUse=3 WtCom= 5.82D-01 WtEn= 4.18D-01
 Coeff-Com:  0.100D+01
 Coeff-En:   0.100D+01
 Coeff:      0.100D+01
 Gap=     0.321 Goal=   None    Shift=    0.000
 GapD=    0.321 DampG=1.000 DampE=0.500 DampFc=0.5000 IDamp=-1.
 Damping current iteration by 5.00D-01
 RMSDP=1.11D-02 MaxDP=1.38D-01              OVMax= 1.89D-01

 Cycle   2  Pass 1  IDiag  1:
 E= -79.7517369776788     Delta-E=       -0.050347329785 Rises=F Damp=T
 DIIS: error= 1.12D-02 at cycle   2 NSaved=   2.
 NSaved= 2 IEnMin= 2 EnMin= -79.7517369776788     IErMin= 2 ErrMin= 1.12D-02
 ErrMax= 1.12D-02  0.00D+00 EMaxC= 1.00D-01 BMatC= 3.30D-03 BMatP= 1.01D-01
 IDIUse=3 WtCom= 8.88D-01 WtEn= 1.12D-01
 Coeff-Com:  0.110D+00 0.890D+00
 Coeff-En:   0.178D+00 0.822D+00
 Coeff:      0.117D+00 0.883D+00
 Gap=     0.410 Goal=   None    Shift=    0.000
 RMSDP=1.37D-03 MaxDP=1.15D-02 DE=-5.03D-02 OVMax= 1.04D-01

 Cycle   3  Pass 1  IDiag  1:
 E= -79.8202253258873     Delta-E=       -0.068488348208 Rises=F Damp=F
 DIIS: error= 1.95D-03 at cycle   3 NSaved=   3.
 NSaved= 3 IEnMin= 3 EnMin= -79.8202253258873     IErMin= 3 ErrMin= 1.95D-03
 ErrMax= 1.95D-03  0.00D+00 EMaxC= 1.00D-01 BMatC= 1.20D-04 BMatP= 3.30D-03
 IDIUse=3 WtCom= 9.80D-01 WtEn= 1.95D-02
 Coeff-Com:  0.168D-01 0.130D+00 0.853D+00
 Coeff-En:   0.000D+00 0.000D+00 0.100D+01
 Coeff:      0.165D-01 0.128D+00 0.856D+00
 Gap=     0.389 Goal=   None    Shift=    0.000
 RMSDP=1.91D-04 MaxDP=1.68D-03 DE=-6.85D-02 OVMax= 4.19D-03

 Cycle   4  Pass 1  IDiag  1:
 E= -79.8203283060784     Delta-E=       -0.000102980191 Rises=F Damp=F
 DIIS: error= 5.16D-04 at cycle   4 NSaved=   4.
 NSaved= 4 IEnMin= 4 EnMin= -79.8203283060784     IErMin= 4 ErrMin= 5.16D-04
 ErrMax= 5.16D-04  0.00D+00 EMaxC= 1.00D-01 BMatC= 7.68D-06 BMatP= 1.20D-04
 IDIUse=3 WtCom= 9.95D-01 WtEn= 5.16D-03
 Coeff-Com:  0.595D-03-0.512D-02 0.177D+00 0.828D+00
 Coeff-En:   0.000D+00 0.000D+00 0.000D+00 0.100D+01
 Coeff:      0.592D-03-0.510D-02 0.176D+00 0.829D+00
 Gap=     0.389 Goal=   None    Shift=    0.000
 RMSDP=5.00D-05 MaxDP=7.82D-04 DE=-1.03D-04 OVMax= 1.24D-03

 Cycle   5  Pass 1  IDiag  1:
 E= -79.8203338834337     Delta-E=       -0.000005577355 Rises=F Damp=F
 DIIS: error= 1.82D-04 at cycle   5 NSaved=   5.
 NSaved= 5 IEnMin= 5 EnMin= -79.8203338834337     IErMin= 5 ErrMin= 1.82D-04
 ErrMax= 1.82D-04  0.00D+00 EMaxC= 1.00D-01 BMatC= 1.91D-06 BMatP= 7.68D-06
 IDIUse=3 WtCom= 9.98D-01 WtEn= 1.82D-03
 Coeff-Com:  0.716D-04-0.544D-02 0.766D-01 0.447D+00 0.482D+00
 Coeff-En:   0.000D+00 0.000D+00 0.000D+00 0.792D-01 0.921D+00
 Coeff:      0.715D-04-0.543D-02 0.764D-01 0.446D+00 0.483D+00
 Gap=     0.389 Goal=   None    Shift=    0.000
 RMSDP=1.83D-05 MaxDP=3.28D-04 DE=-5.58D-06 OVMax= 4.48D-04

 Cycle   6  Pass 1  IDiag  1:
 E= -79.8203357863804     Delta-E=       -0.000001902947 Rises=F Damp=F
 DIIS: error= 6.31D-06 at cycle   6 NSaved=   6.
 NSaved= 6 IEnMin= 6 EnMin= -79.8203357863804     IErMin= 6 ErrMin= 6.31D-06
 ErrMax= 6.31D-06  0.00D+00 EMaxC= 1.00D-01 BMatC= 2.60D-09 BMatP= 1.91D-06
 IDIUse=1 WtCom= 1.00D+00 WtEn= 0.00D+00
 Coeff-Com:  0.800D-04 0.151D-04-0.333D-02-0.134D-01 0.137D-01 0.100D+01
 Coeff:      0.800D-04 0.151D-04-0.333D-02-0.134D-01 0.137D-01 0.100D+01
 Gap=     0.389 Goal=   None    Shift=    0.000
 RMSDP=8.79D-07 MaxDP=1.87D-05 DE=-1.90D-06 OVMax= 2.21D-05

 Cycle   7  Pass 1  IDiag  1:
 E= -79.8203357892510     Delta-E=       -0.000000002871 Rises=F Damp=F
 DIIS: error= 5.18D-07 at cycle   7 NSaved=   7.
 NSaved= 7 IEnMin= 7 EnMin= -79.8203357892510     IErMin= 7 ErrMin= 5.18D-07
 ErrMax= 5.18D-07  0.00D+00 EMaxC= 1.00D-01 BMatC= 1.60D-11 BMatP= 2.60D-09
 IDIUse=1 WtCom= 1.00D+00 WtEn= 0.00D+00
 Coeff-Com:  0.756D-05 0.203D-04-0.783D-03-0.364D-02 0.469D-03 0.141D+00
 Coeff-Com:  0.863D+00
 Coeff:      0.756D-05 0.203D-04-0.783D-03-0.364D-02 0.469D-03 0.141D+00
 Coeff:      0.863D+00
 Gap=     0.389 Goal=   None    Shift=    0.000
 RMSDP=1.00D-07 MaxDP=1.17D-06 DE=-2.87D-09 OVMax= 1.61D-06

 Cycle   8  Pass 1  IDiag  1:
 E= -79.8203357892703     Delta-E=       -0.000000000019 Rises=F Damp=F
 DIIS: error= 1.48D-07 at cycle   8 NSaved=   8.
 NSaved= 8 IEnMin= 8 EnMin= -79.8203357892703     IErMin= 8 ErrMin= 1.48D-07
 ErrMax= 1.48D-07  0.00D+00 EMaxC= 1.00D-01 BMatC= 1.19D-12 BMatP= 1.60D-11
 IDIUse=1 WtCom= 1.00D+00 WtEn= 0.00D+00
 Coeff-Com: -0.190D-05 0.336D-05-0.519D-04-0.303D-03-0.336D-03-0.513D-02
 Coeff-Com:  0.211D+00 0.794D+00
 Coeff:     -0.190D-05 0.336D-05-0.519D-04-0.303D-03-0.336D-03-0.513D-02
 Coeff:      0.211D+00 0.794D+00
 Gap=     0.389 Goal=   None    Shift=    0.000
 RMSDP=2.19D-08 MaxDP=2.56D-07 DE=-1.93D-11 OVMax= 3.50D-07

 Cycle   9  Pass 1  IDiag  1:
 E= -79.8203357892708     Delta-E=       -0.000000000001 Rises=F Damp=F
 DIIS: error= 4.20D-09 at cycle   9 NSaved=   9.
 NSaved= 9 IEnMin= 9 EnMin= -79.8203357892708     IErMin= 9 ErrMin= 4.20D-09
 ErrMax= 4.20D-09  0.00D+00 EMaxC= 1.00D-01 BMatC= 1.85D-15 BMatP= 1.19D-12
 IDIUse=1 WtCom= 1.00D+00 WtEn= 0.00D+00
 Coeff-Com: -0.202D-06 0.880D-07 0.306D-05 0.612D-05-0.416D-04-0.166D-02
 Coeff-Com:  0.756D-02 0.523D-01 0.942D+00
 Coeff:     -0.202D-06 0.880D-07 0.306D-05 0.612D-05-0.416D-04-0.166D-02
 Coeff:      0.756D-02 0.523D-01 0.942D+00
 Gap=     0.389 Goal=   None    Shift=    0.000
 RMSDP=1.22D-09 MaxDP=1.54D-08 DE=-5.12D-13 OVMax= 1.86D-08

 Error on total polarization charges =  0.00543
 SCF Done:  E(RB3LYP) =  -79.8203357893     A.U. after    9 cycles
            NFock=  9  Conv=0.12D-08     -V/T= 2.0088
 KE= 7.912213695668D+01 PE=-2.676047147871D+02 EE= 6.681304222775D+01
 Leave Link  502 at Fri Sep 22 16:28:45 2023, MaxMem=   268435456 cpu:              12.0 elap:               6.0
 (Enter /share/apps/gaussian/g16/l601.exe)
 Copying SCF densities to generalized density rwf, IOpCl= 0 IROHF=0.

 **********************************************************************

            Population analysis using the SCF density.

 **********************************************************************

 Orbital symmetries:
       Occupied  (A) (A) (A) (A) (A) (A) (A) (A) (A)
       Virtual   (A) (A) (A) (A) (A) (A) (A) (A) (A) (A) (A) (A)
                 (A) (A) (A) (A) (A) (A) (A) (A) (A) (A) (A) (A)
                 (A) (A) (A) (A) (A) (A) (A) (A) (A) (A) (A) (A)
                 (A) (A) (A) (A) (A) (A) (A) (A) (A) (A) (A) (A)
                 (A)
 The electronic state is 1-A.
 Alpha  occ. eigenvalues --  -10.17269 -10.16509  -0.75158  -0.60993  -0.43818
 Alpha  occ. eigenvalues --   -0.43306  -0.36371  -0.34698  -0.34101
 Alpha virt. eigenvalues --    0.04834   0.09192   0.10408   0.10522   0.13452
 Alpha virt. eigenvalues --    0.13701   0.21041   0.37327   0.38971   0.39894
 Alpha virt. eigenvalues --    0.46031   0.47036   0.58109   0.62973   0.63794
 Alpha virt. eigenvalues --    0.64483   0.64840   0.65027   0.68830   0.93975
 Alpha virt. eigenvalues --    1.22350   1.26274   1.27249   1.57860   1.58816
 Alpha virt. eigenvalues --    1.75693   1.83174   1.87074   1.87210   1.88168
 Alpha virt. eigenvalues --    1.90853   1.91350   2.08683   2.08796   2.09635
 Alpha virt. eigenvalues --    2.28017   2.29826   2.45521   2.58126   2.59666
 Alpha virt. eigenvalues --    2.61131   2.76075   2.77340   2.95000   3.05676
 Alpha virt. eigenvalues --    3.14693   3.16853   3.28125   3.29587
          Condensed to atoms (all electrons):
               1          2          3          4          5          6
     1  C    4.776677   0.402189  -0.031043   0.394942   0.397607   0.397252
     2  C    0.402189   4.765317   0.399652  -0.037078  -0.034848  -0.033710
     3  H   -0.031043   0.399652   0.603852  -0.006815   0.009398  -0.007354
     4  H    0.394942  -0.037078  -0.006815   0.603839  -0.022399  -0.027767
     5  H    0.397607  -0.034848   0.009398  -0.022399   0.595580  -0.025986
     6  H    0.397252  -0.033710  -0.007354  -0.027767  -0.025986   0.606364
     7  H   -0.031482   0.400207  -0.027030  -0.007238  -0.006831   0.009594
     8  H   -0.033619   0.398887  -0.026847   0.009970  -0.006973  -0.007648
               7          8
     1  C   -0.031482  -0.033619
     2  C    0.400207   0.398887
     3  H   -0.027030  -0.026847
     4  H   -0.007238   0.009970
     5  H   -0.006831  -0.006973
     6  H    0.009594  -0.007648
     7  H    0.603635  -0.027719
     8  H   -0.027719   0.610115
 Mulliken charges:
               1
     1  C   -0.272522
     2  C   -0.260616
     3  H    0.086187
     4  H    0.092546
     5  H    0.094453
     6  H    0.089254
     7  H    0.086864
     8  H    0.083834
 Sum of Mulliken charges =  -0.00000
 Mulliken charges with hydrogens summed into heavy atoms:
               1
     1  C    0.003731
     2  C   -0.003731
 Electronic spatial extent (au):  <R**2>=            111.0687
 Charge=             -0.0000 electrons
 Dipole moment (field-independent basis, Debye):
    X=             -0.0456    Y=              0.0079    Z=              0.0354  Tot=              0.0582
 Quadrupole moment (field-independent basis, Debye-Ang):
   XX=            -16.1554   YY=            -14.9021   ZZ=            -15.0979
   XY=              0.0213   XZ=              0.0782   YZ=             -0.0343
 Traceless Quadrupole moment (field-independent basis, Debye-Ang):
   XX=             -0.7703   YY=              0.4830   ZZ=              0.2873
   XY=              0.0213   XZ=              0.0782   YZ=             -0.0343
 Octapole moment (field-independent basis, Debye-Ang**2):
  XXX=             -0.6290  YYY=              0.0906  ZZZ=              0.1624  XYY=              0.1004
  XXY=             -0.0127  XXZ=              0.0513  XZZ=             -0.1309  YZZ=             -0.0312
  YYZ=             -0.0577  XYZ=              0.0212
 Hexadecapole moment (field-independent basis, Debye-Ang**3):
 XXXX=            -98.2195 YYYY=            -31.0169 ZZZZ=            -30.9042 XXXY=              0.1401
 XXXZ=              0.3243 YYYX=              0.6297 YYYZ=             -0.0370 ZZZX=              1.2606
 ZZZY=             -0.0921 XXYY=            -20.3748 XXZZ=            -20.4839 YYZZ=            -10.3063
 XXYZ=             -0.1061 YYXZ=             -1.0999 ZZXY=             -0.5365
 N-N= 4.184919981342D+01 E-N=-2.676047147835D+02  KE= 7.912213695668D+01
 There are a total of      177360 grid points.
 ElSum from          density=       17.9999999355
 ElSum from atomic densities=       18.0000000791
 Hirshfeld populations at iteration   1 (CA, CB, DipXYZ):
               1          2          3          4          5
     1  C    3.036836   3.036836  -0.036554   0.005439  -0.000983
     2  C    3.040015   3.040015   0.037320  -0.002582  -0.002822
     3  H    0.487248   0.487248  -0.042904  -0.116782   0.048336
     4  H    0.487148   0.487148   0.029046  -0.106961  -0.071929
     5  H    0.485972   0.485972   0.030974   0.126401  -0.041145
     6  H    0.487306   0.487306   0.033780  -0.023355   0.126977
     7  H    0.487452   0.487452  -0.046306   0.021289  -0.123076
     8  H    0.488022   0.488022  -0.038022   0.098919   0.078884
       Tot   9.000000   9.000000  -0.032666   0.002367   0.014243

 Dip from Atomic Chgs              0.014732   0.000751  -0.000327
         Total Dipole             -0.017934   0.003118   0.013916

 Hirshfeld charges, spin densities, dipoles, and CM5 charges using IRadAn=      5:
              Q-H        S-H        Dx         Dy         Dz        Q-CM5   
     1  C   -0.073673   0.000000  -0.036554   0.005439  -0.000983  -0.216455
     2  C   -0.080031   0.000000   0.037320  -0.002582  -0.002822  -0.230521
     3  H    0.025505   0.000000  -0.042904  -0.116782   0.048336   0.075504
     4  H    0.025703   0.000000   0.029046  -0.106961  -0.071929   0.071915
     5  H    0.028055   0.000000   0.030974   0.126401  -0.041145   0.076470
     6  H    0.025387   0.000000   0.033780  -0.023355   0.126977   0.073777
     7  H    0.025097   0.000000  -0.046306   0.021289  -0.123076   0.075104
     8  H    0.023957   0.000000  -0.038022   0.098919   0.078884   0.074205
       Tot   0.000000   0.000000  -0.032666   0.002367   0.014243   0.000000
 Hirshfeld charges with hydrogens summed into heavy atoms:
              Q-H       Q-CM5   
     1  C    0.005472   0.005708
     2  C   -0.005472  -0.005708
 
 EQQ= 0.000000000000E+00 EQD= 0.000000000000E+00 EDD=-0.174336137091E-02
 EQQ+QD+DD=-0.174336137091E-02
 
 No NMR shielding tensors so no spin-rotation constants.
 Leave Link  601 at Fri Sep 22 16:28:45 2023, MaxMem=   268435456 cpu:               1.0 elap:               0.6
 (Enter /share/apps/gaussian/g16/l9999.exe)
 1\1\GINC-NODE99\SP\RB3LYP\Gen\C2H6\YANZ\22-Sep-2023\0\\#p b3lyp/gen sc
 rf=(cpcm,solvent=toluene) pop=hirshfeld empiricaldispersion=gd3bj\\tmp
 dir/M2_ref_129.gjf\\0,1\C,0,3.790623,-3.626523,-1.01730096\C,0,5.23845
 6,-3.491989,-1.51444304\H,0,5.952221,-3.503116,-0.68045199\H,0,3.57098
 947,-2.76953898,-0.31001442\H,0,3.1028191,-3.65043802,-1.89183486\H,0,
 3.69191825,-4.571748,-0.43749871\H,0,5.391221,-2.568939,-2.08783698\H,
 0,5.483004,-4.333893,-2.17414808\\Version=ES64L-G16RevA.03\State=1-A\H
 F=-79.8203358\RMSD=1.223e-09\Dipole=0.0186164,-0.0125046,-0.0046971\Qu
 adrupole=-0.4790378,0.2182308,0.260807,-0.0014846,0.2867524,0.0276636\
 PG=C01 [X(C2H6)]\\@


 THERE'S SMALL CHOICE IN A BOWL OF ROTTEN APPLES.
                     SHAKESPEARE
 Job cpu time:       0 days  0 hours  0 minutes 15.2 seconds.
 Elapsed time:       0 days  0 hours  0 minutes  7.8 seconds.
 File lengths (MBytes):  RWF=     11 Int=      0 D2E=      0 Chk=      2 Scr=      1
 Normal termination of Gaussian 16 at Fri Sep 22 16:28:45 2023.
