 Entering Gaussian System, Link 0=g16
 Initial command:
 /share/apps/gaussian/g16/l1.exe "/tmp/55556.mgr/Gau-79372.inp" -scrdir="/tmp/55556.mgr/"
 Entering Link 1 = /share/apps/gaussian/g16/l1.exe PID=     79373.
  
 Copyright (c) 1988,1990,1992,1993,1995,1998,2003,2009,2016,
            Gaussian, Inc.  All Rights Reserved.
  
 This is part of the Gaussian(R) 16 program.  It is based on
 the Gaussian(R) 09 system (copyright 2009, Gaussian, Inc.),
 the Gaussian(R) 03 system (copyright 2003, Gaussian, Inc.),
 the Gaussian(R) 98 system (copyright 1998, Gaussian, Inc.),
 the Gaussian(R) 94 system (copyright 1995, Gaussian, Inc.),
 the Gaussian 92(TM) system (copyright 1992, Gaussian, Inc.),
 the Gaussian 90(TM) system (copyright 1990, Gaussian, Inc.),
 the Gaussian 88(TM) system (copyright 1988, Gaussian, Inc.),
 the Gaussian 86(TM) system (copyright 1986, Carnegie Mellon
 University), and the Gaussian 82(TM) system (copyright 1983,
 Carnegie Mellon University). Gaussian is a federally registered
 trademark of Gaussian, Inc.
  
 This software contains proprietary and confidential information,
 including trade secrets, belonging to Gaussian, Inc.
  
 This software is provided under written license and may be
 used, copied, transmitted, or stored only in accord with that
 written license.
  
 The following legend is applicable only to US Government
 contracts under FAR:
  
                    RESTRICTED RIGHTS LEGEND
  
 Use, reproduction and disclosure by the US Government is
 subject to restrictions as set forth in subparagraphs (a)
 and (c) of the Commercial Computer Software - Restricted
 Rights clause in FAR 52.227-19.
  
 Gaussian, Inc.
 340 Quinnipiac St., Bldg. 40, Wallingford CT 06492
  
  
 ---------------------------------------------------------------
 Warning -- This program may not be used in any manner that
 competes with the business of Gaussian, Inc. or will provide
 assistance to any competitor of Gaussian, Inc.  The licensee
 of this program is prohibited from giving any competitor of
 Gaussian, Inc. access to this program.  By using this program,
 the user acknowledges that Gaussian, Inc. is engaged in the
 business of creating and licensing software in the field of
 computational chemistry and represents and warrants to the
 licensee that it is not a competitor of Gaussian, Inc. and that
 it will not use this program in any manner prohibited above.
 ---------------------------------------------------------------
  

 Cite this work as:
 Gaussian 16, Revision A.03,
 M. J. Frisch, G. W. Trucks, H. B. Schlegel, G. E. Scuseria, 
 M. A. Robb, J. R. Cheeseman, G. Scalmani, V. Barone, 
 G. A. Petersson, H. Nakatsuji, X. Li, M. Caricato, A. V. Marenich, 
 J. Bloino, B. G. Janesko, R. Gomperts, B. Mennucci, H. P. Hratchian, 
 J. V. Ortiz, A. F. Izmaylov, J. L. Sonnenberg, D. Williams-Young, 
 F. Ding, F. Lipparini, F. Egidi, J. Goings, B. Peng, A. Petrone, 
 T. Henderson, D. Ranasinghe, V. G. Zakrzewski, J. Gao, N. Rega, 
 G. Zheng, W. Liang, M. Hada, M. Ehara, K. Toyota, R. Fukuda, 
 J. Hasegawa, M. Ishida, T. Nakajima, Y. Honda, O. Kitao, H. Nakai, 
 T. Vreven, K. Throssell, J. A. Montgomery, Jr., J. E. Peralta, 
 F. Ogliaro, M. J. Bearpark, J. J. Heyd, E. N. Brothers, K. N. Kudin, 
 V. N. Staroverov, T. A. Keith, R. Kobayashi, J. Normand, 
 K. Raghavachari, A. P. Rendell, J. C. Burant, S. S. Iyengar, 
 J. Tomasi, M. Cossi, J. M. Millam, M. Klene, C. Adamo, R. Cammi, 
 J. W. Ochterski, R. L. Martin, K. Morokuma, O. Farkas, 
 J. B. Foresman, and D. J. Fox, Gaussian, Inc., Wallingford CT, 2016.
 
 ******************************************
 Gaussian 16:  ES64L-G16RevA.03 25-Dec-2016
                22-Sep-2023 
 ******************************************
 %nprocshared=2
 Will use up to    2 processors via shared memory.
 %mem=2GB
 ----------------------------------------------------------------------
 #p b3lyp/gen scrf=(cpcm,solvent=toluene) pop=hirshfeld empiricaldisper
 sion=gd3bj
 ----------------------------------------------------------------------
 1/38=1,172=1/1;
 2/12=2,17=6,18=5,40=1/2;
 3/5=7,11=2,25=1,30=1,70=2101,72=13,74=-5,124=41/1,2,3;
 4//1;
 5/5=2,38=5,53=13/2;
 6/7=2,8=2,9=2,10=2,28=1,79=1/1;
 99/5=1,9=1/99;
 Leave Link    1 at Fri Sep 22 16:28:30 2023, MaxMem=   268435456 cpu:               0.1 elap:               0.0
 (Enter /share/apps/gaussian/g16/l101.exe)
 ---------------------
 tmpdir/M2_ref_153.gjf
 ---------------------
 Symbolic Z-matrix:
 Charge =  0 Multiplicity = 1
 C                     4.82716   0.96048  -1.32507 
 N                     4.67627  -0.32734  -0.57445 
 H                     5.78544   1.37027  -0.8961 
 H                     4.94848   0.74553  -2.40633 
 H                     3.98042   1.63715  -1.09928 
 H                     3.91636  -0.85741  -0.68738 
 H                     5.44762  -0.49096   0.09331 
 
 ITRead=  0  0  0  0  0  0  0
 MicOpt= -1 -1 -1 -1 -1 -1 -1
 NAtoms=      7 NQM=        7 NQMF=       0 NMMI=      0 NMMIF=      0
                NMic=       0 NMicF=      0.
                    Isotopes and Nuclear Properties:
 (Nuclear quadrupole moments (NQMom) in fm**2, nuclear magnetic moments (NMagM)
  in nuclear magnetons)

  Atom         1           2           3           4           5           6           7
 IAtWgt=          12          14           1           1           1           1           1
 AtmWgt=  12.0000000  14.0030740   1.0078250   1.0078250   1.0078250   1.0078250   1.0078250
 NucSpn=           0           2           1           1           1           1           1
 AtZEff=  -0.0000000  -0.0000000  -0.0000000  -0.0000000  -0.0000000  -0.0000000  -0.0000000
 NQMom=    0.0000000   2.0440000   0.0000000   0.0000000   0.0000000   0.0000000   0.0000000
 NMagM=    0.0000000   0.4037610   2.7928460   2.7928460   2.7928460   2.7928460   2.7928460
 AtZNuc=   6.0000000   7.0000000   1.0000000   1.0000000   1.0000000   1.0000000   1.0000000
 Leave Link  101 at Fri Sep 22 16:28:30 2023, MaxMem=   268435456 cpu:               0.2 elap:               0.1
 (Enter /share/apps/gaussian/g16/l202.exe)
                          Input orientation:                          
 ---------------------------------------------------------------------
 Center     Atomic      Atomic             Coordinates (Angstroms)
 Number     Number       Type             X           Y           Z
 ---------------------------------------------------------------------
      1          6           0        4.827158    0.960475   -1.325072
      2          7           0        4.676274   -0.327336   -0.574446
      3          1           0        5.785444    1.370271   -0.896103
      4          1           0        4.948478    0.745527   -2.406335
      5          1           0        3.980423    1.637153   -1.099282
      6          1           0        3.916355   -0.857408   -0.687380
      7          1           0        5.447616   -0.490960    0.093306
 ---------------------------------------------------------------------
                    Distance matrix (angstroms):
                    1          2          3          4          5
     1  C    0.000000
     2  N    1.498220   0.000000
     3  H    1.127058   2.053191   0.000000
     4  H    1.109076   2.140315   1.836197   0.000000
     5  H    1.107174   2.149157   1.835921   1.854862   0.000000
     6  H    2.130941   0.933384   2.915409   2.566999   2.529150
     7  H    2.122128   1.033264   2.134769   2.833062   2.846714
                    6          7
     6  H    0.000000
     7  H    1.757417   0.000000
 Stoichiometry    CH5N
 Framework group  C1[X(CH5N)]
 Deg. of freedom    15
 Full point group                 C1      NOp   1
 Largest Abelian subgroup         C1      NOp   1
 Largest concise Abelian subgroup C1      NOp   1
                         Standard orientation:                         
 ---------------------------------------------------------------------
 Center     Atomic      Atomic             Coordinates (Angstroms)
 Number     Number       Type             X           Y           Z
 ---------------------------------------------------------------------
      1          6           0        0.742955   -0.009714   -0.001345
      2          7           0       -0.755167   -0.023992    0.008075
      3          1           0        0.966009    1.094193   -0.044903
      4          1           0        1.122256   -0.443613    0.946238
      5          1           0        1.125386   -0.518826   -0.907096
      6          1           0       -1.223276   -0.830937   -0.022237
      7          1           0       -1.161936    0.925408   -0.020455
 ---------------------------------------------------------------------
 Rotational constants (GHZ):         101.5275968          22.2847135          20.8960621
 Leave Link  202 at Fri Sep 22 16:28:30 2023, MaxMem=   268435456 cpu:               0.0 elap:               0.0
 (Enter /share/apps/gaussian/g16/l301.exe)
 General basis read from cards:  (5D, 7F)
 Centers:       3      4      5      6      7
 S 3 1.00
     Exponent=  1.2251800000D+01 Coefficients=  2.3337100000D-02
     Exponent=  1.8687100000D+00 Coefficients=  1.5915000000D-01
     Exponent=  4.1820800000D-01 Coefficients=  5.0000000000D-01
 S 1 1.00
     Exponent=  1.0610000000D-01 Coefficients=  1.0000000000D+00
 P 1 1.00
     Exponent=  1.0000000000D+00 Coefficients=  1.0000000000D+00
 ****
 Centers:       1
 S 5 1.00
     Exponent=  1.2432000000D+03 Coefficients=  6.0336600000D-03
     Exponent=  1.8714500000D+02 Coefficients=  4.4957600000D-02
     Exponent=  4.2512600000D+01 Coefficients=  1.9790100000D-01
     Exponent=  1.1739300000D+01 Coefficients=  5.0000000000D-01
     Exponent=  3.5054800000D+00 Coefficients=  4.8036400000D-01
 S 2 1.00
     Exponent=  5.3908900000D+00 Coefficients= -7.0398000000D-02
     Exponent=  4.9334100000D-01 Coefficients=  5.0000000000D-01
 S 1 1.00
     Exponent=  1.4974100000D-01 Coefficients=  1.0000000000D+00
 P 3 1.00
     Exponent=  9.1805600000D+00 Coefficients=  4.3170100000D-02
     Exponent=  1.9365800000D+00 Coefficients=  2.2499900000D-01
     Exponent=  5.2629600000D-01 Coefficients=  5.0000000000D-01
 P 1 1.00
     Exponent=  1.3631900000D-01 Coefficients=  1.0000000000D+00
 D 1 1.00
     Exponent=  8.0000000000D-01 Coefficients=  1.0000000000D+00
 ****
 Centers:       2
 S 5 1.00
     Exponent=  1.7263200000D+03 Coefficients=  5.9307700000D-03
     Exponent=  2.5982700000D+02 Coefficients=  4.4253900000D-02
     Exponent=  5.9033500000D+01 Coefficients=  1.9609600000D-01
     Exponent=  1.6350900000D+01 Coefficients=  5.0000000000D-01
     Exponent=  4.9108400000D+00 Coefficients=  4.8298700000D-01
 S 2 1.00
     Exponent=  7.7589400000D+00 Coefficients= -7.0335600000D-02
     Exponent=  7.0557300000D-01 Coefficients=  5.0000000000D-01
 S 1 1.00
     Exponent=  2.0928600000D-01 Coefficients=  1.0000000000D+00
 P 3 1.00
     Exponent=  1.3184400000D+01 Coefficients=  4.4074700000D-02
     Exponent=  2.8186000000D+00 Coefficients=  2.3047800000D-01
     Exponent=  7.6557100000D-01 Coefficients=  5.0000000000D-01
 P 1 1.00
     Exponent=  1.9594900000D-01 Coefficients=  1.0000000000D+00
 D 1 1.00
     Exponent=  9.0000000000D-01 Coefficients=  1.0000000000D+00
 ****
 Ernie: Thresh=  0.10000D-02 Tol=  0.10000D-05 Strict=F.
 There are    55 symmetry adapted cartesian basis functions of A   symmetry.
 There are    53 symmetry adapted basis functions of A   symmetry.
    53 basis functions,    87 primitive gaussians,    55 cartesian basis functions
     9 alpha electrons        9 beta electrons
       nuclear repulsion energy        41.5606605336 Hartrees.
 IExCor=  402 DFT=T Ex+Corr=B3LYP ExCW=0 ScaHFX=  0.200000
 ScaDFX=  0.800000  0.720000  1.000000  0.810000 ScalE2=  1.000000  1.000000
 IRadAn=      5 IRanWt=     -1 IRanGd=            0 ICorTp=0 IEmpDi=141
 NAtoms=    7 NActive=    7 NUniq=    7 SFac= 1.00D+00 NAtFMM=   60 NAOKFM=F Big=F
 Integral buffers will be    131072 words long.
 Raffenetti 2 integral format.
 Two-electron integral symmetry is turned on.
 R6Disp:  Grimme-D3(BJ) Dispersion energy=       -0.0043247691 Hartrees.
 Nuclear repulsion after empirical dispersion term =       41.5563357645 Hartrees.
 ------------------------------------------------------------------------------
 Polarizable Continuum Model (PCM)
 =================================
 Model                : C-PCM.
 Atomic radii         : UFF (Universal Force Field).
 Polarization charges : Total charges.
 Charge compensation  : None.
 Solution method      : On-the-fly selection.
 Cavity type          : Scaled VdW (van der Waals Surface) (Alpha=1.100).
 Cavity algorithm     : GePol (No added spheres)
                        Default sphere list used, NSphG=    7.
                        Lebedev-Laikov grids with approx.  5.0 points / Ang**2.
                        Smoothing algorithm: York/Karplus (Gamma=1.0000).
                        Polarization charges: spherical gaussians, with
                                              point-specific exponents (IZeta= 3).
                        Self-potential: point-specific (ISelfS= 7).
                        Self-field    : sphere-specific E.n sum rule (ISelfD= 2).
 Solvent              : Toluene, Eps=   2.374100 Eps(inf)=   2.238315
 ------------------------------------------------------------------------------
 Spheres list:
 ISph  on   Nord     Re0    Alpha      Xe            Ye            Ze
    1   C      1    1.9255  1.100      0.742955     -0.009714     -0.001345
    2   N      2    1.8300  1.100     -0.755167     -0.023992      0.008075
    3   H      3    1.4430  1.100      0.966009      1.094193     -0.044903
    4   H      4    1.4430  1.100      1.122256     -0.443613      0.946238
    5   H      5    1.4430  1.100      1.125386     -0.518826     -0.907096
    6   H      6    1.4430  1.100     -1.223276     -0.830937     -0.022237
    7   H      7    1.4430  1.100     -1.161936      0.925408     -0.020455
 ------------------------------------------------------------------------------
 GePol: Number of generator spheres                  =       7
 GePol: Total number of spheres                      =       7
 GePol: Number of exposed spheres                    =       7 (100.00%)
 GePol: Number of points                             =     656
 GePol: Average weight of points                     =       0.14
 GePol: Minimum weight of points                     =   0.11D-08
 GePol: Maximum weight of points                     =    0.20299
 GePol: Number of points with low weight             =      28
 GePol: Fraction of low-weight points (<1% of avg)   =       4.27%
 GePol: Cavity surface area                          =     90.338 Ang**2
 GePol: Cavity volume                                =     71.557 Ang**3
 Leave Link  301 at Fri Sep 22 16:28:30 2023, MaxMem=   268435456 cpu:               0.2 elap:               0.1
 (Enter /share/apps/gaussian/g16/l302.exe)
 NPDir=0 NMtPBC=     1 NCelOv=     1 NCel=       1 NClECP=     1 NCelD=      1
         NCelK=      1 NCelE2=     1 NClLst=     1 CellRange=     0.0.
 One-electron integrals computed using PRISM.
 One-electron integral symmetry used in STVInt
 NBasis=    53 RedAO= T EigKep=  1.32D-02  NBF=    53
 NBsUse=    53 1.00D-06 EigRej= -1.00D+00 NBFU=    53
 Precomputing XC quadrature grid using
 IXCGrd= 4 IRadAn=           5 IRanWt=          -1 IRanGd=           0 AccXCQ= 0.00D+00.
 Generated NRdTot=       0 NPtTot=           0 NUsed=           0 NTot=          32
 NSgBfM=    55    55    55    55    55 MxSgAt=     7 MxSgA2=     7.
 Leave Link  302 at Fri Sep 22 16:28:30 2023, MaxMem=   268435456 cpu:               0.3 elap:               0.1
 (Enter /share/apps/gaussian/g16/l303.exe)
 DipDrv:  MaxL=1.
 Leave Link  303 at Fri Sep 22 16:28:30 2023, MaxMem=   268435456 cpu:               0.1 elap:               0.0
 (Enter /share/apps/gaussian/g16/l401.exe)
 ExpMin= 1.06D-01 ExpMax= 1.73D+03 ExpMxC= 2.60D+02 IAcc=3 IRadAn=         5 AccDes= 0.00D+00
 Harris functional with IExCor=  402 and IRadAn=       5 diagonalized for initial guess.
 HarFok:  IExCor=  402 AccDes= 0.00D+00 IRadAn=         5 IDoV= 1 UseB2=F ITyADJ=14
 ICtDFT=  3500011 ScaDFX=  1.000000  1.000000  1.000000  1.000000
 FoFCou: FMM=F IPFlag=           0 FMFlag=      100000 FMFlg1=           0
         NFxFlg=           0 DoJE=T BraDBF=F KetDBF=T FulRan=T
         wScrn=  0.000000 ICntrl=       500 IOpCl=  0 I1Cent=   200000004 NGrid=           0
         NMat0=    1 NMatS0=      1 NMatT0=    0 NMatD0=    1 NMtDS0=    0 NMtDT0=    0
 Petite list used in FoFCou.
 Harris En= -95.8513169157710    
 JPrj=0 DoOrth=F DoCkMO=F.
 Leave Link  401 at Fri Sep 22 16:28:31 2023, MaxMem=   268435456 cpu:               1.0 elap:               0.5
 (Enter /share/apps/gaussian/g16/l502.exe)
 Keep R1 ints in memory in canonical form, NReq=2776633.
 FoFCou: FMM=F IPFlag=           0 FMFlag=           0 FMFlg1=           0
         NFxFlg=           0 DoJE=F BraDBF=F KetDBF=F FulRan=T
         wScrn=  0.000000 ICntrl=       600 IOpCl=  0 I1Cent=           0 NGrid=           0
         NMat0=    1 NMatS0=   1431 NMatT0=    0 NMatD0=    1 NMtDS0=    0 NMtDT0=    0
 Symmetry not used in FoFCou.
 Two-electron integral symmetry not used.
 Closed shell SCF:
 Using DIIS extrapolation, IDIIS=  1040.
 NGot=   268435456 LenX=   267403681 LenY=   267400215
 Requested convergence on RMS density matrix=1.00D-08 within 128 cycles.
 Requested convergence on MAX density matrix=1.00D-06.
 Requested convergence on             energy=1.00D-06.
 No special actions if energy rises.

 Cycle   1  Pass 1  IDiag  1:
 Inv3:  Mode=1 IEnd=     1291008.
 Iteration    1 A*A^-1 deviation from unit magnitude is 3.11D-15 for    632.
 Iteration    1 A*A^-1 deviation from orthogonality  is 2.18D-15 for    631    123.
 Iteration    1 A^-1*A deviation from unit magnitude is 3.33D-15 for    632.
 Iteration    1 A^-1*A deviation from orthogonality  is 7.49D-16 for    543    412.
 E= -95.7238936518903    
 DIIS: error= 3.80D-02 at cycle   1 NSaved=   1.
 NSaved= 1 IEnMin= 1 EnMin= -95.7238936518903     IErMin= 1 ErrMin= 3.80D-02
 ErrMax= 3.80D-02  0.00D+00 EMaxC= 1.00D-01 BMatC= 1.05D-01 BMatP= 1.05D-01
 IDIUse=3 WtCom= 6.20D-01 WtEn= 3.80D-01
 Coeff-Com:  0.100D+01
 Coeff-En:   0.100D+01
 Coeff:      0.100D+01
 Gap=     0.154 Goal=   None    Shift=    0.000
 GapD=    0.154 DampG=1.000 DampE=0.500 DampFc=0.5000 IDamp=-1.
 Damping current iteration by 5.00D-01
 RMSDP=1.11D-02 MaxDP=1.94D-01              OVMax= 1.76D-01

 Cycle   2  Pass 1  IDiag  1:
 E= -95.7651830300432     Delta-E=       -0.041289378153 Rises=F Damp=T
 DIIS: error= 7.43D-03 at cycle   2 NSaved=   2.
 NSaved= 2 IEnMin= 2 EnMin= -95.7651830300432     IErMin= 2 ErrMin= 7.43D-03
 ErrMax= 7.43D-03  0.00D+00 EMaxC= 1.00D-01 BMatC= 4.29D-03 BMatP= 1.05D-01
 IDIUse=3 WtCom= 9.26D-01 WtEn= 7.43D-02
 Coeff-Com:  0.129D+00 0.871D+00
 Coeff-En:   0.212D+00 0.788D+00
 Coeff:      0.135D+00 0.865D+00
 Gap=     0.255 Goal=   None    Shift=    0.000
 RMSDP=1.63D-03 MaxDP=1.35D-02 DE=-4.13D-02 OVMax= 1.04D-01

 Cycle   3  Pass 1  IDiag  1:
 E= -95.8256887093683     Delta-E=       -0.060505679325 Rises=F Damp=F
 DIIS: error= 2.51D-03 at cycle   3 NSaved=   3.
 NSaved= 3 IEnMin= 3 EnMin= -95.8256887093683     IErMin= 3 ErrMin= 2.51D-03
 ErrMax= 2.51D-03  0.00D+00 EMaxC= 1.00D-01 BMatC= 5.10D-04 BMatP= 4.29D-03
 IDIUse=3 WtCom= 9.75D-01 WtEn= 2.51D-02
 Coeff-Com:  0.280D-01 0.252D+00 0.720D+00
 Coeff-En:   0.000D+00 0.000D+00 0.100D+01
 Coeff:      0.273D-01 0.245D+00 0.727D+00
 Gap=     0.255 Goal=   None    Shift=    0.000
 RMSDP=4.71D-04 MaxDP=8.41D-03 DE=-6.05D-02 OVMax= 1.14D-02

 Cycle   4  Pass 1  IDiag  1:
 E= -95.8259941968081     Delta-E=       -0.000305487440 Rises=F Damp=F
 DIIS: error= 1.59D-03 at cycle   4 NSaved=   4.
 NSaved= 4 IEnMin= 4 EnMin= -95.8259941968081     IErMin= 4 ErrMin= 1.59D-03
 ErrMax= 1.59D-03  0.00D+00 EMaxC= 1.00D-01 BMatC= 1.85D-04 BMatP= 5.10D-04
 IDIUse=3 WtCom= 9.84D-01 WtEn= 1.59D-02
 Coeff-Com:  0.395D-02 0.495D-01 0.379D+00 0.567D+00
 Coeff-En:   0.000D+00 0.000D+00 0.258D+00 0.742D+00
 Coeff:      0.389D-02 0.487D-01 0.378D+00 0.570D+00
 Gap=     0.256 Goal=   None    Shift=    0.000
 RMSDP=1.94D-04 MaxDP=3.19D-03 DE=-3.05D-04 OVMax= 4.06D-03

 Cycle   5  Pass 1  IDiag  1:
 E= -95.8261659710443     Delta-E=       -0.000171774236 Rises=F Damp=F
 DIIS: error= 2.57D-04 at cycle   5 NSaved=   5.
 NSaved= 5 IEnMin= 5 EnMin= -95.8261659710443     IErMin= 5 ErrMin= 2.57D-04
 ErrMax= 2.57D-04  0.00D+00 EMaxC= 1.00D-01 BMatC= 3.04D-06 BMatP= 1.85D-04
 IDIUse=3 WtCom= 9.97D-01 WtEn= 2.57D-03
 Coeff-Com: -0.530D-03-0.319D-02 0.635D-01 0.171D+00 0.770D+00
 Coeff-En:   0.000D+00 0.000D+00 0.000D+00 0.000D+00 0.100D+01
 Coeff:     -0.529D-03-0.318D-02 0.634D-01 0.170D+00 0.770D+00
 Gap=     0.256 Goal=   None    Shift=    0.000
 RMSDP=2.18D-05 MaxDP=2.92D-04 DE=-1.72D-04 OVMax= 4.72D-04

 Cycle   6  Pass 1  IDiag  1:
 E= -95.8261686317348     Delta-E=       -0.000002660691 Rises=F Damp=F
 DIIS: error= 8.62D-06 at cycle   6 NSaved=   6.
 NSaved= 6 IEnMin= 6 EnMin= -95.8261686317348     IErMin= 6 ErrMin= 8.62D-06
 ErrMax= 8.62D-06  0.00D+00 EMaxC= 1.00D-01 BMatC= 5.47D-09 BMatP= 3.04D-06
 IDIUse=1 WtCom= 1.00D+00 WtEn= 0.00D+00
 Coeff-Com:  0.543D-04-0.641D-03 0.282D-02 0.961D-02 0.658D-01 0.922D+00
 Coeff:      0.543D-04-0.641D-03 0.282D-02 0.961D-02 0.658D-01 0.922D+00
 Gap=     0.256 Goal=   None    Shift=    0.000
 RMSDP=2.17D-06 MaxDP=2.66D-05 DE=-2.66D-06 OVMax= 3.34D-05

 Cycle   7  Pass 1  IDiag  1:
 E= -95.8261686377109     Delta-E=       -0.000000005976 Rises=F Damp=F
 DIIS: error= 1.60D-06 at cycle   7 NSaved=   7.
 NSaved= 7 IEnMin= 7 EnMin= -95.8261686377109     IErMin= 7 ErrMin= 1.60D-06
 ErrMax= 1.60D-06  0.00D+00 EMaxC= 1.00D-01 BMatC= 1.31D-10 BMatP= 5.47D-09
 IDIUse=1 WtCom= 1.00D+00 WtEn= 0.00D+00
 Coeff-Com:  0.165D-04-0.316D-04-0.668D-03-0.110D-02-0.382D-02 0.122D+00
 Coeff-Com:  0.883D+00
 Coeff:      0.165D-04-0.316D-04-0.668D-03-0.110D-02-0.382D-02 0.122D+00
 Coeff:      0.883D+00
 Gap=     0.256 Goal=   None    Shift=    0.000
 RMSDP=2.24D-07 MaxDP=3.30D-06 DE=-5.98D-09 OVMax= 5.08D-06

 Cycle   8  Pass 1  IDiag  1:
 E= -95.8261686378531     Delta-E=       -0.000000000142 Rises=F Damp=F
 DIIS: error= 2.48D-07 at cycle   8 NSaved=   8.
 NSaved= 8 IEnMin= 8 EnMin= -95.8261686378531     IErMin= 8 ErrMin= 2.48D-07
 ErrMax= 2.48D-07  0.00D+00 EMaxC= 1.00D-01 BMatC= 3.74D-12 BMatP= 1.31D-10
 IDIUse=1 WtCom= 1.00D+00 WtEn= 0.00D+00
 Coeff-Com:  0.118D-05 0.101D-04-0.184D-03-0.382D-03-0.220D-02 0.337D-02
 Coeff-Com:  0.162D+00 0.837D+00
 Coeff:      0.118D-05 0.101D-04-0.184D-03-0.382D-03-0.220D-02 0.337D-02
 Coeff:      0.162D+00 0.837D+00
 Gap=     0.256 Goal=   None    Shift=    0.000
 RMSDP=3.85D-08 MaxDP=4.11D-07 DE=-1.42D-10 OVMax= 7.11D-07

 Cycle   9  Pass 1  IDiag  1:
 E= -95.8261686378565     Delta-E=       -0.000000000003 Rises=F Damp=F
 DIIS: error= 4.06D-08 at cycle   9 NSaved=   9.
 NSaved= 9 IEnMin= 9 EnMin= -95.8261686378565     IErMin= 9 ErrMin= 4.06D-08
 ErrMax= 4.06D-08  0.00D+00 EMaxC= 1.00D-01 BMatC= 8.73D-14 BMatP= 3.74D-12
 IDIUse=1 WtCom= 1.00D+00 WtEn= 0.00D+00
 Coeff-Com: -0.510D-06 0.243D-05-0.143D-04-0.387D-04-0.281D-03-0.236D-02
 Coeff-Com:  0.492D-02 0.144D+00 0.853D+00
 Coeff:     -0.510D-06 0.243D-05-0.143D-04-0.387D-04-0.281D-03-0.236D-02
 Coeff:      0.492D-02 0.144D+00 0.853D+00
 Gap=     0.256 Goal=   None    Shift=    0.000
 RMSDP=6.78D-09 MaxDP=7.99D-08 DE=-3.44D-12 OVMax= 9.52D-08

 Error on total polarization charges =  0.00403
 SCF Done:  E(RB3LYP) =  -95.8261686379     A.U. after    9 cycles
            NFock=  9  Conv=0.68D-08     -V/T= 2.0065
 KE= 9.520496564587D+01 PE=-3.059397689885D+02 EE= 7.335229894024D+01
 Leave Link  502 at Fri Sep 22 16:28:36 2023, MaxMem=   268435456 cpu:               9.8 elap:               4.9
 (Enter /share/apps/gaussian/g16/l601.exe)
 Copying SCF densities to generalized density rwf, IOpCl= 0 IROHF=0.

 **********************************************************************

            Population analysis using the SCF density.

 **********************************************************************

 Orbital symmetries:
       Occupied  (A) (A) (A) (A) (A) (A) (A) (A) (A)
       Virtual   (A) (A) (A) (A) (A) (A) (A) (A) (A) (A) (A) (A)
                 (A) (A) (A) (A) (A) (A) (A) (A) (A) (A) (A) (A)
                 (A) (A) (A) (A) (A) (A) (A) (A) (A) (A) (A) (A)
                 (A) (A) (A) (A) (A) (A) (A) (A)
 The electronic state is 1-A.
 Alpha  occ. eigenvalues --  -14.27268 -10.19828  -0.85414  -0.65400  -0.50931
 Alpha  occ. eigenvalues --   -0.41703  -0.40692  -0.37451  -0.21033
 Alpha virt. eigenvalues --    0.04585   0.08247   0.10011   0.12289   0.15612
 Alpha virt. eigenvalues --    0.19361   0.40884   0.44187   0.45364   0.53238
 Alpha virt. eigenvalues --    0.59946   0.61865   0.63568   0.71408   0.71742
 Alpha virt. eigenvalues --    0.80489   0.82341   0.93942   1.28482   1.32304
 Alpha virt. eigenvalues --    1.48051   1.58551   1.83508   1.83699   1.84699
 Alpha virt. eigenvalues --    1.85350   1.87257   1.95051   2.06689   2.10922
 Alpha virt. eigenvalues --    2.20481   2.30326   2.45431   2.46571   2.50470
 Alpha virt. eigenvalues --    2.70843   2.71991   2.76017   2.79426   3.03352
 Alpha virt. eigenvalues --    3.16798   3.18374   3.38628   3.58457
          Condensed to atoms (all electrons):
               1          2          3          4          5          6
     1  C    4.587975   0.313597   0.399371   0.405794   0.405383  -0.029627
     2  N    0.313597   6.545804  -0.029252  -0.048726  -0.046252   0.401905
     3  H    0.399371  -0.029252   0.607177  -0.026517  -0.025513   0.008810
     4  H    0.405794  -0.048726  -0.026517   0.617956  -0.038176  -0.002591
     5  H    0.405383  -0.046252  -0.025513  -0.038176   0.616574  -0.004269
     6  H   -0.029627   0.401905   0.008810  -0.002591  -0.004269   0.524605
     7  H   -0.031163   0.383503  -0.018392   0.005742   0.005665  -0.033079
               7
     1  C   -0.031163
     2  N    0.383503
     3  H   -0.018392
     4  H    0.005742
     5  H    0.005665
     6  H   -0.033079
     7  H    0.507480
 Mulliken charges:
               1
     1  C   -0.051331
     2  N   -0.520579
     3  H    0.084316
     4  H    0.086517
     5  H    0.086587
     6  H    0.134246
     7  H    0.180244
 Sum of Mulliken charges =   0.00000
 Mulliken charges with hydrogens summed into heavy atoms:
               1
     1  C    0.206090
     2  N   -0.206090
 Electronic spatial extent (au):  <R**2>=             96.8393
 Charge=              0.0000 electrons
 Dipole moment (field-independent basis, Debye):
    X=              0.0008    Y=              0.1968    Z=             -0.1303  Tot=              0.2361
 Quadrupole moment (field-independent basis, Debye-Ang):
   XX=            -13.5713   YY=            -11.9969   ZZ=            -15.6052
   XY=             -0.0361   XZ=              0.1343   YZ=              0.0082
 Traceless Quadrupole moment (field-independent basis, Debye-Ang):
   XX=              0.1532   YY=              1.7276   ZZ=             -1.8807
   XY=             -0.0361   XZ=              0.1343   YZ=              0.0082
 Octapole moment (field-independent basis, Debye-Ang**2):
  XXX=             -4.9537  YYY=              0.9818  ZZZ=             -0.0605  XYY=             -3.0761
  XXY=             -0.1418  XXZ=             -0.2099  XZZ=              0.8445  YZZ=             -0.5030
  YYZ=             -0.1454  XYZ=              0.0093
 Hexadecapole moment (field-independent basis, Debye-Ang**3):
 XXXX=            -76.1755 YYYY=            -23.3622 ZZZZ=            -23.6224 XXXY=              0.2725
 XXXZ=              0.2338 YYYX=              0.4835 YYYZ=             -0.0129 ZZZX=              0.1922
 ZZZY=              0.0285 XXYY=            -14.4054 XXZZ=            -17.8396 YYZZ=             -8.3794
 XXYZ=              0.0389 YYXZ=              0.0152 ZZXY=             -0.5200
 N-N= 4.155633576449D+01 E-N=-3.059397683303D+02  KE= 9.520496564587D+01
 There are a total of      155404 grid points.
 ElSum from          density=       17.9999968682
 ElSum from atomic densities=       17.9999965237
 Hirshfeld populations at iteration   1 (CA, CB, DipXYZ):
               1          2          3          4          5
     1  C    3.015927   3.015927  -0.026407  -0.019475  -0.001446
     2  N    3.618496   3.618496   0.047269  -0.016654  -0.021060
     3  H    0.482412   0.482412   0.015836   0.139047  -0.004949
     4  H    0.489284   0.489284   0.046782  -0.053207   0.111222
     5  H    0.488475   0.488475   0.046790  -0.063297  -0.106884
     6  H    0.455882   0.455882  -0.089677  -0.177804  -0.007090
     7  H    0.449523   0.449523  -0.066795   0.187346  -0.005738
       Tot   8.999998   8.999998  -0.026202  -0.004045  -0.035943

 Dip from Atomic Chgs              0.026528   0.081490  -0.015318
         Total Dipole              0.000326   0.077444  -0.051261

 Hirshfeld charges, spin densities, dipoles, and CM5 charges using IRadAn=      5:
              Q-H        S-H        Dx         Dy         Dz        Q-CM5   
     1  C   -0.031853   0.000000  -0.026407  -0.019475  -0.001446  -0.123579
     2  N   -0.236993   0.000000   0.047269  -0.016654  -0.021060  -0.718803
     3  H    0.035176   0.000000   0.015836   0.139047  -0.004949   0.092665
     4  H    0.021432   0.000000   0.046782  -0.053207   0.111222   0.078209
     5  H    0.023050   0.000000   0.046790  -0.063297  -0.106884   0.079799
     6  H    0.088237   0.000000  -0.089677  -0.177804  -0.007090   0.313745
     7  H    0.100953   0.000000  -0.066795   0.187346  -0.005738   0.277966
       Tot   0.000003   0.000000  -0.026202  -0.004045  -0.035943   0.000003
 Hirshfeld charges with hydrogens summed into heavy atoms:
              Q-H       Q-CM5   
     1  C    0.047806   0.127095
     2  N   -0.047803  -0.127092
 
 EQQ= 0.000000000000E+00 EQD= 0.000000000000E+00 EDD=-0.237897530063E-02
 EQQ+QD+DD=-0.237897530063E-02
 
 No NMR shielding tensors so no spin-rotation constants.
 Leave Link  601 at Fri Sep 22 16:28:36 2023, MaxMem=   268435456 cpu:               0.8 elap:               0.4
 (Enter /share/apps/gaussian/g16/l9999.exe)
 1\1\GINC-NODE99\SP\RB3LYP\Gen\C1H5N1\YANZ\22-Sep-2023\0\\#p b3lyp/gen 
 scrf=(cpcm,solvent=toluene) pop=hirshfeld empiricaldispersion=gd3bj\\t
 mpdir/M2_ref_153.gjf\\0,1\C,0,4.827158,0.960475,-1.32507205\N,0,4.6762
 74,-0.327336,-0.57444602\H,0,5.78544408,1.37027121,-0.89610295\H,0,4.9
 4847767,0.74552719,-2.40633472\H,0,3.98042348,1.63715277,-1.09928181\H
 ,0,3.91635538,-0.85740778,-0.6873795\H,0,5.44761621,-0.49095967,0.0933
 0604\\Version=ES64L-G16RevA.03\State=1-A\HF=-95.8261686\RMSD=6.779e-09
 \Dipole=0.0422721,0.0391238,0.0728503\Quadrupole=0.6467969,-0.2994293,
 -0.3473676,0.5554229,0.9811072,-0.4839832\PG=C01 [X(C1H5N1)]\\@


 MODELS ARE TO BE USED, NOT BELIEVED.

    -- PARAPHRASED BY H. THIEL IN "PRINCIPLES OF ECONOMETRICS"
 Job cpu time:       0 days  0 hours  0 minutes 12.6 seconds.
 Elapsed time:       0 days  0 hours  0 minutes  6.4 seconds.
 File lengths (MBytes):  RWF=     10 Int=      0 D2E=      0 Chk=      1 Scr=      1
 Normal termination of Gaussian 16 at Fri Sep 22 16:28:36 2023.
