 Entering Gaussian System, Link 0=g16
 Initial command:
 /share/apps/gaussian/g16/l1.exe "/tmp/55556.mgr/Gau-80030.inp" -scrdir="/tmp/55556.mgr/"
 Entering Link 1 = /share/apps/gaussian/g16/l1.exe PID=     80031.
  
 Copyright (c) 1988,1990,1992,1993,1995,1998,2003,2009,2016,
            Gaussian, Inc.  All Rights Reserved.
  
 This is part of the Gaussian(R) 16 program.  It is based on
 the Gaussian(R) 09 system (copyright 2009, Gaussian, Inc.),
 the Gaussian(R) 03 system (copyright 2003, Gaussian, Inc.),
 the Gaussian(R) 98 system (copyright 1998, Gaussian, Inc.),
 the Gaussian(R) 94 system (copyright 1995, Gaussian, Inc.),
 the Gaussian 92(TM) system (copyright 1992, Gaussian, Inc.),
 the Gaussian 90(TM) system (copyright 1990, Gaussian, Inc.),
 the Gaussian 88(TM) system (copyright 1988, Gaussian, Inc.),
 the Gaussian 86(TM) system (copyright 1986, Carnegie Mellon
 University), and the Gaussian 82(TM) system (copyright 1983,
 Carnegie Mellon University). Gaussian is a federally registered
 trademark of Gaussian, Inc.
  
 This software contains proprietary and confidential information,
 including trade secrets, belonging to Gaussian, Inc.
  
 This software is provided under written license and may be
 used, copied, transmitted, or stored only in accord with that
 written license.
  
 The following legend is applicable only to US Government
 contracts under FAR:
  
                    RESTRICTED RIGHTS LEGEND
  
 Use, reproduction and disclosure by the US Government is
 subject to restrictions as set forth in subparagraphs (a)
 and (c) of the Commercial Computer Software - Restricted
 Rights clause in FAR 52.227-19.
  
 Gaussian, Inc.
 340 Quinnipiac St., Bldg. 40, Wallingford CT 06492
  
  
 ---------------------------------------------------------------
 Warning -- This program may not be used in any manner that
 competes with the business of Gaussian, Inc. or will provide
 assistance to any competitor of Gaussian, Inc.  The licensee
 of this program is prohibited from giving any competitor of
 Gaussian, Inc. access to this program.  By using this program,
 the user acknowledges that Gaussian, Inc. is engaged in the
 business of creating and licensing software in the field of
 computational chemistry and represents and warrants to the
 licensee that it is not a competitor of Gaussian, Inc. and that
 it will not use this program in any manner prohibited above.
 ---------------------------------------------------------------
  

 Cite this work as:
 Gaussian 16, Revision A.03,
 M. J. Frisch, G. W. Trucks, H. B. Schlegel, G. E. Scuseria, 
 M. A. Robb, J. R. Cheeseman, G. Scalmani, V. Barone, 
 G. A. Petersson, H. Nakatsuji, X. Li, M. Caricato, A. V. Marenich, 
 J. Bloino, B. G. Janesko, R. Gomperts, B. Mennucci, H. P. Hratchian, 
 J. V. Ortiz, A. F. Izmaylov, J. L. Sonnenberg, D. Williams-Young, 
 F. Ding, F. Lipparini, F. Egidi, J. Goings, B. Peng, A. Petrone, 
 T. Henderson, D. Ranasinghe, V. G. Zakrzewski, J. Gao, N. Rega, 
 G. Zheng, W. Liang, M. Hada, M. Ehara, K. Toyota, R. Fukuda, 
 J. Hasegawa, M. Ishida, T. Nakajima, Y. Honda, O. Kitao, H. Nakai, 
 T. Vreven, K. Throssell, J. A. Montgomery, Jr., J. E. Peralta, 
 F. Ogliaro, M. J. Bearpark, J. J. Heyd, E. N. Brothers, K. N. Kudin, 
 V. N. Staroverov, T. A. Keith, R. Kobayashi, J. Normand, 
 K. Raghavachari, A. P. Rendell, J. C. Burant, S. S. Iyengar, 
 J. Tomasi, M. Cossi, J. M. Millam, M. Klene, C. Adamo, R. Cammi, 
 J. W. Ochterski, R. L. Martin, K. Morokuma, O. Farkas, 
 J. B. Foresman, and D. J. Fox, Gaussian, Inc., Wallingford CT, 2016.
 
 ******************************************
 Gaussian 16:  ES64L-G16RevA.03 25-Dec-2016
                22-Sep-2023 
 ******************************************
 %nprocshared=2
 Will use up to    2 processors via shared memory.
 %mem=2GB
 ----------------------------------------------------------------------
 #p b3lyp/gen scrf=(cpcm,solvent=toluene) pop=hirshfeld empiricaldisper
 sion=gd3bj
 ----------------------------------------------------------------------
 1/38=1,172=1/1;
 2/12=2,17=6,18=5,40=1/2;
 3/5=7,11=2,25=1,30=1,70=2101,72=13,74=-5,124=41/1,2,3;
 4//1;
 5/5=2,38=5,53=13/2;
 6/7=2,8=2,9=2,10=2,28=1,79=1/1;
 99/5=1,9=1/99;
 Leave Link    1 at Fri Sep 22 16:29:00 2023, MaxMem=   268435456 cpu:               0.1 elap:               0.0
 (Enter /share/apps/gaussian/g16/l101.exe)
 ---------------------
 tmpdir/M2_ref_207.gjf
 ---------------------
 Symbolic Z-matrix:
 Charge =  0 Multiplicity = 1
 C                     3.14336   2.7375   -1.97405 
 H                     3.50567   2.70149  -2.99779 
 H                     3.5155    2.12781  -1.27847 
 O                     2.24542   3.56763  -1.70889 
 
 ITRead=  0  0  0  0
 MicOpt= -1 -1 -1 -1
 NAtoms=      4 NQM=        4 NQMF=       0 NMMI=      0 NMMIF=      0
                NMic=       0 NMicF=      0.
                    Isotopes and Nuclear Properties:
 (Nuclear quadrupole moments (NQMom) in fm**2, nuclear magnetic moments (NMagM)
  in nuclear magnetons)

  Atom         1           2           3           4
 IAtWgt=          12           1           1          16
 AtmWgt=  12.0000000   1.0078250   1.0078250  15.9949146
 NucSpn=           0           1           1           0
 AtZEff=  -0.0000000  -0.0000000  -0.0000000  -0.0000000
 NQMom=    0.0000000   0.0000000   0.0000000   0.0000000
 NMagM=    0.0000000   2.7928460   2.7928460   0.0000000
 AtZNuc=   6.0000000   1.0000000   1.0000000   8.0000000
 Leave Link  101 at Fri Sep 22 16:29:00 2023, MaxMem=   268435456 cpu:               0.2 elap:               0.1
 (Enter /share/apps/gaussian/g16/l202.exe)
                          Input orientation:                          
 ---------------------------------------------------------------------
 Center     Atomic      Atomic             Coordinates (Angstroms)
 Number     Number       Type             X           Y           Z
 ---------------------------------------------------------------------
      1          6           0        3.143360    2.737497   -1.974051
      2          1           0        3.505671    2.701494   -2.997790
      3          1           0        3.515503    2.127813   -1.278474
      4          8           0        2.245424    3.567633   -1.708890
 ---------------------------------------------------------------------
                    Distance matrix (angstroms):
                    1          2          3          4
     1  C    0.000000
     2  H    1.086558   0.000000
     3  H    0.997012   1.812527   0.000000
     4  O    1.251289   1.999920   1.967597   0.000000
 Stoichiometry    CH2O
 Framework group  C1[X(CH2O)]
 Deg. of freedom     6
 Full point group                 C1      NOp   1
 Largest Abelian subgroup         C1      NOp   1
 Largest concise Abelian subgroup C1      NOp   1
                         Standard orientation:                         
 ---------------------------------------------------------------------
 Center     Atomic      Atomic             Coordinates (Angstroms)
 Number     Number       Type             X           Y           Z
 ---------------------------------------------------------------------
      1          6           0       -0.561392   -0.016406   -0.000297
      2          1           0       -1.077858    0.939559    0.000592
      3          1           0       -1.071638   -0.872957    0.000673
      4          8           0        0.689731    0.003979    0.000065
 ---------------------------------------------------------------------
 Rotational constants (GHZ):         304.3570513          37.2453015          33.1844106
 Leave Link  202 at Fri Sep 22 16:29:00 2023, MaxMem=   268435456 cpu:               0.0 elap:               0.0
 (Enter /share/apps/gaussian/g16/l301.exe)
 General basis read from cards:  (5D, 7F)
 Centers:       2      3
 S 3 1.00
     Exponent=  1.2251800000D+01 Coefficients=  2.3337100000D-02
     Exponent=  1.8687100000D+00 Coefficients=  1.5915000000D-01
     Exponent=  4.1820800000D-01 Coefficients=  5.0000000000D-01
 S 1 1.00
     Exponent=  1.0610000000D-01 Coefficients=  1.0000000000D+00
 P 1 1.00
     Exponent=  1.0000000000D+00 Coefficients=  1.0000000000D+00
 ****
 Centers:       1
 S 5 1.00
     Exponent=  1.2432000000D+03 Coefficients=  6.0336600000D-03
     Exponent=  1.8714500000D+02 Coefficients=  4.4957600000D-02
     Exponent=  4.2512600000D+01 Coefficients=  1.9790100000D-01
     Exponent=  1.1739300000D+01 Coefficients=  5.0000000000D-01
     Exponent=  3.5054800000D+00 Coefficients=  4.8036400000D-01
 S 2 1.00
     Exponent=  5.3908900000D+00 Coefficients= -7.0398000000D-02
     Exponent=  4.9334100000D-01 Coefficients=  5.0000000000D-01
 S 1 1.00
     Exponent=  1.4974100000D-01 Coefficients=  1.0000000000D+00
 P 3 1.00
     Exponent=  9.1805600000D+00 Coefficients=  4.3170100000D-02
     Exponent=  1.9365800000D+00 Coefficients=  2.2499900000D-01
     Exponent=  5.2629600000D-01 Coefficients=  5.0000000000D-01
 P 1 1.00
     Exponent=  1.3631900000D-01 Coefficients=  1.0000000000D+00
 D 1 1.00
     Exponent=  8.0000000000D-01 Coefficients=  1.0000000000D+00
 ****
 Centers:       4
 S 5 1.00
     Exponent=  2.2886400000D+03 Coefficients=  5.8546800000D-03
     Exponent=  3.4441600000D+02 Coefficients=  4.3733300000D-02
     Exponent=  7.8253800000D+01 Coefficients=  1.9479600000D-01
     Exponent=  2.1719500000D+01 Coefficients=  5.0000000000D-01
     Exponent=  6.5590700000D+00 Coefficients=  4.8461400000D-01
 S 2 1.00
     Exponent=  1.0465600000D+01 Coefficients= -7.1334300000D-02
     Exponent=  9.6435100000D-01 Coefficients=  5.0000000000D-01
 S 1 1.00
     Exponent=  2.8512700000D-01 Coefficients=  1.0000000000D+00
 P 3 1.00
     Exponent=  1.7059000000D+01 Coefficients=  4.7443900000D-02
     Exponent=  3.6899900000D+00 Coefficients=  2.4268900000D-01
     Exponent=  9.9299600000D-01 Coefficients=  5.0000000000D-01
 P 1 1.00
     Exponent=  2.4492400000D-01 Coefficients=  1.0000000000D+00
 D 1 1.00
     Exponent=  1.0000000000D+00 Coefficients=  1.0000000000D+00
 ****
 Ernie: Thresh=  0.10000D-02 Tol=  0.10000D-05 Strict=F.
 There are    40 symmetry adapted cartesian basis functions of A   symmetry.
 There are    38 symmetry adapted basis functions of A   symmetry.
    38 basis functions,    66 primitive gaussians,    40 cartesian basis functions
     8 alpha electrons        8 beta electrons
       nuclear repulsion energy        30.9664996050 Hartrees.
 IExCor=  402 DFT=T Ex+Corr=B3LYP ExCW=0 ScaHFX=  0.200000
 ScaDFX=  0.800000  0.720000  1.000000  0.810000 ScalE2=  1.000000  1.000000
 IRadAn=      5 IRanWt=     -1 IRanGd=            0 ICorTp=0 IEmpDi=141
 NAtoms=    4 NActive=    4 NUniq=    4 SFac= 1.00D+00 NAtFMM=   60 NAOKFM=F Big=F
 Integral buffers will be    131072 words long.
 Raffenetti 2 integral format.
 Two-electron integral symmetry is turned on.
 R6Disp:  Grimme-D3(BJ) Dispersion energy=       -0.0018370282 Hartrees.
 Nuclear repulsion after empirical dispersion term =       30.9646625769 Hartrees.
 ------------------------------------------------------------------------------
 Polarizable Continuum Model (PCM)
 =================================
 Model                : C-PCM.
 Atomic radii         : UFF (Universal Force Field).
 Polarization charges : Total charges.
 Charge compensation  : None.
 Solution method      : On-the-fly selection.
 Cavity type          : Scaled VdW (van der Waals Surface) (Alpha=1.100).
 Cavity algorithm     : GePol (No added spheres)
                        Default sphere list used, NSphG=    4.
                        Lebedev-Laikov grids with approx.  5.0 points / Ang**2.
                        Smoothing algorithm: York/Karplus (Gamma=1.0000).
                        Polarization charges: spherical gaussians, with
                                              point-specific exponents (IZeta= 3).
                        Self-potential: point-specific (ISelfS= 7).
                        Self-field    : sphere-specific E.n sum rule (ISelfD= 2).
 Solvent              : Toluene, Eps=   2.374100 Eps(inf)=   2.238315
 ------------------------------------------------------------------------------
 Spheres list:
 ISph  on   Nord     Re0    Alpha      Xe            Ye            Ze
    1   C      1    1.9255  1.100     -0.561392     -0.016406     -0.000297
    2   H      2    1.4430  1.100     -1.077858      0.939559      0.000592
    3   H      3    1.4430  1.100     -1.071638     -0.872957      0.000673
    4   O      4    1.7500  1.100      0.689731      0.003979      0.000065
 ------------------------------------------------------------------------------
 GePol: Number of generator spheres                  =       4
 GePol: Total number of spheres                      =       4
 GePol: Number of exposed spheres                    =       4 (100.00%)
 GePol: Number of points                             =     525
 GePol: Average weight of points                     =       0.14
 GePol: Minimum weight of points                     =   0.36D-07
 GePol: Maximum weight of points                     =    0.20577
 GePol: Number of points with low weight             =      17
 GePol: Fraction of low-weight points (<1% of avg)   =       3.24%
 GePol: Cavity surface area                          =     73.683 Ang**2
 GePol: Cavity volume                                =     55.965 Ang**3
 Leave Link  301 at Fri Sep 22 16:29:01 2023, MaxMem=   268435456 cpu:               0.3 elap:               0.1
 (Enter /share/apps/gaussian/g16/l302.exe)
 NPDir=0 NMtPBC=     1 NCelOv=     1 NCel=       1 NClECP=     1 NCelD=      1
         NCelK=      1 NCelE2=     1 NClLst=     1 CellRange=     0.0.
 One-electron integrals computed using PRISM.
 One-electron integral symmetry used in STVInt
 NBasis=    38 RedAO= T EigKep=  2.26D-02  NBF=    38
 NBsUse=    38 1.00D-06 EigRej= -1.00D+00 NBFU=    38
 Precomputing XC quadrature grid using
 IXCGrd= 4 IRadAn=           5 IRanWt=          -1 IRanGd=           0 AccXCQ= 0.00D+00.
 Generated NRdTot=       0 NPtTot=           0 NUsed=           0 NTot=          32
 NSgBfM=    40    40    40    40    40 MxSgAt=     4 MxSgA2=     4.
 Leave Link  302 at Fri Sep 22 16:29:01 2023, MaxMem=   268435456 cpu:               0.3 elap:               0.2
 (Enter /share/apps/gaussian/g16/l303.exe)
 DipDrv:  MaxL=1.
 Leave Link  303 at Fri Sep 22 16:29:01 2023, MaxMem=   268435456 cpu:               0.1 elap:               0.1
 (Enter /share/apps/gaussian/g16/l401.exe)
 ExpMin= 1.06D-01 ExpMax= 2.29D+03 ExpMxC= 3.44D+02 IAcc=3 IRadAn=         5 AccDes= 0.00D+00
 Harris functional with IExCor=  402 and IRadAn=       5 diagonalized for initial guess.
 HarFok:  IExCor=  402 AccDes= 0.00D+00 IRadAn=         5 IDoV= 1 UseB2=F ITyADJ=14
 ICtDFT=  3500011 ScaDFX=  1.000000  1.000000  1.000000  1.000000
 FoFCou: FMM=F IPFlag=           0 FMFlag=      100000 FMFlg1=           0
         NFxFlg=           0 DoJE=T BraDBF=F KetDBF=T FulRan=T
         wScrn=  0.000000 ICntrl=       500 IOpCl=  0 I1Cent=   200000004 NGrid=           0
         NMat0=    1 NMatS0=      1 NMatT0=    0 NMatD0=    1 NMtDS0=    0 NMtDT0=    0
 Petite list used in FoFCou.
 Harris En= -114.486562252399    
 JPrj=0 DoOrth=F DoCkMO=F.
 Leave Link  401 at Fri Sep 22 16:29:01 2023, MaxMem=   268435456 cpu:               0.6 elap:               0.3
 (Enter /share/apps/gaussian/g16/l502.exe)
 Keep R1 ints in memory in canonical form, NReq=2001317.
 FoFCou: FMM=F IPFlag=           0 FMFlag=           0 FMFlg1=           0
         NFxFlg=           0 DoJE=F BraDBF=F KetDBF=F FulRan=T
         wScrn=  0.000000 ICntrl=       600 IOpCl=  0 I1Cent=           0 NGrid=           0
         NMat0=    1 NMatS0=    741 NMatT0=    0 NMatD0=    1 NMtDS0=    0 NMtDT0=    0
 Symmetry not used in FoFCou.
 Two-electron integral symmetry not used.
 Closed shell SCF:
 Using DIIS extrapolation, IDIIS=  1040.
 NGot=   268435456 LenX=   268156521 LenY=   268154480
 Requested convergence on RMS density matrix=1.00D-08 within 128 cycles.
 Requested convergence on MAX density matrix=1.00D-06.
 Requested convergence on             energy=1.00D-06.
 No special actions if energy rises.

 Cycle   1  Pass 1  IDiag  1:
 Inv3:  Mode=1 IEnd=      826875.
 Iteration    1 A*A^-1 deviation from unit magnitude is 2.22D-15 for     51.
 Iteration    1 A*A^-1 deviation from orthogonality  is 1.04D-15 for    393      6.
 Iteration    1 A^-1*A deviation from unit magnitude is 2.22D-15 for     51.
 Iteration    1 A^-1*A deviation from orthogonality  is 1.06D-15 for    516    216.
 E= -114.434464525323    
 DIIS: error= 3.66D-02 at cycle   1 NSaved=   1.
 NSaved= 1 IEnMin= 1 EnMin= -114.434464525323     IErMin= 1 ErrMin= 3.66D-02
 ErrMax= 3.66D-02  0.00D+00 EMaxC= 1.00D-01 BMatC= 5.08D-02 BMatP= 5.08D-02
 IDIUse=3 WtCom= 6.34D-01 WtEn= 3.66D-01
 Coeff-Com:  0.100D+01
 Coeff-En:   0.100D+01
 Coeff:      0.100D+01
 Gap=     0.160 Goal=   None    Shift=    0.000
 GapD=    0.160 DampG=1.000 DampE=0.500 DampFc=0.5000 IDamp=-1.
 Damping current iteration by 5.00D-01
 RMSDP=1.22D-02 MaxDP=1.65D-01              OVMax= 2.41D-01

 Cycle   2  Pass 1  IDiag  1:
 E= -114.438490813050     Delta-E=       -0.004026287727 Rises=F Damp=T
 DIIS: error= 1.47D-02 at cycle   2 NSaved=   2.
 NSaved= 2 IEnMin= 2 EnMin= -114.438490813050     IErMin= 2 ErrMin= 1.47D-02
 ErrMax= 1.47D-02  0.00D+00 EMaxC= 1.00D-01 BMatC= 1.36D-02 BMatP= 5.08D-02
 IDIUse=3 WtCom= 8.53D-01 WtEn= 1.47D-01
 Coeff-Com:  0.313D+00 0.687D+00
 Coeff-En:   0.460D+00 0.540D+00
 Coeff:      0.334D+00 0.666D+00
 Gap=     0.212 Goal=   None    Shift=    0.000
 RMSDP=3.11D-03 MaxDP=3.66D-02 DE=-4.03D-03 OVMax= 1.83D-01

 Cycle   3  Pass 1  IDiag  1:
 E= -114.474113966092     Delta-E=       -0.035623153042 Rises=F Damp=F
 DIIS: error= 8.85D-03 at cycle   3 NSaved=   3.
 NSaved= 3 IEnMin= 3 EnMin= -114.474113966092     IErMin= 3 ErrMin= 8.85D-03
 ErrMax= 8.85D-03  0.00D+00 EMaxC= 1.00D-01 BMatC= 2.84D-03 BMatP= 1.36D-02
 IDIUse=3 WtCom= 9.12D-01 WtEn= 8.85D-02
 Coeff-Com:  0.997D-01 0.335D+00 0.566D+00
 Coeff-En:   0.000D+00 0.000D+00 0.100D+01
 Coeff:      0.908D-01 0.305D+00 0.604D+00
 Gap=     0.210 Goal=   None    Shift=    0.000
 RMSDP=1.34D-03 MaxDP=1.84D-02 DE=-3.56D-02 OVMax= 2.96D-02

 Cycle   4  Pass 1  IDiag  1:
 E= -114.476815710464     Delta-E=       -0.002701744372 Rises=F Damp=F
 DIIS: error= 2.89D-03 at cycle   4 NSaved=   4.
 NSaved= 4 IEnMin= 4 EnMin= -114.476815710464     IErMin= 4 ErrMin= 2.89D-03
 ErrMax= 2.89D-03  0.00D+00 EMaxC= 1.00D-01 BMatC= 2.55D-04 BMatP= 2.84D-03
 IDIUse=3 WtCom= 9.71D-01 WtEn= 2.89D-02
 Coeff-Com:  0.175D-01 0.175D-01 0.225D+00 0.740D+00
 Coeff-En:   0.000D+00 0.000D+00 0.000D+00 0.100D+01
 Coeff:      0.170D-01 0.170D-01 0.218D+00 0.748D+00
 Gap=     0.213 Goal=   None    Shift=    0.000
 RMSDP=2.72D-04 MaxDP=3.68D-03 DE=-2.70D-03 OVMax= 5.44D-03

 Cycle   5  Pass 1  IDiag  1:
 E= -114.477034066531     Delta-E=       -0.000218356067 Rises=F Damp=F
 DIIS: error= 1.68D-04 at cycle   5 NSaved=   5.
 NSaved= 5 IEnMin= 5 EnMin= -114.477034066531     IErMin= 5 ErrMin= 1.68D-04
 ErrMax= 1.68D-04  0.00D+00 EMaxC= 1.00D-01 BMatC= 1.28D-06 BMatP= 2.55D-04
 IDIUse=3 WtCom= 9.98D-01 WtEn= 1.68D-03
 Coeff-Com:  0.233D-02-0.744D-02 0.292D-01 0.143D+00 0.832D+00
 Coeff-En:   0.000D+00 0.000D+00 0.000D+00 0.000D+00 0.100D+01
 Coeff:      0.232D-02-0.743D-02 0.291D-01 0.143D+00 0.833D+00
 Gap=     0.213 Goal=   None    Shift=    0.000
 RMSDP=2.36D-05 MaxDP=1.85D-04 DE=-2.18D-04 OVMax= 2.50D-04

 Cycle   6  Pass 1  IDiag  1:
 E= -114.477035059992     Delta-E=       -0.000000993461 Rises=F Damp=F
 DIIS: error= 3.70D-05 at cycle   6 NSaved=   6.
 NSaved= 6 IEnMin= 6 EnMin= -114.477035059992     IErMin= 6 ErrMin= 3.70D-05
 ErrMax= 3.70D-05  0.00D+00 EMaxC= 1.00D-01 BMatC= 5.34D-08 BMatP= 1.28D-06
 IDIUse=1 WtCom= 1.00D+00 WtEn= 0.00D+00
 Coeff-Com:  0.406D-03-0.130D-02 0.114D-02 0.165D-02 0.355D-01 0.963D+00
 Coeff:      0.406D-03-0.130D-02 0.114D-02 0.165D-02 0.355D-01 0.963D+00
 Gap=     0.213 Goal=   None    Shift=    0.000
 RMSDP=5.37D-06 MaxDP=5.18D-05 DE=-9.93D-07 OVMax= 6.86D-05

 Cycle   7  Pass 1  IDiag  1:
 E= -114.477035102981     Delta-E=       -0.000000042990 Rises=F Damp=F
 DIIS: error= 1.86D-06 at cycle   7 NSaved=   7.
 NSaved= 7 IEnMin= 7 EnMin= -114.477035102981     IErMin= 7 ErrMin= 1.86D-06
 ErrMax= 1.86D-06  0.00D+00 EMaxC= 1.00D-01 BMatC= 2.65D-10 BMatP= 5.34D-08
 IDIUse=1 WtCom= 1.00D+00 WtEn= 0.00D+00
 Coeff-Com: -0.123D-05 0.342D-04-0.206D-03-0.184D-02-0.124D-01 0.201D-01
 Coeff-Com:  0.994D+00
 Coeff:     -0.123D-05 0.342D-04-0.206D-03-0.184D-02-0.124D-01 0.201D-01
 Coeff:      0.994D+00
 Gap=     0.213 Goal=   None    Shift=    0.000
 RMSDP=3.77D-07 MaxDP=3.56D-06 DE=-4.30D-08 OVMax= 3.61D-06

 Cycle   8  Pass 1  IDiag  1:
 E= -114.477035103184     Delta-E=       -0.000000000203 Rises=F Damp=F
 DIIS: error= 4.30D-07 at cycle   8 NSaved=   8.
 NSaved= 8 IEnMin= 8 EnMin= -114.477035103184     IErMin= 8 ErrMin= 4.30D-07
 ErrMax= 4.30D-07  0.00D+00 EMaxC= 1.00D-01 BMatC= 6.78D-12 BMatP= 2.65D-10
 IDIUse=1 WtCom= 1.00D+00 WtEn= 0.00D+00
 Coeff-Com:  0.712D-07 0.620D-05-0.560D-05-0.139D-03-0.102D-02-0.776D-02
 Coeff-Com:  0.616D-01 0.947D+00
 Coeff:      0.712D-07 0.620D-05-0.560D-05-0.139D-03-0.102D-02-0.776D-02
 Coeff:      0.616D-01 0.947D+00
 Gap=     0.213 Goal=   None    Shift=    0.000
 RMSDP=5.59D-08 MaxDP=4.68D-07 DE=-2.03D-10 OVMax= 6.49D-07

 Cycle   9  Pass 1  IDiag  1:
 E= -114.477035103190     Delta-E=       -0.000000000005 Rises=F Damp=F
 DIIS: error= 3.36D-08 at cycle   9 NSaved=   9.
 NSaved= 9 IEnMin= 9 EnMin= -114.477035103190     IErMin= 9 ErrMin= 3.36D-08
 ErrMax= 3.36D-08  0.00D+00 EMaxC= 1.00D-01 BMatC= 5.81D-14 BMatP= 6.78D-12
 IDIUse=1 WtCom= 1.00D+00 WtEn= 0.00D+00
 Coeff-Com:  0.218D-06-0.742D-06 0.388D-05 0.171D-04 0.145D-03-0.891D-03
 Coeff-Com: -0.104D-01 0.412D-01 0.970D+00
 Coeff:      0.218D-06-0.742D-06 0.388D-05 0.171D-04 0.145D-03-0.891D-03
 Coeff:     -0.104D-01 0.412D-01 0.970D+00
 Gap=     0.213 Goal=   None    Shift=    0.000
 RMSDP=4.64D-09 MaxDP=5.45D-08 DE=-5.09D-12 OVMax= 6.53D-08

 Error on total polarization charges =  0.00263
 SCF Done:  E(RB3LYP) =  -114.477035103     A.U. after    9 cycles
            NFock=  9  Conv=0.46D-08     -V/T= 2.0037
 KE= 1.140545155404D+02 PE=-3.309143335751D+02 EE= 7.141812035468D+01
 Leave Link  502 at Fri Sep 22 16:29:04 2023, MaxMem=   268435456 cpu:               4.9 elap:               2.4
 (Enter /share/apps/gaussian/g16/l601.exe)
 Copying SCF densities to generalized density rwf, IOpCl= 0 IROHF=0.

 **********************************************************************

            Population analysis using the SCF density.

 **********************************************************************

 Orbital symmetries:
       Occupied  (A) (A) (A) (A) (A) (A) (A) (A)
       Virtual   (A) (A) (A) (A) (A) (A) (A) (A) (A) (A) (A) (A)
                 (A) (A) (A) (A) (A) (A) (A) (A) (A) (A) (A) (A)
                 (A) (A) (A) (A) (A) (A)
 The electronic state is 1-A.
 Alpha  occ. eigenvalues --  -19.13997 -10.27296  -1.04483  -0.65993  -0.51186
 Alpha  occ. eigenvalues --   -0.44868  -0.39175  -0.27598
 Alpha virt. eigenvalues --   -0.06309   0.06631   0.11761   0.17557   0.40516
 Alpha virt. eigenvalues --    0.47458   0.52854   0.57305   0.62779   0.73215
 Alpha virt. eigenvalues --    0.79236   0.87559   0.97862   1.31974   1.49602
 Alpha virt. eigenvalues --    1.59654   1.74996   1.80719   1.94077   1.98019
 Alpha virt. eigenvalues --    2.12421   2.15167   2.26303   2.53011   2.67757
 Alpha virt. eigenvalues --    2.77241   2.77526   3.10647   3.29805   3.49151
          Condensed to atoms (all electrons):
               1          2          3          4
     1  C    4.397483   0.392121   0.400096   0.571330
     2  H    0.392121   0.654066  -0.075227  -0.056966
     3  H    0.400096  -0.075227   0.654013  -0.046480
     4  O    0.571330  -0.056966  -0.046480   7.924690
 Mulliken charges:
               1
     1  C    0.238970
     2  H    0.086006
     3  H    0.067598
     4  O   -0.392574
 Sum of Mulliken charges =   0.00000
 Mulliken charges with hydrogens summed into heavy atoms:
               1
     1  C    0.392574
     4  O   -0.392574
 Electronic spatial extent (au):  <R**2>=             60.4715
 Charge=              0.0000 electrons
 Dipole moment (field-independent basis, Debye):
    X=             -2.9265    Y=             -0.1054    Z=              0.0002  Tot=              2.9284
 Quadrupole moment (field-independent basis, Debye-Ang):
   XX=            -11.9751   YY=            -11.4228   ZZ=            -11.5704
   XY=              0.1129   XZ=             -0.0006   YZ=              0.0001
 Traceless Quadrupole moment (field-independent basis, Debye-Ang):
   XX=             -0.3190   YY=              0.2333   ZZ=              0.0856
   XY=              0.1129   XZ=             -0.0006   YZ=              0.0001
 Octapole moment (field-independent basis, Debye-Ang**2):
  XXX=             -0.6660  YYY=             -0.1857  ZZZ=              0.0010  XYY=             -0.7274
  XXY=             -0.1754  XXZ=              0.0015  XZZ=              0.4079  YZZ=             -0.1136
  YYZ=              0.0015  XYZ=             -0.0000
 Hexadecapole moment (field-independent basis, Debye-Ang**3):
 XXXX=            -44.7250 YYYY=            -16.8987 ZZZZ=            -10.0805 XXXY=              0.4542
 XXXZ=             -0.0018 YYYX=              0.2213 YYYZ=              0.0000 ZZZX=             -0.0002
 ZZZY=             -0.0000 XXYY=             -9.9363 XXZZ=             -9.0909 YYZZ=             -4.7533
 XXYZ=              0.0001 YYXZ=             -0.0015 ZZXY=              0.1340
 N-N= 3.096466257686D+01 E-N=-3.309143337745D+02  KE= 1.140545155404D+02
 There are a total of       88026 grid points.
 ElSum from          density=       15.9999999998
 ElSum from atomic densities=       15.9999998583
 Hirshfeld populations at iteration   1 (CA, CB, DipXYZ):
               1          2          3          4          5
     1  C    2.930358   2.930358  -0.117049  -0.021391  -0.000381
     2  H    0.473407   0.473407  -0.076511   0.110233   0.000184
     3  H    0.469959   0.469959  -0.090020  -0.118372   0.000198
     4  O    4.126276   4.126276  -0.160860  -0.001035   0.000059
       Tot   8.000000   8.000000  -0.444439  -0.030564   0.000060

 Dip from Atomic Chgs             -0.706943  -0.010898   0.000027
         Total Dipole             -1.151382  -0.041462   0.000086

 Hirshfeld charges, spin densities, dipoles, and CM5 charges using IRadAn=      5:
              Q-H        S-H        Dx         Dy         Dz        Q-CM5   
     1  C    0.139283   0.000000  -0.117049  -0.021391  -0.000381   0.063943
     2  H    0.053187   0.000000  -0.076511   0.110233   0.000184   0.114126
     3  H    0.060082   0.000000  -0.090020  -0.118372   0.000198   0.134032
     4  O   -0.252551   0.000000  -0.160860  -0.001035   0.000059  -0.312101
       Tot   0.000000   0.000000  -0.444439  -0.030564   0.000060   0.000000
 Hirshfeld charges with hydrogens summed into heavy atoms:
              Q-H       Q-CM5   
     1  C    0.252551   0.312101
     4  O   -0.252551  -0.312101
 
 EQQ= 0.000000000000E+00 EQD= 0.000000000000E+00 EDD= 0.449859875528E-02
 EQQ+QD+DD= 0.449859875528E-02
 
 No NMR shielding tensors so no spin-rotation constants.
 Leave Link  601 at Fri Sep 22 16:29:04 2023, MaxMem=   268435456 cpu:               0.4 elap:               0.2
 (Enter /share/apps/gaussian/g16/l9999.exe)
 1\1\GINC-NODE99\SP\RB3LYP\Gen\C1H2O1\YANZ\22-Sep-2023\0\\#p b3lyp/gen 
 scrf=(cpcm,solvent=toluene) pop=hirshfeld empiricaldispersion=gd3bj\\t
 mpdir/M2_ref_207.gjf\\0,1\C,0,3.14336,2.737497,-1.974051\H,0,3.505671,
 2.701494,-2.9977901\H,0,3.51550328,2.12781343,-1.27847398\O,0,2.245424
 41,3.5676328,-1.70889004\\Version=ES64L-G16RevA.03\State=1-A\HF=-114.4
 770351\RMSD=4.643e-09\Dipole=0.8262386,-0.7714784,-0.2225987\Quadrupol
 e=-0.0906324,-0.0199924,0.1106247,0.1221659,0.1068866,-0.1243548\PG=C0
 1 [X(C1H2O1)]\\@


 HICKORY, DICKORY, DOCK
 TWO MICE RAN UP THE CLOCK
 THE CLOCK STRUCK ONE...
 THE OTHER ESCAPED WITH MINOR INJURIES.
 Job cpu time:       0 days  0 hours  0 minutes  7.0 seconds.
 Elapsed time:       0 days  0 hours  0 minutes  3.6 seconds.
 File lengths (MBytes):  RWF=     10 Int=      0 D2E=      0 Chk=      1 Scr=      1
 Normal termination of Gaussian 16 at Fri Sep 22 16:29:04 2023.
