 Entering Gaussian System, Link 0=g16
 Initial command:
 /share/apps/gaussian/g16/l1.exe "/tmp/55556.mgr/Gau-80913.inp" -scrdir="/tmp/55556.mgr/"
 Entering Link 1 = /share/apps/gaussian/g16/l1.exe PID=     80914.
  
 Copyright (c) 1988,1990,1992,1993,1995,1998,2003,2009,2016,
            Gaussian, Inc.  All Rights Reserved.
  
 This is part of the Gaussian(R) 16 program.  It is based on
 the Gaussian(R) 09 system (copyright 2009, Gaussian, Inc.),
 the Gaussian(R) 03 system (copyright 2003, Gaussian, Inc.),
 the Gaussian(R) 98 system (copyright 1998, Gaussian, Inc.),
 the Gaussian(R) 94 system (copyright 1995, Gaussian, Inc.),
 the Gaussian 92(TM) system (copyright 1992, Gaussian, Inc.),
 the Gaussian 90(TM) system (copyright 1990, Gaussian, Inc.),
 the Gaussian 88(TM) system (copyright 1988, Gaussian, Inc.),
 the Gaussian 86(TM) system (copyright 1986, Carnegie Mellon
 University), and the Gaussian 82(TM) system (copyright 1983,
 Carnegie Mellon University). Gaussian is a federally registered
 trademark of Gaussian, Inc.
  
 This software contains proprietary and confidential information,
 including trade secrets, belonging to Gaussian, Inc.
  
 This software is provided under written license and may be
 used, copied, transmitted, or stored only in accord with that
 written license.
  
 The following legend is applicable only to US Government
 contracts under FAR:
  
                    RESTRICTED RIGHTS LEGEND
  
 Use, reproduction and disclosure by the US Government is
 subject to restrictions as set forth in subparagraphs (a)
 and (c) of the Commercial Computer Software - Restricted
 Rights clause in FAR 52.227-19.
  
 Gaussian, Inc.
 340 Quinnipiac St., Bldg. 40, Wallingford CT 06492
  
  
 ---------------------------------------------------------------
 Warning -- This program may not be used in any manner that
 competes with the business of Gaussian, Inc. or will provide
 assistance to any competitor of Gaussian, Inc.  The licensee
 of this program is prohibited from giving any competitor of
 Gaussian, Inc. access to this program.  By using this program,
 the user acknowledges that Gaussian, Inc. is engaged in the
 business of creating and licensing software in the field of
 computational chemistry and represents and warrants to the
 licensee that it is not a competitor of Gaussian, Inc. and that
 it will not use this program in any manner prohibited above.
 ---------------------------------------------------------------
  

 Cite this work as:
 Gaussian 16, Revision A.03,
 M. J. Frisch, G. W. Trucks, H. B. Schlegel, G. E. Scuseria, 
 M. A. Robb, J. R. Cheeseman, G. Scalmani, V. Barone, 
 G. A. Petersson, H. Nakatsuji, X. Li, M. Caricato, A. V. Marenich, 
 J. Bloino, B. G. Janesko, R. Gomperts, B. Mennucci, H. P. Hratchian, 
 J. V. Ortiz, A. F. Izmaylov, J. L. Sonnenberg, D. Williams-Young, 
 F. Ding, F. Lipparini, F. Egidi, J. Goings, B. Peng, A. Petrone, 
 T. Henderson, D. Ranasinghe, V. G. Zakrzewski, J. Gao, N. Rega, 
 G. Zheng, W. Liang, M. Hada, M. Ehara, K. Toyota, R. Fukuda, 
 J. Hasegawa, M. Ishida, T. Nakajima, Y. Honda, O. Kitao, H. Nakai, 
 T. Vreven, K. Throssell, J. A. Montgomery, Jr., J. E. Peralta, 
 F. Ogliaro, M. J. Bearpark, J. J. Heyd, E. N. Brothers, K. N. Kudin, 
 V. N. Staroverov, T. A. Keith, R. Kobayashi, J. Normand, 
 K. Raghavachari, A. P. Rendell, J. C. Burant, S. S. Iyengar, 
 J. Tomasi, M. Cossi, J. M. Millam, M. Klene, C. Adamo, R. Cammi, 
 J. W. Ochterski, R. L. Martin, K. Morokuma, O. Farkas, 
 J. B. Foresman, and D. J. Fox, Gaussian, Inc., Wallingford CT, 2016.
 
 ******************************************
 Gaussian 16:  ES64L-G16RevA.03 25-Dec-2016
                22-Sep-2023 
 ******************************************
 %nprocshared=2
 Will use up to    2 processors via shared memory.
 %mem=2GB
 ----------------------------------------------------------------------
 #p b3lyp/gen scrf=(cpcm,solvent=toluene) pop=hirshfeld empiricaldisper
 sion=gd3bj
 ----------------------------------------------------------------------
 1/38=1,172=1/1;
 2/12=2,17=6,18=5,40=1/2;
 3/5=7,11=2,25=1,30=1,70=2101,72=13,74=-5,124=41/1,2,3;
 4//1;
 5/5=2,38=5,53=13/2;
 6/7=2,8=2,9=2,10=2,28=1,79=1/1;
 99/5=1,9=1/99;
 Leave Link    1 at Fri Sep 22 16:29:53 2023, MaxMem=   268435456 cpu:               0.1 elap:               0.0
 (Enter /share/apps/gaussian/g16/l101.exe)
 ---------------------
 tmpdir/M2_ref_206.gjf
 ---------------------
 Symbolic Z-matrix:
 Charge =  0 Multiplicity = 1
 C                     3.14336   2.7375   -1.97405 
 C                     2.12485   3.6791   -1.67328 
 H                     3.5155    2.12781  -1.27847 
 H                     3.50567   2.70149  -2.99779 
 H                     1.77422   3.74977  -0.70161 
 H                     1.72349   4.29481  -2.3932 
 
 ITRead=  0  0  0  0  0  0
 MicOpt= -1 -1 -1 -1 -1 -1
 NAtoms=      6 NQM=        6 NQMF=       0 NMMI=      0 NMMIF=      0
                NMic=       0 NMicF=      0.
                    Isotopes and Nuclear Properties:
 (Nuclear quadrupole moments (NQMom) in fm**2, nuclear magnetic moments (NMagM)
  in nuclear magnetons)

  Atom         1           2           3           4           5           6
 IAtWgt=          12          12           1           1           1           1
 AtmWgt=  12.0000000  12.0000000   1.0078250   1.0078250   1.0078250   1.0078250
 NucSpn=           0           0           1           1           1           1
 AtZEff=  -0.0000000  -0.0000000  -0.0000000  -0.0000000  -0.0000000  -0.0000000
 NQMom=    0.0000000   0.0000000   0.0000000   0.0000000   0.0000000   0.0000000
 NMagM=    0.0000000   0.0000000   2.7928460   2.7928460   2.7928460   2.7928460
 AtZNuc=   6.0000000   6.0000000   1.0000000   1.0000000   1.0000000   1.0000000
 Leave Link  101 at Fri Sep 22 16:29:53 2023, MaxMem=   268435456 cpu:               0.2 elap:               0.1
 (Enter /share/apps/gaussian/g16/l202.exe)
                          Input orientation:                          
 ---------------------------------------------------------------------
 Center     Atomic      Atomic             Coordinates (Angstroms)
 Number     Number       Type             X           Y           Z
 ---------------------------------------------------------------------
      1          6           0        3.143360    2.737497   -1.974051
      2          6           0        2.124849    3.679104   -1.673284
      3          1           0        3.515503    2.127813   -1.278474
      4          1           0        3.505671    2.701494   -2.997790
      5          1           0        1.774220    3.749767   -0.701605
      6          1           0        1.723490    4.294810   -2.393199
 ---------------------------------------------------------------------
                    Distance matrix (angstroms):
                    1          2          3          4          5
     1  C    0.000000
     2  C    1.419313   0.000000
     3  H    0.997012   2.120447   0.000000
     4  H    1.086558   2.148652   1.812527   0.000000
     5  H    2.125642   1.035420   2.448587   3.060925   0.000000
     6  H    2.148707   1.028815   3.024864   2.465838   1.777958
                    6
     6  H    0.000000
 Stoichiometry    C2H4
 Framework group  C1[X(C2H4)]
 Deg. of freedom    12
 Full point group                 C1      NOp   1
 Largest Abelian subgroup         C1      NOp   1
 Largest concise Abelian subgroup C1      NOp   1
                         Standard orientation:                         
 ---------------------------------------------------------------------
 Center     Atomic      Atomic             Coordinates (Angstroms)
 Number     Number       Type             X           Y           Z
 ---------------------------------------------------------------------
      1          6           0       -0.710973   -0.015289   -0.000102
      2          6           0        0.708200    0.004604    0.000031
      3          1           0       -1.223169   -0.870608    0.010720
      4          1           0       -1.225261    0.941797   -0.010202
      5          1           0        1.225227   -0.892426   -0.010695
      6          1           0        1.239843    0.885345    0.010603
 ---------------------------------------------------------------------
 Rotational constants (GHZ):         155.3422482          27.8165110          23.5929785
 Leave Link  202 at Fri Sep 22 16:29:53 2023, MaxMem=   268435456 cpu:               0.0 elap:               0.0
 (Enter /share/apps/gaussian/g16/l301.exe)
 General basis read from cards:  (5D, 7F)
 Centers:       3      4      5      6
 S 3 1.00
     Exponent=  1.2251800000D+01 Coefficients=  2.3337100000D-02
     Exponent=  1.8687100000D+00 Coefficients=  1.5915000000D-01
     Exponent=  4.1820800000D-01 Coefficients=  5.0000000000D-01
 S 1 1.00
     Exponent=  1.0610000000D-01 Coefficients=  1.0000000000D+00
 P 1 1.00
     Exponent=  1.0000000000D+00 Coefficients=  1.0000000000D+00
 ****
 Centers:       1      2
 S 5 1.00
     Exponent=  1.2432000000D+03 Coefficients=  6.0336600000D-03
     Exponent=  1.8714500000D+02 Coefficients=  4.4957600000D-02
     Exponent=  4.2512600000D+01 Coefficients=  1.9790100000D-01
     Exponent=  1.1739300000D+01 Coefficients=  5.0000000000D-01
     Exponent=  3.5054800000D+00 Coefficients=  4.8036400000D-01
 S 2 1.00
     Exponent=  5.3908900000D+00 Coefficients= -7.0398000000D-02
     Exponent=  4.9334100000D-01 Coefficients=  5.0000000000D-01
 S 1 1.00
     Exponent=  1.4974100000D-01 Coefficients=  1.0000000000D+00
 P 3 1.00
     Exponent=  9.1805600000D+00 Coefficients=  4.3170100000D-02
     Exponent=  1.9365800000D+00 Coefficients=  2.2499900000D-01
     Exponent=  5.2629600000D-01 Coefficients=  5.0000000000D-01
 P 1 1.00
     Exponent=  1.3631900000D-01 Coefficients=  1.0000000000D+00
 D 1 1.00
     Exponent=  8.0000000000D-01 Coefficients=  1.0000000000D+00
 ****
 Ernie: Thresh=  0.10000D-02 Tol=  0.10000D-05 Strict=F.
 There are    50 symmetry adapted cartesian basis functions of A   symmetry.
 There are    48 symmetry adapted basis functions of A   symmetry.
    48 basis functions,    80 primitive gaussians,    50 cartesian basis functions
     8 alpha electrons        8 beta electrons
       nuclear repulsion energy        32.9960961259 Hartrees.
 IExCor=  402 DFT=T Ex+Corr=B3LYP ExCW=0 ScaHFX=  0.200000
 ScaDFX=  0.800000  0.720000  1.000000  0.810000 ScalE2=  1.000000  1.000000
 IRadAn=      5 IRanWt=     -1 IRanGd=            0 ICorTp=0 IEmpDi=141
 NAtoms=    6 NActive=    6 NUniq=    6 SFac= 1.00D+00 NAtFMM=   60 NAOKFM=F Big=F
 Integral buffers will be    131072 words long.
 Raffenetti 2 integral format.
 Two-electron integral symmetry is turned on.
 R6Disp:  Grimme-D3(BJ) Dispersion energy=       -0.0039450569 Hartrees.
 Nuclear repulsion after empirical dispersion term =       32.9921510690 Hartrees.
 ------------------------------------------------------------------------------
 Polarizable Continuum Model (PCM)
 =================================
 Model                : C-PCM.
 Atomic radii         : UFF (Universal Force Field).
 Polarization charges : Total charges.
 Charge compensation  : None.
 Solution method      : On-the-fly selection.
 Cavity type          : Scaled VdW (van der Waals Surface) (Alpha=1.100).
 Cavity algorithm     : GePol (No added spheres)
                        Default sphere list used, NSphG=    6.
                        Lebedev-Laikov grids with approx.  5.0 points / Ang**2.
                        Smoothing algorithm: York/Karplus (Gamma=1.0000).
                        Polarization charges: spherical gaussians, with
                                              point-specific exponents (IZeta= 3).
                        Self-potential: point-specific (ISelfS= 7).
                        Self-field    : sphere-specific E.n sum rule (ISelfD= 2).
 Solvent              : Toluene, Eps=   2.374100 Eps(inf)=   2.238315
 ------------------------------------------------------------------------------
 Spheres list:
 ISph  on   Nord     Re0    Alpha      Xe            Ye            Ze
    1   C      1    1.9255  1.100     -0.710973     -0.015289     -0.000102
    2   C      2    1.9255  1.100      0.708200      0.004604      0.000031
    3   H      3    1.4430  1.100     -1.223169     -0.870608      0.010720
    4   H      4    1.4430  1.100     -1.225261      0.941797     -0.010202
    5   H      5    1.4430  1.100      1.225227     -0.892426     -0.010695
    6   H      6    1.4430  1.100      1.239843      0.885345      0.010603
 ------------------------------------------------------------------------------
 GePol: Number of generator spheres                  =       6
 GePol: Total number of spheres                      =       6
 GePol: Number of exposed spheres                    =       6 (100.00%)
 GePol: Number of points                             =     625
 GePol: Average weight of points                     =       0.14
 GePol: Minimum weight of points                     =   0.11D-06
 GePol: Maximum weight of points                     =    0.20577
 GePol: Number of points with low weight             =      33
 GePol: Fraction of low-weight points (<1% of avg)   =       5.28%
 GePol: Cavity surface area                          =     86.601 Ang**2
 GePol: Cavity volume                                =     69.030 Ang**3
 Leave Link  301 at Fri Sep 22 16:29:53 2023, MaxMem=   268435456 cpu:               0.2 elap:               0.1
 (Enter /share/apps/gaussian/g16/l302.exe)
 NPDir=0 NMtPBC=     1 NCelOv=     1 NCel=       1 NClECP=     1 NCelD=      1
         NCelK=      1 NCelE2=     1 NClLst=     1 CellRange=     0.0.
 One-electron integrals computed using PRISM.
 One-electron integral symmetry used in STVInt
 NBasis=    48 RedAO= T EigKep=  8.21D-03  NBF=    48
 NBsUse=    48 1.00D-06 EigRej= -1.00D+00 NBFU=    48
 Precomputing XC quadrature grid using
 IXCGrd= 4 IRadAn=           5 IRanWt=          -1 IRanGd=           0 AccXCQ= 0.00D+00.
 Generated NRdTot=       0 NPtTot=           0 NUsed=           0 NTot=          32
 NSgBfM=    50    50    50    50    50 MxSgAt=     6 MxSgA2=     6.
 Leave Link  302 at Fri Sep 22 16:29:53 2023, MaxMem=   268435456 cpu:               0.2 elap:               0.1
 (Enter /share/apps/gaussian/g16/l303.exe)
 DipDrv:  MaxL=1.
 Leave Link  303 at Fri Sep 22 16:29:53 2023, MaxMem=   268435456 cpu:               0.1 elap:               0.0
 (Enter /share/apps/gaussian/g16/l401.exe)
 ExpMin= 1.06D-01 ExpMax= 1.24D+03 ExpMxC= 1.87D+02 IAcc=3 IRadAn=         5 AccDes= 0.00D+00
 Harris functional with IExCor=  402 and IRadAn=       5 diagonalized for initial guess.
 HarFok:  IExCor=  402 AccDes= 0.00D+00 IRadAn=         5 IDoV= 1 UseB2=F ITyADJ=14
 ICtDFT=  3500011 ScaDFX=  1.000000  1.000000  1.000000  1.000000
 FoFCou: FMM=F IPFlag=           0 FMFlag=      100000 FMFlg1=           0
         NFxFlg=           0 DoJE=T BraDBF=F KetDBF=T FulRan=T
         wScrn=  0.000000 ICntrl=       500 IOpCl=  0 I1Cent=   200000004 NGrid=           0
         NMat0=    1 NMatS0=      1 NMatT0=    0 NMatD0=    1 NMtDS0=    0 NMtDT0=    0
 Petite list used in FoFCou.
 Harris En= -78.5962308839994    
 JPrj=0 DoOrth=F DoCkMO=F.
 Leave Link  401 at Fri Sep 22 16:29:54 2023, MaxMem=   268435456 cpu:               0.8 elap:               0.4
 (Enter /share/apps/gaussian/g16/l502.exe)
 Keep R1 ints in memory in canonical form, NReq=2435556.
 FoFCou: FMM=F IPFlag=           0 FMFlag=           0 FMFlg1=           0
         NFxFlg=           0 DoJE=F BraDBF=F KetDBF=F FulRan=T
         wScrn=  0.000000 ICntrl=       600 IOpCl=  0 I1Cent=           0 NGrid=           0
         NMat0=    1 NMatS0=   1176 NMatT0=    0 NMatD0=    1 NMtDS0=    0 NMtDT0=    0
 Symmetry not used in FoFCou.
 Two-electron integral symmetry not used.
 Closed shell SCF:
 Using DIIS extrapolation, IDIIS=  1040.
 NGot=   268435456 LenX=   267737362 LenY=   267734421
 Requested convergence on RMS density matrix=1.00D-08 within 128 cycles.
 Requested convergence on MAX density matrix=1.00D-06.
 Requested convergence on             energy=1.00D-06.
 No special actions if energy rises.

 Cycle   1  Pass 1  IDiag  1:
 Inv3:  Mode=1 IEnd=     1171875.
 Iteration    1 A*A^-1 deviation from unit magnitude is 2.55D-15 for    625.
 Iteration    1 A*A^-1 deviation from orthogonality  is 1.08D-15 for    475    215.
 Iteration    1 A^-1*A deviation from unit magnitude is 2.44D-15 for    173.
 Iteration    1 A^-1*A deviation from orthogonality  is 1.10D-15 for    562    209.
 E= -78.4859570491568    
 DIIS: error= 4.58D-02 at cycle   1 NSaved=   1.
 NSaved= 1 IEnMin= 1 EnMin= -78.4859570491568     IErMin= 1 ErrMin= 4.58D-02
 ErrMax= 4.58D-02  0.00D+00 EMaxC= 1.00D-01 BMatC= 6.09D-02 BMatP= 6.09D-02
 IDIUse=3 WtCom= 5.42D-01 WtEn= 4.58D-01
 Coeff-Com:  0.100D+01
 Coeff-En:   0.100D+01
 Coeff:      0.100D+01
 Gap=     0.247 Goal=   None    Shift=    0.000
 GapD=    0.247 DampG=1.000 DampE=0.500 DampFc=0.5000 IDamp=-1.
 Damping current iteration by 5.00D-01
 RMSDP=9.25D-03 MaxDP=1.09D-01              OVMax= 1.66D-01

 Cycle   2  Pass 1  IDiag  1:
 E= -78.5241474510130     Delta-E=       -0.038190401856 Rises=F Damp=T
 DIIS: error= 4.45D-03 at cycle   2 NSaved=   2.
 NSaved= 2 IEnMin= 2 EnMin= -78.5241474510130     IErMin= 2 ErrMin= 4.45D-03
 ErrMax= 4.45D-03  0.00D+00 EMaxC= 1.00D-01 BMatC= 1.22D-03 BMatP= 6.09D-02
 IDIUse=3 WtCom= 9.56D-01 WtEn= 4.45D-02
 Coeff-Com:  0.758D-02 0.992D+00
 Coeff-En:   0.000D+00 0.100D+01
 Coeff:      0.725D-02 0.993D+00
 Gap=     0.251 Goal=   None    Shift=    0.000
 RMSDP=1.51D-03 MaxDP=1.48D-02 DE=-3.82D-02 OVMax= 7.49D-02

 Cycle   3  Pass 1  IDiag  1:
 E= -78.5634367407291     Delta-E=       -0.039289289716 Rises=F Damp=F
 DIIS: error= 1.14D-03 at cycle   3 NSaved=   3.
 NSaved= 3 IEnMin= 3 EnMin= -78.5634367407291     IErMin= 3 ErrMin= 1.14D-03
 ErrMax= 1.14D-03  0.00D+00 EMaxC= 1.00D-01 BMatC= 5.28D-05 BMatP= 1.22D-03
 IDIUse=3 WtCom= 9.89D-01 WtEn= 1.14D-02
 Coeff-Com: -0.636D-02 0.112D+00 0.894D+00
 Coeff-En:   0.000D+00 0.000D+00 0.100D+01
 Coeff:     -0.629D-02 0.111D+00 0.895D+00
 Gap=     0.247 Goal=   None    Shift=    0.000
 RMSDP=1.98D-04 MaxDP=2.88D-03 DE=-3.93D-02 OVMax= 5.73D-03

 Cycle   4  Pass 1  IDiag  1:
 E= -78.5634545910145     Delta-E=       -0.000017850285 Rises=F Damp=F
 DIIS: error= 9.45D-04 at cycle   4 NSaved=   4.
 NSaved= 4 IEnMin= 4 EnMin= -78.5634545910145     IErMin= 4 ErrMin= 9.45D-04
 ErrMax= 9.45D-04  0.00D+00 EMaxC= 1.00D-01 BMatC= 3.16D-05 BMatP= 5.28D-05
 IDIUse=3 WtCom= 9.91D-01 WtEn= 9.45D-03
 Coeff-Com: -0.325D-02 0.353D-01 0.454D+00 0.514D+00
 Coeff-En:   0.000D+00 0.000D+00 0.374D+00 0.626D+00
 Coeff:     -0.322D-02 0.349D-01 0.453D+00 0.515D+00
 Gap=     0.247 Goal=   None    Shift=    0.000
 RMSDP=1.36D-04 MaxDP=2.54D-03 DE=-1.79D-05 OVMax= 5.20D-03

 Cycle   5  Pass 1  IDiag  1:
 E= -78.5634798503944     Delta-E=       -0.000025259380 Rises=F Damp=F
 DIIS: error= 4.73D-04 at cycle   5 NSaved=   5.
 NSaved= 5 IEnMin= 5 EnMin= -78.5634798503944     IErMin= 5 ErrMin= 4.73D-04
 ErrMax= 4.73D-04  0.00D+00 EMaxC= 1.00D-01 BMatC= 8.31D-06 BMatP= 3.16D-05
 IDIUse=3 WtCom= 9.95D-01 WtEn= 4.73D-03
 Coeff-Com: -0.848D-03-0.166D-03 0.112D+00 0.345D+00 0.544D+00
 Coeff-En:   0.000D+00 0.000D+00 0.000D+00 0.250D+00 0.750D+00
 Coeff:     -0.844D-03-0.165D-03 0.111D+00 0.345D+00 0.545D+00
 Gap=     0.248 Goal=   None    Shift=    0.000
 RMSDP=4.79D-05 MaxDP=8.90D-04 DE=-2.53D-05 OVMax= 1.81D-03

 Cycle   6  Pass 1  IDiag  1:
 E= -78.5634889209105     Delta-E=       -0.000009070516 Rises=F Damp=F
 DIIS: error= 7.69D-06 at cycle   6 NSaved=   6.
 NSaved= 6 IEnMin= 6 EnMin= -78.5634889209105     IErMin= 6 ErrMin= 7.69D-06
 ErrMax= 7.69D-06  0.00D+00 EMaxC= 1.00D-01 BMatC= 2.45D-09 BMatP= 8.31D-06
 IDIUse=1 WtCom= 1.00D+00 WtEn= 0.00D+00
 Coeff-Com: -0.286D-05-0.611D-03 0.293D-03 0.100D-01 0.307D-01 0.960D+00
 Coeff:     -0.286D-05-0.611D-03 0.293D-03 0.100D-01 0.307D-01 0.960D+00
 Gap=     0.248 Goal=   None    Shift=    0.000
 RMSDP=1.35D-06 MaxDP=1.79D-05 DE=-9.07D-06 OVMax= 2.74D-05

 Cycle   7  Pass 1  IDiag  1:
 E= -78.5634889238573     Delta-E=       -0.000000002947 Rises=F Damp=F
 DIIS: error= 7.87D-07 at cycle   7 NSaved=   7.
 NSaved= 7 IEnMin= 7 EnMin= -78.5634889238573     IErMin= 7 ErrMin= 7.87D-07
 ErrMax= 7.87D-07  0.00D+00 EMaxC= 1.00D-01 BMatC= 1.79D-11 BMatP= 2.45D-09
 IDIUse=1 WtCom= 1.00D+00 WtEn= 0.00D+00
 Coeff-Com:  0.127D-04-0.209D-04-0.640D-03-0.191D-02-0.246D-02 0.297D-01
 Coeff-Com:  0.975D+00
 Coeff:      0.127D-04-0.209D-04-0.640D-03-0.191D-02-0.246D-02 0.297D-01
 Coeff:      0.975D+00
 Gap=     0.248 Goal=   None    Shift=    0.000
 RMSDP=1.45D-07 MaxDP=1.32D-06 DE=-2.95D-09 OVMax= 2.39D-06

 Cycle   8  Pass 1  IDiag  1:
 E= -78.5634889238810     Delta-E=       -0.000000000024 Rises=F Damp=F
 DIIS: error= 2.17D-07 at cycle   8 NSaved=   8.
 NSaved= 8 IEnMin= 8 EnMin= -78.5634889238810     IErMin= 8 ErrMin= 2.17D-07
 ErrMax= 2.17D-07  0.00D+00 EMaxC= 1.00D-01 BMatC= 1.66D-12 BMatP= 1.79D-11
 IDIUse=1 WtCom= 1.00D+00 WtEn= 0.00D+00
 Coeff-Com:  0.355D-05 0.870D-05-0.174D-03-0.761D-03-0.130D-02-0.137D-01
 Coeff-Com:  0.259D+00 0.757D+00
 Coeff:      0.355D-05 0.870D-05-0.174D-03-0.761D-03-0.130D-02-0.137D-01
 Coeff:      0.259D+00 0.757D+00
 Gap=     0.248 Goal=   None    Shift=    0.000
 RMSDP=2.84D-08 MaxDP=2.90D-07 DE=-2.37D-11 OVMax= 4.52D-07

 Cycle   9  Pass 1  IDiag  1:
 E= -78.5634889238827     Delta-E=       -0.000000000002 Rises=F Damp=F
 DIIS: error= 1.59D-08 at cycle   9 NSaved=   9.
 NSaved= 9 IEnMin= 9 EnMin= -78.5634889238827     IErMin= 9 ErrMin= 1.59D-08
 ErrMax= 1.59D-08  0.00D+00 EMaxC= 1.00D-01 BMatC= 1.09D-14 BMatP= 1.66D-12
 IDIUse=1 WtCom= 1.00D+00 WtEn= 0.00D+00
 Coeff-Com: -0.210D-06 0.480D-06 0.560D-05 0.389D-07 0.151D-04-0.839D-03
 Coeff-Com: -0.477D-02 0.959D-02 0.996D+00
 Coeff:     -0.210D-06 0.480D-06 0.560D-05 0.389D-07 0.151D-04-0.839D-03
 Coeff:     -0.477D-02 0.959D-02 0.996D+00
 Gap=     0.248 Goal=   None    Shift=    0.000
 RMSDP=2.52D-09 MaxDP=3.59D-08 DE=-1.71D-12 OVMax= 5.45D-08

 Error on total polarization charges =  0.00512
 SCF Done:  E(RB3LYP) =  -78.5634889239     A.U. after    9 cycles
            NFock=  9  Conv=0.25D-08     -V/T= 2.0056
 KE= 7.812413445109D+01 PE=-2.475352145187D+02 EE= 5.785544007476D+01
 Leave Link  502 at Fri Sep 22 16:29:57 2023, MaxMem=   268435456 cpu:               7.9 elap:               3.9
 (Enter /share/apps/gaussian/g16/l601.exe)
 Copying SCF densities to generalized density rwf, IOpCl= 0 IROHF=0.

 **********************************************************************

            Population analysis using the SCF density.

 **********************************************************************

 Orbital symmetries:
       Occupied  (A) (A) (A) (A) (A) (A) (A) (A)
       Virtual   (A) (A) (A) (A) (A) (A) (A) (A) (A) (A) (A) (A)
                 (A) (A) (A) (A) (A) (A) (A) (A) (A) (A) (A) (A)
                 (A) (A) (A) (A) (A) (A) (A) (A) (A) (A) (A) (A)
                 (A) (A) (A) (A)
 The electronic state is 1-A.
 Alpha  occ. eigenvalues --  -10.18309 -10.18102  -0.75570  -0.60441  -0.48084
 Alpha  occ. eigenvalues --   -0.41670  -0.38191  -0.26816
 Alpha virt. eigenvalues --   -0.02065   0.06801   0.09888   0.10366   0.16095
 Alpha virt. eigenvalues --    0.26562   0.36447   0.41890   0.44047   0.50881
 Alpha virt. eigenvalues --    0.52768   0.54319   0.64728   0.65936   0.70247
 Alpha virt. eigenvalues --    0.77379   0.92624   1.02746   1.33316   1.34500
 Alpha virt. eigenvalues --    1.42406   1.72025   1.79331   1.84580   1.88852
 Alpha virt. eigenvalues --    1.91776   1.95883   2.04217   2.20538   2.33921
 Alpha virt. eigenvalues --    2.37281   2.49555   2.58075   2.61043   2.64327
 Alpha virt. eigenvalues --    2.89492   3.15860   3.27537   3.49733   3.60813
          Condensed to atoms (all electrons):
               1          2          3          4          5          6
     1  C    4.749433   0.678231   0.409743   0.396061  -0.030410  -0.025759
     2  C    0.678231   4.747572  -0.026534  -0.032122   0.404073   0.405598
     3  H    0.409743  -0.026534   0.591132  -0.043017  -0.014545   0.009637
     4  H    0.396061  -0.032122  -0.043017   0.578596   0.009611  -0.014015
     5  H   -0.030410   0.404073  -0.014545   0.009611   0.587402  -0.044984
     6  H   -0.025759   0.405598   0.009637  -0.014015  -0.044984   0.582728
 Mulliken charges:
               1
     1  C   -0.177299
     2  C   -0.176818
     3  H    0.073584
     4  H    0.104887
     5  H    0.088852
     6  H    0.086794
 Sum of Mulliken charges =   0.00000
 Mulliken charges with hydrogens summed into heavy atoms:
               1
     1  C    0.001172
     2  C   -0.001172
 Electronic spatial extent (au):  <R**2>=             84.5965
 Charge=              0.0000 electrons
 Dipole moment (field-independent basis, Debye):
    X=              0.0205    Y=             -0.0106    Z=              0.0007  Tot=              0.0231
 Quadrupole moment (field-independent basis, Debye-Ang):
   XX=            -12.2566   YY=            -12.3150   ZZ=            -15.6998
   XY=              0.0998   XZ=             -0.0008   YZ=             -0.0003
 Traceless Quadrupole moment (field-independent basis, Debye-Ang):
   XX=              1.1672   YY=              1.1088   ZZ=             -2.2760
   XY=              0.0998   XZ=             -0.0008   YZ=             -0.0003
 Octapole moment (field-independent basis, Debye-Ang**2):
  XXX=              0.2241  YYY=             -0.0343  ZZZ=              0.0037  XYY=             -0.0441
  XXY=             -0.0378  XXZ=              0.0036  XZZ=              0.0412  YZZ=             -0.0689
  YYZ=             -0.0004  XYZ=              0.0571
 Hexadecapole moment (field-independent basis, Debye-Ang**3):
 XXXX=            -71.3925 YYYY=            -25.6823 ZZZZ=            -19.1630 XXXY=              0.5594
 XXXZ=             -0.0032 YYYX=              0.1463 YYYZ=             -0.0011 ZZZX=             -0.0036
 ZZZY=              0.0002 XXYY=            -13.9719 XXZZ=            -15.9159 YYZZ=             -8.0454
 XXYZ=             -0.0000 YYXZ=              0.0006 ZZXY=              0.1326
 N-N= 3.299215106901D+01 E-N=-2.475352142057D+02  KE= 7.812413445109D+01
 There are a total of      132844 grid points.
 ElSum from          density=       15.9999973569
 ElSum from atomic densities=       15.9999983543
 Hirshfeld populations at iteration   1 (CA, CB, DipXYZ):
               1          2          3          4          5
     1  C    3.035576   3.035576  -0.103155  -0.017208  -0.000050
     2  C    3.035973   3.035973   0.104048   0.004253  -0.000017
     3  H    0.482146   0.482146  -0.085757  -0.136732   0.002165
     4  H    0.481727   0.481727  -0.072556   0.133655  -0.001928
     5  H    0.483042   0.483042   0.080730  -0.131985  -0.002057
     6  H    0.481535   0.481535   0.087562   0.131549   0.002068
       Tot   7.999999   7.999999   0.010874  -0.016467   0.000180

 Dip from Atomic Chgs             -0.002792   0.012314   0.000083
         Total Dipole              0.008082  -0.004153   0.000263

 Hirshfeld charges, spin densities, dipoles, and CM5 charges using IRadAn=      5:
              Q-H        S-H        Dx         Dy         Dz        Q-CM5   
     1  C   -0.071152   0.000000  -0.103155  -0.017208  -0.000050  -0.186638
     2  C   -0.071945   0.000000   0.104048   0.004253  -0.000017  -0.189428
     3  H    0.035708   0.000000  -0.085757  -0.136732   0.002165   0.099576
     4  H    0.036546   0.000000  -0.072556   0.133655  -0.001928   0.088212
     5  H    0.033916   0.000000   0.080730  -0.131985  -0.002057   0.092285
     6  H    0.036930   0.000000   0.087562   0.131549   0.002068   0.095996
       Tot   0.000003   0.000000   0.010874  -0.016467   0.000180   0.000003
 Hirshfeld charges with hydrogens summed into heavy atoms:
              Q-H       Q-CM5   
     1  C    0.001102   0.001150
     2  C   -0.001099  -0.001147
 
 EQQ= 0.000000000000E+00 EQD= 0.000000000000E+00 EDD= 0.295516865135E-02
 EQQ+QD+DD= 0.295516865135E-02
 
 No NMR shielding tensors so no spin-rotation constants.
 Leave Link  601 at Fri Sep 22 16:29:58 2023, MaxMem=   268435456 cpu:               0.7 elap:               0.3
 (Enter /share/apps/gaussian/g16/l9999.exe)
 1\1\GINC-NODE99\SP\RB3LYP\Gen\C2H4\YANZ\22-Sep-2023\0\\#p b3lyp/gen sc
 rf=(cpcm,solvent=toluene) pop=hirshfeld empiricaldispersion=gd3bj\\tmp
 dir/M2_ref_206.gjf\\0,1\C,0,3.14336,2.737497,-1.974051\C,0,2.124849,3.
 679104,-1.67328405\H,0,3.51550328,2.12781343,-1.27847398\H,0,3.505671,
 2.701494,-2.9977901\H,0,1.77421961,3.74976686,-0.70160532\H,0,1.723489
 68,4.2948103,-2.3931988\\Version=ES64L-G16RevA.03\State=1-A\HF=-78.563
 4889\RMSD=2.517e-09\Dipole=-0.0059222,0.0038626,0.0057144\Quadrupole=-
 0.3731305,-0.3079311,0.6810616,-1.2389449,-0.3293424,-0.4014145\PG=C01
  [X(C2H4)]\\@


 THE 2ND LAW OF THERMODYNAMICS HAS THE SAME
 DEGREE OF TRUTH AS THE STATEMENT THAT IF YOU THROW
 A TUMBLERFULL OF WATER INTO THE SEA, YOU CANNOT GET
 THE SAME TUMBLERFULL OF WATER OUT AGAIN.
          - J.C. MAXWELL, LETTER TO LORD RAYLEIGH, DECEMBER 6,1870
 Job cpu time:       0 days  0 hours  0 minutes 10.3 seconds.
 Elapsed time:       0 days  0 hours  0 minutes  5.2 seconds.
 File lengths (MBytes):  RWF=     10 Int=      0 D2E=      0 Chk=      1 Scr=      1
 Normal termination of Gaussian 16 at Fri Sep 22 16:29:58 2023.
