 Entering Gaussian System, Link 0=g16
 Initial command:
 /share/apps/gaussian/g16/l1.exe "/tmp/55556.mgr/Gau-81479.inp" -scrdir="/tmp/55556.mgr/"
 Entering Link 1 = /share/apps/gaussian/g16/l1.exe PID=     81480.
  
 Copyright (c) 1988,1990,1992,1993,1995,1998,2003,2009,2016,
            Gaussian, Inc.  All Rights Reserved.
  
 This is part of the Gaussian(R) 16 program.  It is based on
 the Gaussian(R) 09 system (copyright 2009, Gaussian, Inc.),
 the Gaussian(R) 03 system (copyright 2003, Gaussian, Inc.),
 the Gaussian(R) 98 system (copyright 1998, Gaussian, Inc.),
 the Gaussian(R) 94 system (copyright 1995, Gaussian, Inc.),
 the Gaussian 92(TM) system (copyright 1992, Gaussian, Inc.),
 the Gaussian 90(TM) system (copyright 1990, Gaussian, Inc.),
 the Gaussian 88(TM) system (copyright 1988, Gaussian, Inc.),
 the Gaussian 86(TM) system (copyright 1986, Carnegie Mellon
 University), and the Gaussian 82(TM) system (copyright 1983,
 Carnegie Mellon University). Gaussian is a federally registered
 trademark of Gaussian, Inc.
  
 This software contains proprietary and confidential information,
 including trade secrets, belonging to Gaussian, Inc.
  
 This software is provided under written license and may be
 used, copied, transmitted, or stored only in accord with that
 written license.
  
 The following legend is applicable only to US Government
 contracts under FAR:
  
                    RESTRICTED RIGHTS LEGEND
  
 Use, reproduction and disclosure by the US Government is
 subject to restrictions as set forth in subparagraphs (a)
 and (c) of the Commercial Computer Software - Restricted
 Rights clause in FAR 52.227-19.
  
 Gaussian, Inc.
 340 Quinnipiac St., Bldg. 40, Wallingford CT 06492
  
  
 ---------------------------------------------------------------
 Warning -- This program may not be used in any manner that
 competes with the business of Gaussian, Inc. or will provide
 assistance to any competitor of Gaussian, Inc.  The licensee
 of this program is prohibited from giving any competitor of
 Gaussian, Inc. access to this program.  By using this program,
 the user acknowledges that Gaussian, Inc. is engaged in the
 business of creating and licensing software in the field of
 computational chemistry and represents and warrants to the
 licensee that it is not a competitor of Gaussian, Inc. and that
 it will not use this program in any manner prohibited above.
 ---------------------------------------------------------------
  

 Cite this work as:
 Gaussian 16, Revision A.03,
 M. J. Frisch, G. W. Trucks, H. B. Schlegel, G. E. Scuseria, 
 M. A. Robb, J. R. Cheeseman, G. Scalmani, V. Barone, 
 G. A. Petersson, H. Nakatsuji, X. Li, M. Caricato, A. V. Marenich, 
 J. Bloino, B. G. Janesko, R. Gomperts, B. Mennucci, H. P. Hratchian, 
 J. V. Ortiz, A. F. Izmaylov, J. L. Sonnenberg, D. Williams-Young, 
 F. Ding, F. Lipparini, F. Egidi, J. Goings, B. Peng, A. Petrone, 
 T. Henderson, D. Ranasinghe, V. G. Zakrzewski, J. Gao, N. Rega, 
 G. Zheng, W. Liang, M. Hada, M. Ehara, K. Toyota, R. Fukuda, 
 J. Hasegawa, M. Ishida, T. Nakajima, Y. Honda, O. Kitao, H. Nakai, 
 T. Vreven, K. Throssell, J. A. Montgomery, Jr., J. E. Peralta, 
 F. Ogliaro, M. J. Bearpark, J. J. Heyd, E. N. Brothers, K. N. Kudin, 
 V. N. Staroverov, T. A. Keith, R. Kobayashi, J. Normand, 
 K. Raghavachari, A. P. Rendell, J. C. Burant, S. S. Iyengar, 
 J. Tomasi, M. Cossi, J. M. Millam, M. Klene, C. Adamo, R. Cammi, 
 J. W. Ochterski, R. L. Martin, K. Morokuma, O. Farkas, 
 J. B. Foresman, and D. J. Fox, Gaussian, Inc., Wallingford CT, 2016.
 
 ******************************************
 Gaussian 16:  ES64L-G16RevA.03 25-Dec-2016
                22-Sep-2023 
 ******************************************
 %nprocshared=2
 Will use up to    2 processors via shared memory.
 %mem=2GB
 ----------------------------------------------------------------------
 #p b3lyp/gen scrf=(cpcm,solvent=toluene) pop=hirshfeld empiricaldisper
 sion=gd3bj
 ----------------------------------------------------------------------
 1/38=1,172=1/1;
 2/12=2,17=6,18=5,40=1/2;
 3/5=7,11=2,25=1,30=1,70=2101,72=13,74=-5,124=41/1,2,3;
 4//1;
 5/5=2,38=5,53=13/2;
 6/7=2,8=2,9=2,10=2,28=1,79=1/1;
 99/5=1,9=1/99;
 Leave Link    1 at Fri Sep 22 16:30:22 2023, MaxMem=   268435456 cpu:               0.1 elap:               0.0
 (Enter /share/apps/gaussian/g16/l101.exe)
 ---------------------
 tmpdir/M2_ref_247.gjf
 ---------------------
 Symbolic Z-matrix:
 Charge =  0 Multiplicity = 1
 C                    -0.84332   2.47969   3.20125 
 C                    -1.2159    3.83654   2.80414 
 C                    -1.26632   1.26703   2.65369 
 H                    -0.26764   2.26046   4.02824 
 H                    -2.06561   3.85475   2.0929 
 C                    -0.60013   4.98666   3.27352 
 
 ITRead=  0  0  0  0  0  0
 MicOpt= -1 -1 -1 -1 -1 -1
 NAtoms=      6 NQM=        6 NQMF=       0 NMMI=      0 NMMIF=      0
                NMic=       0 NMicF=      0.
                    Isotopes and Nuclear Properties:
 (Nuclear quadrupole moments (NQMom) in fm**2, nuclear magnetic moments (NMagM)
  in nuclear magnetons)

  Atom         1           2           3           4           5           6
 IAtWgt=          12          12          12           1           1          12
 AtmWgt=  12.0000000  12.0000000  12.0000000   1.0078250   1.0078250  12.0000000
 NucSpn=           0           0           0           1           1           0
 AtZEff=  -0.0000000  -0.0000000  -0.0000000  -0.0000000  -0.0000000  -0.0000000
 NQMom=    0.0000000   0.0000000   0.0000000   0.0000000   0.0000000   0.0000000
 NMagM=    0.0000000   0.0000000   0.0000000   2.7928460   2.7928460   0.0000000
 AtZNuc=   6.0000000   6.0000000   6.0000000   1.0000000   1.0000000   6.0000000
 Leave Link  101 at Fri Sep 22 16:30:22 2023, MaxMem=   268435456 cpu:               0.2 elap:               0.1
 (Enter /share/apps/gaussian/g16/l202.exe)
                          Input orientation:                          
 ---------------------------------------------------------------------
 Center     Atomic      Atomic             Coordinates (Angstroms)
 Number     Number       Type             X           Y           Z
 ---------------------------------------------------------------------
      1          6           0       -0.843317    2.479694    3.201253
      2          6           0       -1.215903    3.836542    2.804136
      3          6           0       -1.266324    1.267027    2.653688
      4          1           0       -0.267641    2.260463    4.028242
      5          1           0       -2.065612    3.854747    2.092905
      6          6           0       -0.600132    4.986660    3.273520
 ---------------------------------------------------------------------
                    Distance matrix (angstroms):
                    1          2          3          4          5
     1  C    0.000000
     2  C    1.462039   0.000000
     3  C    1.396182   2.574409   0.000000
     4  H    1.031201   2.209448   1.968167   0.000000
     5  H    2.147839   1.108236   2.765797   3.085445   0.000000
     6  C    2.519770   1.386458   3.829317   2.848211   2.196067
                    6
     6  C    0.000000
 Stoichiometry    C4H2
 Framework group  C1[X(C4H2)]
 Deg. of freedom    12
 Full point group                 C1      NOp   1
 Largest Abelian subgroup         C1      NOp   1
 Largest concise Abelian subgroup C1      NOp   1
                         Standard orientation:                         
 ---------------------------------------------------------------------
 Center     Atomic      Atomic             Coordinates (Angstroms)
 Number     Number       Type             X           Y           Z
 ---------------------------------------------------------------------
      1          6           0       -0.615272   -0.345536    0.030605
      2          6           0        0.654540    0.379093    0.037548
      3          6           0       -1.909377    0.169998   -0.063418
      4          1           0       -0.698719   -1.360570    0.192222
      5          1           0        0.520649    1.473398    0.150495
      6          6           0        1.899786   -0.222360   -0.061854
 ---------------------------------------------------------------------
 Rotational constants (GHZ):          60.9018665           5.1717238           4.7831503
 Leave Link  202 at Fri Sep 22 16:30:22 2023, MaxMem=   268435456 cpu:               0.0 elap:               0.0
 (Enter /share/apps/gaussian/g16/l301.exe)
 General basis read from cards:  (5D, 7F)
 Centers:       4      5
 S 3 1.00
     Exponent=  1.2251800000D+01 Coefficients=  2.3337100000D-02
     Exponent=  1.8687100000D+00 Coefficients=  1.5915000000D-01
     Exponent=  4.1820800000D-01 Coefficients=  5.0000000000D-01
 S 1 1.00
     Exponent=  1.0610000000D-01 Coefficients=  1.0000000000D+00
 P 1 1.00
     Exponent=  1.0000000000D+00 Coefficients=  1.0000000000D+00
 ****
 Centers:       1      2      3      6
 S 5 1.00
     Exponent=  1.2432000000D+03 Coefficients=  6.0336600000D-03
     Exponent=  1.8714500000D+02 Coefficients=  4.4957600000D-02
     Exponent=  4.2512600000D+01 Coefficients=  1.9790100000D-01
     Exponent=  1.1739300000D+01 Coefficients=  5.0000000000D-01
     Exponent=  3.5054800000D+00 Coefficients=  4.8036400000D-01
 S 2 1.00
     Exponent=  5.3908900000D+00 Coefficients= -7.0398000000D-02
     Exponent=  4.9334100000D-01 Coefficients=  5.0000000000D-01
 S 1 1.00
     Exponent=  1.4974100000D-01 Coefficients=  1.0000000000D+00
 P 3 1.00
     Exponent=  9.1805600000D+00 Coefficients=  4.3170100000D-02
     Exponent=  1.9365800000D+00 Coefficients=  2.2499900000D-01
     Exponent=  5.2629600000D-01 Coefficients=  5.0000000000D-01
 P 1 1.00
     Exponent=  1.3631900000D-01 Coefficients=  1.0000000000D+00
 D 1 1.00
     Exponent=  8.0000000000D-01 Coefficients=  1.0000000000D+00
 ****
 Ernie: Thresh=  0.10000D-02 Tol=  0.10000D-05 Strict=F.
 There are    70 symmetry adapted cartesian basis functions of A   symmetry.
 There are    66 symmetry adapted basis functions of A   symmetry.
    66 basis functions,   118 primitive gaussians,    70 cartesian basis functions
    13 alpha electrons       13 beta electrons
       nuclear repulsion energy        74.7026067846 Hartrees.
 IExCor=  402 DFT=T Ex+Corr=B3LYP ExCW=0 ScaHFX=  0.200000
 ScaDFX=  0.800000  0.720000  1.000000  0.810000 ScalE2=  1.000000  1.000000
 IRadAn=      5 IRanWt=     -1 IRanGd=            0 ICorTp=0 IEmpDi=141
 NAtoms=    6 NActive=    6 NUniq=    6 SFac= 1.00D+00 NAtFMM=   60 NAOKFM=F Big=F
 Integral buffers will be    131072 words long.
 Raffenetti 2 integral format.
 Two-electron integral symmetry is turned on.
 R6Disp:  Grimme-D3(BJ) Dispersion energy=       -0.0076001702 Hartrees.
 Nuclear repulsion after empirical dispersion term =       74.6950066144 Hartrees.
 ------------------------------------------------------------------------------
 Polarizable Continuum Model (PCM)
 =================================
 Model                : C-PCM.
 Atomic radii         : UFF (Universal Force Field).
 Polarization charges : Total charges.
 Charge compensation  : None.
 Solution method      : On-the-fly selection.
 Cavity type          : Scaled VdW (van der Waals Surface) (Alpha=1.100).
 Cavity algorithm     : GePol (No added spheres)
                        Default sphere list used, NSphG=    6.
                        Lebedev-Laikov grids with approx.  5.0 points / Ang**2.
                        Smoothing algorithm: York/Karplus (Gamma=1.0000).
                        Polarization charges: spherical gaussians, with
                                              point-specific exponents (IZeta= 3).
                        Self-potential: point-specific (ISelfS= 7).
                        Self-field    : sphere-specific E.n sum rule (ISelfD= 2).
 Solvent              : Toluene, Eps=   2.374100 Eps(inf)=   2.238315
 ------------------------------------------------------------------------------
 Spheres list:
 ISph  on   Nord     Re0    Alpha      Xe            Ye            Ze
    1   C      1    1.9255  1.100     -0.615272     -0.345536      0.030605
    2   C      2    1.9255  1.100      0.654540      0.379093      0.037548
    3   C      3    1.9255  1.100     -1.909377      0.169998     -0.063418
    4   H      4    1.4430  1.100     -0.698719     -1.360570      0.192222
    5   H      5    1.4430  1.100      0.520649      1.473398      0.150495
    6   C      6    1.9255  1.100      1.899786     -0.222360     -0.061854
 ------------------------------------------------------------------------------
 GePol: Number of generator spheres                  =       6
 GePol: Total number of spheres                      =       6
 GePol: Number of exposed spheres                    =       6 (100.00%)
 GePol: Number of points                             =     764
 GePol: Average weight of points                     =       0.15
 GePol: Minimum weight of points                     =   0.63D-07
 GePol: Maximum weight of points                     =    0.20577
 GePol: Number of points with low weight             =      25
 GePol: Fraction of low-weight points (<1% of avg)   =       3.27%
 GePol: Cavity surface area                          =    117.457 Ang**2
 GePol: Cavity volume                                =    102.346 Ang**3
 Leave Link  301 at Fri Sep 22 16:30:22 2023, MaxMem=   268435456 cpu:               0.2 elap:               0.1
 (Enter /share/apps/gaussian/g16/l302.exe)
 NPDir=0 NMtPBC=     1 NCelOv=     1 NCel=       1 NClECP=     1 NCelD=      1
         NCelK=      1 NCelE2=     1 NClLst=     1 CellRange=     0.0.
 One-electron integrals computed using PRISM.
 One-electron integral symmetry used in STVInt
 NBasis=    66 RedAO= T EigKep=  4.52D-03  NBF=    66
 NBsUse=    66 1.00D-06 EigRej= -1.00D+00 NBFU=    66
 Precomputing XC quadrature grid using
 IXCGrd= 4 IRadAn=           5 IRanWt=          -1 IRanGd=           0 AccXCQ= 0.00D+00.
 Generated NRdTot=       0 NPtTot=           0 NUsed=           0 NTot=          32
 NSgBfM=    70    70    70    70    70 MxSgAt=     6 MxSgA2=     6.
 Leave Link  302 at Fri Sep 22 16:30:23 2023, MaxMem=   268435456 cpu:               0.3 elap:               0.2
 (Enter /share/apps/gaussian/g16/l303.exe)
 DipDrv:  MaxL=1.
 Leave Link  303 at Fri Sep 22 16:30:23 2023, MaxMem=   268435456 cpu:               0.1 elap:               0.1
 (Enter /share/apps/gaussian/g16/l401.exe)
 ExpMin= 1.06D-01 ExpMax= 1.24D+03 ExpMxC= 1.87D+02 IAcc=3 IRadAn=         5 AccDes= 0.00D+00
 Harris functional with IExCor=  402 and IRadAn=       5 diagonalized for initial guess.
 HarFok:  IExCor=  402 AccDes= 0.00D+00 IRadAn=         5 IDoV= 1 UseB2=F ITyADJ=14
 ICtDFT=  3500011 ScaDFX=  1.000000  1.000000  1.000000  1.000000
 FoFCou: FMM=F IPFlag=           0 FMFlag=      100000 FMFlg1=           0
         NFxFlg=           0 DoJE=T BraDBF=F KetDBF=T FulRan=T
         wScrn=  0.000000 ICntrl=       500 IOpCl=  0 I1Cent=   200000004 NGrid=           0
         NMat0=    1 NMatS0=      1 NMatT0=    0 NMatD0=    1 NMtDS0=    0 NMtDT0=    0
 Petite list used in FoFCou.
 Harris En= -153.296199910756    
 JPrj=0 DoOrth=F DoCkMO=F.
 Leave Link  401 at Fri Sep 22 16:30:23 2023, MaxMem=   268435456 cpu:               1.1 elap:               0.6
 (Enter /share/apps/gaussian/g16/l502.exe)
 Keep R1 ints in memory in canonical form, NReq=4230386.
 FoFCou: FMM=F IPFlag=           0 FMFlag=           0 FMFlg1=           0
         NFxFlg=           0 DoJE=F BraDBF=F KetDBF=F FulRan=T
         wScrn=  0.000000 ICntrl=       600 IOpCl=  0 I1Cent=           0 NGrid=           0
         NMat0=    1 NMatS0=   2211 NMatT0=    0 NMatD0=    1 NMtDS0=    0 NMtDT0=    0
 Symmetry not used in FoFCou.
 Two-electron integral symmetry not used.
 Closed shell SCF:
 Using DIIS extrapolation, IDIIS=  1040.
 NGot=   268435456 LenX=   265979008 LenY=   265973667
 Requested convergence on RMS density matrix=1.00D-08 within 128 cycles.
 Requested convergence on MAX density matrix=1.00D-06.
 Requested convergence on             energy=1.00D-06.
 No special actions if energy rises.

 Cycle   1  Pass 1  IDiag  1:
 Inv3:  Mode=1 IEnd=     1751088.
 Iteration    1 A*A^-1 deviation from unit magnitude is 3.55D-15 for    756.
 Iteration    1 A*A^-1 deviation from orthogonality  is 1.67D-15 for    761    442.
 Iteration    1 A^-1*A deviation from unit magnitude is 4.00D-15 for    756.
 Iteration    1 A^-1*A deviation from orthogonality  is 1.55D-15 for    200     56.
 E= -153.224520759384    
 DIIS: error= 2.92D-02 at cycle   1 NSaved=   1.
 NSaved= 1 IEnMin= 1 EnMin= -153.224520759384     IErMin= 1 ErrMin= 2.92D-02
 ErrMax= 2.92D-02  0.00D+00 EMaxC= 1.00D-01 BMatC= 6.83D-02 BMatP= 6.83D-02
 IDIUse=3 WtCom= 7.08D-01 WtEn= 2.92D-01
 Coeff-Com:  0.100D+01
 Coeff-En:   0.100D+01
 Coeff:      0.100D+01
 Gap=     0.092 Goal=   None    Shift=    0.000
 GapD=    0.092 DampG=0.500 DampE=0.500 DampFc=0.2500 IDamp=-1.
 Damping current iteration by 2.50D-01
 RMSDP=7.87D-03 MaxDP=1.67D-01              OVMax= 2.19D-01

 Cycle   2  Pass 1  IDiag  1:
 E= -153.250086304852     Delta-E=       -0.025565545468 Rises=F Damp=T
 DIIS: error= 1.26D-02 at cycle   2 NSaved=   2.
 NSaved= 2 IEnMin= 2 EnMin= -153.250086304852     IErMin= 2 ErrMin= 1.26D-02
 ErrMax= 1.26D-02  0.00D+00 EMaxC= 1.00D-01 BMatC= 1.08D-02 BMatP= 6.83D-02
 IDIUse=3 WtCom= 8.74D-01 WtEn= 1.26D-01
 Coeff-Com: -0.426D+00 0.143D+01
 Coeff-En:   0.000D+00 0.100D+01
 Coeff:     -0.372D+00 0.137D+01
 Gap=     0.124 Goal=   None    Shift=    0.000
 RMSDP=3.23D-03 MaxDP=3.74D-02 DE=-2.56D-02 OVMax= 1.93D-01

 Cycle   3  Pass 1  IDiag  1:
 E= -153.294192496266     Delta-E=       -0.044106191414 Rises=F Damp=F
 DIIS: error= 5.54D-03 at cycle   3 NSaved=   3.
 NSaved= 3 IEnMin= 3 EnMin= -153.294192496266     IErMin= 3 ErrMin= 5.54D-03
 ErrMax= 5.54D-03  0.00D+00 EMaxC= 1.00D-01 BMatC= 2.51D-03 BMatP= 1.08D-02
 IDIUse=3 WtCom= 9.45D-01 WtEn= 5.54D-02
 Coeff-Com: -0.231D+00 0.608D+00 0.623D+00
 Coeff-En:   0.000D+00 0.000D+00 0.100D+01
 Coeff:     -0.218D+00 0.574D+00 0.644D+00
 Gap=     0.128 Goal=   None    Shift=    0.000
 RMSDP=1.07D-03 MaxDP=1.68D-02 DE=-4.41D-02 OVMax= 2.19D-02

 Cycle   4  Pass 1  IDiag  1:
 E= -153.297342534356     Delta-E=       -0.003150038090 Rises=F Damp=F
 DIIS: error= 9.55D-04 at cycle   4 NSaved=   4.
 NSaved= 4 IEnMin= 4 EnMin= -153.297342534356     IErMin= 4 ErrMin= 9.55D-04
 ErrMax= 9.55D-04  0.00D+00 EMaxC= 1.00D-01 BMatC= 7.51D-05 BMatP= 2.51D-03
 IDIUse=3 WtCom= 9.90D-01 WtEn= 9.55D-03
 Coeff-Com: -0.189D-01 0.496D-01 0.166D+00 0.804D+00
 Coeff-En:   0.000D+00 0.000D+00 0.000D+00 0.100D+01
 Coeff:     -0.187D-01 0.491D-01 0.164D+00 0.806D+00
 Gap=     0.128 Goal=   None    Shift=    0.000
 RMSDP=1.67D-04 MaxDP=3.36D-03 DE=-3.15D-03 OVMax= 4.31D-03

 Cycle   5  Pass 1  IDiag  1:
 E= -153.297433274766     Delta-E=       -0.000090740411 Rises=F Damp=F
 DIIS: error= 3.15D-04 at cycle   5 NSaved=   5.
 NSaved= 5 IEnMin= 5 EnMin= -153.297433274766     IErMin= 5 ErrMin= 3.15D-04
 ErrMax= 3.15D-04  0.00D+00 EMaxC= 1.00D-01 BMatC= 5.43D-06 BMatP= 7.51D-05
 IDIUse=3 WtCom= 9.97D-01 WtEn= 3.15D-03
 Coeff-Com: -0.598D-03 0.322D-02 0.477D-01 0.316D+00 0.633D+00
 Coeff-En:   0.000D+00 0.000D+00 0.000D+00 0.000D+00 0.100D+01
 Coeff:     -0.596D-03 0.321D-02 0.476D-01 0.315D+00 0.635D+00
 Gap=     0.128 Goal=   None    Shift=    0.000
 RMSDP=6.93D-05 MaxDP=1.32D-03 DE=-9.07D-05 OVMax= 2.99D-03

 Cycle   6  Pass 1  IDiag  1:
 E= -153.297435962810     Delta-E=       -0.000002688044 Rises=F Damp=F
 DIIS: error= 2.53D-04 at cycle   6 NSaved=   6.
 NSaved= 6 IEnMin= 6 EnMin= -153.297435962810     IErMin= 6 ErrMin= 2.53D-04
 ErrMax= 2.53D-04  0.00D+00 EMaxC= 1.00D-01 BMatC= 3.60D-06 BMatP= 5.43D-06
 IDIUse=3 WtCom= 9.97D-01 WtEn= 2.53D-03
 Coeff-Com:  0.338D-02-0.675D-02 0.701D-02 0.935D-01 0.450D+00 0.453D+00
 Coeff-En:   0.000D+00 0.000D+00 0.000D+00 0.000D+00 0.409D+00 0.591D+00
 Coeff:      0.337D-02-0.673D-02 0.700D-02 0.933D-01 0.450D+00 0.453D+00
 Gap=     0.128 Goal=   None    Shift=    0.000
 RMSDP=3.19D-05 MaxDP=6.64D-04 DE=-2.69D-06 OVMax= 1.44D-03

 Cycle   7  Pass 1  IDiag  1:
 E= -153.297440755857     Delta-E=       -0.000004793046 Rises=F Damp=F
 DIIS: error= 2.79D-05 at cycle   7 NSaved=   7.
 NSaved= 7 IEnMin= 7 EnMin= -153.297440755857     IErMin= 7 ErrMin= 2.79D-05
 ErrMax= 2.79D-05  0.00D+00 EMaxC= 1.00D-01 BMatC= 7.62D-08 BMatP= 3.60D-06
 IDIUse=1 WtCom= 1.00D+00 WtEn= 0.00D+00
 Coeff-Com:  0.191D-02-0.357D-02-0.665D-04 0.157D-01 0.142D+00 0.183D+00
 Coeff-Com:  0.662D+00
 Coeff:      0.191D-02-0.357D-02-0.665D-04 0.157D-01 0.142D+00 0.183D+00
 Coeff:      0.662D+00
 Gap=     0.128 Goal=   None    Shift=    0.000
 RMSDP=4.65D-06 MaxDP=6.96D-05 DE=-4.79D-06 OVMax= 1.06D-04

 Cycle   8  Pass 1  IDiag  1:
 E= -153.297440832984     Delta-E=       -0.000000077128 Rises=F Damp=F
 DIIS: error= 8.15D-06 at cycle   8 NSaved=   8.
 NSaved= 8 IEnMin= 8 EnMin= -153.297440832984     IErMin= 8 ErrMin= 8.15D-06
 ErrMax= 8.15D-06  0.00D+00 EMaxC= 1.00D-01 BMatC= 8.52D-09 BMatP= 7.62D-08
 IDIUse=1 WtCom= 1.00D+00 WtEn= 0.00D+00
 Coeff-Com:  0.592D-03-0.977D-03-0.590D-03-0.328D-02 0.103D-01 0.316D-01
 Coeff-Com:  0.285D+00 0.678D+00
 Coeff:      0.592D-03-0.977D-03-0.590D-03-0.328D-02 0.103D-01 0.316D-01
 Coeff:      0.285D+00 0.678D+00
 Gap=     0.128 Goal=   None    Shift=    0.000
 RMSDP=1.59D-06 MaxDP=2.44D-05 DE=-7.71D-08 OVMax= 3.52D-05

 Cycle   9  Pass 1  IDiag  1:
 E= -153.297440842677     Delta-E=       -0.000000009692 Rises=F Damp=F
 DIIS: error= 2.06D-06 at cycle   9 NSaved=   9.
 NSaved= 9 IEnMin= 9 EnMin= -153.297440842677     IErMin= 9 ErrMin= 2.06D-06
 ErrMax= 2.06D-06  0.00D+00 EMaxC= 1.00D-01 BMatC= 3.80D-10 BMatP= 8.52D-09
 IDIUse=1 WtCom= 1.00D+00 WtEn= 0.00D+00
 Coeff-Com:  0.717D-04-0.861D-04-0.120D-03-0.207D-02-0.698D-02-0.298D-02
 Coeff-Com:  0.473D-01 0.241D+00 0.724D+00
 Coeff:      0.717D-04-0.861D-04-0.120D-03-0.207D-02-0.698D-02-0.298D-02
 Coeff:      0.473D-01 0.241D+00 0.724D+00
 Gap=     0.128 Goal=   None    Shift=    0.000
 RMSDP=3.78D-07 MaxDP=3.72D-06 DE=-9.69D-09 OVMax= 9.29D-06

 Cycle  10  Pass 1  IDiag  1:
 E= -153.297440843161     Delta-E=       -0.000000000484 Rises=F Damp=F
 DIIS: error= 1.81D-07 at cycle  10 NSaved=  10.
 NSaved=10 IEnMin=10 EnMin= -153.297440843161     IErMin=10 ErrMin= 1.81D-07
 ErrMax= 1.81D-07  0.00D+00 EMaxC= 1.00D-01 BMatC= 3.29D-12 BMatP= 3.80D-10
 IDIUse=1 WtCom= 1.00D+00 WtEn= 0.00D+00
 Coeff-Com: -0.116D-04 0.208D-04 0.985D-06-0.217D-03-0.111D-02-0.107D-02
 Coeff-Com: -0.311D-02 0.683D-02 0.779D-01 0.921D+00
 Coeff:     -0.116D-04 0.208D-04 0.985D-06-0.217D-03-0.111D-02-0.107D-02
 Coeff:     -0.311D-02 0.683D-02 0.779D-01 0.921D+00
 Gap=     0.128 Goal=   None    Shift=    0.000
 RMSDP=9.37D-08 MaxDP=9.98D-07 DE=-4.84D-10 OVMax= 4.83D-06

 Cycle  11  Pass 1  IDiag  1:
 E= -153.297440843178     Delta-E=       -0.000000000017 Rises=F Damp=F
 DIIS: error= 7.15D-08 at cycle  11 NSaved=  11.
 NSaved=11 IEnMin=11 EnMin= -153.297440843178     IErMin=11 ErrMin= 7.15D-08
 ErrMax= 7.15D-08  0.00D+00 EMaxC= 1.00D-01 BMatC= 2.96D-13 BMatP= 3.29D-12
 IDIUse=1 WtCom= 1.00D+00 WtEn= 0.00D+00
 Coeff-Com: -0.402D-06-0.511D-07 0.246D-05 0.675D-04 0.365D-03 0.311D-03
 Coeff-Com: -0.971D-03-0.101D-01-0.444D-01-0.765D-01 0.113D+01
 Coeff:     -0.402D-06-0.511D-07 0.246D-05 0.675D-04 0.365D-03 0.311D-03
 Coeff:     -0.971D-03-0.101D-01-0.444D-01-0.765D-01 0.113D+01
 Gap=     0.128 Goal=   None    Shift=    0.000
 RMSDP=4.45D-08 MaxDP=5.95D-07 DE=-1.73D-11 OVMax= 2.66D-06

 Cycle  12  Pass 1  IDiag  1:
 E= -153.297440843180     Delta-E=       -0.000000000002 Rises=F Damp=F
 DIIS: error= 1.61D-08 at cycle  12 NSaved=  12.
 NSaved=12 IEnMin=12 EnMin= -153.297440843180     IErMin=12 ErrMin= 1.61D-08
 ErrMax= 1.61D-08  0.00D+00 EMaxC= 1.00D-01 BMatC= 1.43D-14 BMatP= 2.96D-13
 IDIUse=1 WtCom= 1.00D+00 WtEn= 0.00D+00
 Coeff-Com:  0.834D-06-0.154D-05-0.259D-06 0.140D-04 0.707D-04 0.753D-04
 Coeff-Com:  0.358D-03 0.418D-03-0.138D-02-0.517D-01-0.119D+00 0.117D+01
 Coeff:      0.834D-06-0.154D-05-0.259D-06 0.140D-04 0.707D-04 0.753D-04
 Coeff:      0.358D-03 0.418D-03-0.138D-02-0.517D-01-0.119D+00 0.117D+01
 Gap=     0.128 Goal=   None    Shift=    0.000
 RMSDP=1.56D-08 MaxDP=2.12D-07 DE=-1.99D-12 OVMax= 9.39D-07

 Cycle  13  Pass 1  IDiag  1:
 E= -153.297440843180     Delta-E=        0.000000000000 Rises=F Damp=F
 DIIS: error= 3.71D-09 at cycle  13 NSaved=  13.
 NSaved=13 IEnMin=12 EnMin= -153.297440843180     IErMin=13 ErrMin= 3.71D-09
 ErrMax= 3.71D-09  0.00D+00 EMaxC= 1.00D-01 BMatC= 1.15D-15 BMatP= 1.43D-14
 IDIUse=1 WtCom= 1.00D+00 WtEn= 0.00D+00
 Coeff-Com:  0.128D-07-0.450D-09-0.176D-06-0.229D-05-0.197D-04-0.225D-04
 Coeff-Com:  0.620D-04 0.682D-03 0.316D-02-0.443D-02-0.901D-01 0.151D+00
 Coeff-Com:  0.940D+00
 Coeff:      0.128D-07-0.450D-09-0.176D-06-0.229D-05-0.197D-04-0.225D-04
 Coeff:      0.620D-04 0.682D-03 0.316D-02-0.443D-02-0.901D-01 0.151D+00
 Coeff:      0.940D+00
 Gap=     0.128 Goal=   None    Shift=    0.000
 RMSDP=2.80D-09 MaxDP=3.93D-08 DE= 3.41D-13 OVMax= 1.74D-07

 Error on total polarization charges =  0.00595
 SCF Done:  E(RB3LYP) =  -153.297440843     A.U. after   13 cycles
            NFock= 13  Conv=0.28D-08     -V/T= 2.0066
 KE= 1.522869315771D+02 PE=-5.042538087932D+02 EE= 1.239744297585D+02
 Leave Link  502 at Fri Sep 22 16:30:32 2023, MaxMem=   268435456 cpu:              17.4 elap:               8.8
 (Enter /share/apps/gaussian/g16/l601.exe)
 Copying SCF densities to generalized density rwf, IOpCl= 0 IROHF=0.

 **********************************************************************

            Population analysis using the SCF density.

 **********************************************************************

 Orbital symmetries:
       Occupied  (A) (A) (A) (A) (A) (A) (A) (A) (A) (A) (A) (A)
                 (A)
       Virtual   (A) (A) (A) (A) (A) (A) (A) (A) (A) (A) (A) (A)
                 (A) (A) (A) (A) (A) (A) (A) (A) (A) (A) (A) (A)
                 (A) (A) (A) (A) (A) (A) (A) (A) (A) (A) (A) (A)
                 (A) (A) (A) (A) (A) (A) (A) (A) (A) (A) (A) (A)
                 (A) (A) (A) (A) (A)
 The electronic state is 1-A.
 Alpha  occ. eigenvalues --  -10.27802 -10.27715 -10.23262 -10.22753  -0.84592
 Alpha  occ. eigenvalues --   -0.75332  -0.58432  -0.56171  -0.46143  -0.36233
 Alpha  occ. eigenvalues --   -0.33929  -0.31458  -0.26807
 Alpha virt. eigenvalues --   -0.13992  -0.12402  -0.06902   0.02654   0.07088
 Alpha virt. eigenvalues --    0.08735   0.19809   0.24460   0.25049   0.38833
 Alpha virt. eigenvalues --    0.39197   0.41034   0.44116   0.44331   0.47602
 Alpha virt. eigenvalues --    0.49977   0.50271   0.51851   0.52444   0.57429
 Alpha virt. eigenvalues --    0.59577   0.63151   0.66563   0.84959   0.87692
 Alpha virt. eigenvalues --    0.91653   1.01888   1.29121   1.32410   1.38762
 Alpha virt. eigenvalues --    1.58799   1.62085   1.64552   1.67213   1.68889
 Alpha virt. eigenvalues --    1.73796   1.77362   1.83905   1.86909   1.91901
 Alpha virt. eigenvalues --    2.01367   2.11381   2.18737   2.23227   2.29666
 Alpha virt. eigenvalues --    2.41047   2.45224   2.48516   2.55165   2.77884
 Alpha virt. eigenvalues --    2.84340   3.19215   3.36726
          Condensed to atoms (all electrons):
               1          2          3          4          5          6
     1  C    5.093516   0.278221   0.475635   0.375139  -0.023155  -0.041442
     2  C    0.278221   5.138451  -0.043212  -0.017145   0.371194   0.436023
     3  C    0.475635  -0.043212   5.584174  -0.007883  -0.007212   0.001235
     4  H    0.375139  -0.017145  -0.007883   0.516759   0.008091  -0.006473
     5  H   -0.023155   0.371194  -0.007212   0.008091   0.497567  -0.016607
     6  C   -0.041442   0.436023   0.001235  -0.006473  -0.016607   5.604718
 Mulliken charges:
               1
     1  C   -0.157913
     2  C   -0.163531
     3  C   -0.002737
     4  H    0.131512
     5  H    0.170123
     6  C    0.022546
 Sum of Mulliken charges =  -0.00000
 Mulliken charges with hydrogens summed into heavy atoms:
               1
     1  C   -0.026401
     2  C    0.006592
     3  C   -0.002737
     6  C    0.022546
 Electronic spatial extent (au):  <R**2>=            258.0729
 Charge=             -0.0000 electrons
 Dipole moment (field-independent basis, Debye):
    X=             -0.0430    Y=              0.2934    Z=              0.4292  Tot=              0.5217
 Quadrupole moment (field-independent basis, Debye-Ang):
   XX=            -34.9118   YY=            -19.7925   ZZ=            -26.6890
   XY=              3.9855   XZ=             -0.0721   YZ=             -0.1492
 Traceless Quadrupole moment (field-independent basis, Debye-Ang):
   XX=             -7.7807   YY=              7.3386   ZZ=              0.4421
   XY=              3.9855   XZ=             -0.0721   YZ=             -0.1492
 Octapole moment (field-independent basis, Debye-Ang**2):
  XXX=              1.7476  YYY=              1.0709  ZZZ=              0.7697  XYY=             -1.0474
  XXY=              1.1293  XXZ=              1.8267  XZZ=             -0.0375  YZZ=              0.0420
  YYZ=              0.9093  XYZ=              0.5450
 Hexadecapole moment (field-independent basis, Debye-Ang**3):
 XXXX=           -420.5547 YYYY=            -42.8976 ZZZZ=            -34.0510 XXXY=             31.1340
 XXXZ=             -0.3447 YYYX=              7.0453 YYYZ=             -0.1891 ZZZX=             -0.1462
 ZZZY=             -0.2220 XXYY=            -61.8423 XXZZ=            -66.5380 YYZZ=            -14.3827
 XXYZ=             -0.5342 YYXZ=             -0.0911 ZZXY=              1.5339
 N-N= 7.469500661443D+01 E-N=-5.042538087424D+02  KE= 1.522869315771D+02
 There are a total of      132140 grid points.
 ElSum from          density=       26.0000007702
 ElSum from atomic densities=       26.0000008613
 Hirshfeld populations at iteration   1 (CA, CB, DipXYZ):
               1          2          3          4          5
     1  C    3.027501   3.027501   0.113573  -0.044939   0.012124
     2  C    3.026397   3.026397  -0.093792   0.047723   0.010487
     3  C    3.012244   3.012244   0.317000  -0.086121   0.024188
     4  H    0.464030   0.464030  -0.010108  -0.173056   0.028707
     5  H    0.457027   0.457027  -0.033937   0.173612   0.018073
     6  C    3.012802   3.012802  -0.294307   0.142901   0.025705
       Tot  13.000000  13.000000  -0.001571   0.060119   0.119284

 Dip from Atomic Chgs             -0.015343   0.055317   0.049575
         Total Dipole             -0.016914   0.115436   0.168858

 Hirshfeld charges, spin densities, dipoles, and CM5 charges using IRadAn=      5:
              Q-H        S-H        Dx         Dy         Dz        Q-CM5   
     1  C   -0.055003   0.000000   0.113573  -0.044939   0.012124  -0.113748
     2  C   -0.052794   0.000000  -0.093792   0.047723   0.010487  -0.101458
     3  C   -0.024487   0.000000   0.317000  -0.086121   0.024188  -0.030684
     4  H    0.071941   0.000000  -0.010108  -0.173056   0.028707   0.136251
     5  H    0.085945   0.000000  -0.033937   0.173612   0.018073   0.138955
     6  C   -0.025603   0.000000  -0.294307   0.142901   0.025705  -0.029316
       Tot  -0.000001   0.000000  -0.001571   0.060119   0.119284  -0.000001
 Hirshfeld charges with hydrogens summed into heavy atoms:
              Q-H       Q-CM5   
     1  C    0.016938   0.022503
     2  C    0.033151   0.037497
     3  C   -0.024487  -0.030684
     6  C   -0.025603  -0.029316
 
 EQQ= 0.000000000000E+00 EQD= 0.000000000000E+00 EDD= 0.480011476085E-02
 EQQ+QD+DD= 0.480011476085E-02
 
 No NMR shielding tensors so no spin-rotation constants.
 Leave Link  601 at Fri Sep 22 16:30:32 2023, MaxMem=   268435456 cpu:               0.9 elap:               0.5
 (Enter /share/apps/gaussian/g16/l9999.exe)
 1\1\GINC-NODE99\SP\RB3LYP\Gen\C4H2\YANZ\22-Sep-2023\0\\#p b3lyp/gen sc
 rf=(cpcm,solvent=toluene) pop=hirshfeld empiricaldispersion=gd3bj\\tmp
 dir/M2_ref_247.gjf\\0,1\C,0,-0.843317,2.479694,3.20125294\C,0,-1.21590
 3,3.836542,2.80413604\C,0,-1.266324,1.267027,2.65368795\H,0,-0.2676408
 7,2.26046295,4.0282419\H,0,-2.06561209,3.85474721,2.09290457\C,0,-0.60
 013247,4.98665983,3.27351963\\Version=ES64L-G16RevA.03\State=1-A\HF=-1
 53.2974408\RMSD=2.803e-09\Dipole=-0.202374,0.0011209,0.0341926\Quadrup
 ole=2.1747373,-4.7744008,2.5996636,-3.0462016,2.052629,-3.1354448\PG=C
 01 [X(C4H2)]\\@


 I WOULD TAKE COUNSEL OF MYSELF.
 I WOULD STOP AND LOOK WITHIN
 AND LOOKING WITHIN, LOOK BACK, ALSO
 THAT I MAY LOOK AHEAD WITH CLEARER UNDERSTANDING
 OF THE WAY I HAVE BEEN MOVING, AND IN WHAT DIRECTION.
 I NEED TO KNOW IF I AM GOING FORWARD OR RETREATING,
 WHETHER I HAVE BEEN WASTING, OR ENJOYING
 THE PRECIOUS MOMENTS OF LIFE.  THERE HAVE BEEN FRICTIONS,
 ANNOYANCES AND SOMETIMES WRATH,
 BUT WERE THEY BECAUSE I WAS RIGHT AND OTHERS WRONG.....
 HAVE I HAD MY THOUGHTS TOO SHARPLY FOCUSED
 ON THAT WHICH PLEASED ME, SERVED MY SELF-ESTEEM,
 UNDERGIRDED MY SECURITY,
 OF WHICH I DID NOT INQUIRE WHETHER IT SERVED OR HAMPERED OTHERS.....
 HAVE I BEEN TRYING TO STOP THE CLOCK
 TO HOLD THE WORLD
 IN PERPETUATION OF WHAT WAS AN IS ALREADY SLIPPING AWAY.....
 HAVE I BEEN CRITICAL OF OTHERS FOR WHAT REALLY NEEDED CHANGING IN ME...
 LET ME INDEED TAKE COUNSEL OF MYSELF
 AND SET MY DIRECTIONS STRAIGHT.

                          R.T. WESTON AS ADAPTED BY D. OSBORN 1967
 Job cpu time:       0 days  0 hours  0 minutes 20.4 seconds.
 Elapsed time:       0 days  0 hours  0 minutes 10.4 seconds.
 File lengths (MBytes):  RWF=     12 Int=      0 D2E=      0 Chk=      2 Scr=      1
 Normal termination of Gaussian 16 at Fri Sep 22 16:30:33 2023.
