 Entering Gaussian System, Link 0=g16
 Initial command:
 /share/apps/gaussian/g16/l1.exe "/tmp/55556.mgr/Gau-81464.inp" -scrdir="/tmp/55556.mgr/"
 Entering Link 1 = /share/apps/gaussian/g16/l1.exe PID=     81465.
  
 Copyright (c) 1988,1990,1992,1993,1995,1998,2003,2009,2016,
            Gaussian, Inc.  All Rights Reserved.
  
 This is part of the Gaussian(R) 16 program.  It is based on
 the Gaussian(R) 09 system (copyright 2009, Gaussian, Inc.),
 the Gaussian(R) 03 system (copyright 2003, Gaussian, Inc.),
 the Gaussian(R) 98 system (copyright 1998, Gaussian, Inc.),
 the Gaussian(R) 94 system (copyright 1995, Gaussian, Inc.),
 the Gaussian 92(TM) system (copyright 1992, Gaussian, Inc.),
 the Gaussian 90(TM) system (copyright 1990, Gaussian, Inc.),
 the Gaussian 88(TM) system (copyright 1988, Gaussian, Inc.),
 the Gaussian 86(TM) system (copyright 1986, Carnegie Mellon
 University), and the Gaussian 82(TM) system (copyright 1983,
 Carnegie Mellon University). Gaussian is a federally registered
 trademark of Gaussian, Inc.
  
 This software contains proprietary and confidential information,
 including trade secrets, belonging to Gaussian, Inc.
  
 This software is provided under written license and may be
 used, copied, transmitted, or stored only in accord with that
 written license.
  
 The following legend is applicable only to US Government
 contracts under FAR:
  
                    RESTRICTED RIGHTS LEGEND
  
 Use, reproduction and disclosure by the US Government is
 subject to restrictions as set forth in subparagraphs (a)
 and (c) of the Commercial Computer Software - Restricted
 Rights clause in FAR 52.227-19.
  
 Gaussian, Inc.
 340 Quinnipiac St., Bldg. 40, Wallingford CT 06492
  
  
 ---------------------------------------------------------------
 Warning -- This program may not be used in any manner that
 competes with the business of Gaussian, Inc. or will provide
 assistance to any competitor of Gaussian, Inc.  The licensee
 of this program is prohibited from giving any competitor of
 Gaussian, Inc. access to this program.  By using this program,
 the user acknowledges that Gaussian, Inc. is engaged in the
 business of creating and licensing software in the field of
 computational chemistry and represents and warrants to the
 licensee that it is not a competitor of Gaussian, Inc. and that
 it will not use this program in any manner prohibited above.
 ---------------------------------------------------------------
  

 Cite this work as:
 Gaussian 16, Revision A.03,
 M. J. Frisch, G. W. Trucks, H. B. Schlegel, G. E. Scuseria, 
 M. A. Robb, J. R. Cheeseman, G. Scalmani, V. Barone, 
 G. A. Petersson, H. Nakatsuji, X. Li, M. Caricato, A. V. Marenich, 
 J. Bloino, B. G. Janesko, R. Gomperts, B. Mennucci, H. P. Hratchian, 
 J. V. Ortiz, A. F. Izmaylov, J. L. Sonnenberg, D. Williams-Young, 
 F. Ding, F. Lipparini, F. Egidi, J. Goings, B. Peng, A. Petrone, 
 T. Henderson, D. Ranasinghe, V. G. Zakrzewski, J. Gao, N. Rega, 
 G. Zheng, W. Liang, M. Hada, M. Ehara, K. Toyota, R. Fukuda, 
 J. Hasegawa, M. Ishida, T. Nakajima, Y. Honda, O. Kitao, H. Nakai, 
 T. Vreven, K. Throssell, J. A. Montgomery, Jr., J. E. Peralta, 
 F. Ogliaro, M. J. Bearpark, J. J. Heyd, E. N. Brothers, K. N. Kudin, 
 V. N. Staroverov, T. A. Keith, R. Kobayashi, J. Normand, 
 K. Raghavachari, A. P. Rendell, J. C. Burant, S. S. Iyengar, 
 J. Tomasi, M. Cossi, J. M. Millam, M. Klene, C. Adamo, R. Cammi, 
 J. W. Ochterski, R. L. Martin, K. Morokuma, O. Farkas, 
 J. B. Foresman, and D. J. Fox, Gaussian, Inc., Wallingford CT, 2016.
 
 ******************************************
 Gaussian 16:  ES64L-G16RevA.03 25-Dec-2016
                22-Sep-2023 
 ******************************************
 %nprocshared=2
 Will use up to    2 processors via shared memory.
 %mem=2GB
 ----------------------------------------------------------------------
 #p b3lyp/gen scrf=(cpcm,solvent=toluene) pop=hirshfeld empiricaldisper
 sion=gd3bj
 ----------------------------------------------------------------------
 1/38=1,172=1/1;
 2/12=2,17=6,18=5,40=1/2;
 3/5=7,11=2,25=1,30=1,70=2101,72=13,74=-5,124=41/1,2,3;
 4//1;
 5/5=2,38=5,53=13/2;
 6/7=2,8=2,9=2,10=2,28=1,79=1/1;
 99/5=1,9=1/99;
 Leave Link    1 at Fri Sep 22 16:30:21 2023, MaxMem=   268435456 cpu:               0.1 elap:               0.0
 (Enter /share/apps/gaussian/g16/l101.exe)
 ---------------------
 tmpdir/M2_ref_232.gjf
 ---------------------
 Symbolic Z-matrix:
 Charge =  0 Multiplicity = 1
 N                    -0.76058   0.253     3.44671 
 C                    -1.25126  -1.1355    3.38615 
 H                    -1.1147    0.96301   2.89145 
 H                    -0.23887   0.64446   4.17997 
 H                    -0.43852  -1.90298   3.34884 
 H                    -1.99078  -1.28661   4.20684 
 H                    -1.78101  -1.21993   2.43207 
 
 ITRead=  0  0  0  0  0  0  0
 MicOpt= -1 -1 -1 -1 -1 -1 -1
 NAtoms=      7 NQM=        7 NQMF=       0 NMMI=      0 NMMIF=      0
                NMic=       0 NMicF=      0.
                    Isotopes and Nuclear Properties:
 (Nuclear quadrupole moments (NQMom) in fm**2, nuclear magnetic moments (NMagM)
  in nuclear magnetons)

  Atom         1           2           3           4           5           6           7
 IAtWgt=          14          12           1           1           1           1           1
 AtmWgt=  14.0030740  12.0000000   1.0078250   1.0078250   1.0078250   1.0078250   1.0078250
 NucSpn=           2           0           1           1           1           1           1
 AtZEff=  -0.0000000  -0.0000000  -0.0000000  -0.0000000  -0.0000000  -0.0000000  -0.0000000
 NQMom=    2.0440000   0.0000000   0.0000000   0.0000000   0.0000000   0.0000000   0.0000000
 NMagM=    0.4037610   0.0000000   2.7928460   2.7928460   2.7928460   2.7928460   2.7928460
 AtZNuc=   7.0000000   6.0000000   1.0000000   1.0000000   1.0000000   1.0000000   1.0000000
 Leave Link  101 at Fri Sep 22 16:30:21 2023, MaxMem=   268435456 cpu:               0.2 elap:               0.1
 (Enter /share/apps/gaussian/g16/l202.exe)
                          Input orientation:                          
 ---------------------------------------------------------------------
 Center     Atomic      Atomic             Coordinates (Angstroms)
 Number     Number       Type             X           Y           Z
 ---------------------------------------------------------------------
      1          7           0       -0.760583    0.252997    3.446712
      2          6           0       -1.251256   -1.135500    3.386145
      3          1           0       -1.114697    0.963010    2.891445
      4          1           0       -0.238871    0.644461    4.179972
      5          1           0       -0.438515   -1.902985    3.348839
      6          1           0       -1.990784   -1.286609    4.206842
      7          1           0       -1.781007   -1.219927    2.432070
 ---------------------------------------------------------------------
                    Distance matrix (angstroms):
                    1          2          3          4          5
     1  N    0.000000
     2  C    1.473890   0.000000
     3  H    0.968419   2.160352   0.000000
     4  H    0.981375   2.196211   1.590235   0.000000
     5  H    2.182101   1.118469   2.979993   2.687028   0.000000
     6  H    2.112245   1.115024   2.749287   2.607480   1.877666
     7  H    2.059191   1.094543   2.328134   2.984843   1.763326
                    6          7
     6  H    0.000000
     7  H    1.788370   0.000000
 Stoichiometry    CH5N
 Framework group  C1[X(CH5N)]
 Deg. of freedom    15
 Full point group                 C1      NOp   1
 Largest Abelian subgroup         C1      NOp   1
 Largest concise Abelian subgroup C1      NOp   1
                         Standard orientation:                         
 ---------------------------------------------------------------------
 Center     Atomic      Atomic             Coordinates (Angstroms)
 Number     Number       Type             X           Y           Z
 ---------------------------------------------------------------------
      1          7           0        0.736360   -0.005584   -0.037099
      2          6           0       -0.736774   -0.013957    0.009368
      3          1           0        1.263293    0.801056    0.060418
      4          1           0        1.317317   -0.788168    0.077566
      5          1           0       -1.213380   -0.610470   -0.807939
      6          1           0       -1.057711   -0.301916    1.037647
      7          1           0       -1.043391    1.022326   -0.164203
 ---------------------------------------------------------------------
 Rotational constants (GHZ):         110.0542045          22.0165762          21.0979165
 Leave Link  202 at Fri Sep 22 16:30:21 2023, MaxMem=   268435456 cpu:               0.0 elap:               0.0
 (Enter /share/apps/gaussian/g16/l301.exe)
 General basis read from cards:  (5D, 7F)
 Centers:       3      4      5      6      7
 S 3 1.00
     Exponent=  1.2251800000D+01 Coefficients=  2.3337100000D-02
     Exponent=  1.8687100000D+00 Coefficients=  1.5915000000D-01
     Exponent=  4.1820800000D-01 Coefficients=  5.0000000000D-01
 S 1 1.00
     Exponent=  1.0610000000D-01 Coefficients=  1.0000000000D+00
 P 1 1.00
     Exponent=  1.0000000000D+00 Coefficients=  1.0000000000D+00
 ****
 Centers:       2
 S 5 1.00
     Exponent=  1.2432000000D+03 Coefficients=  6.0336600000D-03
     Exponent=  1.8714500000D+02 Coefficients=  4.4957600000D-02
     Exponent=  4.2512600000D+01 Coefficients=  1.9790100000D-01
     Exponent=  1.1739300000D+01 Coefficients=  5.0000000000D-01
     Exponent=  3.5054800000D+00 Coefficients=  4.8036400000D-01
 S 2 1.00
     Exponent=  5.3908900000D+00 Coefficients= -7.0398000000D-02
     Exponent=  4.9334100000D-01 Coefficients=  5.0000000000D-01
 S 1 1.00
     Exponent=  1.4974100000D-01 Coefficients=  1.0000000000D+00
 P 3 1.00
     Exponent=  9.1805600000D+00 Coefficients=  4.3170100000D-02
     Exponent=  1.9365800000D+00 Coefficients=  2.2499900000D-01
     Exponent=  5.2629600000D-01 Coefficients=  5.0000000000D-01
 P 1 1.00
     Exponent=  1.3631900000D-01 Coefficients=  1.0000000000D+00
 D 1 1.00
     Exponent=  8.0000000000D-01 Coefficients=  1.0000000000D+00
 ****
 Centers:       1
 S 5 1.00
     Exponent=  1.7263200000D+03 Coefficients=  5.9307700000D-03
     Exponent=  2.5982700000D+02 Coefficients=  4.4253900000D-02
     Exponent=  5.9033500000D+01 Coefficients=  1.9609600000D-01
     Exponent=  1.6350900000D+01 Coefficients=  5.0000000000D-01
     Exponent=  4.9108400000D+00 Coefficients=  4.8298700000D-01
 S 2 1.00
     Exponent=  7.7589400000D+00 Coefficients= -7.0335600000D-02
     Exponent=  7.0557300000D-01 Coefficients=  5.0000000000D-01
 S 1 1.00
     Exponent=  2.0928600000D-01 Coefficients=  1.0000000000D+00
 P 3 1.00
     Exponent=  1.3184400000D+01 Coefficients=  4.4074700000D-02
     Exponent=  2.8186000000D+00 Coefficients=  2.3047800000D-01
     Exponent=  7.6557100000D-01 Coefficients=  5.0000000000D-01
 P 1 1.00
     Exponent=  1.9594900000D-01 Coefficients=  1.0000000000D+00
 D 1 1.00
     Exponent=  9.0000000000D-01 Coefficients=  1.0000000000D+00
 ****
 Ernie: Thresh=  0.10000D-02 Tol=  0.10000D-05 Strict=F.
 There are    55 symmetry adapted cartesian basis functions of A   symmetry.
 There are    53 symmetry adapted basis functions of A   symmetry.
    53 basis functions,    87 primitive gaussians,    55 cartesian basis functions
     9 alpha electrons        9 beta electrons
       nuclear repulsion energy        41.8167729752 Hartrees.
 IExCor=  402 DFT=T Ex+Corr=B3LYP ExCW=0 ScaHFX=  0.200000
 ScaDFX=  0.800000  0.720000  1.000000  0.810000 ScalE2=  1.000000  1.000000
 IRadAn=      5 IRanWt=     -1 IRanGd=            0 ICorTp=0 IEmpDi=141
 NAtoms=    7 NActive=    7 NUniq=    7 SFac= 1.00D+00 NAtFMM=   60 NAOKFM=F Big=F
 Integral buffers will be    131072 words long.
 Raffenetti 2 integral format.
 Two-electron integral symmetry is turned on.
 R6Disp:  Grimme-D3(BJ) Dispersion energy=       -0.0042918648 Hartrees.
 Nuclear repulsion after empirical dispersion term =       41.8124811104 Hartrees.
 ------------------------------------------------------------------------------
 Polarizable Continuum Model (PCM)
 =================================
 Model                : C-PCM.
 Atomic radii         : UFF (Universal Force Field).
 Polarization charges : Total charges.
 Charge compensation  : None.
 Solution method      : On-the-fly selection.
 Cavity type          : Scaled VdW (van der Waals Surface) (Alpha=1.100).
 Cavity algorithm     : GePol (No added spheres)
                        Default sphere list used, NSphG=    7.
                        Lebedev-Laikov grids with approx.  5.0 points / Ang**2.
                        Smoothing algorithm: York/Karplus (Gamma=1.0000).
                        Polarization charges: spherical gaussians, with
                                              point-specific exponents (IZeta= 3).
                        Self-potential: point-specific (ISelfS= 7).
                        Self-field    : sphere-specific E.n sum rule (ISelfD= 2).
 Solvent              : Toluene, Eps=   2.374100 Eps(inf)=   2.238315
 ------------------------------------------------------------------------------
 Spheres list:
 ISph  on   Nord     Re0    Alpha      Xe            Ye            Ze
    1   N      1    1.8300  1.100      0.736360     -0.005584     -0.037099
    2   C      2    1.9255  1.100     -0.736774     -0.013957      0.009368
    3   H      3    1.4430  1.100      1.263293      0.801056      0.060418
    4   H      4    1.4430  1.100      1.317317     -0.788168      0.077566
    5   H      5    1.4430  1.100     -1.213380     -0.610470     -0.807939
    6   H      6    1.4430  1.100     -1.057711     -0.301916      1.037647
    7   H      7    1.4430  1.100     -1.043391      1.022326     -0.164203
 ------------------------------------------------------------------------------
 GePol: Number of generator spheres                  =       7
 GePol: Total number of spheres                      =       7
 GePol: Number of exposed spheres                    =       7 (100.00%)
 GePol: Number of points                             =     684
 GePol: Average weight of points                     =       0.13
 GePol: Minimum weight of points                     =   0.52D-08
 GePol: Maximum weight of points                     =    0.20577
 GePol: Number of points with low weight             =      49
 GePol: Fraction of low-weight points (<1% of avg)   =       7.16%
 GePol: Cavity surface area                          =     90.041 Ang**2
 GePol: Cavity volume                                =     71.076 Ang**3
 Leave Link  301 at Fri Sep 22 16:30:21 2023, MaxMem=   268435456 cpu:               0.2 elap:               0.1
 (Enter /share/apps/gaussian/g16/l302.exe)
 NPDir=0 NMtPBC=     1 NCelOv=     1 NCel=       1 NClECP=     1 NCelD=      1
         NCelK=      1 NCelE2=     1 NClLst=     1 CellRange=     0.0.
 One-electron integrals computed using PRISM.
 One-electron integral symmetry used in STVInt
 NBasis=    53 RedAO= T EigKep=  1.30D-02  NBF=    53
 NBsUse=    53 1.00D-06 EigRej= -1.00D+00 NBFU=    53
 Precomputing XC quadrature grid using
 IXCGrd= 4 IRadAn=           5 IRanWt=          -1 IRanGd=           0 AccXCQ= 0.00D+00.
 Generated NRdTot=       0 NPtTot=           0 NUsed=           0 NTot=          32
 NSgBfM=    55    55    55    55    55 MxSgAt=     7 MxSgA2=     7.
 Leave Link  302 at Fri Sep 22 16:30:21 2023, MaxMem=   268435456 cpu:               0.3 elap:               0.2
 (Enter /share/apps/gaussian/g16/l303.exe)
 DipDrv:  MaxL=1.
 Leave Link  303 at Fri Sep 22 16:30:21 2023, MaxMem=   268435456 cpu:               0.1 elap:               0.0
 (Enter /share/apps/gaussian/g16/l401.exe)
 ExpMin= 1.06D-01 ExpMax= 1.73D+03 ExpMxC= 2.60D+02 IAcc=3 IRadAn=         5 AccDes= 0.00D+00
 Harris functional with IExCor=  402 and IRadAn=       5 diagonalized for initial guess.
 HarFok:  IExCor=  402 AccDes= 0.00D+00 IRadAn=         5 IDoV= 1 UseB2=F ITyADJ=14
 ICtDFT=  3500011 ScaDFX=  1.000000  1.000000  1.000000  1.000000
 FoFCou: FMM=F IPFlag=           0 FMFlag=      100000 FMFlg1=           0
         NFxFlg=           0 DoJE=T BraDBF=F KetDBF=T FulRan=T
         wScrn=  0.000000 ICntrl=       500 IOpCl=  0 I1Cent=   200000004 NGrid=           0
         NMat0=    1 NMatS0=      1 NMatT0=    0 NMatD0=    1 NMtDS0=    0 NMtDT0=    0
 Petite list used in FoFCou.
 Harris En= -95.8598305421902    
 JPrj=0 DoOrth=F DoCkMO=F.
 Leave Link  401 at Fri Sep 22 16:30:22 2023, MaxMem=   268435456 cpu:               1.0 elap:               0.5
 (Enter /share/apps/gaussian/g16/l502.exe)
 Keep R1 ints in memory in canonical form, NReq=2776633.
 FoFCou: FMM=F IPFlag=           0 FMFlag=           0 FMFlg1=           0
         NFxFlg=           0 DoJE=F BraDBF=F KetDBF=F FulRan=T
         wScrn=  0.000000 ICntrl=       600 IOpCl=  0 I1Cent=           0 NGrid=           0
         NMat0=    1 NMatS0=   1431 NMatT0=    0 NMatD0=    1 NMtDS0=    0 NMtDT0=    0
 Symmetry not used in FoFCou.
 Two-electron integral symmetry not used.
 Closed shell SCF:
 Using DIIS extrapolation, IDIIS=  1040.
 NGot=   268435456 LenX=   267403681 LenY=   267400215
 Requested convergence on RMS density matrix=1.00D-08 within 128 cycles.
 Requested convergence on MAX density matrix=1.00D-06.
 Requested convergence on             energy=1.00D-06.
 No special actions if energy rises.

 Cycle   1  Pass 1  IDiag  1:
 Inv3:  Mode=1 IEnd=     1403568.
 Iteration    1 A*A^-1 deviation from unit magnitude is 2.44D-15 for    683.
 Iteration    1 A*A^-1 deviation from orthogonality  is 1.28D-15 for    683    356.
 Iteration    1 A^-1*A deviation from unit magnitude is 2.66D-15 for    683.
 Iteration    1 A^-1*A deviation from orthogonality  is 9.30D-16 for    570    428.
 E= -95.7300139981150    
 DIIS: error= 3.84D-02 at cycle   1 NSaved=   1.
 NSaved= 1 IEnMin= 1 EnMin= -95.7300139981150     IErMin= 1 ErrMin= 3.84D-02
 ErrMax= 3.84D-02  0.00D+00 EMaxC= 1.00D-01 BMatC= 1.07D-01 BMatP= 1.07D-01
 IDIUse=3 WtCom= 6.16D-01 WtEn= 3.84D-01
 Coeff-Com:  0.100D+01
 Coeff-En:   0.100D+01
 Coeff:      0.100D+01
 Gap=     0.168 Goal=   None    Shift=    0.000
 GapD=    0.168 DampG=1.000 DampE=0.500 DampFc=0.5000 IDamp=-1.
 Damping current iteration by 5.00D-01
 RMSDP=1.12D-02 MaxDP=1.94D-01              OVMax= 1.78D-01

 Cycle   2  Pass 1  IDiag  1:
 E= -95.7716563107466     Delta-E=       -0.041642312632 Rises=F Damp=T
 DIIS: error= 8.67D-03 at cycle   2 NSaved=   2.
 NSaved= 2 IEnMin= 2 EnMin= -95.7716563107466     IErMin= 2 ErrMin= 8.67D-03
 ErrMax= 8.67D-03  0.00D+00 EMaxC= 1.00D-01 BMatC= 4.50D-03 BMatP= 1.07D-01
 IDIUse=3 WtCom= 9.13D-01 WtEn= 8.67D-02
 Coeff-Com:  0.128D+00 0.872D+00
 Coeff-En:   0.211D+00 0.789D+00
 Coeff:      0.135D+00 0.865D+00
 Gap=     0.265 Goal=   None    Shift=    0.000
 RMSDP=1.64D-03 MaxDP=1.27D-02 DE=-4.16D-02 OVMax= 1.04D-01

 Cycle   3  Pass 1  IDiag  1:
 E= -95.8327238153970     Delta-E=       -0.061067504650 Rises=F Damp=F
 DIIS: error= 2.27D-03 at cycle   3 NSaved=   3.
 NSaved= 3 IEnMin= 3 EnMin= -95.8327238153970     IErMin= 3 ErrMin= 2.27D-03
 ErrMax= 2.27D-03  0.00D+00 EMaxC= 1.00D-01 BMatC= 4.75D-04 BMatP= 4.50D-03
 IDIUse=3 WtCom= 9.77D-01 WtEn= 2.27D-02
 Coeff-Com:  0.251D-01 0.239D+00 0.736D+00
 Coeff-En:   0.000D+00 0.000D+00 0.100D+01
 Coeff:      0.246D-01 0.233D+00 0.742D+00
 Gap=     0.264 Goal=   None    Shift=    0.000
 RMSDP=4.30D-04 MaxDP=7.40D-03 DE=-6.11D-02 OVMax= 1.02D-02

 Cycle   4  Pass 1  IDiag  1:
 E= -95.8330222514607     Delta-E=       -0.000298436064 Rises=F Damp=F
 DIIS: error= 1.41D-03 at cycle   4 NSaved=   4.
 NSaved= 4 IEnMin= 4 EnMin= -95.8330222514607     IErMin= 4 ErrMin= 1.41D-03
 ErrMax= 1.41D-03  0.00D+00 EMaxC= 1.00D-01 BMatC= 1.44D-04 BMatP= 4.75D-04
 IDIUse=3 WtCom= 9.86D-01 WtEn= 1.41D-02
 Coeff-Com:  0.477D-02 0.574D-01 0.365D+00 0.572D+00
 Coeff-En:   0.000D+00 0.000D+00 0.204D+00 0.796D+00
 Coeff:      0.471D-02 0.566D-01 0.363D+00 0.576D+00
 Gap=     0.266 Goal=   None    Shift=    0.000
 RMSDP=1.79D-04 MaxDP=2.96D-03 DE=-2.98D-04 OVMax= 3.60D-03

 Cycle   5  Pass 1  IDiag  1:
 E= -95.8331541556366     Delta-E=       -0.000131904176 Rises=F Damp=F
 DIIS: error= 3.16D-04 at cycle   5 NSaved=   5.
 NSaved= 5 IEnMin= 5 EnMin= -95.8331541556366     IErMin= 5 ErrMin= 3.16D-04
 ErrMax= 3.16D-04  0.00D+00 EMaxC= 1.00D-01 BMatC= 4.38D-06 BMatP= 1.44D-04
 IDIUse=3 WtCom= 9.97D-01 WtEn= 3.16D-03
 Coeff-Com: -0.504D-03-0.337D-02 0.540D-01 0.193D+00 0.757D+00
 Coeff-En:   0.000D+00 0.000D+00 0.000D+00 0.000D+00 0.100D+01
 Coeff:     -0.502D-03-0.336D-02 0.538D-01 0.192D+00 0.758D+00
 Gap=     0.266 Goal=   None    Shift=    0.000
 RMSDP=2.64D-05 MaxDP=3.81D-04 DE=-1.32D-04 OVMax= 5.27D-04

 Cycle   6  Pass 1  IDiag  1:
 E= -95.8331580526763     Delta-E=       -0.000003897040 Rises=F Damp=F
 DIIS: error= 9.53D-06 at cycle   6 NSaved=   6.
 NSaved= 6 IEnMin= 6 EnMin= -95.8331580526763     IErMin= 6 ErrMin= 9.53D-06
 ErrMax= 9.53D-06  0.00D+00 EMaxC= 1.00D-01 BMatC= 5.60D-09 BMatP= 4.38D-06
 IDIUse=1 WtCom= 1.00D+00 WtEn= 0.00D+00
 Coeff-Com:  0.564D-04-0.673D-03 0.290D-02 0.135D-01 0.703D-01 0.914D+00
 Coeff:      0.564D-04-0.673D-03 0.290D-02 0.135D-01 0.703D-01 0.914D+00
 Gap=     0.266 Goal=   None    Shift=    0.000
 RMSDP=2.28D-06 MaxDP=2.87D-05 DE=-3.90D-06 OVMax= 3.81D-05

 Cycle   7  Pass 1  IDiag  1:
 E= -95.8331580590371     Delta-E=       -0.000000006361 Rises=F Damp=F
 DIIS: error= 1.42D-06 at cycle   7 NSaved=   7.
 NSaved= 7 IEnMin= 7 EnMin= -95.8331580590371     IErMin= 7 ErrMin= 1.42D-06
 ErrMax= 1.42D-06  0.00D+00 EMaxC= 1.00D-01 BMatC= 1.40D-10 BMatP= 5.60D-09
 IDIUse=1 WtCom= 1.00D+00 WtEn= 0.00D+00
 Coeff-Com:  0.186D-04-0.282D-04-0.544D-03-0.110D-02-0.398D-02 0.128D+00
 Coeff-Com:  0.878D+00
 Coeff:      0.186D-04-0.282D-04-0.544D-03-0.110D-02-0.398D-02 0.128D+00
 Coeff:      0.878D+00
 Gap=     0.266 Goal=   None    Shift=    0.000
 RMSDP=2.29D-07 MaxDP=3.54D-06 DE=-6.36D-09 OVMax= 4.69D-06

 Cycle   8  Pass 1  IDiag  1:
 E= -95.8331580591904     Delta-E=       -0.000000000153 Rises=F Damp=F
 DIIS: error= 2.02D-07 at cycle   8 NSaved=   8.
 NSaved= 8 IEnMin= 8 EnMin= -95.8331580591904     IErMin= 8 ErrMin= 2.02D-07
 ErrMax= 2.02D-07  0.00D+00 EMaxC= 1.00D-01 BMatC= 3.02D-12 BMatP= 1.40D-10
 IDIUse=1 WtCom= 1.00D+00 WtEn= 0.00D+00
 Coeff-Com:  0.878D-06 0.892D-05-0.143D-03-0.398D-03-0.203D-02 0.457D-02
 Coeff-Com:  0.137D+00 0.861D+00
 Coeff:      0.878D-06 0.892D-05-0.143D-03-0.398D-03-0.203D-02 0.457D-02
 Coeff:      0.137D+00 0.861D+00
 Gap=     0.266 Goal=   None    Shift=    0.000
 RMSDP=4.13D-08 MaxDP=5.27D-07 DE=-1.53D-10 OVMax= 6.44D-07

 Cycle   9  Pass 1  IDiag  1:
 E= -95.8331580591934     Delta-E=       -0.000000000003 Rises=F Damp=F
 DIIS: error= 3.41D-08 at cycle   9 NSaved=   9.
 NSaved= 9 IEnMin= 9 EnMin= -95.8331580591934     IErMin= 9 ErrMin= 3.41D-08
 ErrMax= 3.41D-08  0.00D+00 EMaxC= 1.00D-01 BMatC= 8.97D-14 BMatP= 3.02D-12
 IDIUse=1 WtCom= 1.00D+00 WtEn= 0.00D+00
 Coeff-Com: -0.521D-06 0.243D-05-0.145D-04-0.513D-04-0.298D-03-0.196D-02
 Coeff-Com:  0.469D-02 0.166D+00 0.832D+00
 Coeff:     -0.521D-06 0.243D-05-0.145D-04-0.513D-04-0.298D-03-0.196D-02
 Coeff:      0.469D-02 0.166D+00 0.832D+00
 Gap=     0.266 Goal=   None    Shift=    0.000
 RMSDP=6.68D-09 MaxDP=8.52D-08 DE=-3.01D-12 OVMax= 1.05D-07

 Error on total polarization charges =  0.00396
 SCF Done:  E(RB3LYP) =  -95.8331580592     A.U. after    9 cycles
            NFock=  9  Conv=0.67D-08     -V/T= 2.0060
 KE= 9.525715048372D+01 PE=-3.064709718763D+02 EE= 7.356818222293D+01
 Leave Link  502 at Fri Sep 22 16:30:27 2023, MaxMem=   268435456 cpu:               9.9 elap:               5.0
 (Enter /share/apps/gaussian/g16/l601.exe)
 Copying SCF densities to generalized density rwf, IOpCl= 0 IROHF=0.

 **********************************************************************

            Population analysis using the SCF density.

 **********************************************************************

 Orbital symmetries:
       Occupied  (A) (A) (A) (A) (A) (A) (A) (A) (A)
       Virtual   (A) (A) (A) (A) (A) (A) (A) (A) (A) (A) (A) (A)
                 (A) (A) (A) (A) (A) (A) (A) (A) (A) (A) (A) (A)
                 (A) (A) (A) (A) (A) (A) (A) (A) (A) (A) (A) (A)
                 (A) (A) (A) (A) (A) (A) (A) (A)
 The electronic state is 1-A.
 Alpha  occ. eigenvalues --  -14.27174 -10.19999  -0.85957  -0.66489  -0.48731
 Alpha  occ. eigenvalues --   -0.43554  -0.41849  -0.36891  -0.21150
 Alpha virt. eigenvalues --    0.05404   0.08004   0.10002   0.12188   0.15568
 Alpha virt. eigenvalues --    0.19999   0.38770   0.44500   0.46448   0.58726
 Alpha virt. eigenvalues --    0.61005   0.64139   0.65785   0.67135   0.71829
 Alpha virt. eigenvalues --    0.79769   0.81631   0.93656   1.25665   1.32353
 Alpha virt. eigenvalues --    1.48699   1.55672   1.78512   1.82572   1.85657
 Alpha virt. eigenvalues --    1.89545   1.90488   2.06182   2.07911   2.11868
 Alpha virt. eigenvalues --    2.20351   2.32914   2.38748   2.47754   2.55408
 Alpha virt. eigenvalues --    2.63714   2.69824   2.79936   2.92685   3.13904
 Alpha virt. eigenvalues --    3.17972   3.21296   3.35959   3.51547
          Condensed to atoms (all electrons):
               1          2          3          4          5          6
     1  N    6.533464   0.308202   0.399679   0.396383  -0.036940  -0.058319
     2  C    0.308202   4.558440  -0.026592  -0.029891   0.401171   0.411476
     3  H    0.399679  -0.026592   0.531401  -0.040726   0.006246   0.003923
     4  H    0.396383  -0.029891  -0.040726   0.528368  -0.004448  -0.003210
     5  H   -0.036940   0.401171   0.006246  -0.004448   0.608031  -0.036495
     6  H   -0.058319   0.411476   0.003923  -0.003210  -0.036495   0.629760
     7  H   -0.026052   0.401040  -0.014955   0.008437  -0.029322  -0.027867
               7
     1  N   -0.026052
     2  C    0.401040
     3  H   -0.014955
     4  H    0.008437
     5  H   -0.029322
     6  H   -0.027867
     7  H    0.607055
 Mulliken charges:
               1
     1  N   -0.516417
     2  C   -0.023846
     3  H    0.141025
     4  H    0.145087
     5  H    0.091758
     6  H    0.080731
     7  H    0.081663
 Sum of Mulliken charges =  -0.00000
 Mulliken charges with hydrogens summed into heavy atoms:
               1
     1  N   -0.230305
     2  C    0.230305
 Electronic spatial extent (au):  <R**2>=             96.7462
 Charge=             -0.0000 electrons
 Dipole moment (field-independent basis, Debye):
    X=              0.1254    Y=              0.1580    Z=              0.3911  Tot=              0.4401
 Quadrupole moment (field-independent basis, Debye-Ang):
   XX=            -12.5112   YY=            -12.7076   ZZ=            -15.5059
   XY=             -0.1311   XZ=              0.7775   YZ=             -0.0023
 Traceless Quadrupole moment (field-independent basis, Debye-Ang):
   XX=              1.0637   YY=              0.8673   ZZ=             -1.9310
   XY=             -0.1311   XZ=              0.7775   YZ=             -0.0023
 Octapole moment (field-independent basis, Debye-Ang**2):
  XXX=              6.1443  YYY=              0.8213  ZZZ=              0.6220  XYY=              2.5967
  XXY=              0.0675  XXZ=              0.3466  XZZ=             -0.7788  YZZ=             -0.2878
  YYZ=             -0.0656  XYZ=             -0.1259
 Hexadecapole moment (field-independent basis, Debye-Ang**3):
 XXXX=            -73.1960 YYYY=            -23.2152 ZZZZ=            -23.8036 XXXY=             -0.4056
 XXXZ=              1.7922 YYYX=             -0.7632 YYYZ=             -0.0619 ZZZX=              0.5803
 ZZZY=              0.0224 XXYY=            -14.4018 XXZZ=            -17.8494 YYZZ=             -8.1884
 XXYZ=              0.1444 YYXZ=              0.6986 ZZXY=              0.4127
 N-N= 4.181248111041D+01 E-N=-3.064709712456D+02  KE= 9.525715048372D+01
 There are a total of      155404 grid points.
 ElSum from          density=       18.0000005254
 ElSum from atomic densities=       18.0000004900
 Hirshfeld populations at iteration   1 (CA, CB, DipXYZ):
               1          2          3          4          5
     1  N    3.616479   3.616479  -0.060941  -0.003095   0.085770
     2  C    3.013902   3.013902   0.036445  -0.013912  -0.004052
     3  H    0.455329   0.455329   0.113319   0.154557   0.026304
     4  H    0.454986   0.454986   0.122170  -0.144623   0.028791
     5  H    0.485525   0.485525  -0.067548  -0.064042  -0.098178
     6  H    0.491075   0.491075  -0.036767  -0.027635   0.118416
     7  H    0.482704   0.482704  -0.039031   0.133329  -0.022466
       Tot   9.000000   9.000000   0.067648   0.034578   0.134585

 Dip from Atomic Chgs             -0.018326   0.027593   0.019303
         Total Dipole              0.049322   0.062171   0.153888

 Hirshfeld charges, spin densities, dipoles, and CM5 charges using IRadAn=      5:
              Q-H        S-H        Dx         Dy         Dz        Q-CM5   
     1  N   -0.232958   0.000000  -0.060941  -0.003095   0.085770  -0.722966
     2  C   -0.027805   0.000000   0.036445  -0.013912  -0.004052  -0.117238
     3  H    0.089342   0.000000   0.113319   0.154557   0.026304   0.296174
     4  H    0.090027   0.000000   0.122170  -0.144623   0.028791   0.290155
     5  H    0.028951   0.000000  -0.067548  -0.064042  -0.098178   0.083580
     6  H    0.017850   0.000000  -0.036767  -0.027635   0.118416   0.074767
     7  H    0.034592   0.000000  -0.039031   0.133329  -0.022466   0.095527
       Tot  -0.000001   0.000000   0.067648   0.034578   0.134585  -0.000001
 Hirshfeld charges with hydrogens summed into heavy atoms:
              Q-H       Q-CM5   
     1  N   -0.053589  -0.136637
     2  C    0.053589   0.136637
 
 EQQ= 0.000000000000E+00 EQD= 0.000000000000E+00 EDD=-0.281902285845E-02
 EQQ+QD+DD=-0.281902285845E-02
 
 No NMR shielding tensors so no spin-rotation constants.
 Leave Link  601 at Fri Sep 22 16:30:27 2023, MaxMem=   268435456 cpu:               0.8 elap:               0.4
 (Enter /share/apps/gaussian/g16/l9999.exe)
 1\1\GINC-NODE99\SP\RB3LYP\Gen\C1H5N1\YANZ\22-Sep-2023\0\\#p b3lyp/gen 
 scrf=(cpcm,solvent=toluene) pop=hirshfeld empiricaldispersion=gd3bj\\t
 mpdir/M2_ref_232.gjf\\0,1\N,0,-0.760583,0.252997,3.44671202\C,0,-1.251
 256,-1.1355,3.38614511\H,0,-1.11469729,0.96300965,2.89144529\H,0,-0.23
 887148,0.64446077,4.17997245\H,0,-0.43851517,-1.90298493,3.34883886\H,
 0,-1.99078445,-1.28660903,4.20684152\H,0,-1.781007,-1.219927,2.4320700
 2\\Version=ES64L-G16RevA.03\State=1-A\HF=-95.8331581\RMSD=6.684e-09\Di
 pole=-0.1381054,0.0944109,0.0446464\Quadrupole=-0.8401475,0.8718499,-0
 .0317023,0.0473967,1.0661468,0.1496775\PG=C01 [X(C1H5N1)]\\@


 THE POLHOLDE ROLLS WITHOUT SLIPPING ON THE HERPOLHOLDE LYING IN
 THE INVARIABLE PLANE.
 H.GOLDSTEIN, "CLASSICAL MECHANICS", PG 161
 Job cpu time:       0 days  0 hours  0 minutes 12.7 seconds.
 Elapsed time:       0 days  0 hours  0 minutes  6.4 seconds.
 File lengths (MBytes):  RWF=     11 Int=      0 D2E=      0 Chk=      2 Scr=      1
 Normal termination of Gaussian 16 at Fri Sep 22 16:30:27 2023.
