 Entering Gaussian System, Link 0=g16
 Initial command:
 /share/apps/gaussian/g16/l1.exe "/tmp/55556.mgr/Gau-81999.inp" -scrdir="/tmp/55556.mgr/"
 Entering Link 1 = /share/apps/gaussian/g16/l1.exe PID=     82000.
  
 Copyright (c) 1988,1990,1992,1993,1995,1998,2003,2009,2016,
            Gaussian, Inc.  All Rights Reserved.
  
 This is part of the Gaussian(R) 16 program.  It is based on
 the Gaussian(R) 09 system (copyright 2009, Gaussian, Inc.),
 the Gaussian(R) 03 system (copyright 2003, Gaussian, Inc.),
 the Gaussian(R) 98 system (copyright 1998, Gaussian, Inc.),
 the Gaussian(R) 94 system (copyright 1995, Gaussian, Inc.),
 the Gaussian 92(TM) system (copyright 1992, Gaussian, Inc.),
 the Gaussian 90(TM) system (copyright 1990, Gaussian, Inc.),
 the Gaussian 88(TM) system (copyright 1988, Gaussian, Inc.),
 the Gaussian 86(TM) system (copyright 1986, Carnegie Mellon
 University), and the Gaussian 82(TM) system (copyright 1983,
 Carnegie Mellon University). Gaussian is a federally registered
 trademark of Gaussian, Inc.
  
 This software contains proprietary and confidential information,
 including trade secrets, belonging to Gaussian, Inc.
  
 This software is provided under written license and may be
 used, copied, transmitted, or stored only in accord with that
 written license.
  
 The following legend is applicable only to US Government
 contracts under FAR:
  
                    RESTRICTED RIGHTS LEGEND
  
 Use, reproduction and disclosure by the US Government is
 subject to restrictions as set forth in subparagraphs (a)
 and (c) of the Commercial Computer Software - Restricted
 Rights clause in FAR 52.227-19.
  
 Gaussian, Inc.
 340 Quinnipiac St., Bldg. 40, Wallingford CT 06492
  
  
 ---------------------------------------------------------------
 Warning -- This program may not be used in any manner that
 competes with the business of Gaussian, Inc. or will provide
 assistance to any competitor of Gaussian, Inc.  The licensee
 of this program is prohibited from giving any competitor of
 Gaussian, Inc. access to this program.  By using this program,
 the user acknowledges that Gaussian, Inc. is engaged in the
 business of creating and licensing software in the field of
 computational chemistry and represents and warrants to the
 licensee that it is not a competitor of Gaussian, Inc. and that
 it will not use this program in any manner prohibited above.
 ---------------------------------------------------------------
  

 Cite this work as:
 Gaussian 16, Revision A.03,
 M. J. Frisch, G. W. Trucks, H. B. Schlegel, G. E. Scuseria, 
 M. A. Robb, J. R. Cheeseman, G. Scalmani, V. Barone, 
 G. A. Petersson, H. Nakatsuji, X. Li, M. Caricato, A. V. Marenich, 
 J. Bloino, B. G. Janesko, R. Gomperts, B. Mennucci, H. P. Hratchian, 
 J. V. Ortiz, A. F. Izmaylov, J. L. Sonnenberg, D. Williams-Young, 
 F. Ding, F. Lipparini, F. Egidi, J. Goings, B. Peng, A. Petrone, 
 T. Henderson, D. Ranasinghe, V. G. Zakrzewski, J. Gao, N. Rega, 
 G. Zheng, W. Liang, M. Hada, M. Ehara, K. Toyota, R. Fukuda, 
 J. Hasegawa, M. Ishida, T. Nakajima, Y. Honda, O. Kitao, H. Nakai, 
 T. Vreven, K. Throssell, J. A. Montgomery, Jr., J. E. Peralta, 
 F. Ogliaro, M. J. Bearpark, J. J. Heyd, E. N. Brothers, K. N. Kudin, 
 V. N. Staroverov, T. A. Keith, R. Kobayashi, J. Normand, 
 K. Raghavachari, A. P. Rendell, J. C. Burant, S. S. Iyengar, 
 J. Tomasi, M. Cossi, J. M. Millam, M. Klene, C. Adamo, R. Cammi, 
 J. W. Ochterski, R. L. Martin, K. Morokuma, O. Farkas, 
 J. B. Foresman, and D. J. Fox, Gaussian, Inc., Wallingford CT, 2016.
 
 ******************************************
 Gaussian 16:  ES64L-G16RevA.03 25-Dec-2016
                22-Sep-2023 
 ******************************************
 %nprocshared=2
 Will use up to    2 processors via shared memory.
 %mem=2GB
 ----------------------------------------------------------------------
 #p b3lyp/gen scrf=(cpcm,solvent=toluene) pop=hirshfeld empiricaldisper
 sion=gd3bj
 ----------------------------------------------------------------------
 1/38=1,172=1/1;
 2/12=2,17=6,18=5,40=1/2;
 3/5=7,11=2,25=1,30=1,70=2101,72=13,74=-5,124=41/1,2,3;
 4//1;
 5/5=2,38=5,53=13/2;
 6/7=2,8=2,9=2,10=2,28=1,79=1/1;
 99/5=1,9=1/99;
 Leave Link    1 at Fri Sep 22 16:30:52 2023, MaxMem=   268435456 cpu:               0.1 elap:               0.0
 (Enter /share/apps/gaussian/g16/l101.exe)
 ---------------------
 tmpdir/M2_ref_369.gjf
 ---------------------
 Symbolic Z-matrix:
 Charge =  0 Multiplicity = 1
 C                    -6.91812  -2.55857   0.14625 
 H                    -6.2752   -3.1719    0.78697 
 H                    -6.4506   -2.34621  -0.81475 
 H                    -7.87492  -3.08359   0.00996 
 H                    -7.14652  -1.62284   0.67818 
 
 ITRead=  0  0  0  0  0
 MicOpt= -1 -1 -1 -1 -1
 NAtoms=      5 NQM=        5 NQMF=       0 NMMI=      0 NMMIF=      0
                NMic=       0 NMicF=      0.
                    Isotopes and Nuclear Properties:
 (Nuclear quadrupole moments (NQMom) in fm**2, nuclear magnetic moments (NMagM)
  in nuclear magnetons)

  Atom         1           2           3           4           5
 IAtWgt=          12           1           1           1           1
 AtmWgt=  12.0000000   1.0078250   1.0078250   1.0078250   1.0078250
 NucSpn=           0           1           1           1           1
 AtZEff=  -0.0000000  -0.0000000  -0.0000000  -0.0000000  -0.0000000
 NQMom=    0.0000000   0.0000000   0.0000000   0.0000000   0.0000000
 NMagM=    0.0000000   2.7928460   2.7928460   2.7928460   2.7928460
 AtZNuc=   6.0000000   1.0000000   1.0000000   1.0000000   1.0000000
 Leave Link  101 at Fri Sep 22 16:30:52 2023, MaxMem=   268435456 cpu:               0.2 elap:               0.1
 (Enter /share/apps/gaussian/g16/l202.exe)
                          Input orientation:                          
 ---------------------------------------------------------------------
 Center     Atomic      Atomic             Coordinates (Angstroms)
 Number     Number       Type             X           Y           Z
 ---------------------------------------------------------------------
      1          6           0       -6.918121   -2.558573    0.146253
      2          1           0       -6.275195   -3.171897    0.786968
      3          1           0       -6.450603   -2.346209   -0.814753
      4          1           0       -7.874922   -3.083591    0.009958
      5          1           0       -7.146522   -1.622838    0.678185
 ---------------------------------------------------------------------
                    Distance matrix (angstroms):
                    1          2          3          4          5
     1  C    0.000000
     2  H    1.095461   0.000000
     3  H    1.089589   1.810535   0.000000
     4  H    1.099858   1.780637   1.803487   0.000000
     5  H    1.100327   1.780626   1.799009   1.763772   0.000000
 Stoichiometry    CH4
 Framework group  C1[X(CH4)]
 Deg. of freedom     9
 Full point group                 C1      NOp   1
 Largest Abelian subgroup         C1      NOp   1
 Largest concise Abelian subgroup C1      NOp   1
                         Standard orientation:                         
 ---------------------------------------------------------------------
 Center     Atomic      Atomic             Coordinates (Angstroms)
 Number     Number       Type             X           Y           Z
 ---------------------------------------------------------------------
      1          6           0       -0.009353    0.004997   -0.001080
      2          1           0        0.456710    0.996246    0.014637
      3          1           0       -1.096022    0.067380   -0.050694
      4          1           0        0.391482   -0.553687   -0.859504
      5          1           0        0.303947   -0.539920    0.902041
 ---------------------------------------------------------------------
 Rotational constants (GHZ):         159.1622056         156.1405817         154.2126630
 Leave Link  202 at Fri Sep 22 16:30:52 2023, MaxMem=   268435456 cpu:               0.0 elap:               0.0
 (Enter /share/apps/gaussian/g16/l301.exe)
 General basis read from cards:  (5D, 7F)
 Centers:       2      3      4      5
 S 3 1.00
     Exponent=  1.2251800000D+01 Coefficients=  2.3337100000D-02
     Exponent=  1.8687100000D+00 Coefficients=  1.5915000000D-01
     Exponent=  4.1820800000D-01 Coefficients=  5.0000000000D-01
 S 1 1.00
     Exponent=  1.0610000000D-01 Coefficients=  1.0000000000D+00
 P 1 1.00
     Exponent=  1.0000000000D+00 Coefficients=  1.0000000000D+00
 ****
 Centers:       1
 S 5 1.00
     Exponent=  1.2432000000D+03 Coefficients=  6.0336600000D-03
     Exponent=  1.8714500000D+02 Coefficients=  4.4957600000D-02
     Exponent=  4.2512600000D+01 Coefficients=  1.9790100000D-01
     Exponent=  1.1739300000D+01 Coefficients=  5.0000000000D-01
     Exponent=  3.5054800000D+00 Coefficients=  4.8036400000D-01
 S 2 1.00
     Exponent=  5.3908900000D+00 Coefficients= -7.0398000000D-02
     Exponent=  4.9334100000D-01 Coefficients=  5.0000000000D-01
 S 1 1.00
     Exponent=  1.4974100000D-01 Coefficients=  1.0000000000D+00
 P 3 1.00
     Exponent=  9.1805600000D+00 Coefficients=  4.3170100000D-02
     Exponent=  1.9365800000D+00 Coefficients=  2.2499900000D-01
     Exponent=  5.2629600000D-01 Coefficients=  5.0000000000D-01
 P 1 1.00
     Exponent=  1.3631900000D-01 Coefficients=  1.0000000000D+00
 D 1 1.00
     Exponent=  8.0000000000D-01 Coefficients=  1.0000000000D+00
 ****
 Ernie: Thresh=  0.10000D-02 Tol=  0.10000D-05 Strict=F.
 There are    35 symmetry adapted cartesian basis functions of A   symmetry.
 There are    34 symmetry adapted basis functions of A   symmetry.
    34 basis functions,    54 primitive gaussians,    35 cartesian basis functions
     5 alpha electrons        5 beta electrons
       nuclear repulsion energy        13.3589793032 Hartrees.
 IExCor=  402 DFT=T Ex+Corr=B3LYP ExCW=0 ScaHFX=  0.200000
 ScaDFX=  0.800000  0.720000  1.000000  0.810000 ScalE2=  1.000000  1.000000
 IRadAn=      5 IRanWt=     -1 IRanGd=            0 ICorTp=0 IEmpDi=141
 NAtoms=    5 NActive=    5 NUniq=    5 SFac= 1.00D+00 NAtFMM=   60 NAOKFM=F Big=F
 Integral buffers will be    131072 words long.
 Raffenetti 2 integral format.
 Two-electron integral symmetry is turned on.
 R6Disp:  Grimme-D3(BJ) Dispersion energy=       -0.0019129733 Hartrees.
 Nuclear repulsion after empirical dispersion term =       13.3570663299 Hartrees.
 ------------------------------------------------------------------------------
 Polarizable Continuum Model (PCM)
 =================================
 Model                : C-PCM.
 Atomic radii         : UFF (Universal Force Field).
 Polarization charges : Total charges.
 Charge compensation  : None.
 Solution method      : On-the-fly selection.
 Cavity type          : Scaled VdW (van der Waals Surface) (Alpha=1.100).
 Cavity algorithm     : GePol (No added spheres)
                        Default sphere list used, NSphG=    5.
                        Lebedev-Laikov grids with approx.  5.0 points / Ang**2.
                        Smoothing algorithm: York/Karplus (Gamma=1.0000).
                        Polarization charges: spherical gaussians, with
                                              point-specific exponents (IZeta= 3).
                        Self-potential: point-specific (ISelfS= 7).
                        Self-field    : sphere-specific E.n sum rule (ISelfD= 2).
 Solvent              : Toluene, Eps=   2.374100 Eps(inf)=   2.238315
 ------------------------------------------------------------------------------
 Spheres list:
 ISph  on   Nord     Re0    Alpha      Xe            Ye            Ze
    1   C      1    1.9255  1.100     -0.009353      0.004997     -0.001080
    2   H      2    1.4430  1.100      0.456710      0.996246      0.014637
    3   H      3    1.4430  1.100     -1.096022      0.067380     -0.050694
    4   H      4    1.4430  1.100      0.391482     -0.553687     -0.859504
    5   H      5    1.4430  1.100      0.303947     -0.539920      0.902041
 ------------------------------------------------------------------------------
 GePol: Number of generator spheres                  =       5
 GePol: Total number of spheres                      =       5
 GePol: Number of exposed spheres                    =       5 (100.00%)
 GePol: Number of points                             =     499
 GePol: Average weight of points                     =       0.14
 GePol: Minimum weight of points                     =   0.23D-05
 GePol: Maximum weight of points                     =    0.20577
 GePol: Number of points with low weight             =      23
 GePol: Fraction of low-weight points (<1% of avg)   =       4.61%
 GePol: Cavity surface area                          =     69.903 Ang**2
 GePol: Cavity volume                                =     51.573 Ang**3
 Leave Link  301 at Fri Sep 22 16:30:52 2023, MaxMem=   268435456 cpu:               0.2 elap:               0.1
 (Enter /share/apps/gaussian/g16/l302.exe)
 NPDir=0 NMtPBC=     1 NCelOv=     1 NCel=       1 NClECP=     1 NCelD=      1
         NCelK=      1 NCelE2=     1 NClLst=     1 CellRange=     0.0.
 One-electron integrals computed using PRISM.
 One-electron integral symmetry used in STVInt
 NBasis=    34 RedAO= T EigKep=  2.83D-02  NBF=    34
 NBsUse=    34 1.00D-06 EigRej= -1.00D+00 NBFU=    34
 Precomputing XC quadrature grid using
 IXCGrd= 4 IRadAn=           5 IRanWt=          -1 IRanGd=           0 AccXCQ= 0.00D+00.
 Generated NRdTot=       0 NPtTot=           0 NUsed=           0 NTot=          32
 NSgBfM=    35    35    35    35    35 MxSgAt=     5 MxSgA2=     5.
 Leave Link  302 at Fri Sep 22 16:30:52 2023, MaxMem=   268435456 cpu:               0.2 elap:               0.1
 (Enter /share/apps/gaussian/g16/l303.exe)
 DipDrv:  MaxL=1.
 Leave Link  303 at Fri Sep 22 16:30:52 2023, MaxMem=   268435456 cpu:               0.1 elap:               0.1
 (Enter /share/apps/gaussian/g16/l401.exe)
 ExpMin= 1.06D-01 ExpMax= 1.24D+03 ExpMxC= 1.87D+02 IAcc=3 IRadAn=         5 AccDes= 0.00D+00
 Harris functional with IExCor=  402 and IRadAn=       5 diagonalized for initial guess.
 HarFok:  IExCor=  402 AccDes= 0.00D+00 IRadAn=         5 IDoV= 1 UseB2=F ITyADJ=14
 ICtDFT=  3500011 ScaDFX=  1.000000  1.000000  1.000000  1.000000
 FoFCou: FMM=F IPFlag=           0 FMFlag=      100000 FMFlg1=           0
         NFxFlg=           0 DoJE=T BraDBF=F KetDBF=T FulRan=T
         wScrn=  0.000000 ICntrl=       500 IOpCl=  0 I1Cent=   200000004 NGrid=           0
         NMat0=    1 NMatS0=      1 NMatT0=    0 NMatD0=    1 NMtDS0=    0 NMtDT0=    0
 Petite list used in FoFCou.
 Harris En= -40.5521153592284    
 JPrj=0 DoOrth=F DoCkMO=F.
 Leave Link  401 at Fri Sep 22 16:30:53 2023, MaxMem=   268435456 cpu:               0.6 elap:               0.3
 (Enter /share/apps/gaussian/g16/l502.exe)
 Keep R1 ints in memory in canonical form, NReq=1903191.
 FoFCou: FMM=F IPFlag=           0 FMFlag=           0 FMFlg1=           0
         NFxFlg=           0 DoJE=F BraDBF=F KetDBF=F FulRan=T
         wScrn=  0.000000 ICntrl=       600 IOpCl=  0 I1Cent=           0 NGrid=           0
         NMat0=    1 NMatS0=    595 NMatT0=    0 NMatD0=    1 NMtDS0=    0 NMtDT0=    0
 Symmetry not used in FoFCou.
 Two-electron integral symmetry not used.
 Closed shell SCF:
 Using DIIS extrapolation, IDIIS=  1040.
 NGot=   268435456 LenX=   268254897 LenY=   268253231
 Requested convergence on RMS density matrix=1.00D-08 within 128 cycles.
 Requested convergence on MAX density matrix=1.00D-06.
 Requested convergence on             energy=1.00D-06.
 No special actions if energy rises.

 Cycle   1  Pass 1  IDiag  1:
 Inv3:  Mode=1 IEnd=      747003.
 Iteration    1 A*A^-1 deviation from unit magnitude is 2.89D-15 for    485.
 Iteration    1 A*A^-1 deviation from orthogonality  is 1.40D-15 for    338     62.
 Iteration    1 A^-1*A deviation from unit magnitude is 2.89D-15 for    487.
 Iteration    1 A^-1*A deviation from orthogonality  is 1.05D-15 for    338     62.
 E= -40.4259809367459    
 DIIS: error= 4.70D-02 at cycle   1 NSaved=   1.
 NSaved= 1 IEnMin= 1 EnMin= -40.4259809367459     IErMin= 1 ErrMin= 4.70D-02
 ErrMax= 4.70D-02  0.00D+00 EMaxC= 1.00D-01 BMatC= 7.83D-02 BMatP= 7.83D-02
 IDIUse=3 WtCom= 5.30D-01 WtEn= 4.70D-01
 Coeff-Com:  0.100D+01
 Coeff-En:   0.100D+01
 Coeff:      0.100D+01
 Gap=     0.357 Goal=   None    Shift=    0.000
 GapD=    0.357 DampG=1.000 DampE=0.500 DampFc=0.5000 IDamp=-1.
 Damping current iteration by 5.00D-01
 RMSDP=1.47D-02 MaxDP=1.51D-01              OVMax= 2.00D-01

 Cycle   2  Pass 1  IDiag  1:
 E= -40.4656962429562     Delta-E=       -0.039715306210 Rises=F Damp=T
 DIIS: error= 8.16D-03 at cycle   2 NSaved=   2.
 NSaved= 2 IEnMin= 2 EnMin= -40.4656962429562     IErMin= 2 ErrMin= 8.16D-03
 ErrMax= 8.16D-03  0.00D+00 EMaxC= 1.00D-01 BMatC= 1.25D-03 BMatP= 7.83D-02
 IDIUse=3 WtCom= 9.18D-01 WtEn= 8.16D-02
 Coeff-Com:  0.823D-01 0.918D+00
 Coeff-En:   0.135D+00 0.865D+00
 Coeff:      0.866D-01 0.913D+00
 Gap=     0.436 Goal=   None    Shift=    0.000
 RMSDP=1.37D-03 MaxDP=1.15D-02 DE=-3.97D-02 OVMax= 1.05D-01

 Cycle   3  Pass 1  IDiag  1:
 E= -40.5138222993337     Delta-E=       -0.048126056377 Rises=F Damp=F
 DIIS: error= 5.05D-04 at cycle   3 NSaved=   3.
 NSaved= 3 IEnMin= 3 EnMin= -40.5138222993337     IErMin= 3 ErrMin= 5.05D-04
 ErrMax= 5.05D-04  0.00D+00 EMaxC= 1.00D-01 BMatC= 9.73D-06 BMatP= 1.25D-03
 IDIUse=3 WtCom= 9.95D-01 WtEn= 5.05D-03
 Coeff-Com:  0.597D-02-0.503D-01 0.104D+01
 Coeff-En:   0.000D+00 0.000D+00 0.100D+01
 Coeff:      0.594D-02-0.501D-01 0.104D+01
 Gap=     0.444 Goal=   None    Shift=    0.000
 RMSDP=8.12D-05 MaxDP=7.96D-04 DE=-4.81D-02 OVMax= 9.65D-04

 Cycle   4  Pass 1  IDiag  1:
 E= -40.5138308692549     Delta-E=       -0.000008569921 Rises=F Damp=F
 DIIS: error= 7.38D-05 at cycle   4 NSaved=   4.
 NSaved= 4 IEnMin= 4 EnMin= -40.5138308692549     IErMin= 4 ErrMin= 7.38D-05
 ErrMax= 7.38D-05  0.00D+00 EMaxC= 1.00D-01 BMatC= 9.53D-08 BMatP= 9.73D-06
 IDIUse=1 WtCom= 1.00D+00 WtEn= 0.00D+00
 Coeff-Com:  0.168D-02-0.898D-02 0.195D+00 0.813D+00
 Coeff:      0.168D-02-0.898D-02 0.195D+00 0.813D+00
 Gap=     0.444 Goal=   None    Shift=    0.000
 RMSDP=9.44D-06 MaxDP=1.07D-04 DE=-8.57D-06 OVMax= 1.40D-04

 Cycle   5  Pass 1  IDiag  1:
 E= -40.5138309804921     Delta-E=       -0.000000111237 Rises=F Damp=F
 DIIS: error= 9.63D-06 at cycle   5 NSaved=   5.
 NSaved= 5 IEnMin= 5 EnMin= -40.5138309804921     IErMin= 5 ErrMin= 9.63D-06
 ErrMax= 9.63D-06  0.00D+00 EMaxC= 1.00D-01 BMatC= 1.80D-09 BMatP= 9.53D-08
 IDIUse=1 WtCom= 1.00D+00 WtEn= 0.00D+00
 Coeff-Com:  0.193D-03 0.282D-04 0.459D-02 0.119D+00 0.877D+00
 Coeff:      0.193D-03 0.282D-04 0.459D-02 0.119D+00 0.877D+00
 Gap=     0.444 Goal=   None    Shift=    0.000
 RMSDP=1.43D-06 MaxDP=1.22D-05 DE=-1.11D-07 OVMax= 1.88D-05

 Cycle   6  Pass 1  IDiag  1:
 E= -40.5138309826127     Delta-E=       -0.000000002121 Rises=F Damp=F
 DIIS: error= 8.54D-07 at cycle   6 NSaved=   6.
 NSaved= 6 IEnMin= 6 EnMin= -40.5138309826127     IErMin= 6 ErrMin= 8.54D-07
 ErrMax= 8.54D-07  0.00D+00 EMaxC= 1.00D-01 BMatC= 1.53D-11 BMatP= 1.80D-09
 IDIUse=1 WtCom= 1.00D+00 WtEn= 0.00D+00
 Coeff-Com: -0.117D-04 0.468D-04-0.121D-02-0.103D-02 0.747D-01 0.927D+00
 Coeff:     -0.117D-04 0.468D-04-0.121D-02-0.103D-02 0.747D-01 0.927D+00
 Gap=     0.444 Goal=   None    Shift=    0.000
 RMSDP=1.25D-07 MaxDP=1.19D-06 DE=-2.12D-09 OVMax= 1.80D-06

 Cycle   7  Pass 1  IDiag  1:
 E= -40.5138309826333     Delta-E=       -0.000000000021 Rises=F Damp=F
 DIIS: error= 1.90D-08 at cycle   7 NSaved=   7.
 NSaved= 7 IEnMin= 7 EnMin= -40.5138309826333     IErMin= 7 ErrMin= 1.90D-08
 ErrMax= 1.90D-08  0.00D+00 EMaxC= 1.00D-01 BMatC= 7.14D-15 BMatP= 1.53D-11
 IDIUse=1 WtCom= 1.00D+00 WtEn= 0.00D+00
 Coeff-Com:  0.973D-07-0.904D-06-0.104D-04 0.200D-03-0.304D-03-0.142D-01
 Coeff-Com:  0.101D+01
 Coeff:      0.973D-07-0.904D-06-0.104D-04 0.200D-03-0.304D-03-0.142D-01
 Coeff:      0.101D+01
 Gap=     0.444 Goal=   None    Shift=    0.000
 RMSDP=3.93D-09 MaxDP=5.22D-08 DE=-2.06D-11 OVMax= 4.47D-08

 Error on total polarization charges =  0.00445
 SCF Done:  E(RB3LYP) =  -40.5138309826     A.U. after    7 cycles
            NFock=  7  Conv=0.39D-08     -V/T= 2.0092
 KE= 4.014558157340D+01 PE=-1.198009475065D+02 EE= 2.578446862051D+01
 Leave Link  502 at Fri Sep 22 16:30:55 2023, MaxMem=   268435456 cpu:               3.8 elap:               1.9
 (Enter /share/apps/gaussian/g16/l601.exe)
 Copying SCF densities to generalized density rwf, IOpCl= 0 IROHF=0.

 **********************************************************************

            Population analysis using the SCF density.

 **********************************************************************

 Orbital symmetries:
       Occupied  (A) (A) (A) (A) (A)
       Virtual   (A) (A) (A) (A) (A) (A) (A) (A) (A) (A) (A) (A)
                 (A) (A) (A) (A) (A) (A) (A) (A) (A) (A) (A) (A)
                 (A) (A) (A) (A) (A)
 The electronic state is 1-A.
 Alpha  occ. eigenvalues --  -10.16273  -0.69373  -0.39920  -0.39192  -0.38739
 Alpha virt. eigenvalues --    0.05697   0.12501   0.12565   0.12661   0.37167
 Alpha virt. eigenvalues --    0.37563   0.38256   0.63447   0.63767   0.64349
 Alpha virt. eigenvalues --    0.67764   0.96197   1.28819   1.28994   1.84892
 Alpha virt. eigenvalues --    1.85269   1.86788   1.87962   1.89489   1.90375
 Alpha virt. eigenvalues --    2.39307   2.41063   2.45292   2.75525   2.75716
 Alpha virt. eigenvalues --    2.93039   3.20356   3.20757   3.20830
          Condensed to atoms (all electrons):
               1          2          3          4          5
     1  C    4.737645   0.403639   0.405206   0.402405   0.402241
     2  H    0.403639   0.571328  -0.019674  -0.021732  -0.021655
     3  H    0.405206  -0.019674   0.562788  -0.020055  -0.020429
     4  H    0.402405  -0.021732  -0.020055   0.576836  -0.023120
     5  H    0.402241  -0.021655  -0.020429  -0.023120   0.577753
 Mulliken charges:
               1
     1  C   -0.351136
     2  H    0.088094
     3  H    0.092164
     4  H    0.085667
     5  H    0.085211
 Sum of Mulliken charges =  -0.00000
 Mulliken charges with hydrogens summed into heavy atoms:
               1
     1  C   -0.000000
 Electronic spatial extent (au):  <R**2>=             36.0142
 Charge=             -0.0000 electrons
 Dipole moment (field-independent basis, Debye):
    X=              0.0304    Y=             -0.0164    Z=              0.0038  Tot=              0.0347
 Quadrupole moment (field-independent basis, Debye-Ang):
   XX=             -8.3309   YY=             -8.4689   ZZ=             -8.5538
   XY=              0.0059   XZ=              0.0023   YZ=              0.0016
 Traceless Quadrupole moment (field-independent basis, Debye-Ang):
   XX=              0.1203   YY=             -0.0177   ZZ=             -0.1026
   XY=              0.0059   XZ=              0.0023   YZ=              0.0016
 Octapole moment (field-independent basis, Debye-Ang**2):
  XXX=             -0.7374  YYY=              0.3943  ZZZ=              0.0644  XYY=              0.4424
  XXY=              0.0954  XXZ=             -0.0675  XZZ=              0.3463  YZZ=             -0.5175
  YYZ=              0.0106  XYZ=              0.0309
 Hexadecapole moment (field-independent basis, Debye-Ang**3):
 XXXX=            -15.8803 YYYY=            -16.3266 ZZZZ=            -16.2925 XXXY=             -0.0294
 XXXZ=              0.0490 YYYX=              0.3789 YYYZ=              0.0233 ZZZX=             -0.0216
 ZZZY=             -0.0463 XXYY=             -5.5366 XXZZ=             -5.6435 YYZZ=             -5.3583
 XXYZ=              0.0312 YYXZ=             -0.0160 ZZXY=             -0.3187
 N-N= 1.335706632991D+01 E-N=-1.198009473770D+02  KE= 4.014558157340D+01
 There are a total of      109428 grid points.
 ElSum from          density=        9.9999999794
 ElSum from atomic densities=       10.0000000077
 Hirshfeld populations at iteration   1 (CA, CB, DipXYZ):
               1          2          3          4          5
     1  C    3.060912   3.060912  -0.006146   0.003110  -0.000654
     2  H    0.484702   0.484702   0.063245   0.124110   0.002236
     3  H    0.483755   0.483755  -0.141796   0.006712  -0.005949
     4  H    0.485261   0.485261   0.054065  -0.071041  -0.104487
     5  H    0.485370   0.485370   0.042710  -0.069225   0.110362
       Tot   5.000000   5.000000   0.012078  -0.006335   0.001509

 Dip from Atomic Chgs             -0.000121  -0.000111  -0.000018
         Total Dipole              0.011957  -0.006446   0.001491

 Hirshfeld charges, spin densities, dipoles, and CM5 charges using IRadAn=      5:
              Q-H        S-H        Dx         Dy         Dz        Q-CM5   
     1  C   -0.121824   0.000000  -0.006146   0.003110  -0.000654  -0.309981
     2  H    0.030595   0.000000   0.063245   0.124110   0.002236   0.077731
     3  H    0.032490   0.000000  -0.141796   0.006712  -0.005949   0.080316
     4  H    0.029478   0.000000   0.054065  -0.071041  -0.104487   0.076103
     5  H    0.029261   0.000000   0.042710  -0.069225   0.110362   0.075832
       Tot   0.000000   0.000000   0.012078  -0.006335   0.001509   0.000000
 Hirshfeld charges with hydrogens summed into heavy atoms:
              Q-H       Q-CM5   
     1  C    0.000000   0.000000
 
 EQQ= 0.000000000000E+00 EQD= 0.000000000000E+00 EDD=-0.100127476759E-02
 EQQ+QD+DD=-0.100127476759E-02
 
 No NMR shielding tensors so no spin-rotation constants.
 Leave Link  601 at Fri Sep 22 16:30:55 2023, MaxMem=   268435456 cpu:               0.5 elap:               0.2
 (Enter /share/apps/gaussian/g16/l9999.exe)
 1\1\GINC-NODE99\SP\RB3LYP\Gen\C1H4\YANZ\22-Sep-2023\0\\#p b3lyp/gen sc
 rf=(cpcm,solvent=toluene) pop=hirshfeld empiricaldispersion=gd3bj\\tmp
 dir/M2_ref_369.gjf\\0,1\C,0,-6.918121,-2.558573,0.146253\H,0,-6.275195
 ,-3.171897,0.78696799\H,0,-6.45060285,-2.34620874,-0.81475269\H,0,-7.8
 74922,-3.083591,0.009958\H,0,-7.146522,-1.622838,0.67818499\\Version=E
 S64L-G16RevA.03\State=1-A\HF=-40.513831\RMSD=3.931e-09\Dipole=-0.00956
 25,0.0013664,0.0096664\Quadrupole=-0.0088566,-0.0491106,0.0579672,-0.0
 094885,-0.0427689,-0.0466357\PG=C01 [X(C1H4)]\\@


 ABSOLUTISM, OBSOLETISM -- IF IT WORKS, IT'S OUT OF DATE

                          -- STAFFORD BEER
 Job cpu time:       0 days  0 hours  0 minutes  5.9 seconds.
 Elapsed time:       0 days  0 hours  0 minutes  3.0 seconds.
 File lengths (MBytes):  RWF=      6 Int=      0 D2E=      0 Chk=      1 Scr=      1
 Normal termination of Gaussian 16 at Fri Sep 22 16:30:55 2023.
