 Entering Gaussian System, Link 0=g16
 Initial command:
 /share/apps/gaussian/g16/l1.exe "/tmp/55556.mgr/Gau-82328.inp" -scrdir="/tmp/55556.mgr/"
 Entering Link 1 = /share/apps/gaussian/g16/l1.exe PID=     82329.
  
 Copyright (c) 1988,1990,1992,1993,1995,1998,2003,2009,2016,
            Gaussian, Inc.  All Rights Reserved.
  
 This is part of the Gaussian(R) 16 program.  It is based on
 the Gaussian(R) 09 system (copyright 2009, Gaussian, Inc.),
 the Gaussian(R) 03 system (copyright 2003, Gaussian, Inc.),
 the Gaussian(R) 98 system (copyright 1998, Gaussian, Inc.),
 the Gaussian(R) 94 system (copyright 1995, Gaussian, Inc.),
 the Gaussian 92(TM) system (copyright 1992, Gaussian, Inc.),
 the Gaussian 90(TM) system (copyright 1990, Gaussian, Inc.),
 the Gaussian 88(TM) system (copyright 1988, Gaussian, Inc.),
 the Gaussian 86(TM) system (copyright 1986, Carnegie Mellon
 University), and the Gaussian 82(TM) system (copyright 1983,
 Carnegie Mellon University). Gaussian is a federally registered
 trademark of Gaussian, Inc.
  
 This software contains proprietary and confidential information,
 including trade secrets, belonging to Gaussian, Inc.
  
 This software is provided under written license and may be
 used, copied, transmitted, or stored only in accord with that
 written license.
  
 The following legend is applicable only to US Government
 contracts under FAR:
  
                    RESTRICTED RIGHTS LEGEND
  
 Use, reproduction and disclosure by the US Government is
 subject to restrictions as set forth in subparagraphs (a)
 and (c) of the Commercial Computer Software - Restricted
 Rights clause in FAR 52.227-19.
  
 Gaussian, Inc.
 340 Quinnipiac St., Bldg. 40, Wallingford CT 06492
  
  
 ---------------------------------------------------------------
 Warning -- This program may not be used in any manner that
 competes with the business of Gaussian, Inc. or will provide
 assistance to any competitor of Gaussian, Inc.  The licensee
 of this program is prohibited from giving any competitor of
 Gaussian, Inc. access to this program.  By using this program,
 the user acknowledges that Gaussian, Inc. is engaged in the
 business of creating and licensing software in the field of
 computational chemistry and represents and warrants to the
 licensee that it is not a competitor of Gaussian, Inc. and that
 it will not use this program in any manner prohibited above.
 ---------------------------------------------------------------
  

 Cite this work as:
 Gaussian 16, Revision A.03,
 M. J. Frisch, G. W. Trucks, H. B. Schlegel, G. E. Scuseria, 
 M. A. Robb, J. R. Cheeseman, G. Scalmani, V. Barone, 
 G. A. Petersson, H. Nakatsuji, X. Li, M. Caricato, A. V. Marenich, 
 J. Bloino, B. G. Janesko, R. Gomperts, B. Mennucci, H. P. Hratchian, 
 J. V. Ortiz, A. F. Izmaylov, J. L. Sonnenberg, D. Williams-Young, 
 F. Ding, F. Lipparini, F. Egidi, J. Goings, B. Peng, A. Petrone, 
 T. Henderson, D. Ranasinghe, V. G. Zakrzewski, J. Gao, N. Rega, 
 G. Zheng, W. Liang, M. Hada, M. Ehara, K. Toyota, R. Fukuda, 
 J. Hasegawa, M. Ishida, T. Nakajima, Y. Honda, O. Kitao, H. Nakai, 
 T. Vreven, K. Throssell, J. A. Montgomery, Jr., J. E. Peralta, 
 F. Ogliaro, M. J. Bearpark, J. J. Heyd, E. N. Brothers, K. N. Kudin, 
 V. N. Staroverov, T. A. Keith, R. Kobayashi, J. Normand, 
 K. Raghavachari, A. P. Rendell, J. C. Burant, S. S. Iyengar, 
 J. Tomasi, M. Cossi, J. M. Millam, M. Klene, C. Adamo, R. Cammi, 
 J. W. Ochterski, R. L. Martin, K. Morokuma, O. Farkas, 
 J. B. Foresman, and D. J. Fox, Gaussian, Inc., Wallingford CT, 2016.
 
 ******************************************
 Gaussian 16:  ES64L-G16RevA.03 25-Dec-2016
                22-Sep-2023 
 ******************************************
 %nprocshared=2
 Will use up to    2 processors via shared memory.
 %mem=2GB
 ----------------------------------------------------------------------
 #p b3lyp/gen scrf=(cpcm,solvent=toluene) pop=hirshfeld empiricaldisper
 sion=gd3bj
 ----------------------------------------------------------------------
 1/38=1,172=1/1;
 2/12=2,17=6,18=5,40=1/2;
 3/5=7,11=2,25=1,30=1,70=2101,72=13,74=-5,124=41/1,2,3;
 4//1;
 5/5=2,38=5,53=13/2;
 6/7=2,8=2,9=2,10=2,28=1,79=1/1;
 99/5=1,9=1/99;
 Leave Link    1 at Fri Sep 22 16:31:08 2023, MaxMem=   268435456 cpu:               0.1 elap:               0.0
 (Enter /share/apps/gaussian/g16/l101.exe)
 ---------------------
 tmpdir/M2_ref_380.gjf
 ---------------------
 Symbolic Z-matrix:
 Charge =  0 Multiplicity = 1
 C                     1.64048   3.77672  -0.33098 
 C                     0.65469   4.75079  -0.02392 
 H                     0.32576   4.85519   1.00663 
 H                     1.99111   3.70606  -1.30265 
 O                     2.09546   2.98113   0.52372 
 O                     0.20039   5.46599  -0.89284 
 
 ITRead=  0  0  0  0  0  0
 MicOpt= -1 -1 -1 -1 -1 -1
 NAtoms=      6 NQM=        6 NQMF=       0 NMMI=      0 NMMIF=      0
                NMic=       0 NMicF=      0.
                    Isotopes and Nuclear Properties:
 (Nuclear quadrupole moments (NQMom) in fm**2, nuclear magnetic moments (NMagM)
  in nuclear magnetons)

  Atom         1           2           3           4           5           6
 IAtWgt=          12          12           1           1          16          16
 AtmWgt=  12.0000000  12.0000000   1.0078250   1.0078250  15.9949146  15.9949146
 NucSpn=           0           0           1           1           0           0
 AtZEff=  -0.0000000  -0.0000000  -0.0000000  -0.0000000  -0.0000000  -0.0000000
 NQMom=    0.0000000   0.0000000   0.0000000   0.0000000   0.0000000   0.0000000
 NMagM=    0.0000000   0.0000000   2.7928460   2.7928460   0.0000000   0.0000000
 AtZNuc=   6.0000000   6.0000000   1.0000000   1.0000000   8.0000000   8.0000000
 Leave Link  101 at Fri Sep 22 16:31:08 2023, MaxMem=   268435456 cpu:               0.2 elap:               0.1
 (Enter /share/apps/gaussian/g16/l202.exe)
                          Input orientation:                          
 ---------------------------------------------------------------------
 Center     Atomic      Atomic             Coordinates (Angstroms)
 Number     Number       Type             X           Y           Z
 ---------------------------------------------------------------------
      1          6           0        1.640478    3.776720   -0.330975
      2          6           0        0.654688    4.750794   -0.023924
      3          1           0        0.325761    4.855187    1.006630
      4          1           0        1.991107    3.706057   -1.302654
      5          8           0        2.095459    2.981126    0.523720
      6          8           0        0.200390    5.465990   -0.892840
 ---------------------------------------------------------------------
                    Distance matrix (angstroms):
                    1          2          3          4          5
     1  C    0.000000
     2  C    1.419466   0.000000
     3  H    2.163506   1.086799   0.000000
     4  H    1.035420   2.124298   3.070288   0.000000
     5  O    1.253188   2.346798   2.622430   1.967754   0.000000
     6  O    2.289799   1.213634   1.999196   2.544008   3.431104
                    6
     6  O    0.000000
 Stoichiometry    C2H2O2
 Framework group  C1[X(C2H2O2)]
 Deg. of freedom    12
 Full point group                 C1      NOp   1
 Largest Abelian subgroup         C1      NOp   1
 Largest concise Abelian subgroup C1      NOp   1
                         Standard orientation:                         
 ---------------------------------------------------------------------
 Center     Atomic      Atomic             Coordinates (Angstroms)
 Number     Number       Type             X           Y           Z
 ---------------------------------------------------------------------
      1          6           0       -0.583866   -0.376455    0.016625
      2          6           0        0.613724    0.385524    0.009714
      3          1           0        0.544046    1.469599    0.042256
      4          1           0       -0.521480   -1.409853    0.033619
      5          8           0       -1.721017    0.149246   -0.015134
      6          8           0        1.695803   -0.163516   -0.014105
 ---------------------------------------------------------------------
 Rotational constants (GHZ):          59.8967800           4.9259926           4.5528152
 Leave Link  202 at Fri Sep 22 16:31:08 2023, MaxMem=   268435456 cpu:               0.0 elap:               0.0
 (Enter /share/apps/gaussian/g16/l301.exe)
 General basis read from cards:  (5D, 7F)
 Centers:       3      4
 S 3 1.00
     Exponent=  1.2251800000D+01 Coefficients=  2.3337100000D-02
     Exponent=  1.8687100000D+00 Coefficients=  1.5915000000D-01
     Exponent=  4.1820800000D-01 Coefficients=  5.0000000000D-01
 S 1 1.00
     Exponent=  1.0610000000D-01 Coefficients=  1.0000000000D+00
 P 1 1.00
     Exponent=  1.0000000000D+00 Coefficients=  1.0000000000D+00
 ****
 Centers:       1      2
 S 5 1.00
     Exponent=  1.2432000000D+03 Coefficients=  6.0336600000D-03
     Exponent=  1.8714500000D+02 Coefficients=  4.4957600000D-02
     Exponent=  4.2512600000D+01 Coefficients=  1.9790100000D-01
     Exponent=  1.1739300000D+01 Coefficients=  5.0000000000D-01
     Exponent=  3.5054800000D+00 Coefficients=  4.8036400000D-01
 S 2 1.00
     Exponent=  5.3908900000D+00 Coefficients= -7.0398000000D-02
     Exponent=  4.9334100000D-01 Coefficients=  5.0000000000D-01
 S 1 1.00
     Exponent=  1.4974100000D-01 Coefficients=  1.0000000000D+00
 P 3 1.00
     Exponent=  9.1805600000D+00 Coefficients=  4.3170100000D-02
     Exponent=  1.9365800000D+00 Coefficients=  2.2499900000D-01
     Exponent=  5.2629600000D-01 Coefficients=  5.0000000000D-01
 P 1 1.00
     Exponent=  1.3631900000D-01 Coefficients=  1.0000000000D+00
 D 1 1.00
     Exponent=  8.0000000000D-01 Coefficients=  1.0000000000D+00
 ****
 Centers:       5      6
 S 5 1.00
     Exponent=  2.2886400000D+03 Coefficients=  5.8546800000D-03
     Exponent=  3.4441600000D+02 Coefficients=  4.3733300000D-02
     Exponent=  7.8253800000D+01 Coefficients=  1.9479600000D-01
     Exponent=  2.1719500000D+01 Coefficients=  5.0000000000D-01
     Exponent=  6.5590700000D+00 Coefficients=  4.8461400000D-01
 S 2 1.00
     Exponent=  1.0465600000D+01 Coefficients= -7.1334300000D-02
     Exponent=  9.6435100000D-01 Coefficients=  5.0000000000D-01
 S 1 1.00
     Exponent=  2.8512700000D-01 Coefficients=  1.0000000000D+00
 P 3 1.00
     Exponent=  1.7059000000D+01 Coefficients=  4.7443900000D-02
     Exponent=  3.6899900000D+00 Coefficients=  2.4268900000D-01
     Exponent=  9.9299600000D-01 Coefficients=  5.0000000000D-01
 P 1 1.00
     Exponent=  2.4492400000D-01 Coefficients=  1.0000000000D+00
 D 1 1.00
     Exponent=  1.0000000000D+00 Coefficients=  1.0000000000D+00
 ****
 Ernie: Thresh=  0.10000D-02 Tol=  0.10000D-05 Strict=F.
 There are    70 symmetry adapted cartesian basis functions of A   symmetry.
 There are    66 symmetry adapted basis functions of A   symmetry.
    66 basis functions,   118 primitive gaussians,    70 cartesian basis functions
    15 alpha electrons       15 beta electrons
       nuclear repulsion energy       103.0756961791 Hartrees.
 IExCor=  402 DFT=T Ex+Corr=B3LYP ExCW=0 ScaHFX=  0.200000
 ScaDFX=  0.800000  0.720000  1.000000  0.810000 ScalE2=  1.000000  1.000000
 IRadAn=      5 IRanWt=     -1 IRanGd=            0 ICorTp=0 IEmpDi=141
 NAtoms=    6 NActive=    6 NUniq=    6 SFac= 1.00D+00 NAtFMM=   60 NAOKFM=F Big=F
 Integral buffers will be    131072 words long.
 Raffenetti 2 integral format.
 Two-electron integral symmetry is turned on.
 R6Disp:  Grimme-D3(BJ) Dispersion energy=       -0.0053636641 Hartrees.
 Nuclear repulsion after empirical dispersion term =      103.0703325150 Hartrees.
 ------------------------------------------------------------------------------
 Polarizable Continuum Model (PCM)
 =================================
 Model                : C-PCM.
 Atomic radii         : UFF (Universal Force Field).
 Polarization charges : Total charges.
 Charge compensation  : None.
 Solution method      : On-the-fly selection.
 Cavity type          : Scaled VdW (van der Waals Surface) (Alpha=1.100).
 Cavity algorithm     : GePol (No added spheres)
                        Default sphere list used, NSphG=    6.
                        Lebedev-Laikov grids with approx.  5.0 points / Ang**2.
                        Smoothing algorithm: York/Karplus (Gamma=1.0000).
                        Polarization charges: spherical gaussians, with
                                              point-specific exponents (IZeta= 3).
                        Self-potential: point-specific (ISelfS= 7).
                        Self-field    : sphere-specific E.n sum rule (ISelfD= 2).
 Solvent              : Toluene, Eps=   2.374100 Eps(inf)=   2.238315
 ------------------------------------------------------------------------------
 Spheres list:
 ISph  on   Nord     Re0    Alpha      Xe            Ye            Ze
    1   C      1    1.9255  1.100     -0.583866     -0.376455      0.016625
    2   C      2    1.9255  1.100      0.613724      0.385524      0.009714
    3   H      3    1.4430  1.100      0.544046      1.469599      0.042256
    4   H      4    1.4430  1.100     -0.521480     -1.409853      0.033619
    5   O      5    1.7500  1.100     -1.721017      0.149246     -0.015134
    6   O      6    1.7500  1.100      1.695803     -0.163516     -0.014105
 ------------------------------------------------------------------------------
 GePol: Number of generator spheres                  =       6
 GePol: Total number of spheres                      =       6
 GePol: Number of exposed spheres                    =       6 (100.00%)
 GePol: Number of points                             =     750
 GePol: Average weight of points                     =       0.14
 GePol: Minimum weight of points                     =   0.51D-08
 GePol: Maximum weight of points                     =    0.20299
 GePol: Number of points with low weight             =      22
 GePol: Fraction of low-weight points (<1% of avg)   =       2.93%
 GePol: Cavity surface area                          =    102.714 Ang**2
 GePol: Cavity volume                                =     85.735 Ang**3
 Leave Link  301 at Fri Sep 22 16:31:08 2023, MaxMem=   268435456 cpu:               0.2 elap:               0.1
 (Enter /share/apps/gaussian/g16/l302.exe)
 NPDir=0 NMtPBC=     1 NCelOv=     1 NCel=       1 NClECP=     1 NCelD=      1
         NCelK=      1 NCelE2=     1 NClLst=     1 CellRange=     0.0.
 One-electron integrals computed using PRISM.
 One-electron integral symmetry used in STVInt
 NBasis=    66 RedAO= T EigKep=  4.01D-03  NBF=    66
 NBsUse=    66 1.00D-06 EigRej= -1.00D+00 NBFU=    66
 Precomputing XC quadrature grid using
 IXCGrd= 4 IRadAn=           5 IRanWt=          -1 IRanGd=           0 AccXCQ= 0.00D+00.
 Generated NRdTot=       0 NPtTot=           0 NUsed=           0 NTot=          32
 NSgBfM=    70    70    70    70    70 MxSgAt=     6 MxSgA2=     6.
 Leave Link  302 at Fri Sep 22 16:31:08 2023, MaxMem=   268435456 cpu:               0.3 elap:               0.1
 (Enter /share/apps/gaussian/g16/l303.exe)
 DipDrv:  MaxL=1.
 Leave Link  303 at Fri Sep 22 16:31:08 2023, MaxMem=   268435456 cpu:               0.1 elap:               0.0
 (Enter /share/apps/gaussian/g16/l401.exe)
 ExpMin= 1.06D-01 ExpMax= 2.29D+03 ExpMxC= 3.44D+02 IAcc=3 IRadAn=         5 AccDes= 0.00D+00
 Harris functional with IExCor=  402 and IRadAn=       5 diagonalized for initial guess.
 HarFok:  IExCor=  402 AccDes= 0.00D+00 IRadAn=         5 IDoV= 1 UseB2=F ITyADJ=14
 ICtDFT=  3500011 ScaDFX=  1.000000  1.000000  1.000000  1.000000
 FoFCou: FMM=F IPFlag=           0 FMFlag=      100000 FMFlg1=           0
         NFxFlg=           0 DoJE=T BraDBF=F KetDBF=T FulRan=T
         wScrn=  0.000000 ICntrl=       500 IOpCl=  0 I1Cent=   200000004 NGrid=           0
         NMat0=    1 NMatS0=      1 NMatT0=    0 NMatD0=    1 NMtDS0=    0 NMtDT0=    0
 Petite list used in FoFCou.
 Harris En= -227.784573476729    
 JPrj=0 DoOrth=F DoCkMO=F.
 Leave Link  401 at Fri Sep 22 16:31:09 2023, MaxMem=   268435456 cpu:               1.1 elap:               0.5
 (Enter /share/apps/gaussian/g16/l502.exe)
 Keep R1 ints in memory in canonical form, NReq=4230386.
 FoFCou: FMM=F IPFlag=           0 FMFlag=           0 FMFlg1=           0
         NFxFlg=           0 DoJE=F BraDBF=F KetDBF=F FulRan=T
         wScrn=  0.000000 ICntrl=       600 IOpCl=  0 I1Cent=           0 NGrid=           0
         NMat0=    1 NMatS0=   2211 NMatT0=    0 NMatD0=    1 NMtDS0=    0 NMtDT0=    0
 Symmetry not used in FoFCou.
 Two-electron integral symmetry not used.
 Closed shell SCF:
 Using DIIS extrapolation, IDIIS=  1040.
 NGot=   268435456 LenX=   265979008 LenY=   265973667
 Requested convergence on RMS density matrix=1.00D-08 within 128 cycles.
 Requested convergence on MAX density matrix=1.00D-06.
 Requested convergence on             energy=1.00D-06.
 No special actions if energy rises.

 Cycle   1  Pass 1  IDiag  1:
 Inv3:  Mode=1 IEnd=     1687500.
 Iteration    1 A*A^-1 deviation from unit magnitude is 3.77D-15 for    745.
 Iteration    1 A*A^-1 deviation from orthogonality  is 9.53D-16 for    561     29.
 Iteration    1 A^-1*A deviation from unit magnitude is 3.77D-15 for    745.
 Iteration    1 A^-1*A deviation from orthogonality  is 1.07D-15 for    654    151.
 E= -227.714376598988    
 DIIS: error= 3.29D-02 at cycle   1 NSaved=   1.
 NSaved= 1 IEnMin= 1 EnMin= -227.714376598988     IErMin= 1 ErrMin= 3.29D-02
 ErrMax= 3.29D-02  0.00D+00 EMaxC= 1.00D-01 BMatC= 8.68D-02 BMatP= 8.68D-02
 IDIUse=3 WtCom= 6.71D-01 WtEn= 3.29D-01
 Coeff-Com:  0.100D+01
 Coeff-En:   0.100D+01
 Coeff:      0.100D+01
 Gap=     0.117 Goal=   None    Shift=    0.000
 GapD=    0.117 DampG=1.000 DampE=0.500 DampFc=0.5000 IDamp=-1.
 Damping current iteration by 5.00D-01
 RMSDP=1.04D-02 MaxDP=1.47D-01              OVMax= 2.34D-01

 Cycle   2  Pass 1  IDiag  1:
 E= -227.719493575457     Delta-E=       -0.005116976469 Rises=F Damp=T
 DIIS: error= 1.77D-02 at cycle   2 NSaved=   2.
 NSaved= 2 IEnMin= 2 EnMin= -227.719493575457     IErMin= 2 ErrMin= 1.77D-02
 ErrMax= 1.77D-02  0.00D+00 EMaxC= 1.00D-01 BMatC= 2.31D-02 BMatP= 8.68D-02
 IDIUse=3 WtCom= 8.23D-01 WtEn= 1.77D-01
 Coeff-Com:  0.314D+00 0.686D+00
 Coeff-En:   0.470D+00 0.530D+00
 Coeff:      0.342D+00 0.658D+00
 Gap=     0.147 Goal=   None    Shift=    0.000
 RMSDP=2.35D-03 MaxDP=3.54D-02 DE=-5.12D-03 OVMax= 1.36D-01

 Cycle   3  Pass 1  IDiag  1:
 E= -227.778926401385     Delta-E=       -0.059432825928 Rises=F Damp=F
 DIIS: error= 6.06D-03 at cycle   3 NSaved=   3.
 NSaved= 3 IEnMin= 3 EnMin= -227.778926401385     IErMin= 3 ErrMin= 6.06D-03
 ErrMax= 6.06D-03  0.00D+00 EMaxC= 1.00D-01 BMatC= 3.10D-03 BMatP= 2.31D-02
 IDIUse=3 WtCom= 9.39D-01 WtEn= 6.06D-02
 Coeff-Com:  0.101D+00 0.290D+00 0.608D+00
 Coeff-En:   0.000D+00 0.000D+00 0.100D+01
 Coeff:      0.953D-01 0.273D+00 0.632D+00
 Gap=     0.149 Goal=   None    Shift=    0.000
 RMSDP=1.00D-03 MaxDP=1.61D-02 DE=-5.94D-02 OVMax= 2.21D-02

 Cycle   4  Pass 1  IDiag  1:
 E= -227.781860144520     Delta-E=       -0.002933743135 Rises=F Damp=F
 DIIS: error= 2.15D-03 at cycle   4 NSaved=   4.
 NSaved= 4 IEnMin= 4 EnMin= -227.781860144520     IErMin= 4 ErrMin= 2.15D-03
 ErrMax= 2.15D-03  0.00D+00 EMaxC= 1.00D-01 BMatC= 4.24D-04 BMatP= 3.10D-03
 IDIUse=3 WtCom= 9.78D-01 WtEn= 2.15D-02
 Coeff-Com:  0.244D-01 0.407D-01 0.273D+00 0.662D+00
 Coeff-En:   0.000D+00 0.000D+00 0.214D-01 0.979D+00
 Coeff:      0.239D-01 0.398D-01 0.268D+00 0.669D+00
 Gap=     0.151 Goal=   None    Shift=    0.000
 RMSDP=3.63D-04 MaxDP=6.51D-03 DE=-2.93D-03 OVMax= 1.29D-02

 Cycle   5  Pass 1  IDiag  1:
 E= -227.782062393479     Delta-E=       -0.000202248959 Rises=F Damp=F
 DIIS: error= 1.85D-03 at cycle   5 NSaved=   5.
 NSaved= 5 IEnMin= 5 EnMin= -227.782062393479     IErMin= 5 ErrMin= 1.85D-03
 ErrMax= 1.85D-03  0.00D+00 EMaxC= 1.00D-01 BMatC= 2.18D-04 BMatP= 4.24D-04
 IDIUse=3 WtCom= 9.81D-01 WtEn= 1.85D-02
 Coeff-Com:  0.964D-02 0.169D-02 0.144D+00 0.490D+00 0.354D+00
 Coeff-En:   0.000D+00 0.000D+00 0.000D+00 0.309D+00 0.691D+00
 Coeff:      0.946D-02 0.166D-02 0.142D+00 0.487D+00 0.361D+00
 Gap=     0.151 Goal=   None    Shift=    0.000
 RMSDP=1.82D-04 MaxDP=3.24D-03 DE=-2.02D-04 OVMax= 6.95D-03

 Cycle   6  Pass 1  IDiag  1:
 E= -227.782232501542     Delta-E=       -0.000170108063 Rises=F Damp=F
 DIIS: error= 1.42D-04 at cycle   6 NSaved=   6.
 NSaved= 6 IEnMin= 6 EnMin= -227.782232501542     IErMin= 6 ErrMin= 1.42D-04
 ErrMax= 1.42D-04  0.00D+00 EMaxC= 1.00D-01 BMatC= 2.09D-06 BMatP= 2.18D-04
 IDIUse=3 WtCom= 9.99D-01 WtEn= 1.42D-03
 Coeff-Com:  0.131D-02-0.539D-02 0.172D-01 0.784D-01 0.117D+00 0.792D+00
 Coeff-En:   0.000D+00 0.000D+00 0.000D+00 0.000D+00 0.000D+00 0.100D+01
 Coeff:      0.131D-02-0.538D-02 0.172D-01 0.783D-01 0.116D+00 0.792D+00
 Gap=     0.151 Goal=   None    Shift=    0.000
 RMSDP=1.82D-05 MaxDP=2.86D-04 DE=-1.70D-04 OVMax= 5.20D-04

 Cycle   7  Pass 1  IDiag  1:
 E= -227.782234123853     Delta-E=       -0.000001622311 Rises=F Damp=F
 DIIS: error= 1.02D-05 at cycle   7 NSaved=   7.
 NSaved= 7 IEnMin= 7 EnMin= -227.782234123853     IErMin= 7 ErrMin= 1.02D-05
 ErrMax= 1.02D-05  0.00D+00 EMaxC= 1.00D-01 BMatC= 1.35D-08 BMatP= 2.09D-06
 IDIUse=1 WtCom= 1.00D+00 WtEn= 0.00D+00
 Coeff-Com:  0.239D-03-0.963D-03 0.187D-02 0.763D-02 0.118D-01 0.934D-01
 Coeff-Com:  0.886D+00
 Coeff:      0.239D-03-0.963D-03 0.187D-02 0.763D-02 0.118D-01 0.934D-01
 Coeff:      0.886D+00
 Gap=     0.151 Goal=   None    Shift=    0.000
 RMSDP=2.22D-06 MaxDP=2.57D-05 DE=-1.62D-06 OVMax= 2.99D-05

 Cycle   8  Pass 1  IDiag  1:
 E= -227.782234133525     Delta-E=       -0.000000009672 Rises=F Damp=F
 DIIS: error= 3.30D-06 at cycle   8 NSaved=   8.
 NSaved= 8 IEnMin= 8 EnMin= -227.782234133525     IErMin= 8 ErrMin= 3.30D-06
 ErrMax= 3.30D-06  0.00D+00 EMaxC= 1.00D-01 BMatC= 1.97D-09 BMatP= 1.35D-08
 IDIUse=1 WtCom= 1.00D+00 WtEn= 0.00D+00
 Coeff-Com:  0.317D-04-0.899D-04-0.242D-03-0.183D-02-0.270D-02-0.130D-01
 Coeff-Com:  0.392D+00 0.626D+00
 Coeff:      0.317D-04-0.899D-04-0.242D-03-0.183D-02-0.270D-02-0.130D-01
 Coeff:      0.392D+00 0.626D+00
 Gap=     0.151 Goal=   None    Shift=    0.000
 RMSDP=7.05D-07 MaxDP=9.70D-06 DE=-9.67D-09 OVMax= 1.08D-05

 Cycle   9  Pass 1  IDiag  1:
 E= -227.782234135356     Delta-E=       -0.000000001831 Rises=F Damp=F
 DIIS: error= 4.37D-07 at cycle   9 NSaved=   9.
 NSaved= 9 IEnMin= 9 EnMin= -227.782234135356     IErMin= 9 ErrMin= 4.37D-07
 ErrMax= 4.37D-07  0.00D+00 EMaxC= 1.00D-01 BMatC= 3.01D-11 BMatP= 1.97D-09
 IDIUse=1 WtCom= 1.00D+00 WtEn= 0.00D+00
 Coeff-Com: -0.313D-05 0.228D-04-0.131D-03-0.840D-03-0.120D-02-0.779D-02
 Coeff-Com:  0.469D-01 0.146D+00 0.817D+00
 Coeff:     -0.313D-05 0.228D-04-0.131D-03-0.840D-03-0.120D-02-0.779D-02
 Coeff:      0.469D-01 0.146D+00 0.817D+00
 Gap=     0.151 Goal=   None    Shift=    0.000
 RMSDP=9.71D-08 MaxDP=1.26D-06 DE=-1.83D-09 OVMax= 1.24D-06

 Cycle  10  Pass 1  IDiag  1:
 E= -227.782234135384     Delta-E=       -0.000000000028 Rises=F Damp=F
 DIIS: error= 7.51D-08 at cycle  10 NSaved=  10.
 NSaved=10 IEnMin=10 EnMin= -227.782234135384     IErMin=10 ErrMin= 7.51D-08
 ErrMax= 7.51D-08  0.00D+00 EMaxC= 1.00D-01 BMatC= 6.32D-13 BMatP= 3.01D-11
 IDIUse=1 WtCom= 1.00D+00 WtEn= 0.00D+00
 Coeff-Com: -0.870D-08 0.189D-05-0.479D-05-0.552D-04-0.629D-04-0.417D-03
 Coeff-Com: -0.245D-02 0.288D-02 0.722D-01 0.928D+00
 Coeff:     -0.870D-08 0.189D-05-0.479D-05-0.552D-04-0.629D-04-0.417D-03
 Coeff:     -0.245D-02 0.288D-02 0.722D-01 0.928D+00
 Gap=     0.151 Goal=   None    Shift=    0.000
 RMSDP=1.21D-08 MaxDP=1.06D-07 DE=-2.76D-11 OVMax= 2.21D-07

 Cycle  11  Pass 1  IDiag  1:
 E= -227.782234135384     Delta-E=        0.000000000000 Rises=F Damp=F
 DIIS: error= 1.75D-08 at cycle  11 NSaved=  11.
 NSaved=11 IEnMin=10 EnMin= -227.782234135384     IErMin=11 ErrMin= 1.75D-08
 ErrMax= 1.75D-08  0.00D+00 EMaxC= 1.00D-01 BMatC= 2.85D-14 BMatP= 6.32D-13
 IDIUse=1 WtCom= 1.00D+00 WtEn= 0.00D+00
 Coeff-Com:  0.249D-06-0.461D-06 0.293D-05 0.898D-05 0.181D-04 0.118D-03
 Coeff-Com: -0.194D-02-0.345D-02-0.413D-02 0.248D+00 0.761D+00
 Coeff:      0.249D-06-0.461D-06 0.293D-05 0.898D-05 0.181D-04 0.118D-03
 Coeff:     -0.194D-02-0.345D-02-0.413D-02 0.248D+00 0.761D+00
 Gap=     0.151 Goal=   None    Shift=    0.000
 RMSDP=2.61D-09 MaxDP=2.46D-08 DE= 5.68D-14 OVMax= 4.52D-08

 Error on total polarization charges =  0.00287
 SCF Done:  E(RB3LYP) =  -227.782234135     A.U. after   11 cycles
            NFock= 11  Conv=0.26D-08     -V/T= 2.0031
 KE= 2.270827984444D+02 PE=-7.411469343576D+02 EE= 1.832115692628D+02
 Leave Link  502 at Fri Sep 22 16:31:16 2023, MaxMem=   268435456 cpu:              14.5 elap:               7.3
 (Enter /share/apps/gaussian/g16/l601.exe)
 Copying SCF densities to generalized density rwf, IOpCl= 0 IROHF=0.

 **********************************************************************

            Population analysis using the SCF density.

 **********************************************************************

 Orbital symmetries:
       Occupied  (A) (A) (A) (A) (A) (A) (A) (A) (A) (A) (A) (A)
                 (A) (A) (A)
       Virtual   (A) (A) (A) (A) (A) (A) (A) (A) (A) (A) (A) (A)
                 (A) (A) (A) (A) (A) (A) (A) (A) (A) (A) (A) (A)
                 (A) (A) (A) (A) (A) (A) (A) (A) (A) (A) (A) (A)
                 (A) (A) (A) (A) (A) (A) (A) (A) (A) (A) (A) (A)
                 (A) (A) (A)
 The electronic state is 1-A.
 Alpha  occ. eigenvalues --  -19.16886 -19.16762 -10.29323 -10.29020  -1.10048
 Alpha  occ. eigenvalues --   -1.07081  -0.74898  -0.62166  -0.52208  -0.50259
 Alpha  occ. eigenvalues --   -0.46225  -0.45873  -0.39518  -0.33004  -0.28824
 Alpha virt. eigenvalues --   -0.13769   0.01469   0.06883   0.09047   0.15103
 Alpha virt. eigenvalues --    0.24341   0.31809   0.38037   0.40792   0.44509
 Alpha virt. eigenvalues --    0.47356   0.57658   0.58767   0.62127   0.67281
 Alpha virt. eigenvalues --    0.69940   0.72448   0.83725   0.84279   0.88638
 Alpha virt. eigenvalues --    0.95684   0.99787   1.01508   1.25977   1.40654
 Alpha virt. eigenvalues --    1.49507   1.64039   1.67883   1.70282   1.78130
 Alpha virt. eigenvalues --    1.83056   1.90650   1.92342   1.93061   2.08334
 Alpha virt. eigenvalues --    2.12578   2.16019   2.26938   2.32317   2.33647
 Alpha virt. eigenvalues --    2.35049   2.47750   2.65638   2.74799   2.82410
 Alpha virt. eigenvalues --    2.86064   3.02978   3.06358   3.12842   3.40849
 Alpha virt. eigenvalues --    3.49217
          Condensed to atoms (all electrons):
               1          2          3          4          5          6
     1  C    4.645883   0.295531  -0.083046   0.392267   0.548211  -0.064036
     2  C    0.295531   4.649664   0.384608  -0.080595  -0.058443   0.569246
     3  H   -0.083046   0.384608   0.635502   0.013119   0.013355  -0.046896
     4  H    0.392267  -0.080595   0.013119   0.636843  -0.046329   0.013625
     5  O    0.548211  -0.058443   0.013355  -0.046329   7.885555   0.002561
     6  O   -0.064036   0.569246  -0.046896   0.013625   0.002561   7.840198
 Mulliken charges:
               1
     1  C    0.265190
     2  C    0.239989
     3  H    0.083358
     4  H    0.071070
     5  O   -0.344911
     6  O   -0.314697
 Sum of Mulliken charges =  -0.00000
 Mulliken charges with hydrogens summed into heavy atoms:
               1
     1  C    0.336260
     2  C    0.323347
     5  O   -0.344911
     6  O   -0.314697
 Electronic spatial extent (au):  <R**2>=            261.6862
 Charge=              0.0000 electrons
 Dipole moment (field-independent basis, Debye):
    X=              0.1994    Y=             -0.0050    Z=              0.1229  Tot=              0.2343
 Quadrupole moment (field-independent basis, Debye-Ang):
   XX=            -32.3269   YY=            -20.5020   ZZ=            -21.2125
   XY=              2.3383   XZ=             -0.0046   YZ=              0.0055
 Traceless Quadrupole moment (field-independent basis, Debye-Ang):
   XX=             -7.6464   YY=              4.1784   ZZ=              3.4680
   XY=              2.3383   XZ=             -0.0046   YZ=              0.0055
 Octapole moment (field-independent basis, Debye-Ang**2):
  XXX=              0.7991  YYY=             -0.2095  ZZZ=             -0.0537  XYY=              0.1135
  XXY=              0.0453  XXZ=              0.2315  XZZ=              0.1015  YZZ=             -0.0920
  YYZ=              0.0845  XYZ=             -0.0030
 Hexadecapole moment (field-independent basis, Debye-Ang**3):
 XXXX=           -274.7237 YYYY=            -43.4929 ZZZZ=            -18.4241 XXXY=              0.4570
 XXXZ=              0.0108 YYYX=              1.6542 YYYZ=              0.0385 ZZZX=              0.0139
 ZZZY=             -0.0072 XXYY=            -48.3525 XXZZ=            -41.3117 YYZZ=            -11.1954
 XXYZ=              0.0009 YYXZ=              0.0113 ZZXY=             -0.4823
 N-N= 1.030703325150D+02 E-N=-7.411469345156D+02  KE= 2.270827984444D+02
 There are a total of      133348 grid points.
 ElSum from          density=       29.9999996220
 ElSum from atomic densities=       29.9999994682
 Hirshfeld populations at iteration   1 (CA, CB, DipXYZ):
               1          2          3          4          5
     1  C    2.925466   2.925466   0.057638  -0.023905   0.005728
     2  C    2.923027   2.923027  -0.051119   0.022143  -0.000853
     3  H    0.470657   0.470657  -0.001738   0.137680   0.005306
     4  H    0.470209   0.470209   0.002389  -0.145828   0.002700
     5  O    4.108186   4.108186   0.141706  -0.059599   0.003740
     6  O    4.102455   4.102455  -0.133164   0.054910   0.004094
       Tot  15.000000  15.000000   0.015712  -0.014599   0.020716

 Dip from Atomic Chgs              0.062733   0.012640   0.027630
         Total Dipole              0.078446  -0.001959   0.048347

 Hirshfeld charges, spin densities, dipoles, and CM5 charges using IRadAn=      5:
              Q-H        S-H        Dx         Dy         Dz        Q-CM5   
     1  C    0.149068   0.000000   0.057638  -0.023905   0.005728   0.126380
     2  C    0.153945   0.000000  -0.051119   0.022143  -0.000853   0.140485
     3  H    0.058686   0.000000  -0.001738   0.137680   0.005306   0.125709
     4  H    0.059582   0.000000   0.002389  -0.145828   0.002700   0.135093
     5  O   -0.216373   0.000000   0.141706  -0.059599   0.003740  -0.267936
     6  O   -0.204909   0.000000  -0.133164   0.054910   0.004094  -0.259731
       Tot   0.000000   0.000000   0.015712  -0.014599   0.020716   0.000000
 Hirshfeld charges with hydrogens summed into heavy atoms:
              Q-H       Q-CM5   
     1  C    0.208651   0.261474
     2  C    0.212632   0.266195
     5  O   -0.216373  -0.267936
     6  O   -0.204909  -0.259731
 
 EQQ= 0.000000000000E+00 EQD= 0.000000000000E+00 EDD= 0.173857411604E-02
 EQQ+QD+DD= 0.173857411604E-02
 
 No NMR shielding tensors so no spin-rotation constants.
 Leave Link  601 at Fri Sep 22 16:31:17 2023, MaxMem=   268435456 cpu:               0.8 elap:               0.4
 (Enter /share/apps/gaussian/g16/l9999.exe)
 1\1\GINC-NODE99\SP\RB3LYP\Gen\C2H2O2\YANZ\22-Sep-2023\0\\#p b3lyp/gen 
 scrf=(cpcm,solvent=toluene) pop=hirshfeld empiricaldispersion=gd3bj\\t
 mpdir/M2_ref_380.gjf\\0,1\C,0,1.640478,3.77672,-0.330975\C,0,0.654688,
 4.750794,-0.023924\H,0,0.325761,4.855187,1.00662994\H,0,1.99110739,3.7
 0605714,-1.30265373\O,0,2.09545886,2.98112592,0.52371998\O,0,0.2003903
 9,5.46598999,-0.8928403\\Version=ES64L-G16RevA.03\State=1-A\HF=-227.78
 22341\RMSD=2.612e-09\Dipole=-0.0104744,0.0897295,-0.018271\Quadrupole=
 0.5330358,-1.6034163,1.0703804,2.970729,-2.51339,3.1918402\PG=C01 [X(C
 2H2O2)]\\@


 WE ARE PERHAPS NOT FAR REMOVED FROM THE TIME WHEN WE SHALL BE ABLE TO SUBMIT
 THE BULK OF CHEMICAL PHENOMENA TO CALCULATION.

            -- JOSEPH LOUIS GAY-LUSSAC
               MEMOIRES DE LA SOCIETE D'ARCUEIL, 2, 207 (1808)
 Job cpu time:       0 days  0 hours  0 minutes 17.3 seconds.
 Elapsed time:       0 days  0 hours  0 minutes  8.8 seconds.
 File lengths (MBytes):  RWF=     11 Int=      0 D2E=      0 Chk=      2 Scr=      1
 Normal termination of Gaussian 16 at Fri Sep 22 16:31:17 2023.
