 Entering Gaussian System, Link 0=g16
 Initial command:
 /share/apps/gaussian/g16/l1.exe "/tmp/55556.mgr/Gau-80493.inp" -scrdir="/tmp/55556.mgr/"
 Entering Link 1 = /share/apps/gaussian/g16/l1.exe PID=     80494.
  
 Copyright (c) 1988,1990,1992,1993,1995,1998,2003,2009,2016,
            Gaussian, Inc.  All Rights Reserved.
  
 This is part of the Gaussian(R) 16 program.  It is based on
 the Gaussian(R) 09 system (copyright 2009, Gaussian, Inc.),
 the Gaussian(R) 03 system (copyright 2003, Gaussian, Inc.),
 the Gaussian(R) 98 system (copyright 1998, Gaussian, Inc.),
 the Gaussian(R) 94 system (copyright 1995, Gaussian, Inc.),
 the Gaussian 92(TM) system (copyright 1992, Gaussian, Inc.),
 the Gaussian 90(TM) system (copyright 1990, Gaussian, Inc.),
 the Gaussian 88(TM) system (copyright 1988, Gaussian, Inc.),
 the Gaussian 86(TM) system (copyright 1986, Carnegie Mellon
 University), and the Gaussian 82(TM) system (copyright 1983,
 Carnegie Mellon University). Gaussian is a federally registered
 trademark of Gaussian, Inc.
  
 This software contains proprietary and confidential information,
 including trade secrets, belonging to Gaussian, Inc.
  
 This software is provided under written license and may be
 used, copied, transmitted, or stored only in accord with that
 written license.
  
 The following legend is applicable only to US Government
 contracts under FAR:
  
                    RESTRICTED RIGHTS LEGEND
  
 Use, reproduction and disclosure by the US Government is
 subject to restrictions as set forth in subparagraphs (a)
 and (c) of the Commercial Computer Software - Restricted
 Rights clause in FAR 52.227-19.
  
 Gaussian, Inc.
 340 Quinnipiac St., Bldg. 40, Wallingford CT 06492
  
  
 ---------------------------------------------------------------
 Warning -- This program may not be used in any manner that
 competes with the business of Gaussian, Inc. or will provide
 assistance to any competitor of Gaussian, Inc.  The licensee
 of this program is prohibited from giving any competitor of
 Gaussian, Inc. access to this program.  By using this program,
 the user acknowledges that Gaussian, Inc. is engaged in the
 business of creating and licensing software in the field of
 computational chemistry and represents and warrants to the
 licensee that it is not a competitor of Gaussian, Inc. and that
 it will not use this program in any manner prohibited above.
 ---------------------------------------------------------------
  

 Cite this work as:
 Gaussian 16, Revision A.03,
 M. J. Frisch, G. W. Trucks, H. B. Schlegel, G. E. Scuseria, 
 M. A. Robb, J. R. Cheeseman, G. Scalmani, V. Barone, 
 G. A. Petersson, H. Nakatsuji, X. Li, M. Caricato, A. V. Marenich, 
 J. Bloino, B. G. Janesko, R. Gomperts, B. Mennucci, H. P. Hratchian, 
 J. V. Ortiz, A. F. Izmaylov, J. L. Sonnenberg, D. Williams-Young, 
 F. Ding, F. Lipparini, F. Egidi, J. Goings, B. Peng, A. Petrone, 
 T. Henderson, D. Ranasinghe, V. G. Zakrzewski, J. Gao, N. Rega, 
 G. Zheng, W. Liang, M. Hada, M. Ehara, K. Toyota, R. Fukuda, 
 J. Hasegawa, M. Ishida, T. Nakajima, Y. Honda, O. Kitao, H. Nakai, 
 T. Vreven, K. Throssell, J. A. Montgomery, Jr., J. E. Peralta, 
 F. Ogliaro, M. J. Bearpark, J. J. Heyd, E. N. Brothers, K. N. Kudin, 
 V. N. Staroverov, T. A. Keith, R. Kobayashi, J. Normand, 
 K. Raghavachari, A. P. Rendell, J. C. Burant, S. S. Iyengar, 
 J. Tomasi, M. Cossi, J. M. Millam, M. Klene, C. Adamo, R. Cammi, 
 J. W. Ochterski, R. L. Martin, K. Morokuma, O. Farkas, 
 J. B. Foresman, and D. J. Fox, Gaussian, Inc., Wallingford CT, 2016.
 
 ******************************************
 Gaussian 16:  ES64L-G16RevA.03 25-Dec-2016
                22-Sep-2023 
 ******************************************
 %nprocshared=2
 Will use up to    2 processors via shared memory.
 %mem=2GB
 ----------------------------------------------------------------------
 #p b3lyp/gen scrf=(cpcm,solvent=toluene) pop=hirshfeld empiricaldisper
 sion=gd3bj
 ----------------------------------------------------------------------
 1/38=1,172=1/1;
 2/12=2,17=6,18=5,40=1/2;
 3/5=7,11=2,25=1,30=1,70=2101,72=13,74=-5,124=41/1,2,3;
 4//1;
 5/5=2,38=5,53=13/2;
 6/7=2,8=2,9=2,10=2,28=1,79=1/1;
 99/5=1,9=1/99;
 Leave Link    1 at Fri Sep 22 16:29:27 2023, MaxMem=   268435456 cpu:               0.1 elap:               0.0
 (Enter /share/apps/gaussian/g16/l101.exe)
 ---------------------
 tmpdir/M2_ref_235.gjf
 ---------------------
 Symbolic Z-matrix:
 Charge =  0 Multiplicity = 1
 C                    -0.01548   0.81208   4.49394 
 N                    -0.76058   0.253     3.44671 
 C                    -1.25126  -1.1355    3.38615 
 O                    -0.0442    2.01528   4.36147 
 H                     0.51295   0.25591   5.2555 
 H                    -1.1147    0.96301   2.89145 
 H                    -0.43852  -1.90298   3.34884 
 H                    -1.99078  -1.28661   4.20684 
 H                    -1.78101  -1.21993   2.43207 
 
 ITRead=  0  0  0  0  0  0  0  0  0
 MicOpt= -1 -1 -1 -1 -1 -1 -1 -1 -1
 NAtoms=      9 NQM=        9 NQMF=       0 NMMI=      0 NMMIF=      0
                NMic=       0 NMicF=      0.
                    Isotopes and Nuclear Properties:
 (Nuclear quadrupole moments (NQMom) in fm**2, nuclear magnetic moments (NMagM)
  in nuclear magnetons)

  Atom         1           2           3           4           5           6           7           8           9
 IAtWgt=          12          14          12          16           1           1           1           1           1
 AtmWgt=  12.0000000  14.0030740  12.0000000  15.9949146   1.0078250   1.0078250   1.0078250   1.0078250   1.0078250
 NucSpn=           0           2           0           0           1           1           1           1           1
 AtZEff=  -0.0000000  -0.0000000  -0.0000000  -0.0000000  -0.0000000  -0.0000000  -0.0000000  -0.0000000  -0.0000000
 NQMom=    0.0000000   2.0440000   0.0000000   0.0000000   0.0000000   0.0000000   0.0000000   0.0000000   0.0000000
 NMagM=    0.0000000   0.4037610   0.0000000   0.0000000   2.7928460   2.7928460   2.7928460   2.7928460   2.7928460
 AtZNuc=   6.0000000   7.0000000   6.0000000   8.0000000   1.0000000   1.0000000   1.0000000   1.0000000   1.0000000
 Leave Link  101 at Fri Sep 22 16:29:28 2023, MaxMem=   268435456 cpu:               0.2 elap:               0.1
 (Enter /share/apps/gaussian/g16/l202.exe)
                          Input orientation:                          
 ---------------------------------------------------------------------
 Center     Atomic      Atomic             Coordinates (Angstroms)
 Number     Number       Type             X           Y           Z
 ---------------------------------------------------------------------
      1          6           0       -0.015482    0.812080    4.493944
      2          7           0       -0.760583    0.252997    3.446712
      3          6           0       -1.251256   -1.135500    3.386145
      4          8           0       -0.044202    2.015275    4.361471
      5          1           0        0.512951    0.255905    5.255495
      6          1           0       -1.114697    0.963010    2.891445
      7          1           0       -0.438515   -1.902985    3.348839
      8          1           0       -1.990784   -1.286609    4.206842
      9          1           0       -1.781007   -1.219927    2.432070
 ---------------------------------------------------------------------
                    Distance matrix (angstroms):
                    1          2          3          4          5
     1  C    0.000000
     2  N    1.401586   0.000000
     3  C    2.558793   1.473890   0.000000
     4  O    1.210807   2.110832   3.512211   0.000000
     5  H    1.080987   2.212147   2.922825   2.050629   0.000000
     6  H    1.949117   0.968419   2.160352   2.100999   2.956006
     7  H    2.976878   2.182101   1.118469   4.066161   3.033387
     8  H    2.896333   2.112245   1.115024   3.836083   3.122134
     9  H    3.390790   2.059191   1.094543   4.147965   3.925819
                    6          7          8          9
     6  H    0.000000
     7  H    2.979993   0.000000
     8  H    2.749287   1.877666   0.000000
     9  H    2.328134   1.763326   1.788370   0.000000
 Stoichiometry    C2H5NO
 Framework group  C1[X(C2H5NO)]
 Deg. of freedom    21
 Full point group                 C1      NOp   1
 Largest Abelian subgroup         C1      NOp   1
 Largest concise Abelian subgroup C1      NOp   1
                         Standard orientation:                         
 ---------------------------------------------------------------------
 Center     Atomic      Atomic             Coordinates (Angstroms)
 Number     Number       Type             X           Y           Z
 ---------------------------------------------------------------------
      1          6           0       -0.771911    0.492437   -0.035429
      2          7           0        0.350316   -0.343040   -0.119267
      3          6           0        1.751421    0.078442    0.058534
      4          8           0       -1.748412   -0.216039    0.067335
      5          1           0       -0.756654    1.571981   -0.089137
      6          1           0        0.065882   -1.267182   -0.065467
      7          1           0        2.109642    0.801781   -0.715695
      8          1           0        1.887403    0.423636    1.110023
      9          1           0        2.351751   -0.825898   -0.082165
 ---------------------------------------------------------------------
 Rotational constants (GHZ):          38.5989857           4.5784996           4.2372400
 Leave Link  202 at Fri Sep 22 16:29:28 2023, MaxMem=   268435456 cpu:               0.1 elap:               0.0
 (Enter /share/apps/gaussian/g16/l301.exe)
 General basis read from cards:  (5D, 7F)
 Centers:       5      6      7      8      9
 S 3 1.00
     Exponent=  1.2251800000D+01 Coefficients=  2.3337100000D-02
     Exponent=  1.8687100000D+00 Coefficients=  1.5915000000D-01
     Exponent=  4.1820800000D-01 Coefficients=  5.0000000000D-01
 S 1 1.00
     Exponent=  1.0610000000D-01 Coefficients=  1.0000000000D+00
 P 1 1.00
     Exponent=  1.0000000000D+00 Coefficients=  1.0000000000D+00
 ****
 Centers:       1      3
 S 5 1.00
     Exponent=  1.2432000000D+03 Coefficients=  6.0336600000D-03
     Exponent=  1.8714500000D+02 Coefficients=  4.4957600000D-02
     Exponent=  4.2512600000D+01 Coefficients=  1.9790100000D-01
     Exponent=  1.1739300000D+01 Coefficients=  5.0000000000D-01
     Exponent=  3.5054800000D+00 Coefficients=  4.8036400000D-01
 S 2 1.00
     Exponent=  5.3908900000D+00 Coefficients= -7.0398000000D-02
     Exponent=  4.9334100000D-01 Coefficients=  5.0000000000D-01
 S 1 1.00
     Exponent=  1.4974100000D-01 Coefficients=  1.0000000000D+00
 P 3 1.00
     Exponent=  9.1805600000D+00 Coefficients=  4.3170100000D-02
     Exponent=  1.9365800000D+00 Coefficients=  2.2499900000D-01
     Exponent=  5.2629600000D-01 Coefficients=  5.0000000000D-01
 P 1 1.00
     Exponent=  1.3631900000D-01 Coefficients=  1.0000000000D+00
 D 1 1.00
     Exponent=  8.0000000000D-01 Coefficients=  1.0000000000D+00
 ****
 Centers:       2
 S 5 1.00
     Exponent=  1.7263200000D+03 Coefficients=  5.9307700000D-03
     Exponent=  2.5982700000D+02 Coefficients=  4.4253900000D-02
     Exponent=  5.9033500000D+01 Coefficients=  1.9609600000D-01
     Exponent=  1.6350900000D+01 Coefficients=  5.0000000000D-01
     Exponent=  4.9108400000D+00 Coefficients=  4.8298700000D-01
 S 2 1.00
     Exponent=  7.7589400000D+00 Coefficients= -7.0335600000D-02
     Exponent=  7.0557300000D-01 Coefficients=  5.0000000000D-01
 S 1 1.00
     Exponent=  2.0928600000D-01 Coefficients=  1.0000000000D+00
 P 3 1.00
     Exponent=  1.3184400000D+01 Coefficients=  4.4074700000D-02
     Exponent=  2.8186000000D+00 Coefficients=  2.3047800000D-01
     Exponent=  7.6557100000D-01 Coefficients=  5.0000000000D-01
 P 1 1.00
     Exponent=  1.9594900000D-01 Coefficients=  1.0000000000D+00
 D 1 1.00
     Exponent=  9.0000000000D-01 Coefficients=  1.0000000000D+00
 ****
 Centers:       4
 S 5 1.00
     Exponent=  2.2886400000D+03 Coefficients=  5.8546800000D-03
     Exponent=  3.4441600000D+02 Coefficients=  4.3733300000D-02
     Exponent=  7.8253800000D+01 Coefficients=  1.9479600000D-01
     Exponent=  2.1719500000D+01 Coefficients=  5.0000000000D-01
     Exponent=  6.5590700000D+00 Coefficients=  4.8461400000D-01
 S 2 1.00
     Exponent=  1.0465600000D+01 Coefficients= -7.1334300000D-02
     Exponent=  9.6435100000D-01 Coefficients=  5.0000000000D-01
 S 1 1.00
     Exponent=  2.8512700000D-01 Coefficients=  1.0000000000D+00
 P 3 1.00
     Exponent=  1.7059000000D+01 Coefficients=  4.7443900000D-02
     Exponent=  3.6899900000D+00 Coefficients=  2.4268900000D-01
     Exponent=  9.9299600000D-01 Coefficients=  5.0000000000D-01
 P 1 1.00
     Exponent=  2.4492400000D-01 Coefficients=  1.0000000000D+00
 D 1 1.00
     Exponent=  1.0000000000D+00 Coefficients=  1.0000000000D+00
 ****
 Ernie: Thresh=  0.10000D-02 Tol=  0.10000D-05 Strict=F.
 There are    85 symmetry adapted cartesian basis functions of A   symmetry.
 There are    81 symmetry adapted basis functions of A   symmetry.
    81 basis functions,   139 primitive gaussians,    85 cartesian basis functions
    16 alpha electrons       16 beta electrons
       nuclear repulsion energy       119.5668380436 Hartrees.
 IExCor=  402 DFT=T Ex+Corr=B3LYP ExCW=0 ScaHFX=  0.200000
 ScaDFX=  0.800000  0.720000  1.000000  0.810000 ScalE2=  1.000000  1.000000
 IRadAn=      5 IRanWt=     -1 IRanGd=            0 ICorTp=0 IEmpDi=141
 NAtoms=    9 NActive=    9 NUniq=    9 SFac= 1.00D+00 NAtFMM=   60 NAOKFM=F Big=F
 Integral buffers will be    131072 words long.
 Raffenetti 2 integral format.
 Two-electron integral symmetry is turned on.
 R6Disp:  Grimme-D3(BJ) Dispersion energy=       -0.0082721428 Hartrees.
 Nuclear repulsion after empirical dispersion term =      119.5585659008 Hartrees.
 ------------------------------------------------------------------------------
 Polarizable Continuum Model (PCM)
 =================================
 Model                : C-PCM.
 Atomic radii         : UFF (Universal Force Field).
 Polarization charges : Total charges.
 Charge compensation  : None.
 Solution method      : On-the-fly selection.
 Cavity type          : Scaled VdW (van der Waals Surface) (Alpha=1.100).
 Cavity algorithm     : GePol (No added spheres)
                        Default sphere list used, NSphG=    9.
                        Lebedev-Laikov grids with approx.  5.0 points / Ang**2.
                        Smoothing algorithm: York/Karplus (Gamma=1.0000).
                        Polarization charges: spherical gaussians, with
                                              point-specific exponents (IZeta= 3).
                        Self-potential: point-specific (ISelfS= 7).
                        Self-field    : sphere-specific E.n sum rule (ISelfD= 2).
 Solvent              : Toluene, Eps=   2.374100 Eps(inf)=   2.238315
 ------------------------------------------------------------------------------
 Spheres list:
 ISph  on   Nord     Re0    Alpha      Xe            Ye            Ze
    1   C      1    1.9255  1.100     -0.771911      0.492437     -0.035429
    2   N      2    1.8300  1.100      0.350316     -0.343040     -0.119267
    3   C      3    1.9255  1.100      1.751421      0.078442      0.058534
    4   O      4    1.7500  1.100     -1.748412     -0.216039      0.067335
    5   H      5    1.4430  1.100     -0.756654      1.571981     -0.089137
    6   H      6    1.4430  1.100      0.065882     -1.267182     -0.065467
    7   H      7    1.4430  1.100      2.109642      0.801781     -0.715695
    8   H      8    1.4430  1.100      1.887403      0.423636      1.110023
    9   H      9    1.4430  1.100      2.351751     -0.825898     -0.082165
 ------------------------------------------------------------------------------
 GePol: Number of generator spheres                  =       9
 GePol: Total number of spheres                      =       9
 GePol: Number of exposed spheres                    =       9 (100.00%)
 GePol: Number of points                             =     880
 GePol: Average weight of points                     =       0.14
 GePol: Minimum weight of points                     =   0.29D-08
 GePol: Maximum weight of points                     =    0.20577
 GePol: Number of points with low weight             =      43
 GePol: Fraction of low-weight points (<1% of avg)   =       4.89%
 GePol: Cavity surface area                          =    119.047 Ang**2
 GePol: Cavity volume                                =    101.526 Ang**3
 Leave Link  301 at Fri Sep 22 16:29:28 2023, MaxMem=   268435456 cpu:               0.2 elap:               0.1
 (Enter /share/apps/gaussian/g16/l302.exe)
 NPDir=0 NMtPBC=     1 NCelOv=     1 NCel=       1 NClECP=     1 NCelD=      1
         NCelK=      1 NCelE2=     1 NClLst=     1 CellRange=     0.0.
 One-electron integrals computed using PRISM.
 One-electron integral symmetry used in STVInt
 NBasis=    81 RedAO= T EigKep=  1.01D-02  NBF=    81
 NBsUse=    81 1.00D-06 EigRej= -1.00D+00 NBFU=    81
 Precomputing XC quadrature grid using
 IXCGrd= 4 IRadAn=           5 IRanWt=          -1 IRanGd=           0 AccXCQ= 0.00D+00.
 Generated NRdTot=       0 NPtTot=           0 NUsed=           0 NTot=          32
 NSgBfM=    85    85    85    85    85 MxSgAt=     9 MxSgA2=     9.
 Leave Link  302 at Fri Sep 22 16:29:28 2023, MaxMem=   268435456 cpu:               0.3 elap:               0.2
 (Enter /share/apps/gaussian/g16/l303.exe)
 DipDrv:  MaxL=1.
 Leave Link  303 at Fri Sep 22 16:29:28 2023, MaxMem=   268435456 cpu:               0.1 elap:               0.1
 (Enter /share/apps/gaussian/g16/l401.exe)
 ExpMin= 1.06D-01 ExpMax= 2.29D+03 ExpMxC= 3.44D+02 IAcc=3 IRadAn=         5 AccDes= 0.00D+00
 Harris functional with IExCor=  402 and IRadAn=       5 diagonalized for initial guess.
 HarFok:  IExCor=  402 AccDes= 0.00D+00 IRadAn=         5 IDoV= 1 UseB2=F ITyADJ=14
 ICtDFT=  3500011 ScaDFX=  1.000000  1.000000  1.000000  1.000000
 FoFCou: FMM=F IPFlag=           0 FMFlag=      100000 FMFlg1=           0
         NFxFlg=           0 DoJE=T BraDBF=F KetDBF=T FulRan=T
         wScrn=  0.000000 ICntrl=       500 IOpCl=  0 I1Cent=   200000004 NGrid=           0
         NMat0=    1 NMatS0=      1 NMatT0=    0 NMatD0=    1 NMtDS0=    0 NMtDT0=    0
 Petite list used in FoFCou.
 Harris En= -209.168564969409    
 JPrj=0 DoOrth=F DoCkMO=F.
 Leave Link  401 at Fri Sep 22 16:29:29 2023, MaxMem=   268435456 cpu:               1.8 elap:               0.9
 (Enter /share/apps/gaussian/g16/l502.exe)
 Keep R1 ints in memory in canonical form, NReq=7334660.
 FoFCou: FMM=F IPFlag=           0 FMFlag=           0 FMFlg1=           0
         NFxFlg=           0 DoJE=F BraDBF=F KetDBF=F FulRan=T
         wScrn=  0.000000 ICntrl=       600 IOpCl=  0 I1Cent=           0 NGrid=           0
         NMat0=    1 NMatS0=   3321 NMatT0=    0 NMatD0=    1 NMtDS0=    0 NMtDT0=    0
 Symmetry not used in FoFCou.
 Two-electron integral symmetry not used.
 Closed shell SCF:
 Using DIIS extrapolation, IDIIS=  1040.
 NGot=   268435456 LenX=   262903234 LenY=   262895568
 Requested convergence on RMS density matrix=1.00D-08 within 128 cycles.
 Requested convergence on MAX density matrix=1.00D-06.
 Requested convergence on             energy=1.00D-06.
 No special actions if energy rises.

 Cycle   1  Pass 1  IDiag  1:
 Inv3:  Mode=1 IEnd=     2323200.
 Iteration    1 A*A^-1 deviation from unit magnitude is 3.77D-15 for    874.
 Iteration    1 A*A^-1 deviation from orthogonality  is 9.95D-16 for    757    107.
 Iteration    1 A^-1*A deviation from unit magnitude is 3.55D-15 for    874.
 Iteration    1 A^-1*A deviation from orthogonality  is 1.04D-15 for    711    636.
 E= -209.031656632684    
 DIIS: error= 3.27D-02 at cycle   1 NSaved=   1.
 NSaved= 1 IEnMin= 1 EnMin= -209.031656632684     IErMin= 1 ErrMin= 3.27D-02
 ErrMax= 3.27D-02  0.00D+00 EMaxC= 1.00D-01 BMatC= 1.44D-01 BMatP= 1.44D-01
 IDIUse=3 WtCom= 6.73D-01 WtEn= 3.27D-01
 Coeff-Com:  0.100D+01
 Coeff-En:   0.100D+01
 Coeff:      0.100D+01
 Gap=     0.206 Goal=   None    Shift=    0.000
 GapD=    0.206 DampG=1.000 DampE=0.500 DampFc=0.5000 IDamp=-1.
 Damping current iteration by 5.00D-01
 RMSDP=1.03D-02 MaxDP=2.23D-01              OVMax= 2.52D-01

 Cycle   2  Pass 1  IDiag  1:
 E= -209.059349319755     Delta-E=       -0.027692687071 Rises=F Damp=T
 DIIS: error= 1.16D-02 at cycle   2 NSaved=   2.
 NSaved= 2 IEnMin= 2 EnMin= -209.059349319755     IErMin= 2 ErrMin= 1.16D-02
 ErrMax= 1.16D-02  0.00D+00 EMaxC= 1.00D-01 BMatC= 2.41D-02 BMatP= 1.44D-01
 IDIUse=3 WtCom= 8.84D-01 WtEn= 1.16D-01
 Coeff-Com:  0.250D+00 0.750D+00
 Coeff-En:   0.385D+00 0.615D+00
 Coeff:      0.266D+00 0.734D+00
 Gap=     0.289 Goal=   None    Shift=    0.000
 RMSDP=2.86D-03 MaxDP=4.63D-02 DE=-2.77D-02 OVMax= 1.85D-01

 Cycle   3  Pass 1  IDiag  1:
 E= -209.141883617970     Delta-E=       -0.082534298215 Rises=F Damp=F
 DIIS: error= 1.23D-02 at cycle   3 NSaved=   3.
 NSaved= 3 IEnMin= 3 EnMin= -209.141883617970     IErMin= 2 ErrMin= 1.16D-02
 ErrMax= 1.23D-02  0.00D+00 EMaxC= 1.00D-01 BMatC= 1.52D-02 BMatP= 2.41D-02
 IDIUse=3 WtCom= 8.77D-01 WtEn= 1.23D-01
 Coeff-Com:  0.104D+00 0.455D+00 0.441D+00
 Coeff-En:   0.000D+00 0.000D+00 0.100D+01
 Coeff:      0.913D-01 0.399D+00 0.510D+00
 Gap=     0.253 Goal=   None    Shift=    0.000
 RMSDP=1.63D-03 MaxDP=3.57D-02 DE=-8.25D-02 OVMax= 5.32D-02

 Cycle   4  Pass 1  IDiag  1:
 E= -209.153249731055     Delta-E=       -0.011366113085 Rises=F Damp=F
 DIIS: error= 5.40D-03 at cycle   4 NSaved=   4.
 NSaved= 4 IEnMin= 4 EnMin= -209.153249731055     IErMin= 4 ErrMin= 5.40D-03
 ErrMax= 5.40D-03  0.00D+00 EMaxC= 1.00D-01 BMatC= 2.62D-03 BMatP= 1.52D-02
 IDIUse=3 WtCom= 9.46D-01 WtEn= 5.40D-02
 Coeff-Com:  0.240D-01 0.118D+00 0.307D+00 0.551D+00
 Coeff-En:   0.000D+00 0.000D+00 0.158D+00 0.842D+00
 Coeff:      0.227D-01 0.112D+00 0.299D+00 0.566D+00
 Gap=     0.246 Goal=   None    Shift=    0.000
 RMSDP=5.72D-04 MaxDP=1.45D-02 DE=-1.14D-02 OVMax= 2.36D-02

 Cycle   5  Pass 1  IDiag  1:
 E= -209.155313675108     Delta-E=       -0.002063944053 Rises=F Damp=F
 DIIS: error= 1.05D-03 at cycle   5 NSaved=   5.
 NSaved= 5 IEnMin= 5 EnMin= -209.155313675108     IErMin= 5 ErrMin= 1.05D-03
 ErrMax= 1.05D-03  0.00D+00 EMaxC= 1.00D-01 BMatC= 1.65D-04 BMatP= 2.62D-03
 IDIUse=3 WtCom= 9.90D-01 WtEn= 1.05D-02
 Coeff-Com:  0.278D-02 0.181D-01 0.114D+00 0.312D+00 0.553D+00
 Coeff-En:   0.000D+00 0.000D+00 0.000D+00 0.000D+00 0.100D+01
 Coeff:      0.275D-02 0.179D-01 0.113D+00 0.309D+00 0.558D+00
 Gap=     0.246 Goal=   None    Shift=    0.000
 RMSDP=1.36D-04 MaxDP=3.30D-03 DE=-2.06D-03 OVMax= 5.37D-03

 Cycle   6  Pass 1  IDiag  1:
 E= -209.155459447414     Delta-E=       -0.000145772306 Rises=F Damp=F
 DIIS: error= 1.36D-04 at cycle   6 NSaved=   6.
 NSaved= 6 IEnMin= 6 EnMin= -209.155459447414     IErMin= 6 ErrMin= 1.36D-04
 ErrMax= 1.36D-04  0.00D+00 EMaxC= 1.00D-01 BMatC= 4.61D-06 BMatP= 1.65D-04
 IDIUse=3 WtCom= 9.99D-01 WtEn= 1.36D-03
 Coeff-Com: -0.482D-03-0.273D-02 0.182D-01 0.625D-01 0.204D+00 0.718D+00
 Coeff-En:   0.000D+00 0.000D+00 0.000D+00 0.000D+00 0.000D+00 0.100D+01
 Coeff:     -0.481D-03-0.272D-02 0.181D-01 0.624D-01 0.204D+00 0.719D+00
 Gap=     0.246 Goal=   None    Shift=    0.000
 RMSDP=1.94D-05 MaxDP=4.24D-04 DE=-1.46D-04 OVMax= 4.36D-04

 Cycle   7  Pass 1  IDiag  1:
 E= -209.155462912297     Delta-E=       -0.000003464883 Rises=F Damp=F
 DIIS: error= 4.25D-05 at cycle   7 NSaved=   7.
 NSaved= 7 IEnMin= 7 EnMin= -209.155462912297     IErMin= 7 ErrMin= 4.25D-05
 ErrMax= 4.25D-05  0.00D+00 EMaxC= 1.00D-01 BMatC= 4.07D-07 BMatP= 4.61D-06
 IDIUse=1 WtCom= 1.00D+00 WtEn= 0.00D+00
 Coeff-Com: -0.158D-03-0.191D-02 0.552D-02 0.189D-01 0.837D-01 0.352D+00
 Coeff-Com:  0.541D+00
 Coeff:     -0.158D-03-0.191D-02 0.552D-02 0.189D-01 0.837D-01 0.352D+00
 Coeff:      0.541D+00
 Gap=     0.246 Goal=   None    Shift=    0.000
 RMSDP=7.27D-06 MaxDP=1.11D-04 DE=-3.46D-06 OVMax= 1.44D-04

 Cycle   8  Pass 1  IDiag  1:
 E= -209.155463285156     Delta-E=       -0.000000372859 Rises=F Damp=F
 DIIS: error= 1.16D-05 at cycle   8 NSaved=   8.
 NSaved= 8 IEnMin= 8 EnMin= -209.155463285156     IErMin= 8 ErrMin= 1.16D-05
 ErrMax= 1.16D-05  0.00D+00 EMaxC= 1.00D-01 BMatC= 1.80D-08 BMatP= 4.07D-07
 IDIUse=1 WtCom= 1.00D+00 WtEn= 0.00D+00
 Coeff-Com:  0.750D-04-0.339D-03 0.273D-03-0.533D-03 0.607D-02 0.199D-01
 Coeff-Com:  0.104D+00 0.870D+00
 Coeff:      0.750D-04-0.339D-03 0.273D-03-0.533D-03 0.607D-02 0.199D-01
 Coeff:      0.104D+00 0.870D+00
 Gap=     0.246 Goal=   None    Shift=    0.000
 RMSDP=1.52D-06 MaxDP=2.47D-05 DE=-3.73D-07 OVMax= 3.14D-05

 Cycle   9  Pass 1  IDiag  1:
 E= -209.155463300085     Delta-E=       -0.000000014929 Rises=F Damp=F
 DIIS: error= 1.48D-06 at cycle   9 NSaved=   9.
 NSaved= 9 IEnMin= 9 EnMin= -209.155463300085     IErMin= 9 ErrMin= 1.48D-06
 ErrMax= 1.48D-06  0.00D+00 EMaxC= 1.00D-01 BMatC= 3.34D-10 BMatP= 1.80D-08
 IDIUse=1 WtCom= 1.00D+00 WtEn= 0.00D+00
 Coeff-Com:  0.216D-04 0.378D-05-0.147D-03-0.866D-03-0.173D-02-0.113D-01
 Coeff-Com: -0.476D-02 0.143D+00 0.876D+00
 Coeff:      0.216D-04 0.378D-05-0.147D-03-0.866D-03-0.173D-02-0.113D-01
 Coeff:     -0.476D-02 0.143D+00 0.876D+00
 Gap=     0.246 Goal=   None    Shift=    0.000
 RMSDP=2.95D-07 MaxDP=4.05D-06 DE=-1.49D-08 OVMax= 7.16D-06

 Cycle  10  Pass 1  IDiag  1:
 E= -209.155463300402     Delta-E=       -0.000000000317 Rises=F Damp=F
 DIIS: error= 1.34D-07 at cycle  10 NSaved=  10.
 NSaved=10 IEnMin=10 EnMin= -209.155463300402     IErMin=10 ErrMin= 1.34D-07
 ErrMax= 1.34D-07  0.00D+00 EMaxC= 1.00D-01 BMatC= 3.54D-12 BMatP= 3.34D-10
 IDIUse=1 WtCom= 1.00D+00 WtEn= 0.00D+00
 Coeff-Com:  0.704D-06 0.829D-05-0.256D-04-0.110D-03-0.359D-03-0.212D-02
 Coeff-Com: -0.270D-02-0.288D-02 0.138D+00 0.870D+00
 Coeff:      0.704D-06 0.829D-05-0.256D-04-0.110D-03-0.359D-03-0.212D-02
 Coeff:     -0.270D-02-0.288D-02 0.138D+00 0.870D+00
 Gap=     0.246 Goal=   None    Shift=    0.000
 RMSDP=3.68D-08 MaxDP=4.79D-07 DE=-3.17D-10 OVMax= 1.38D-06

 Cycle  11  Pass 1  IDiag  1:
 E= -209.155463300407     Delta-E=       -0.000000000005 Rises=F Damp=F
 DIIS: error= 3.48D-08 at cycle  11 NSaved=  11.
 NSaved=11 IEnMin=11 EnMin= -209.155463300407     IErMin=11 ErrMin= 3.48D-08
 ErrMax= 3.48D-08  0.00D+00 EMaxC= 1.00D-01 BMatC= 2.32D-13 BMatP= 3.54D-12
 IDIUse=1 WtCom= 1.00D+00 WtEn= 0.00D+00
 Coeff-Com: -0.445D-06 0.963D-06 0.104D-05 0.351D-05-0.294D-05-0.208D-05
 Coeff-Com: -0.215D-03-0.425D-02-0.756D-02 0.102D+00 0.910D+00
 Coeff:     -0.445D-06 0.963D-06 0.104D-05 0.351D-05-0.294D-05-0.208D-05
 Coeff:     -0.215D-03-0.425D-02-0.756D-02 0.102D+00 0.910D+00
 Gap=     0.246 Goal=   None    Shift=    0.000
 RMSDP=6.46D-09 MaxDP=8.92D-08 DE=-5.12D-12 OVMax= 1.44D-07

 Error on total polarization charges =  0.00391
 SCF Done:  E(RB3LYP) =  -209.155463300     A.U. after   11 cycles
            NFock= 11  Conv=0.65D-08     -V/T= 2.0044
 KE= 2.082373414618D+02 PE=-7.285002853575D+02 EE= 1.915489146945D+02
 Leave Link  502 at Fri Sep 22 16:29:42 2023, MaxMem=   268435456 cpu:              26.5 elap:              13.4
 (Enter /share/apps/gaussian/g16/l601.exe)
 Copying SCF densities to generalized density rwf, IOpCl= 0 IROHF=0.

 **********************************************************************

            Population analysis using the SCF density.

 **********************************************************************

 Orbital symmetries:
       Occupied  (A) (A) (A) (A) (A) (A) (A) (A) (A) (A) (A) (A)
                 (A) (A) (A) (A)
       Virtual   (A) (A) (A) (A) (A) (A) (A) (A) (A) (A) (A) (A)
                 (A) (A) (A) (A) (A) (A) (A) (A) (A) (A) (A) (A)
                 (A) (A) (A) (A) (A) (A) (A) (A) (A) (A) (A) (A)
                 (A) (A) (A) (A) (A) (A) (A) (A) (A) (A) (A) (A)
                 (A) (A) (A) (A) (A) (A) (A) (A) (A) (A) (A) (A)
                 (A) (A) (A) (A) (A)
 The electronic state is 1-A.
 Alpha  occ. eigenvalues --  -19.09043 -14.32834 -10.28019 -10.21817  -1.05688
 Alpha  occ. eigenvalues --   -0.90537  -0.70118  -0.62735  -0.50866  -0.48705
 Alpha  occ. eigenvalues --   -0.45389  -0.42217  -0.39629  -0.39355  -0.26520
 Alpha  occ. eigenvalues --   -0.24792
 Alpha virt. eigenvalues --   -0.00158   0.04818   0.06853   0.09132   0.11481
 Alpha virt. eigenvalues --    0.12456   0.16731   0.21111   0.27807   0.37176
 Alpha virt. eigenvalues --    0.40183   0.41902   0.46262   0.51647   0.56771
 Alpha virt. eigenvalues --    0.59756   0.59902   0.63166   0.65928   0.69048
 Alpha virt. eigenvalues --    0.72437   0.74779   0.78515   0.83149   0.90441
 Alpha virt. eigenvalues --    0.96891   1.00905   1.12760   1.28655   1.33304
 Alpha virt. eigenvalues --    1.38883   1.50419   1.55400   1.69124   1.72950
 Alpha virt. eigenvalues --    1.79866   1.81209   1.82235   1.87682   1.88729
 Alpha virt. eigenvalues --    1.91952   1.95965   2.05004   2.05264   2.13884
 Alpha virt. eigenvalues --    2.17674   2.26983   2.31291   2.34087   2.44424
 Alpha virt. eigenvalues --    2.47366   2.51306   2.59446   2.63792   2.74048
 Alpha virt. eigenvalues --    2.75601   2.80672   2.87897   2.99774   3.01148
 Alpha virt. eigenvalues --    3.14499   3.19625   3.21902   3.45063   3.56500
          Condensed to atoms (all electrons):
               1          2          3          4          5          6
     1  C    4.290787   0.381350  -0.033315   0.625793   0.394138  -0.021014
     2  N    0.381350   6.773331   0.254777  -0.163750  -0.065396   0.369905
     3  C   -0.033315   0.254777   4.600024   0.006579   0.004682  -0.023600
     4  O    0.625793  -0.163750   0.006579   7.999463  -0.037260   0.017106
     5  H    0.394138  -0.065396   0.004682  -0.037260   0.611791   0.009351
     6  H   -0.021014   0.369905  -0.023600   0.017106   0.009351   0.491684
     7  H   -0.005549  -0.028334   0.398485  -0.000092   0.000302   0.004577
     8  H   -0.004703  -0.048358   0.408788   0.000598  -0.000034   0.002747
     9  H    0.005198  -0.017400   0.397660  -0.000774  -0.000575  -0.011451
               7          8          9
     1  C   -0.005549  -0.004703   0.005198
     2  N   -0.028334  -0.048358  -0.017400
     3  C    0.398485   0.408788   0.397660
     4  O   -0.000092   0.000598  -0.000774
     5  H    0.000302  -0.000034  -0.000575
     6  H    0.004577   0.002747  -0.011451
     7  H    0.572197  -0.029299  -0.022041
     8  H   -0.029299   0.590828  -0.023565
     9  H   -0.022041  -0.023565   0.578847
 Mulliken charges:
               1
     1  C    0.367317
     2  N   -0.456125
     3  C   -0.014080
     4  O   -0.447663
     5  H    0.083002
     6  H    0.160696
     7  H    0.109755
     8  H    0.102998
     9  H    0.094101
 Sum of Mulliken charges =   0.00000
 Mulliken charges with hydrogens summed into heavy atoms:
               1
     1  C    0.450319
     2  N   -0.295430
     3  C    0.292774
     4  O   -0.447663
 Electronic spatial extent (au):  <R**2>=            311.8118
 Charge=              0.0000 electrons
 Dipole moment (field-independent basis, Debye):
    X=              3.8390    Y=              1.1373    Z=              0.0180  Tot=              4.0039
 Quadrupole moment (field-independent basis, Debye-Ang):
   XX=            -29.4920   YY=            -21.0115   ZZ=            -24.9242
   XY=             -2.2554   XZ=              0.4060   YZ=             -0.1631
 Traceless Quadrupole moment (field-independent basis, Debye-Ang):
   XX=             -4.3494   YY=              4.1311   ZZ=              0.2184
   XY=             -2.2554   XZ=              0.4060   YZ=             -0.1631
 Octapole moment (field-independent basis, Debye-Ang**2):
  XXX=             15.2428  YYY=             -1.8876  ZZZ=              0.9195  XYY=             -1.8200
  XXY=              1.7358  XXZ=             -1.4017  XZZ=             -1.1533  YZZ=              0.4381
  YYZ=             -0.5457  XYZ=             -0.2533
 Hexadecapole moment (field-independent basis, Debye-Ang**3):
 XXXX=           -331.4538 YYYY=            -49.4068 ZZZZ=            -31.9174 XXXY=             -4.4396
 XXXZ=             -1.1841 YYYX=             -3.7653 YYYZ=             -0.3786 ZZZX=              0.4581
 ZZZY=             -0.0814 XXYY=            -58.5582 XXZZ=            -55.5910 YYZZ=            -15.0131
 XXYZ=             -0.5426 YYXZ=             -0.7369 ZZXY=              1.1232
 N-N= 1.195585659008D+02 E-N=-7.285002838775D+02  KE= 2.082373414618D+02
 There are a total of      200122 grid points.
 ElSum from          density=       32.0000003496
 ElSum from atomic densities=       32.0000009951
 Hirshfeld populations at iteration   1 (CA, CB, DipXYZ):
               1          2          3          4          5
     1  C    2.923155   2.923155   0.067005   0.101021   0.004289
     2  N    3.551553   3.551553   0.055443   0.002363   0.057647
     3  C    3.011661   3.011661  -0.040554  -0.000669  -0.005773
     4  O    4.165191   4.165191   0.183071   0.061024  -0.018594
     5  H    0.463290   0.463290  -0.006339   0.151966  -0.006334
     6  H    0.444169   0.444169  -0.016852  -0.185956   0.012891
     7  H    0.479157   0.479157   0.060069   0.086925  -0.098052
     8  H    0.483358   0.483358   0.021608   0.037216   0.130962
     9  H    0.478467   0.478467   0.079745  -0.121043  -0.018854
       Tot  16.000000  16.000000   0.403196   0.132846   0.058182

 Dip from Atomic Chgs              1.107167   0.314585  -0.051101
         Total Dipole              1.510363   0.447431   0.007081

 Hirshfeld charges, spin densities, dipoles, and CM5 charges using IRadAn=      5:
              Q-H        S-H        Dx         Dy         Dz        Q-CM5   
     1  C    0.153690   0.000000   0.067005   0.101021   0.004289   0.198674
     2  N   -0.103106   0.000000   0.055443   0.002363   0.057647  -0.474972
     3  C   -0.023322   0.000000  -0.040554  -0.000669  -0.005773  -0.110050
     4  O   -0.330382   0.000000   0.183071   0.061024  -0.018594  -0.383149
     5  H    0.073421   0.000000  -0.006339   0.151966  -0.006334   0.143416
     6  H    0.111663   0.000000  -0.016852  -0.185956   0.012891   0.334130
     7  H    0.041686   0.000000   0.060069   0.086925  -0.098052   0.096841
     8  H    0.033283   0.000000   0.021608   0.037216   0.130962   0.090883
     9  H    0.043067   0.000000   0.079745  -0.121043  -0.018854   0.104226
       Tot  -0.000000   0.000000   0.403196   0.132846   0.058182  -0.000000
 Hirshfeld charges with hydrogens summed into heavy atoms:
              Q-H       Q-CM5   
     1  C    0.227111   0.342091
     2  N    0.008557  -0.140842
     3  C    0.094714   0.181899
     4  O   -0.330382  -0.383149
 
 EQQ= 0.000000000000E+00 EQD= 0.000000000000E+00 EDD= 0.203629022867E-02
 EQQ+QD+DD= 0.203629022867E-02
 
 No NMR shielding tensors so no spin-rotation constants.
 Leave Link  601 at Fri Sep 22 16:29:43 2023, MaxMem=   268435456 cpu:               1.4 elap:               0.7
 (Enter /share/apps/gaussian/g16/l9999.exe)
 1\1\GINC-NODE99\SP\RB3LYP\Gen\C2H5N1O1\YANZ\22-Sep-2023\0\\#p b3lyp/ge
 n scrf=(cpcm,solvent=toluene) pop=hirshfeld empiricaldispersion=gd3bj\
 \tmpdir/M2_ref_235.gjf\\0,1\C,0,-0.015482,0.81208,4.49394417\N,0,-0.76
 0583,0.252997,3.44671202\C,0,-1.251256,-1.1355,3.38614511\O,0,-0.04420
 24,2.01527513,4.36147132\H,0,0.51295116,0.25590536,5.2554954\H,0,-1.11
 469729,0.96300965,2.89144529\H,0,-0.43851517,-1.90298493,3.34883886\H,
 0,-1.99078445,-1.28660903,4.20684152\H,0,-1.781007,-1.219927,2.4320700
 2\\Version=ES64L-G16RevA.03\State=1-A\HF=-209.1554633\RMSD=6.459e-09\D
 ipole=-0.383886,-1.5173913,-0.1777808\Quadrupole=1.1237602,-3.1022241,
 1.9784639,-1.3085723,1.3252637,-1.4165822\PG=C01 [X(C2H5N1O1)]\\@


 THERE IS AN OLD, OLD RECIPE IN MAINE FOR STEWING COOT. PLACE THE
 BIRD IN A KETTLE OF WATER WITH A RED BUILDING BRICK FREE OF MORTAR AND
 BLEMISHES. PARBOIL THE COOT AND BRICK TOGETHER FOR THREE HOURS.
 POUR OFF THE WATER, REFILL THE KETTLE, AND AGAIN PARBOIL FOR THREE HOURS.
 ONCE AGAIN POUR OFF THE WATER, FOR THE LAST TIME ADD FRESH WATER,
 AND LET THE COOT AND BRICK SIMMER TOGETHER OVERNIGHT. IN THE MORNING,
 THROW AWAY THE COOT AND EAT THE BRICK.
 Job cpu time:       0 days  0 hours  0 minutes 30.9 seconds.
 Elapsed time:       0 days  0 hours  0 minutes 15.6 seconds.
 File lengths (MBytes):  RWF=     13 Int=      0 D2E=      0 Chk=      2 Scr=      1
 Normal termination of Gaussian 16 at Fri Sep 22 16:29:43 2023.
