 Entering Gaussian System, Link 0=g16
 Initial command:
 /share/apps/gaussian/g16/l1.exe "/tmp/55556.mgr/Gau-81693.inp" -scrdir="/tmp/55556.mgr/"
 Entering Link 1 = /share/apps/gaussian/g16/l1.exe PID=     81695.
  
 Copyright (c) 1988,1990,1992,1993,1995,1998,2003,2009,2016,
            Gaussian, Inc.  All Rights Reserved.
  
 This is part of the Gaussian(R) 16 program.  It is based on
 the Gaussian(R) 09 system (copyright 2009, Gaussian, Inc.),
 the Gaussian(R) 03 system (copyright 2003, Gaussian, Inc.),
 the Gaussian(R) 98 system (copyright 1998, Gaussian, Inc.),
 the Gaussian(R) 94 system (copyright 1995, Gaussian, Inc.),
 the Gaussian 92(TM) system (copyright 1992, Gaussian, Inc.),
 the Gaussian 90(TM) system (copyright 1990, Gaussian, Inc.),
 the Gaussian 88(TM) system (copyright 1988, Gaussian, Inc.),
 the Gaussian 86(TM) system (copyright 1986, Carnegie Mellon
 University), and the Gaussian 82(TM) system (copyright 1983,
 Carnegie Mellon University). Gaussian is a federally registered
 trademark of Gaussian, Inc.
  
 This software contains proprietary and confidential information,
 including trade secrets, belonging to Gaussian, Inc.
  
 This software is provided under written license and may be
 used, copied, transmitted, or stored only in accord with that
 written license.
  
 The following legend is applicable only to US Government
 contracts under FAR:
  
                    RESTRICTED RIGHTS LEGEND
  
 Use, reproduction and disclosure by the US Government is
 subject to restrictions as set forth in subparagraphs (a)
 and (c) of the Commercial Computer Software - Restricted
 Rights clause in FAR 52.227-19.
  
 Gaussian, Inc.
 340 Quinnipiac St., Bldg. 40, Wallingford CT 06492
  
  
 ---------------------------------------------------------------
 Warning -- This program may not be used in any manner that
 competes with the business of Gaussian, Inc. or will provide
 assistance to any competitor of Gaussian, Inc.  The licensee
 of this program is prohibited from giving any competitor of
 Gaussian, Inc. access to this program.  By using this program,
 the user acknowledges that Gaussian, Inc. is engaged in the
 business of creating and licensing software in the field of
 computational chemistry and represents and warrants to the
 licensee that it is not a competitor of Gaussian, Inc. and that
 it will not use this program in any manner prohibited above.
 ---------------------------------------------------------------
  

 Cite this work as:
 Gaussian 16, Revision A.03,
 M. J. Frisch, G. W. Trucks, H. B. Schlegel, G. E. Scuseria, 
 M. A. Robb, J. R. Cheeseman, G. Scalmani, V. Barone, 
 G. A. Petersson, H. Nakatsuji, X. Li, M. Caricato, A. V. Marenich, 
 J. Bloino, B. G. Janesko, R. Gomperts, B. Mennucci, H. P. Hratchian, 
 J. V. Ortiz, A. F. Izmaylov, J. L. Sonnenberg, D. Williams-Young, 
 F. Ding, F. Lipparini, F. Egidi, J. Goings, B. Peng, A. Petrone, 
 T. Henderson, D. Ranasinghe, V. G. Zakrzewski, J. Gao, N. Rega, 
 G. Zheng, W. Liang, M. Hada, M. Ehara, K. Toyota, R. Fukuda, 
 J. Hasegawa, M. Ishida, T. Nakajima, Y. Honda, O. Kitao, H. Nakai, 
 T. Vreven, K. Throssell, J. A. Montgomery, Jr., J. E. Peralta, 
 F. Ogliaro, M. J. Bearpark, J. J. Heyd, E. N. Brothers, K. N. Kudin, 
 V. N. Staroverov, T. A. Keith, R. Kobayashi, J. Normand, 
 K. Raghavachari, A. P. Rendell, J. C. Burant, S. S. Iyengar, 
 J. Tomasi, M. Cossi, J. M. Millam, M. Klene, C. Adamo, R. Cammi, 
 J. W. Ochterski, R. L. Martin, K. Morokuma, O. Farkas, 
 J. B. Foresman, and D. J. Fox, Gaussian, Inc., Wallingford CT, 2016.
 
 ******************************************
 Gaussian 16:  ES64L-G16RevA.03 25-Dec-2016
                22-Sep-2023 
 ******************************************
 %nprocshared=2
 Will use up to    2 processors via shared memory.
 %mem=2GB
 ----------------------------------------------------------------------
 #p b3lyp/gen scrf=(cpcm,solvent=toluene) pop=hirshfeld empiricaldisper
 sion=gd3bj
 ----------------------------------------------------------------------
 1/38=1,172=1/1;
 2/12=2,17=6,18=5,40=1/2;
 3/5=7,11=2,25=1,30=1,70=2101,72=13,74=-5,124=41/1,2,3;
 4//1;
 5/5=2,38=5,53=13/2;
 6/7=2,8=2,9=2,10=2,28=1,79=1/1;
 99/5=1,9=1/99;
 Leave Link    1 at Fri Sep 22 16:30:33 2023, MaxMem=   268435456 cpu:               0.1 elap:               0.0
 (Enter /share/apps/gaussian/g16/l101.exe)
 ---------------------
 tmpdir/M2_ref_324.gjf
 ---------------------
 Symbolic Z-matrix:
 Charge =  0 Multiplicity = 1
 C                    -2.06065   2.06162  -3.39577 
 H                    -1.57678   2.45551  -4.28726 
 O                    -1.49495   2.11408  -2.32573 
 H                    -2.99495   1.64331  -3.46773 
 
 ITRead=  0  0  0  0
 MicOpt= -1 -1 -1 -1
 NAtoms=      4 NQM=        4 NQMF=       0 NMMI=      0 NMMIF=      0
                NMic=       0 NMicF=      0.
                    Isotopes and Nuclear Properties:
 (Nuclear quadrupole moments (NQMom) in fm**2, nuclear magnetic moments (NMagM)
  in nuclear magnetons)

  Atom         1           2           3           4
 IAtWgt=          12           1          16           1
 AtmWgt=  12.0000000   1.0078250  15.9949146   1.0078250
 NucSpn=           0           1           0           1
 AtZEff=  -0.0000000  -0.0000000  -0.0000000  -0.0000000
 NQMom=    0.0000000   0.0000000   0.0000000   0.0000000
 NMagM=    0.0000000   2.7928460   0.0000000   2.7928460
 AtZNuc=   6.0000000   1.0000000   8.0000000   1.0000000
 Leave Link  101 at Fri Sep 22 16:30:33 2023, MaxMem=   268435456 cpu:               0.2 elap:               0.1
 (Enter /share/apps/gaussian/g16/l202.exe)
                          Input orientation:                          
 ---------------------------------------------------------------------
 Center     Atomic      Atomic             Coordinates (Angstroms)
 Number     Number       Type             X           Y           Z
 ---------------------------------------------------------------------
      1          6           0       -2.060654    2.061616   -3.395769
      2          1           0       -1.576775    2.455505   -4.287262
      3          8           0       -1.494950    2.114079   -2.325728
      4          1           0       -2.994948    1.643313   -3.467734
 ---------------------------------------------------------------------
                    Distance matrix (angstroms):
                    1          2          3          4
     1  C    0.000000
     2  H    1.088139   0.000000
     3  O    1.211512   1.992708   0.000000
     4  H    1.026188   1.828250   1.943140   0.000000
 Stoichiometry    CH2O
 Framework group  C1[X(CH2O)]
 Deg. of freedom     6
 Full point group                 C1      NOp   1
 Largest Abelian subgroup         C1      NOp   1
 Largest concise Abelian subgroup C1      NOp   1
                         Standard orientation:                         
 ---------------------------------------------------------------------
 Center     Atomic      Atomic             Coordinates (Angstroms)
 Number     Number       Type             X           Y           Z
 ---------------------------------------------------------------------
      1          6           0        0.539257   -0.011130   -0.000532
      2          1           0        1.096894    0.923261    0.001075
      3          8           0       -0.672134    0.005970    0.000121
      4          1           0        1.044638   -0.904242    0.001143
 ---------------------------------------------------------------------
 Rotational constants (GHZ):         299.9712270          39.2424194          34.7026296
 Leave Link  202 at Fri Sep 22 16:30:33 2023, MaxMem=   268435456 cpu:               0.0 elap:               0.0
 (Enter /share/apps/gaussian/g16/l301.exe)
 General basis read from cards:  (5D, 7F)
 Centers:       2      4
 S 3 1.00
     Exponent=  1.2251800000D+01 Coefficients=  2.3337100000D-02
     Exponent=  1.8687100000D+00 Coefficients=  1.5915000000D-01
     Exponent=  4.1820800000D-01 Coefficients=  5.0000000000D-01
 S 1 1.00
     Exponent=  1.0610000000D-01 Coefficients=  1.0000000000D+00
 P 1 1.00
     Exponent=  1.0000000000D+00 Coefficients=  1.0000000000D+00
 ****
 Centers:       1
 S 5 1.00
     Exponent=  1.2432000000D+03 Coefficients=  6.0336600000D-03
     Exponent=  1.8714500000D+02 Coefficients=  4.4957600000D-02
     Exponent=  4.2512600000D+01 Coefficients=  1.9790100000D-01
     Exponent=  1.1739300000D+01 Coefficients=  5.0000000000D-01
     Exponent=  3.5054800000D+00 Coefficients=  4.8036400000D-01
 S 2 1.00
     Exponent=  5.3908900000D+00 Coefficients= -7.0398000000D-02
     Exponent=  4.9334100000D-01 Coefficients=  5.0000000000D-01
 S 1 1.00
     Exponent=  1.4974100000D-01 Coefficients=  1.0000000000D+00
 P 3 1.00
     Exponent=  9.1805600000D+00 Coefficients=  4.3170100000D-02
     Exponent=  1.9365800000D+00 Coefficients=  2.2499900000D-01
     Exponent=  5.2629600000D-01 Coefficients=  5.0000000000D-01
 P 1 1.00
     Exponent=  1.3631900000D-01 Coefficients=  1.0000000000D+00
 D 1 1.00
     Exponent=  8.0000000000D-01 Coefficients=  1.0000000000D+00
 ****
 Centers:       3
 S 5 1.00
     Exponent=  2.2886400000D+03 Coefficients=  5.8546800000D-03
     Exponent=  3.4441600000D+02 Coefficients=  4.3733300000D-02
     Exponent=  7.8253800000D+01 Coefficients=  1.9479600000D-01
     Exponent=  2.1719500000D+01 Coefficients=  5.0000000000D-01
     Exponent=  6.5590700000D+00 Coefficients=  4.8461400000D-01
 S 2 1.00
     Exponent=  1.0465600000D+01 Coefficients= -7.1334300000D-02
     Exponent=  9.6435100000D-01 Coefficients=  5.0000000000D-01
 S 1 1.00
     Exponent=  2.8512700000D-01 Coefficients=  1.0000000000D+00
 P 3 1.00
     Exponent=  1.7059000000D+01 Coefficients=  4.7443900000D-02
     Exponent=  3.6899900000D+00 Coefficients=  2.4268900000D-01
     Exponent=  9.9299600000D-01 Coefficients=  5.0000000000D-01
 P 1 1.00
     Exponent=  2.4492400000D-01 Coefficients=  1.0000000000D+00
 D 1 1.00
     Exponent=  1.0000000000D+00 Coefficients=  1.0000000000D+00
 ****
 Ernie: Thresh=  0.10000D-02 Tol=  0.10000D-05 Strict=F.
 There are    40 symmetry adapted cartesian basis functions of A   symmetry.
 There are    38 symmetry adapted basis functions of A   symmetry.
    38 basis functions,    66 primitive gaussians,    40 cartesian basis functions
     8 alpha electrons        8 beta electrons
       nuclear repulsion energy        31.5704218895 Hartrees.
 IExCor=  402 DFT=T Ex+Corr=B3LYP ExCW=0 ScaHFX=  0.200000
 ScaDFX=  0.800000  0.720000  1.000000  0.810000 ScalE2=  1.000000  1.000000
 IRadAn=      5 IRanWt=     -1 IRanGd=            0 ICorTp=0 IEmpDi=141
 NAtoms=    4 NActive=    4 NUniq=    4 SFac= 1.00D+00 NAtFMM=   60 NAOKFM=F Big=F
 Integral buffers will be    131072 words long.
 Raffenetti 2 integral format.
 Two-electron integral symmetry is turned on.
 R6Disp:  Grimme-D3(BJ) Dispersion energy=       -0.0018379012 Hartrees.
 Nuclear repulsion after empirical dispersion term =       31.5685839883 Hartrees.
 ------------------------------------------------------------------------------
 Polarizable Continuum Model (PCM)
 =================================
 Model                : C-PCM.
 Atomic radii         : UFF (Universal Force Field).
 Polarization charges : Total charges.
 Charge compensation  : None.
 Solution method      : On-the-fly selection.
 Cavity type          : Scaled VdW (van der Waals Surface) (Alpha=1.100).
 Cavity algorithm     : GePol (No added spheres)
                        Default sphere list used, NSphG=    4.
                        Lebedev-Laikov grids with approx.  5.0 points / Ang**2.
                        Smoothing algorithm: York/Karplus (Gamma=1.0000).
                        Polarization charges: spherical gaussians, with
                                              point-specific exponents (IZeta= 3).
                        Self-potential: point-specific (ISelfS= 7).
                        Self-field    : sphere-specific E.n sum rule (ISelfD= 2).
 Solvent              : Toluene, Eps=   2.374100 Eps(inf)=   2.238315
 ------------------------------------------------------------------------------
 Spheres list:
 ISph  on   Nord     Re0    Alpha      Xe            Ye            Ze
    1   C      1    1.9255  1.100      0.539257     -0.011130     -0.000532
    2   H      2    1.4430  1.100      1.096894      0.923261      0.001075
    3   O      3    1.7500  1.100     -0.672134      0.005970      0.000121
    4   H      4    1.4430  1.100      1.044638     -0.904242      0.001143
 ------------------------------------------------------------------------------
 GePol: Number of generator spheres                  =       4
 GePol: Total number of spheres                      =       4
 GePol: Number of exposed spheres                    =       4 (100.00%)
 GePol: Number of points                             =     522
 GePol: Average weight of points                     =       0.14
 GePol: Minimum weight of points                     =   0.77D-08
 GePol: Maximum weight of points                     =    0.20577
 GePol: Number of points with low weight             =      17
 GePol: Fraction of low-weight points (<1% of avg)   =       3.26%
 GePol: Cavity surface area                          =     73.400 Ang**2
 GePol: Cavity volume                                =     55.711 Ang**3
 Leave Link  301 at Fri Sep 22 16:30:34 2023, MaxMem=   268435456 cpu:               0.2 elap:               0.1
 (Enter /share/apps/gaussian/g16/l302.exe)
 NPDir=0 NMtPBC=     1 NCelOv=     1 NCel=       1 NClECP=     1 NCelD=      1
         NCelK=      1 NCelE2=     1 NClLst=     1 CellRange=     0.0.
 One-electron integrals computed using PRISM.
 One-electron integral symmetry used in STVInt
 NBasis=    38 RedAO= T EigKep=  2.20D-02  NBF=    38
 NBsUse=    38 1.00D-06 EigRej= -1.00D+00 NBFU=    38
 Precomputing XC quadrature grid using
 IXCGrd= 4 IRadAn=           5 IRanWt=          -1 IRanGd=           0 AccXCQ= 0.00D+00.
 Generated NRdTot=       0 NPtTot=           0 NUsed=           0 NTot=          32
 NSgBfM=    40    40    40    40    40 MxSgAt=     4 MxSgA2=     4.
 Leave Link  302 at Fri Sep 22 16:30:34 2023, MaxMem=   268435456 cpu:               0.2 elap:               0.1
 (Enter /share/apps/gaussian/g16/l303.exe)
 DipDrv:  MaxL=1.
 Leave Link  303 at Fri Sep 22 16:30:34 2023, MaxMem=   268435456 cpu:               0.1 elap:               0.0
 (Enter /share/apps/gaussian/g16/l401.exe)
 ExpMin= 1.06D-01 ExpMax= 2.29D+03 ExpMxC= 3.44D+02 IAcc=3 IRadAn=         5 AccDes= 0.00D+00
 Harris functional with IExCor=  402 and IRadAn=       5 diagonalized for initial guess.
 HarFok:  IExCor=  402 AccDes= 0.00D+00 IRadAn=         5 IDoV= 1 UseB2=F ITyADJ=14
 ICtDFT=  3500011 ScaDFX=  1.000000  1.000000  1.000000  1.000000
 FoFCou: FMM=F IPFlag=           0 FMFlag=      100000 FMFlg1=           0
         NFxFlg=           0 DoJE=T BraDBF=F KetDBF=T FulRan=T
         wScrn=  0.000000 ICntrl=       500 IOpCl=  0 I1Cent=   200000004 NGrid=           0
         NMat0=    1 NMatS0=      1 NMatT0=    0 NMatD0=    1 NMtDS0=    0 NMtDT0=    0
 Petite list used in FoFCou.
 Harris En= -114.493419186462    
 JPrj=0 DoOrth=F DoCkMO=F.
 Leave Link  401 at Fri Sep 22 16:30:34 2023, MaxMem=   268435456 cpu:               0.5 elap:               0.3
 (Enter /share/apps/gaussian/g16/l502.exe)
 Keep R1 ints in memory in canonical form, NReq=2001317.
 FoFCou: FMM=F IPFlag=           0 FMFlag=           0 FMFlg1=           0
         NFxFlg=           0 DoJE=F BraDBF=F KetDBF=F FulRan=T
         wScrn=  0.000000 ICntrl=       600 IOpCl=  0 I1Cent=           0 NGrid=           0
         NMat0=    1 NMatS0=    741 NMatT0=    0 NMatD0=    1 NMtDS0=    0 NMtDT0=    0
 Symmetry not used in FoFCou.
 Two-electron integral symmetry not used.
 Closed shell SCF:
 Using DIIS extrapolation, IDIIS=  1040.
 NGot=   268435456 LenX=   268156521 LenY=   268154480
 Requested convergence on RMS density matrix=1.00D-08 within 128 cycles.
 Requested convergence on MAX density matrix=1.00D-06.
 Requested convergence on             energy=1.00D-06.
 No special actions if energy rises.

 Cycle   1  Pass 1  IDiag  1:
 Inv3:  Mode=1 IEnd=      817452.
 Iteration    1 A*A^-1 deviation from unit magnitude is 2.89D-15 for    508.
 Iteration    1 A*A^-1 deviation from orthogonality  is 1.15D-15 for    508    221.
 Iteration    1 A^-1*A deviation from unit magnitude is 2.66D-15 for    508.
 Iteration    1 A^-1*A deviation from orthogonality  is 8.19D-16 for    422     94.
 E= -114.438265892828    
 DIIS: error= 3.76D-02 at cycle   1 NSaved=   1.
 NSaved= 1 IEnMin= 1 EnMin= -114.438265892828     IErMin= 1 ErrMin= 3.76D-02
 ErrMax= 3.76D-02  0.00D+00 EMaxC= 1.00D-01 BMatC= 5.45D-02 BMatP= 5.45D-02
 IDIUse=3 WtCom= 6.24D-01 WtEn= 3.76D-01
 Coeff-Com:  0.100D+01
 Coeff-En:   0.100D+01
 Coeff:      0.100D+01
 Gap=     0.176 Goal=   None    Shift=    0.000
 GapD=    0.176 DampG=1.000 DampE=0.500 DampFc=0.5000 IDamp=-1.
 Damping current iteration by 5.00D-01
 RMSDP=1.27D-02 MaxDP=1.62D-01              OVMax= 2.30D-01

 Cycle   2  Pass 1  IDiag  1:
 E= -114.445163144985     Delta-E=       -0.006897252157 Rises=F Damp=T
 DIIS: error= 1.41D-02 at cycle   2 NSaved=   2.
 NSaved= 2 IEnMin= 2 EnMin= -114.445163144985     IErMin= 2 ErrMin= 1.41D-02
 ErrMax= 1.41D-02  0.00D+00 EMaxC= 1.00D-01 BMatC= 1.20D-02 BMatP= 5.45D-02
 IDIUse=3 WtCom= 8.59D-01 WtEn= 1.41D-01
 Coeff-Com:  0.289D+00 0.711D+00
 Coeff-En:   0.431D+00 0.569D+00
 Coeff:      0.309D+00 0.691D+00
 Gap=     0.222 Goal=   None    Shift=    0.000
 RMSDP=3.07D-03 MaxDP=3.39D-02 DE=-6.90D-03 OVMax= 1.72D-01

 Cycle   3  Pass 1  IDiag  1:
 E= -114.480907497180     Delta-E=       -0.035744352195 Rises=F Damp=F
 DIIS: error= 8.86D-03 at cycle   3 NSaved=   3.
 NSaved= 3 IEnMin= 3 EnMin= -114.480907497180     IErMin= 3 ErrMin= 8.86D-03
 ErrMax= 8.86D-03  0.00D+00 EMaxC= 1.00D-01 BMatC= 2.73D-03 BMatP= 1.20D-02
 IDIUse=3 WtCom= 9.11D-01 WtEn= 8.86D-02
 Coeff-Com:  0.938D-01 0.347D+00 0.560D+00
 Coeff-En:   0.000D+00 0.000D+00 0.100D+01
 Coeff:      0.855D-01 0.316D+00 0.599D+00
 Gap=     0.219 Goal=   None    Shift=    0.000
 RMSDP=1.28D-03 MaxDP=1.75D-02 DE=-3.57D-02 OVMax= 2.76D-02

 Cycle   4  Pass 1  IDiag  1:
 E= -114.483476513615     Delta-E=       -0.002569016435 Rises=F Damp=F
 DIIS: error= 2.64D-03 at cycle   4 NSaved=   4.
 NSaved= 4 IEnMin= 4 EnMin= -114.483476513615     IErMin= 4 ErrMin= 2.64D-03
 ErrMax= 2.64D-03  0.00D+00 EMaxC= 1.00D-01 BMatC= 2.17D-04 BMatP= 2.73D-03
 IDIUse=3 WtCom= 9.74D-01 WtEn= 2.64D-02
 Coeff-Com:  0.132D-01 0.179D-01 0.219D+00 0.750D+00
 Coeff-En:   0.000D+00 0.000D+00 0.000D+00 0.100D+01
 Coeff:      0.129D-01 0.175D-01 0.213D+00 0.756D+00
 Gap=     0.222 Goal=   None    Shift=    0.000
 RMSDP=2.50D-04 MaxDP=3.60D-03 DE=-2.57D-03 OVMax= 4.65D-03

 Cycle   5  Pass 1  IDiag  1:
 E= -114.483661260816     Delta-E=       -0.000184747201 Rises=F Damp=F
 DIIS: error= 1.75D-04 at cycle   5 NSaved=   5.
 NSaved= 5 IEnMin= 5 EnMin= -114.483661260816     IErMin= 5 ErrMin= 1.75D-04
 ErrMax= 1.75D-04  0.00D+00 EMaxC= 1.00D-01 BMatC= 1.12D-06 BMatP= 2.17D-04
 IDIUse=3 WtCom= 9.98D-01 WtEn= 1.75D-03
 Coeff-Com:  0.180D-02-0.674D-02 0.289D-01 0.139D+00 0.837D+00
 Coeff-En:   0.000D+00 0.000D+00 0.000D+00 0.000D+00 0.100D+01
 Coeff:      0.180D-02-0.673D-02 0.288D-01 0.138D+00 0.838D+00
 Gap=     0.222 Goal=   None    Shift=    0.000
 RMSDP=2.36D-05 MaxDP=2.02D-04 DE=-1.85D-04 OVMax= 2.51D-04

 Cycle   6  Pass 1  IDiag  1:
 E= -114.483662150191     Delta-E=       -0.000000889375 Rises=F Damp=F
 DIIS: error= 3.16D-05 at cycle   6 NSaved=   6.
 NSaved= 6 IEnMin= 6 EnMin= -114.483662150191     IErMin= 6 ErrMin= 3.16D-05
 ErrMax= 3.16D-05  0.00D+00 EMaxC= 1.00D-01 BMatC= 3.84D-08 BMatP= 1.12D-06
 IDIUse=1 WtCom= 1.00D+00 WtEn= 0.00D+00
 Coeff-Com:  0.348D-03-0.120D-02 0.107D-02 0.192D-02 0.414D-01 0.956D+00
 Coeff:      0.348D-03-0.120D-02 0.107D-02 0.192D-02 0.414D-01 0.956D+00
 Gap=     0.222 Goal=   None    Shift=    0.000
 RMSDP=4.92D-06 MaxDP=4.86D-05 DE=-8.89D-07 OVMax= 5.29D-05

 Cycle   7  Pass 1  IDiag  1:
 E= -114.483662180825     Delta-E=       -0.000000030634 Rises=F Damp=F
 DIIS: error= 1.51D-06 at cycle   7 NSaved=   7.
 NSaved= 7 IEnMin= 7 EnMin= -114.483662180825     IErMin= 7 ErrMin= 1.51D-06
 ErrMax= 1.51D-06  0.00D+00 EMaxC= 1.00D-01 BMatC= 2.04D-10 BMatP= 3.84D-08
 IDIUse=1 WtCom= 1.00D+00 WtEn= 0.00D+00
 Coeff-Com:  0.145D-05 0.294D-04-0.245D-03-0.195D-02-0.129D-01 0.332D-01
 Coeff-Com:  0.982D+00
 Coeff:      0.145D-05 0.294D-04-0.245D-03-0.195D-02-0.129D-01 0.332D-01
 Coeff:      0.982D+00
 Gap=     0.222 Goal=   None    Shift=    0.000
 RMSDP=3.51D-07 MaxDP=3.23D-06 DE=-3.06D-08 OVMax= 3.18D-06

 Cycle   8  Pass 1  IDiag  1:
 E= -114.483662180983     Delta-E=       -0.000000000158 Rises=F Damp=F
 DIIS: error= 3.71D-07 at cycle   8 NSaved=   8.
 NSaved= 8 IEnMin= 8 EnMin= -114.483662180983     IErMin= 8 ErrMin= 3.71D-07
 ErrMax= 3.71D-07  0.00D+00 EMaxC= 1.00D-01 BMatC= 4.96D-12 BMatP= 2.04D-10
 IDIUse=1 WtCom= 1.00D+00 WtEn= 0.00D+00
 Coeff-Com:  0.485D-07 0.643D-05-0.929D-05-0.161D-03-0.119D-02-0.640D-02
 Coeff-Com:  0.666D-01 0.941D+00
 Coeff:      0.485D-07 0.643D-05-0.929D-05-0.161D-03-0.119D-02-0.640D-02
 Coeff:      0.666D-01 0.941D+00
 Gap=     0.222 Goal=   None    Shift=    0.000
 RMSDP=5.04D-08 MaxDP=4.21D-07 DE=-1.58D-10 OVMax= 5.28D-07

 Cycle   9  Pass 1  IDiag  1:
 E= -114.483662180987     Delta-E=       -0.000000000004 Rises=F Damp=F
 DIIS: error= 3.22D-08 at cycle   9 NSaved=   9.
 NSaved= 9 IEnMin= 9 EnMin= -114.483662180987     IErMin= 9 ErrMin= 3.22D-08
 ErrMax= 3.22D-08  0.00D+00 EMaxC= 1.00D-01 BMatC= 4.96D-14 BMatP= 4.96D-12
 IDIUse=1 WtCom= 1.00D+00 WtEn= 0.00D+00
 Coeff-Com:  0.149D-06-0.580D-06 0.386D-05 0.135D-04 0.121D-03-0.884D-03
 Coeff-Com: -0.829D-02 0.375D-01 0.972D+00
 Coeff:      0.149D-06-0.580D-06 0.386D-05 0.135D-04 0.121D-03-0.884D-03
 Coeff:     -0.829D-02 0.375D-01 0.972D+00
 Gap=     0.222 Goal=   None    Shift=    0.000
 RMSDP=4.49D-09 MaxDP=4.82D-08 DE=-3.81D-12 OVMax= 5.30D-08

 Error on total polarization charges =  0.00274
 SCF Done:  E(RB3LYP) =  -114.483662181     A.U. after    9 cycles
            NFock=  9  Conv=0.45D-08     -V/T= 2.0030
 KE= 1.141381461743D+02 PE=-3.321585381162D+02 EE= 7.196814577265D+01
 Leave Link  502 at Fri Sep 22 16:30:36 2023, MaxMem=   268435456 cpu:               4.6 elap:               2.3
 (Enter /share/apps/gaussian/g16/l601.exe)
 Copying SCF densities to generalized density rwf, IOpCl= 0 IROHF=0.

 **********************************************************************

            Population analysis using the SCF density.

 **********************************************************************

 Orbital symmetries:
       Occupied  (A) (A) (A) (A) (A) (A) (A) (A)
       Virtual   (A) (A) (A) (A) (A) (A) (A) (A) (A) (A) (A) (A)
                 (A) (A) (A) (A) (A) (A) (A) (A) (A) (A) (A) (A)
                 (A) (A) (A) (A) (A) (A)
 The electronic state is 1-A.
 Alpha  occ. eigenvalues --  -19.13863 -10.27030  -1.06543  -0.64971  -0.51225
 Alpha  occ. eigenvalues --   -0.45486  -0.40378  -0.27414
 Alpha virt. eigenvalues --   -0.05217   0.06553   0.11893   0.18176   0.40313
 Alpha virt. eigenvalues --    0.47588   0.52795   0.60973   0.62730   0.72775
 Alpha virt. eigenvalues --    0.78003   0.87676   0.98034   1.32095   1.50654
 Alpha virt. eigenvalues --    1.59915   1.74953   1.80460   1.96524   1.97089
 Alpha virt. eigenvalues --    2.11302   2.14660   2.27062   2.53060   2.70344
 Alpha virt. eigenvalues --    2.77436   2.81274   3.14549   3.29195   3.44727
          Condensed to atoms (all electrons):
               1          2          3          4
     1  C    4.393933   0.388693   0.597367   0.399189
     2  H    0.388693   0.673838  -0.057324  -0.081804
     3  O    0.597367  -0.057324   7.876534  -0.053836
     4  H    0.399189  -0.081804  -0.053836   0.671124
 Mulliken charges:
               1
     1  C    0.220817
     2  H    0.076597
     3  O   -0.362741
     4  H    0.065327
 Sum of Mulliken charges =   0.00000
 Mulliken charges with hydrogens summed into heavy atoms:
               1
     1  C    0.362741
     3  O   -0.362741
 Electronic spatial extent (au):  <R**2>=             59.3568
 Charge=              0.0000 electrons
 Dipole moment (field-independent basis, Debye):
    X=              2.7412    Y=             -0.0898    Z=              0.0002  Tot=              2.7426
 Quadrupole moment (field-independent basis, Debye-Ang):
   XX=            -12.0656   YY=            -11.4842   ZZ=            -11.4999
   XY=             -0.0456   XZ=              0.0011   YZ=              0.0001
 Traceless Quadrupole moment (field-independent basis, Debye-Ang):
   XX=             -0.3824   YY=              0.1991   ZZ=              0.1833
   XY=             -0.0456   XZ=              0.0011   YZ=              0.0001
 Octapole moment (field-independent basis, Debye-Ang**2):
  XXX=              0.3033  YYY=             -0.1964  ZZZ=              0.0015  XYY=              0.4989
  XXY=             -0.0790  XXZ=              0.0025  XZZ=             -0.4686  YZZ=             -0.0799
  YYZ=              0.0025  XYZ=              0.0000
 Hexadecapole moment (field-independent basis, Debye-Ang**3):
 XXXX=            -43.6272 YYYY=            -17.4674 ZZZZ=             -9.9263 XXXY=             -0.2105
 XXXZ=              0.0030 YYYX=             -0.1770 YYYZ=             -0.0001 ZZZX=              0.0000
 ZZZY=             -0.0001 XXYY=             -9.9205 XXZZ=             -8.8692 YYZZ=             -4.8071
 XXYZ=              0.0001 YYXZ=              0.0025 ZZXY=             -0.0938
 N-N= 3.156858398830D+01 E-N=-3.321585382191D+02  KE= 1.141381461743D+02
 There are a total of       88026 grid points.
 ElSum from          density=       15.9999999686
 ElSum from atomic densities=       15.9999998279
 Hirshfeld populations at iteration   1 (CA, CB, DipXYZ):
               1          2          3          4          5
     1  C    2.930251   2.930251   0.107403  -0.010245  -0.000695
     2  H    0.475053   0.475053   0.078415   0.101842   0.000325
     3  O    4.121474   4.121474   0.152373  -0.003755   0.000095
     4  H    0.473223   0.473223   0.080383  -0.113039   0.000340
       Tot   8.000000   8.000000   0.418573  -0.025198   0.000065

 Dip from Atomic Chgs              0.659879  -0.010136   0.000021
         Total Dipole              1.078452  -0.035335   0.000086

 Hirshfeld charges, spin densities, dipoles, and CM5 charges using IRadAn=      5:
              Q-H        S-H        Dx         Dy         Dz        Q-CM5   
     1  C    0.139498   0.000000   0.107403  -0.010245  -0.000695   0.071945
     2  H    0.049894   0.000000   0.078415   0.101842   0.000325   0.110875
     3  O   -0.242947   0.000000   0.152373  -0.003755   0.000095  -0.306999
     4  H    0.053555   0.000000   0.080383  -0.113039   0.000340   0.124179
       Tot   0.000000   0.000000   0.418573  -0.025198   0.000065   0.000000
 Hirshfeld charges with hydrogens summed into heavy atoms:
              Q-H       Q-CM5   
     1  C    0.242947   0.306999
     3  O   -0.242947  -0.306999
 
 EQQ= 0.000000000000E+00 EQD= 0.000000000000E+00 EDD= 0.390446432150E-02
 EQQ+QD+DD= 0.390446432150E-02
 
 No NMR shielding tensors so no spin-rotation constants.
 Leave Link  601 at Fri Sep 22 16:30:37 2023, MaxMem=   268435456 cpu:               0.4 elap:               0.2
 (Enter /share/apps/gaussian/g16/l9999.exe)
 1\1\GINC-NODE99\SP\RB3LYP\Gen\C1H2O1\YANZ\22-Sep-2023\0\\#p b3lyp/gen 
 scrf=(cpcm,solvent=toluene) pop=hirshfeld empiricaldispersion=gd3bj\\t
 mpdir/M2_ref_324.gjf\\0,1\C,0,-2.060654,2.061616,-3.39576888\H,0,-1.57
 6775,2.455505,-4.28726196\O,0,-1.49495011,2.1140792,-2.32572774\H,0,-2
 .99494832,1.64331341,-3.46773405\\Version=ES64L-G16RevA.03\State=1-A\H
 F=-114.4836622\RMSD=4.491e-09\Dipole=-0.5192168,-0.0562622,-0.944222\Q
 uadrupole=0.0803831,0.1391882,-0.2195713,0.0050992,-0.1573301,-0.00267
 48\PG=C01 [X(C1H2O1)]\\@


 REPARTEE - WHAT YOU THINK OF AFTER YOU BECOME A DEPARTEE.
 Job cpu time:       0 days  0 hours  0 minutes  6.4 seconds.
 Elapsed time:       0 days  0 hours  0 minutes  3.3 seconds.
 File lengths (MBytes):  RWF=      6 Int=      0 D2E=      0 Chk=      1 Scr=      1
 Normal termination of Gaussian 16 at Fri Sep 22 16:30:37 2023.
