 Entering Gaussian System, Link 0=g16
 Initial command:
 /share/apps/gaussian/g16/l1.exe "/tmp/55556.mgr/Gau-82476.inp" -scrdir="/tmp/55556.mgr/"
 Entering Link 1 = /share/apps/gaussian/g16/l1.exe PID=     82478.
  
 Copyright (c) 1988,1990,1992,1993,1995,1998,2003,2009,2016,
            Gaussian, Inc.  All Rights Reserved.
  
 This is part of the Gaussian(R) 16 program.  It is based on
 the Gaussian(R) 09 system (copyright 2009, Gaussian, Inc.),
 the Gaussian(R) 03 system (copyright 2003, Gaussian, Inc.),
 the Gaussian(R) 98 system (copyright 1998, Gaussian, Inc.),
 the Gaussian(R) 94 system (copyright 1995, Gaussian, Inc.),
 the Gaussian 92(TM) system (copyright 1992, Gaussian, Inc.),
 the Gaussian 90(TM) system (copyright 1990, Gaussian, Inc.),
 the Gaussian 88(TM) system (copyright 1988, Gaussian, Inc.),
 the Gaussian 86(TM) system (copyright 1986, Carnegie Mellon
 University), and the Gaussian 82(TM) system (copyright 1983,
 Carnegie Mellon University). Gaussian is a federally registered
 trademark of Gaussian, Inc.
  
 This software contains proprietary and confidential information,
 including trade secrets, belonging to Gaussian, Inc.
  
 This software is provided under written license and may be
 used, copied, transmitted, or stored only in accord with that
 written license.
  
 The following legend is applicable only to US Government
 contracts under FAR:
  
                    RESTRICTED RIGHTS LEGEND
  
 Use, reproduction and disclosure by the US Government is
 subject to restrictions as set forth in subparagraphs (a)
 and (c) of the Commercial Computer Software - Restricted
 Rights clause in FAR 52.227-19.
  
 Gaussian, Inc.
 340 Quinnipiac St., Bldg. 40, Wallingford CT 06492
  
  
 ---------------------------------------------------------------
 Warning -- This program may not be used in any manner that
 competes with the business of Gaussian, Inc. or will provide
 assistance to any competitor of Gaussian, Inc.  The licensee
 of this program is prohibited from giving any competitor of
 Gaussian, Inc. access to this program.  By using this program,
 the user acknowledges that Gaussian, Inc. is engaged in the
 business of creating and licensing software in the field of
 computational chemistry and represents and warrants to the
 licensee that it is not a competitor of Gaussian, Inc. and that
 it will not use this program in any manner prohibited above.
 ---------------------------------------------------------------
  

 Cite this work as:
 Gaussian 16, Revision A.03,
 M. J. Frisch, G. W. Trucks, H. B. Schlegel, G. E. Scuseria, 
 M. A. Robb, J. R. Cheeseman, G. Scalmani, V. Barone, 
 G. A. Petersson, H. Nakatsuji, X. Li, M. Caricato, A. V. Marenich, 
 J. Bloino, B. G. Janesko, R. Gomperts, B. Mennucci, H. P. Hratchian, 
 J. V. Ortiz, A. F. Izmaylov, J. L. Sonnenberg, D. Williams-Young, 
 F. Ding, F. Lipparini, F. Egidi, J. Goings, B. Peng, A. Petrone, 
 T. Henderson, D. Ranasinghe, V. G. Zakrzewski, J. Gao, N. Rega, 
 G. Zheng, W. Liang, M. Hada, M. Ehara, K. Toyota, R. Fukuda, 
 J. Hasegawa, M. Ishida, T. Nakajima, Y. Honda, O. Kitao, H. Nakai, 
 T. Vreven, K. Throssell, J. A. Montgomery, Jr., J. E. Peralta, 
 F. Ogliaro, M. J. Bearpark, J. J. Heyd, E. N. Brothers, K. N. Kudin, 
 V. N. Staroverov, T. A. Keith, R. Kobayashi, J. Normand, 
 K. Raghavachari, A. P. Rendell, J. C. Burant, S. S. Iyengar, 
 J. Tomasi, M. Cossi, J. M. Millam, M. Klene, C. Adamo, R. Cammi, 
 J. W. Ochterski, R. L. Martin, K. Morokuma, O. Farkas, 
 J. B. Foresman, and D. J. Fox, Gaussian, Inc., Wallingford CT, 2016.
 
 ******************************************
 Gaussian 16:  ES64L-G16RevA.03 25-Dec-2016
                22-Sep-2023 
 ******************************************
 %nprocshared=2
 Will use up to    2 processors via shared memory.
 %mem=2GB
 ----------------------------------------------------------------------
 #p b3lyp/gen scrf=(cpcm,solvent=toluene) pop=hirshfeld empiricaldisper
 sion=gd3bj
 ----------------------------------------------------------------------
 1/38=1,172=1/1;
 2/12=2,17=6,18=5,40=1/2;
 3/5=7,11=2,25=1,30=1,70=2101,72=13,74=-5,124=41/1,2,3;
 4//1;
 5/5=2,38=5,53=13/2;
 6/7=2,8=2,9=2,10=2,28=1,79=1/1;
 99/5=1,9=1/99;
 Leave Link    1 at Fri Sep 22 16:31:17 2023, MaxMem=   268435456 cpu:               0.1 elap:               0.0
 (Enter /share/apps/gaussian/g16/l101.exe)
 ---------------------
 tmpdir/M2_ref_310.gjf
 ---------------------
 Symbolic Z-matrix:
 Charge =  0 Multiplicity = 1
 C                    -3.91752   0.44448   0.05445 
 H                    -4.89452  -0.02713  -0.02077 
 O                    -3.33917   0.48201   1.12001 
 H                    -3.49529   0.84725  -0.79192 
 
 ITRead=  0  0  0  0
 MicOpt= -1 -1 -1 -1
 NAtoms=      4 NQM=        4 NQMF=       0 NMMI=      0 NMMIF=      0
                NMic=       0 NMicF=      0.
                    Isotopes and Nuclear Properties:
 (Nuclear quadrupole moments (NQMom) in fm**2, nuclear magnetic moments (NMagM)
  in nuclear magnetons)

  Atom         1           2           3           4
 IAtWgt=          12           1          16           1
 AtmWgt=  12.0000000   1.0078250  15.9949146   1.0078250
 NucSpn=           0           1           0           1
 AtZEff=  -0.0000000  -0.0000000  -0.0000000  -0.0000000
 NQMom=    0.0000000   0.0000000   0.0000000   0.0000000
 NMagM=    0.0000000   2.7928460   0.0000000   2.7928460
 AtZNuc=   6.0000000   1.0000000   8.0000000   1.0000000
 Leave Link  101 at Fri Sep 22 16:31:17 2023, MaxMem=   268435456 cpu:               0.2 elap:               0.1
 (Enter /share/apps/gaussian/g16/l202.exe)
                          Input orientation:                          
 ---------------------------------------------------------------------
 Center     Atomic      Atomic             Coordinates (Angstroms)
 Number     Number       Type             X           Y           Z
 ---------------------------------------------------------------------
      1          6           0       -3.917516    0.444478    0.054453
      2          1           0       -4.894517   -0.027125   -0.020766
      3          8           0       -3.339167    0.482008    1.120009
      4          1           0       -3.495291    0.847248   -0.791916
 ---------------------------------------------------------------------
                    Distance matrix (angstroms):
                    1          2          3          4
     1  C    0.000000
     2  H    1.087473   0.000000
     3  O    1.212973   1.994917   0.000000
     4  H    1.028026   1.821273   1.952749   0.000000
 Stoichiometry    CH2O
 Framework group  C1[X(CH2O)]
 Deg. of freedom     6
 Full point group                 C1      NOp   1
 Largest Abelian subgroup         C1      NOp   1
 Largest concise Abelian subgroup C1      NOp   1
                         Standard orientation:                         
 ---------------------------------------------------------------------
 Center     Atomic      Atomic             Coordinates (Angstroms)
 Number     Number       Type             X           Y           Z
 ---------------------------------------------------------------------
      1          6           0       -0.539127   -0.010749   -0.001126
      2          1           0       -1.097887    0.922190    0.002264
      3          8           0        0.673742    0.005117    0.000259
      4          1           0       -1.057288   -0.898631    0.002416
 ---------------------------------------------------------------------
 Rotational constants (GHZ):         302.1882627          39.0605610          34.5896651
 Leave Link  202 at Fri Sep 22 16:31:17 2023, MaxMem=   268435456 cpu:               0.0 elap:               0.0
 (Enter /share/apps/gaussian/g16/l301.exe)
 General basis read from cards:  (5D, 7F)
 Centers:       2      4
 S 3 1.00
     Exponent=  1.2251800000D+01 Coefficients=  2.3337100000D-02
     Exponent=  1.8687100000D+00 Coefficients=  1.5915000000D-01
     Exponent=  4.1820800000D-01 Coefficients=  5.0000000000D-01
 S 1 1.00
     Exponent=  1.0610000000D-01 Coefficients=  1.0000000000D+00
 P 1 1.00
     Exponent=  1.0000000000D+00 Coefficients=  1.0000000000D+00
 ****
 Centers:       1
 S 5 1.00
     Exponent=  1.2432000000D+03 Coefficients=  6.0336600000D-03
     Exponent=  1.8714500000D+02 Coefficients=  4.4957600000D-02
     Exponent=  4.2512600000D+01 Coefficients=  1.9790100000D-01
     Exponent=  1.1739300000D+01 Coefficients=  5.0000000000D-01
     Exponent=  3.5054800000D+00 Coefficients=  4.8036400000D-01
 S 2 1.00
     Exponent=  5.3908900000D+00 Coefficients= -7.0398000000D-02
     Exponent=  4.9334100000D-01 Coefficients=  5.0000000000D-01
 S 1 1.00
     Exponent=  1.4974100000D-01 Coefficients=  1.0000000000D+00
 P 3 1.00
     Exponent=  9.1805600000D+00 Coefficients=  4.3170100000D-02
     Exponent=  1.9365800000D+00 Coefficients=  2.2499900000D-01
     Exponent=  5.2629600000D-01 Coefficients=  5.0000000000D-01
 P 1 1.00
     Exponent=  1.3631900000D-01 Coefficients=  1.0000000000D+00
 D 1 1.00
     Exponent=  8.0000000000D-01 Coefficients=  1.0000000000D+00
 ****
 Centers:       3
 S 5 1.00
     Exponent=  2.2886400000D+03 Coefficients=  5.8546800000D-03
     Exponent=  3.4441600000D+02 Coefficients=  4.3733300000D-02
     Exponent=  7.8253800000D+01 Coefficients=  1.9479600000D-01
     Exponent=  2.1719500000D+01 Coefficients=  5.0000000000D-01
     Exponent=  6.5590700000D+00 Coefficients=  4.8461400000D-01
 S 2 1.00
     Exponent=  1.0465600000D+01 Coefficients= -7.1334300000D-02
     Exponent=  9.6435100000D-01 Coefficients=  5.0000000000D-01
 S 1 1.00
     Exponent=  2.8512700000D-01 Coefficients=  1.0000000000D+00
 P 3 1.00
     Exponent=  1.7059000000D+01 Coefficients=  4.7443900000D-02
     Exponent=  3.6899900000D+00 Coefficients=  2.4268900000D-01
     Exponent=  9.9299600000D-01 Coefficients=  5.0000000000D-01
 P 1 1.00
     Exponent=  2.4492400000D-01 Coefficients=  1.0000000000D+00
 D 1 1.00
     Exponent=  1.0000000000D+00 Coefficients=  1.0000000000D+00
 ****
 Ernie: Thresh=  0.10000D-02 Tol=  0.10000D-05 Strict=F.
 There are    40 symmetry adapted cartesian basis functions of A   symmetry.
 There are    38 symmetry adapted basis functions of A   symmetry.
    38 basis functions,    66 primitive gaussians,    40 cartesian basis functions
     8 alpha electrons        8 beta electrons
       nuclear repulsion energy        31.5294502780 Hartrees.
 IExCor=  402 DFT=T Ex+Corr=B3LYP ExCW=0 ScaHFX=  0.200000
 ScaDFX=  0.800000  0.720000  1.000000  0.810000 ScalE2=  1.000000  1.000000
 IRadAn=      5 IRanWt=     -1 IRanGd=            0 ICorTp=0 IEmpDi=141
 NAtoms=    4 NActive=    4 NUniq=    4 SFac= 1.00D+00 NAtFMM=   60 NAOKFM=F Big=F
 Integral buffers will be    131072 words long.
 Raffenetti 2 integral format.
 Two-electron integral symmetry is turned on.
 R6Disp:  Grimme-D3(BJ) Dispersion energy=       -0.0018376671 Hartrees.
 Nuclear repulsion after empirical dispersion term =       31.5276126109 Hartrees.
 ------------------------------------------------------------------------------
 Polarizable Continuum Model (PCM)
 =================================
 Model                : C-PCM.
 Atomic radii         : UFF (Universal Force Field).
 Polarization charges : Total charges.
 Charge compensation  : None.
 Solution method      : On-the-fly selection.
 Cavity type          : Scaled VdW (van der Waals Surface) (Alpha=1.100).
 Cavity algorithm     : GePol (No added spheres)
                        Default sphere list used, NSphG=    4.
                        Lebedev-Laikov grids with approx.  5.0 points / Ang**2.
                        Smoothing algorithm: York/Karplus (Gamma=1.0000).
                        Polarization charges: spherical gaussians, with
                                              point-specific exponents (IZeta= 3).
                        Self-potential: point-specific (ISelfS= 7).
                        Self-field    : sphere-specific E.n sum rule (ISelfD= 2).
 Solvent              : Toluene, Eps=   2.374100 Eps(inf)=   2.238315
 ------------------------------------------------------------------------------
 Spheres list:
 ISph  on   Nord     Re0    Alpha      Xe            Ye            Ze
    1   C      1    1.9255  1.100     -0.539127     -0.010749     -0.001126
    2   H      2    1.4430  1.100     -1.097887      0.922190      0.002264
    3   O      3    1.7500  1.100      0.673742      0.005117      0.000259
    4   H      4    1.4430  1.100     -1.057288     -0.898631      0.002416
 ------------------------------------------------------------------------------
 GePol: Number of generator spheres                  =       4
 GePol: Total number of spheres                      =       4
 GePol: Number of exposed spheres                    =       4 (100.00%)
 GePol: Number of points                             =     521
 GePol: Average weight of points                     =       0.14
 GePol: Minimum weight of points                     =   0.25D-06
 GePol: Maximum weight of points                     =    0.20577
 GePol: Number of points with low weight             =      16
 GePol: Fraction of low-weight points (<1% of avg)   =       3.07%
 GePol: Cavity surface area                          =     73.437 Ang**2
 GePol: Cavity volume                                =     55.746 Ang**3
 Leave Link  301 at Fri Sep 22 16:31:17 2023, MaxMem=   268435456 cpu:               0.2 elap:               0.1
 (Enter /share/apps/gaussian/g16/l302.exe)
 NPDir=0 NMtPBC=     1 NCelOv=     1 NCel=       1 NClECP=     1 NCelD=      1
         NCelK=      1 NCelE2=     1 NClLst=     1 CellRange=     0.0.
 One-electron integrals computed using PRISM.
 One-electron integral symmetry used in STVInt
 NBasis=    38 RedAO= T EigKep=  2.22D-02  NBF=    38
 NBsUse=    38 1.00D-06 EigRej= -1.00D+00 NBFU=    38
 Precomputing XC quadrature grid using
 IXCGrd= 4 IRadAn=           5 IRanWt=          -1 IRanGd=           0 AccXCQ= 0.00D+00.
 Generated NRdTot=       0 NPtTot=           0 NUsed=           0 NTot=          32
 NSgBfM=    40    40    40    40    40 MxSgAt=     4 MxSgA2=     4.
 Leave Link  302 at Fri Sep 22 16:31:17 2023, MaxMem=   268435456 cpu:               0.2 elap:               0.1
 (Enter /share/apps/gaussian/g16/l303.exe)
 DipDrv:  MaxL=1.
 Leave Link  303 at Fri Sep 22 16:31:17 2023, MaxMem=   268435456 cpu:               0.1 elap:               0.0
 (Enter /share/apps/gaussian/g16/l401.exe)
 ExpMin= 1.06D-01 ExpMax= 2.29D+03 ExpMxC= 3.44D+02 IAcc=3 IRadAn=         5 AccDes= 0.00D+00
 Harris functional with IExCor=  402 and IRadAn=       5 diagonalized for initial guess.
 HarFok:  IExCor=  402 AccDes= 0.00D+00 IRadAn=         5 IDoV= 1 UseB2=F ITyADJ=14
 ICtDFT=  3500011 ScaDFX=  1.000000  1.000000  1.000000  1.000000
 FoFCou: FMM=F IPFlag=           0 FMFlag=      100000 FMFlg1=           0
         NFxFlg=           0 DoJE=T BraDBF=F KetDBF=T FulRan=T
         wScrn=  0.000000 ICntrl=       500 IOpCl=  0 I1Cent=   200000004 NGrid=           0
         NMat0=    1 NMatS0=      1 NMatT0=    0 NMatD0=    1 NMtDS0=    0 NMtDT0=    0
 Petite list used in FoFCou.
 Harris En= -114.493549085958    
 JPrj=0 DoOrth=F DoCkMO=F.
 Leave Link  401 at Fri Sep 22 16:31:17 2023, MaxMem=   268435456 cpu:               0.6 elap:               0.3
 (Enter /share/apps/gaussian/g16/l502.exe)
 Keep R1 ints in memory in canonical form, NReq=2001317.
 FoFCou: FMM=F IPFlag=           0 FMFlag=           0 FMFlg1=           0
         NFxFlg=           0 DoJE=F BraDBF=F KetDBF=F FulRan=T
         wScrn=  0.000000 ICntrl=       600 IOpCl=  0 I1Cent=           0 NGrid=           0
         NMat0=    1 NMatS0=    741 NMatT0=    0 NMatD0=    1 NMtDS0=    0 NMtDT0=    0
 Symmetry not used in FoFCou.
 Two-electron integral symmetry not used.
 Closed shell SCF:
 Using DIIS extrapolation, IDIIS=  1040.
 NGot=   268435456 LenX=   268156521 LenY=   268154480
 Requested convergence on RMS density matrix=1.00D-08 within 128 cycles.
 Requested convergence on MAX density matrix=1.00D-06.
 Requested convergence on             energy=1.00D-06.
 No special actions if energy rises.

 Cycle   1  Pass 1  IDiag  1:
 Inv3:  Mode=1 IEnd=      814323.
 Iteration    1 A*A^-1 deviation from unit magnitude is 3.33D-15 for    515.
 Iteration    1 A*A^-1 deviation from orthogonality  is 1.07D-15 for    511    216.
 Iteration    1 A^-1*A deviation from unit magnitude is 3.33D-15 for    515.
 Iteration    1 A^-1*A deviation from orthogonality  is 1.05D-15 for    496    209.
 E= -114.438909149279    
 DIIS: error= 3.74D-02 at cycle   1 NSaved=   1.
 NSaved= 1 IEnMin= 1 EnMin= -114.438909149279     IErMin= 1 ErrMin= 3.74D-02
 ErrMax= 3.74D-02  0.00D+00 EMaxC= 1.00D-01 BMatC= 5.41D-02 BMatP= 5.41D-02
 IDIUse=3 WtCom= 6.26D-01 WtEn= 3.74D-01
 Coeff-Com:  0.100D+01
 Coeff-En:   0.100D+01
 Coeff:      0.100D+01
 Gap=     0.176 Goal=   None    Shift=    0.000
 GapD=    0.176 DampG=1.000 DampE=0.500 DampFc=0.5000 IDamp=-1.
 Damping current iteration by 5.00D-01
 RMSDP=1.27D-02 MaxDP=1.62D-01              OVMax= 2.30D-01

 Cycle   2  Pass 1  IDiag  1:
 E= -114.445583634537     Delta-E=       -0.006674485257 Rises=F Damp=T
 DIIS: error= 1.42D-02 at cycle   2 NSaved=   2.
 NSaved= 2 IEnMin= 2 EnMin= -114.445583634537     IErMin= 2 ErrMin= 1.42D-02
 ErrMax= 1.42D-02  0.00D+00 EMaxC= 1.00D-01 BMatC= 1.21D-02 BMatP= 5.41D-02
 IDIUse=3 WtCom= 8.58D-01 WtEn= 1.42D-01
 Coeff-Com:  0.291D+00 0.709D+00
 Coeff-En:   0.433D+00 0.567D+00
 Coeff:      0.311D+00 0.689D+00
 Gap=     0.222 Goal=   None    Shift=    0.000
 RMSDP=3.07D-03 MaxDP=3.39D-02 DE=-6.67D-03 OVMax= 1.72D-01

 Cycle   3  Pass 1  IDiag  1:
 E= -114.481251389274     Delta-E=       -0.035667754737 Rises=F Damp=F
 DIIS: error= 8.81D-03 at cycle   3 NSaved=   3.
 NSaved= 3 IEnMin= 3 EnMin= -114.481251389274     IErMin= 3 ErrMin= 8.81D-03
 ErrMax= 8.81D-03  0.00D+00 EMaxC= 1.00D-01 BMatC= 2.71D-03 BMatP= 1.21D-02
 IDIUse=3 WtCom= 9.12D-01 WtEn= 8.81D-02
 Coeff-Com:  0.943D-01 0.345D+00 0.560D+00
 Coeff-En:   0.000D+00 0.000D+00 0.100D+01
 Coeff:      0.860D-01 0.315D+00 0.599D+00
 Gap=     0.219 Goal=   None    Shift=    0.000
 RMSDP=1.28D-03 MaxDP=1.74D-02 DE=-3.57D-02 OVMax= 2.76D-02

 Cycle   4  Pass 1  IDiag  1:
 E= -114.483809090987     Delta-E=       -0.002557701713 Rises=F Damp=F
 DIIS: error= 2.64D-03 at cycle   4 NSaved=   4.
 NSaved= 4 IEnMin= 4 EnMin= -114.483809090987     IErMin= 4 ErrMin= 2.64D-03
 ErrMax= 2.64D-03  0.00D+00 EMaxC= 1.00D-01 BMatC= 2.16D-04 BMatP= 2.71D-03
 IDIUse=3 WtCom= 9.74D-01 WtEn= 2.64D-02
 Coeff-Com:  0.134D-01 0.185D-01 0.220D+00 0.748D+00
 Coeff-En:   0.000D+00 0.000D+00 0.000D+00 0.100D+01
 Coeff:      0.131D-01 0.180D-01 0.214D+00 0.755D+00
 Gap=     0.221 Goal=   None    Shift=    0.000
 RMSDP=2.50D-04 MaxDP=3.61D-03 DE=-2.56D-03 OVMax= 4.64D-03

 Cycle   5  Pass 1  IDiag  1:
 E= -114.483993401618     Delta-E=       -0.000184310632 Rises=F Damp=F
 DIIS: error= 1.78D-04 at cycle   5 NSaved=   5.
 NSaved= 5 IEnMin= 5 EnMin= -114.483993401618     IErMin= 5 ErrMin= 1.78D-04
 ErrMax= 1.78D-04  0.00D+00 EMaxC= 1.00D-01 BMatC= 1.15D-06 BMatP= 2.16D-04
 IDIUse=3 WtCom= 9.98D-01 WtEn= 1.78D-03
 Coeff-Com:  0.183D-02-0.681D-02 0.289D-01 0.139D+00 0.837D+00
 Coeff-En:   0.000D+00 0.000D+00 0.000D+00 0.000D+00 0.100D+01
 Coeff:      0.182D-02-0.680D-02 0.288D-01 0.139D+00 0.837D+00
 Gap=     0.222 Goal=   None    Shift=    0.000
 RMSDP=2.40D-05 MaxDP=2.05D-04 DE=-1.84D-04 OVMax= 2.58D-04

 Cycle   6  Pass 1  IDiag  1:
 E= -114.483994322068     Delta-E=       -0.000000920450 Rises=F Damp=F
 DIIS: error= 3.19D-05 at cycle   6 NSaved=   6.
 NSaved= 6 IEnMin= 6 EnMin= -114.483994322068     IErMin= 6 ErrMin= 3.19D-05
 ErrMax= 3.19D-05  0.00D+00 EMaxC= 1.00D-01 BMatC= 3.91D-08 BMatP= 1.15D-06
 IDIUse=1 WtCom= 1.00D+00 WtEn= 0.00D+00
 Coeff-Com:  0.351D-03-0.120D-02 0.106D-02 0.177D-02 0.394D-01 0.959D+00
 Coeff:      0.351D-03-0.120D-02 0.106D-02 0.177D-02 0.394D-01 0.959D+00
 Gap=     0.222 Goal=   None    Shift=    0.000
 RMSDP=4.97D-06 MaxDP=4.90D-05 DE=-9.20D-07 OVMax= 5.38D-05

 Cycle   7  Pass 1  IDiag  1:
 E= -114.483994353361     Delta-E=       -0.000000031293 Rises=F Damp=F
 DIIS: error= 1.53D-06 at cycle   7 NSaved=   7.
 NSaved= 7 IEnMin= 7 EnMin= -114.483994353361     IErMin= 7 ErrMin= 1.53D-06
 ErrMax= 1.53D-06  0.00D+00 EMaxC= 1.00D-01 BMatC= 2.01D-10 BMatP= 3.91D-08
 IDIUse=1 WtCom= 1.00D+00 WtEn= 0.00D+00
 Coeff-Com:  0.131D-05 0.292D-04-0.245D-03-0.197D-02-0.129D-01 0.348D-01
 Coeff-Com:  0.980D+00
 Coeff:      0.131D-05 0.292D-04-0.245D-03-0.197D-02-0.129D-01 0.348D-01
 Coeff:      0.980D+00
 Gap=     0.222 Goal=   None    Shift=    0.000
 RMSDP=3.49D-07 MaxDP=3.21D-06 DE=-3.13D-08 OVMax= 3.13D-06

 Cycle   8  Pass 1  IDiag  1:
 E= -114.483994353517     Delta-E=       -0.000000000155 Rises=F Damp=F
 DIIS: error= 3.72D-07 at cycle   8 NSaved=   8.
 NSaved= 8 IEnMin= 8 EnMin= -114.483994353517     IErMin= 8 ErrMin= 3.72D-07
 ErrMax= 3.72D-07  0.00D+00 EMaxC= 1.00D-01 BMatC= 5.05D-12 BMatP= 2.01D-10
 IDIUse=1 WtCom= 1.00D+00 WtEn= 0.00D+00
 Coeff-Com: -0.695D-07 0.682D-05-0.104D-04-0.170D-03-0.124D-02-0.642D-02
 Coeff-Com:  0.705D-01 0.937D+00
 Coeff:     -0.695D-07 0.682D-05-0.104D-04-0.170D-03-0.124D-02-0.642D-02
 Coeff:      0.705D-01 0.937D+00
 Gap=     0.222 Goal=   None    Shift=    0.000
 RMSDP=5.07D-08 MaxDP=4.21D-07 DE=-1.55D-10 OVMax= 5.31D-07

 Cycle   9  Pass 1  IDiag  1:
 E= -114.483994353521     Delta-E=       -0.000000000004 Rises=F Damp=F
 DIIS: error= 3.44D-08 at cycle   9 NSaved=   9.
 NSaved= 9 IEnMin= 9 EnMin= -114.483994353521     IErMin= 9 ErrMin= 3.44D-08
 ErrMax= 3.44D-08  0.00D+00 EMaxC= 1.00D-01 BMatC= 5.85D-14 BMatP= 5.05D-12
 IDIUse=1 WtCom= 1.00D+00 WtEn= 0.00D+00
 Coeff-Com:  0.157D-06-0.377D-06 0.369D-05 0.912D-05 0.865D-04-0.113D-02
 Coeff-Com: -0.652D-02 0.691D-01 0.938D+00
 Coeff:      0.157D-06-0.377D-06 0.369D-05 0.912D-05 0.865D-04-0.113D-02
 Coeff:     -0.652D-02 0.691D-01 0.938D+00
 Gap=     0.222 Goal=   None    Shift=    0.000
 RMSDP=4.76D-09 MaxDP=4.86D-08 DE=-4.04D-12 OVMax= 5.82D-08

 Error on total polarization charges =  0.00275
 SCF Done:  E(RB3LYP) =  -114.483994354     A.U. after    9 cycles
            NFock=  9  Conv=0.48D-08     -V/T= 2.0031
 KE= 1.141292202520D+02 PE=-3.320683262788D+02 EE= 7.192749906236D+01
 Leave Link  502 at Fri Sep 22 16:31:20 2023, MaxMem=   268435456 cpu:               4.6 elap:               2.3
 (Enter /share/apps/gaussian/g16/l601.exe)
 Copying SCF densities to generalized density rwf, IOpCl= 0 IROHF=0.

 **********************************************************************

            Population analysis using the SCF density.

 **********************************************************************

 Orbital symmetries:
       Occupied  (A) (A) (A) (A) (A) (A) (A) (A)
       Virtual   (A) (A) (A) (A) (A) (A) (A) (A) (A) (A) (A) (A)
                 (A) (A) (A) (A) (A) (A) (A) (A) (A) (A) (A) (A)
                 (A) (A) (A) (A) (A) (A)
 The electronic state is 1-A.
 Alpha  occ. eigenvalues --  -19.13921 -10.27083  -1.06483  -0.65050  -0.51096
 Alpha  occ. eigenvalues --   -0.45533  -0.40353  -0.27450
 Alpha virt. eigenvalues --   -0.05279   0.06545   0.11923   0.18122   0.40312
 Alpha virt. eigenvalues --    0.47946   0.52463   0.60677   0.62613   0.72679
 Alpha virt. eigenvalues --    0.78022   0.87643   0.97949   1.32226   1.50412
 Alpha virt. eigenvalues --    1.59917   1.75504   1.80223   1.96017   1.96526
 Alpha virt. eigenvalues --    2.11281   2.14858   2.26985   2.52546   2.71260
 Alpha virt. eigenvalues --    2.77116   2.81288   3.14493   3.27916   3.44839
          Condensed to atoms (all electrons):
               1          2          3          4
     1  C    4.394410   0.389137   0.597277   0.398126
     2  H    0.389137   0.674755  -0.057111  -0.082682
     3  O    0.597277  -0.057111   7.875784  -0.052849
     4  H    0.398126  -0.082682  -0.052849   0.671255
 Mulliken charges:
               1
     1  C    0.221050
     2  H    0.075900
     3  O   -0.363101
     4  H    0.066150
 Sum of Mulliken charges =  -0.00000
 Mulliken charges with hydrogens summed into heavy atoms:
               1
     1  C    0.363101
     3  O   -0.363101
 Electronic spatial extent (au):  <R**2>=             59.4808
 Charge=             -0.0000 electrons
 Dipole moment (field-independent basis, Debye):
    X=             -2.7492    Y=             -0.0871    Z=              0.0004  Tot=              2.7506
 Quadrupole moment (field-independent basis, Debye-Ang):
   XX=            -12.0445   YY=            -11.5101   ZZ=            -11.5033
   XY=              0.0554   XZ=             -0.0023   YZ=              0.0001
 Traceless Quadrupole moment (field-independent basis, Debye-Ang):
   XX=             -0.3585   YY=              0.1759   ZZ=              0.1826
   XY=              0.0554   XZ=             -0.0023   YZ=              0.0001
 Octapole moment (field-independent basis, Debye-Ang**2):
  XXX=             -0.3452  YYY=             -0.1859  ZZZ=              0.0031  XYY=             -0.4886
  XXY=             -0.0918  XXZ=              0.0053  XZZ=              0.4676  YZZ=             -0.0783
  YYZ=              0.0052  XYZ=             -0.0001
 Hexadecapole moment (field-independent basis, Debye-Ang**3):
 XXXX=            -43.7378 YYYY=            -17.4830 ZZZZ=             -9.9317 XXXY=              0.2352
 XXXZ=             -0.0064 YYYX=              0.1789 YYYZ=             -0.0002 ZZZX=             -0.0001
 ZZZY=             -0.0002 XXYY=             -9.9441 XXZZ=             -8.8995 YYZZ=             -4.8051
 XXYZ=              0.0002 YYXZ=             -0.0053 ZZXY=              0.0922
 N-N= 3.152761261092D+01 E-N=-3.320683264089D+02  KE= 1.141292202520D+02
 There are a total of       88026 grid points.
 ElSum from          density=       15.9999999598
 ElSum from atomic densities=       15.9999998273
 Hirshfeld populations at iteration   1 (CA, CB, DipXYZ):
               1          2          3          4          5
     1  C    2.930131   2.930131  -0.106148  -0.010919  -0.001471
     2  H    0.475307   0.475307  -0.079293   0.101065   0.000687
     3  O    4.121400   4.121400  -0.152147  -0.003003   0.000201
     4  H    0.473163   0.473163  -0.082845  -0.111137   0.000718
       Tot   8.000000   8.000000  -0.420433  -0.023993   0.000136

 Dip from Atomic Chgs             -0.661201  -0.010269   0.000040
         Total Dipole             -1.081634  -0.034262   0.000176

 Hirshfeld charges, spin densities, dipoles, and CM5 charges using IRadAn=      5:
              Q-H        S-H        Dx         Dy         Dz        Q-CM5   
     1  C    0.139739   0.000000  -0.106148  -0.010919  -0.001471   0.072229
     2  H    0.049387   0.000000  -0.079293   0.101065   0.000687   0.110376
     3  O   -0.242800   0.000000  -0.152147  -0.003003   0.000201  -0.306305
     4  H    0.053675   0.000000  -0.082845  -0.111137   0.000718   0.123700
       Tot   0.000000   0.000000  -0.420433  -0.023993   0.000136   0.000000
 Hirshfeld charges with hydrogens summed into heavy atoms:
              Q-H       Q-CM5   
     1  C    0.242800   0.306305
     3  O   -0.242800  -0.306305
 
 EQQ= 0.000000000000E+00 EQD= 0.000000000000E+00 EDD= 0.391364767692E-02
 EQQ+QD+DD= 0.391364767692E-02
 
 No NMR shielding tensors so no spin-rotation constants.
 Leave Link  601 at Fri Sep 22 16:31:20 2023, MaxMem=   268435456 cpu:               0.4 elap:               0.2
 (Enter /share/apps/gaussian/g16/l9999.exe)
 1\1\GINC-NODE99\SP\RB3LYP\Gen\C1H2O1\YANZ\22-Sep-2023\0\\#p b3lyp/gen 
 scrf=(cpcm,solvent=toluene) pop=hirshfeld empiricaldispersion=gd3bj\\t
 mpdir/M2_ref_310.gjf\\0,1\C,0,-3.917516,0.444478,0.054453\H,0,-4.89451
 7,-0.027125,-0.020766\O,0,-3.33916709,0.48200751,1.12000852\H,0,-3.495
 29067,0.84724817,-0.79191592\\Version=ES64L-G16RevA.03\State=1-A\HF=-1
 14.4839944\RMSD=4.762e-09\Dipole=-0.4999183,-0.0250625,-0.9594577\Quad
 rupole=0.0066171,0.1327397,-0.1393568,-0.0193498,-0.1879058,-0.0276013
 \PG=C01 [X(C1H2O1)]\\@


 I MET A TRAVELLER FROM AN ANTIQUE LAND
 WHO SAID... TWO VAST AND TRUNKLESS LEGS OF STONE
 STAND IN THE DESERT..... NEAR THEM,  ON THE SAND,
 HALF SUNK,  A SHATTERED VISAGE LIES,  WHOSE FROWN,
 AND WRINKLED LIP,  AND SNEER OF COLD COMMAND
 TELL THAT ITS SCULPTOR WELL THOSE PASSIONS READ
 WHICH YET SURVIVE,  STAMPED ON THESE LIFELESS THINGS
 THE HAND THAT MOCKED THEM,  AND THE HEART THAT FED-
 AND ON THE PEDESTAL THESE WORDS APPEAR 
 MY NAME IS OZYMANDIAS, KING OF KINGS--   
 LOOK ON MY WORKS YE MIGHTY AND DESPAIR. 
 NOTHING BESIDE REMAINS,  ROUND THE DECAY 
 OF THAT COLOSSAL WRECK,  BOUNDLESS AND BARE
 THE LONE AND LEVEL SANDS STRETCH FAR AWAY.
                                    SHELLEY
 Job cpu time:       0 days  0 hours  0 minutes  6.5 seconds.
 Elapsed time:       0 days  0 hours  0 minutes  3.3 seconds.
 File lengths (MBytes):  RWF=      6 Int=      0 D2E=      0 Chk=      1 Scr=      1
 Normal termination of Gaussian 16 at Fri Sep 22 16:31:20 2023.
