 Entering Gaussian System, Link 0=g16
 Initial command:
 /share/apps/gaussian/g16/l1.exe "/tmp/55556.mgr/Gau-80650.inp" -scrdir="/tmp/55556.mgr/"
 Entering Link 1 = /share/apps/gaussian/g16/l1.exe PID=     80651.
  
 Copyright (c) 1988,1990,1992,1993,1995,1998,2003,2009,2016,
            Gaussian, Inc.  All Rights Reserved.
  
 This is part of the Gaussian(R) 16 program.  It is based on
 the Gaussian(R) 09 system (copyright 2009, Gaussian, Inc.),
 the Gaussian(R) 03 system (copyright 2003, Gaussian, Inc.),
 the Gaussian(R) 98 system (copyright 1998, Gaussian, Inc.),
 the Gaussian(R) 94 system (copyright 1995, Gaussian, Inc.),
 the Gaussian 92(TM) system (copyright 1992, Gaussian, Inc.),
 the Gaussian 90(TM) system (copyright 1990, Gaussian, Inc.),
 the Gaussian 88(TM) system (copyright 1988, Gaussian, Inc.),
 the Gaussian 86(TM) system (copyright 1986, Carnegie Mellon
 University), and the Gaussian 82(TM) system (copyright 1983,
 Carnegie Mellon University). Gaussian is a federally registered
 trademark of Gaussian, Inc.
  
 This software contains proprietary and confidential information,
 including trade secrets, belonging to Gaussian, Inc.
  
 This software is provided under written license and may be
 used, copied, transmitted, or stored only in accord with that
 written license.
  
 The following legend is applicable only to US Government
 contracts under FAR:
  
                    RESTRICTED RIGHTS LEGEND
  
 Use, reproduction and disclosure by the US Government is
 subject to restrictions as set forth in subparagraphs (a)
 and (c) of the Commercial Computer Software - Restricted
 Rights clause in FAR 52.227-19.
  
 Gaussian, Inc.
 340 Quinnipiac St., Bldg. 40, Wallingford CT 06492
  
  
 ---------------------------------------------------------------
 Warning -- This program may not be used in any manner that
 competes with the business of Gaussian, Inc. or will provide
 assistance to any competitor of Gaussian, Inc.  The licensee
 of this program is prohibited from giving any competitor of
 Gaussian, Inc. access to this program.  By using this program,
 the user acknowledges that Gaussian, Inc. is engaged in the
 business of creating and licensing software in the field of
 computational chemistry and represents and warrants to the
 licensee that it is not a competitor of Gaussian, Inc. and that
 it will not use this program in any manner prohibited above.
 ---------------------------------------------------------------
  

 Cite this work as:
 Gaussian 16, Revision A.03,
 M. J. Frisch, G. W. Trucks, H. B. Schlegel, G. E. Scuseria, 
 M. A. Robb, J. R. Cheeseman, G. Scalmani, V. Barone, 
 G. A. Petersson, H. Nakatsuji, X. Li, M. Caricato, A. V. Marenich, 
 J. Bloino, B. G. Janesko, R. Gomperts, B. Mennucci, H. P. Hratchian, 
 J. V. Ortiz, A. F. Izmaylov, J. L. Sonnenberg, D. Williams-Young, 
 F. Ding, F. Lipparini, F. Egidi, J. Goings, B. Peng, A. Petrone, 
 T. Henderson, D. Ranasinghe, V. G. Zakrzewski, J. Gao, N. Rega, 
 G. Zheng, W. Liang, M. Hada, M. Ehara, K. Toyota, R. Fukuda, 
 J. Hasegawa, M. Ishida, T. Nakajima, Y. Honda, O. Kitao, H. Nakai, 
 T. Vreven, K. Throssell, J. A. Montgomery, Jr., J. E. Peralta, 
 F. Ogliaro, M. J. Bearpark, J. J. Heyd, E. N. Brothers, K. N. Kudin, 
 V. N. Staroverov, T. A. Keith, R. Kobayashi, J. Normand, 
 K. Raghavachari, A. P. Rendell, J. C. Burant, S. S. Iyengar, 
 J. Tomasi, M. Cossi, J. M. Millam, M. Klene, C. Adamo, R. Cammi, 
 J. W. Ochterski, R. L. Martin, K. Morokuma, O. Farkas, 
 J. B. Foresman, and D. J. Fox, Gaussian, Inc., Wallingford CT, 2016.
 
 ******************************************
 Gaussian 16:  ES64L-G16RevA.03 25-Dec-2016
                22-Sep-2023 
 ******************************************
 %nprocshared=2
 Will use up to    2 processors via shared memory.
 %mem=2GB
 ----------------------------------------------------------------------
 #p b3lyp/gen scrf=(cpcm,solvent=toluene) pop=hirshfeld empiricaldisper
 sion=gd3bj
 ----------------------------------------------------------------------
 1/38=1,172=1/1;
 2/12=2,17=6,18=5,40=1/2;
 3/5=7,11=2,25=1,30=1,70=2101,72=13,74=-5,124=41/1,2,3;
 4//1;
 5/5=2,38=5,53=13/2;
 6/7=2,8=2,9=2,10=2,28=1,79=1/1;
 99/5=1,9=1/99;
 Leave Link    1 at Fri Sep 22 16:29:36 2023, MaxMem=   268435456 cpu:               0.1 elap:               0.0
 (Enter /share/apps/gaussian/g16/l101.exe)
 ---------------------
 tmpdir/M2_ref_195.gjf
 ---------------------
 Symbolic Z-matrix:
 Charge =  0 Multiplicity = 1
 C                     4.82716   0.96048  -1.32507 
 C                     4.99475   0.66354  -2.81876 
 H                     4.06337   0.30065  -3.26129 
 H                     5.78544   1.37027  -0.8961 
 H                     4.70856  -0.05176  -0.73507 
 H                     3.98042   1.63715  -1.09928 
 H                     5.32031   1.56318  -3.35273 
 H                     5.77186  -0.09869  -2.94823 
 
 ITRead=  0  0  0  0  0  0  0  0
 MicOpt= -1 -1 -1 -1 -1 -1 -1 -1
 NAtoms=      8 NQM=        8 NQMF=       0 NMMI=      0 NMMIF=      0
                NMic=       0 NMicF=      0.
                    Isotopes and Nuclear Properties:
 (Nuclear quadrupole moments (NQMom) in fm**2, nuclear magnetic moments (NMagM)
  in nuclear magnetons)

  Atom         1           2           3           4           5           6           7           8
 IAtWgt=          12          12           1           1           1           1           1           1
 AtmWgt=  12.0000000  12.0000000   1.0078250   1.0078250   1.0078250   1.0078250   1.0078250   1.0078250
 NucSpn=           0           0           1           1           1           1           1           1
 AtZEff=  -0.0000000  -0.0000000  -0.0000000  -0.0000000  -0.0000000  -0.0000000  -0.0000000  -0.0000000
 NQMom=    0.0000000   0.0000000   0.0000000   0.0000000   0.0000000   0.0000000   0.0000000   0.0000000
 NMagM=    0.0000000   0.0000000   2.7928460   2.7928460   2.7928460   2.7928460   2.7928460   2.7928460
 AtZNuc=   6.0000000   6.0000000   1.0000000   1.0000000   1.0000000   1.0000000   1.0000000   1.0000000
 Leave Link  101 at Fri Sep 22 16:29:36 2023, MaxMem=   268435456 cpu:               0.2 elap:               0.1
 (Enter /share/apps/gaussian/g16/l202.exe)
                          Input orientation:                          
 ---------------------------------------------------------------------
 Center     Atomic      Atomic             Coordinates (Angstroms)
 Number     Number       Type             X           Y           Z
 ---------------------------------------------------------------------
      1          6           0        4.827158    0.960475   -1.325072
      2          6           0        4.994753    0.663539   -2.818764
      3          1           0        4.063375    0.300653   -3.261292
      4          1           0        5.785444    1.370271   -0.896103
      5          1           0        4.708562   -0.051759   -0.735072
      6          1           0        3.980423    1.637153   -1.099282
      7          1           0        5.320308    1.563184   -3.352731
      8          1           0        5.771855   -0.098686   -2.948231
 ---------------------------------------------------------------------
                    Distance matrix (angstroms):
                    1          2          3          4          5
     1  C    0.000000
     2  C    1.532114   0.000000
     3  H    2.183501   1.093152   0.000000
     4  H    1.127058   2.195743   3.115080   0.000000
     5  H    1.177617   2.221560   2.631017   1.791026   0.000000
     6  H    1.107174   2.221127   2.543108   1.835921   1.874902
     7  H    2.172063   1.095659   1.783880   2.507706   3.135987
     8  H    2.156135   1.096192   1.782241   2.523737   2.455783
                    6          7          8
     6  H    0.000000
     7  H    2.622746   0.000000
     8  H    3.104992   1.768990   0.000000
 Stoichiometry    C2H6
 Framework group  C1[X(C2H6)]
 Deg. of freedom    18
 Full point group                 C1      NOp   1
 Largest Abelian subgroup         C1      NOp   1
 Largest concise Abelian subgroup C1      NOp   1
                         Standard orientation:                         
 ---------------------------------------------------------------------
 Center     Atomic      Atomic             Coordinates (Angstroms)
 Number     Number       Type             X           Y           Z
 ---------------------------------------------------------------------
      1          6           0        0.760855   -0.025642    0.002216
      2          6           0       -0.771060   -0.001681   -0.003797
      3          1           0       -1.174369   -0.446852   -0.917113
      4          1           0        1.156596    0.400818    0.967504
      5          1           0        1.168060    0.744438   -0.790213
      6          1           0        1.189837   -1.029349   -0.183202
      7          1           0       -1.164799   -0.542073    0.864197
      8          1           0       -1.114095    1.036954    0.068315
 ---------------------------------------------------------------------
 Rotational constants (GHZ):          76.7171459          19.8563283          19.7292149
 Leave Link  202 at Fri Sep 22 16:29:36 2023, MaxMem=   268435456 cpu:               0.1 elap:               0.0
 (Enter /share/apps/gaussian/g16/l301.exe)
 General basis read from cards:  (5D, 7F)
 Centers:       3      4      5      6      7      8
 S 3 1.00
     Exponent=  1.2251800000D+01 Coefficients=  2.3337100000D-02
     Exponent=  1.8687100000D+00 Coefficients=  1.5915000000D-01
     Exponent=  4.1820800000D-01 Coefficients=  5.0000000000D-01
 S 1 1.00
     Exponent=  1.0610000000D-01 Coefficients=  1.0000000000D+00
 P 1 1.00
     Exponent=  1.0000000000D+00 Coefficients=  1.0000000000D+00
 ****
 Centers:       1      2
 S 5 1.00
     Exponent=  1.2432000000D+03 Coefficients=  6.0336600000D-03
     Exponent=  1.8714500000D+02 Coefficients=  4.4957600000D-02
     Exponent=  4.2512600000D+01 Coefficients=  1.9790100000D-01
     Exponent=  1.1739300000D+01 Coefficients=  5.0000000000D-01
     Exponent=  3.5054800000D+00 Coefficients=  4.8036400000D-01
 S 2 1.00
     Exponent=  5.3908900000D+00 Coefficients= -7.0398000000D-02
     Exponent=  4.9334100000D-01 Coefficients=  5.0000000000D-01
 S 1 1.00
     Exponent=  1.4974100000D-01 Coefficients=  1.0000000000D+00
 P 3 1.00
     Exponent=  9.1805600000D+00 Coefficients=  4.3170100000D-02
     Exponent=  1.9365800000D+00 Coefficients=  2.2499900000D-01
     Exponent=  5.2629600000D-01 Coefficients=  5.0000000000D-01
 P 1 1.00
     Exponent=  1.3631900000D-01 Coefficients=  1.0000000000D+00
 D 1 1.00
     Exponent=  8.0000000000D-01 Coefficients=  1.0000000000D+00
 ****
 Ernie: Thresh=  0.10000D-02 Tol=  0.10000D-05 Strict=F.
 There are    60 symmetry adapted cartesian basis functions of A   symmetry.
 There are    58 symmetry adapted basis functions of A   symmetry.
    58 basis functions,    94 primitive gaussians,    60 cartesian basis functions
     9 alpha electrons        9 beta electrons
       nuclear repulsion energy        41.7218775211 Hartrees.
 IExCor=  402 DFT=T Ex+Corr=B3LYP ExCW=0 ScaHFX=  0.200000
 ScaDFX=  0.800000  0.720000  1.000000  0.810000 ScalE2=  1.000000  1.000000
 IRadAn=      5 IRanWt=     -1 IRanGd=            0 ICorTp=0 IEmpDi=141
 NAtoms=    8 NActive=    8 NUniq=    8 SFac= 1.00D+00 NAtFMM=   60 NAOKFM=F Big=F
 Integral buffers will be    131072 words long.
 Raffenetti 2 integral format.
 Two-electron integral symmetry is turned on.
 R6Disp:  Grimme-D3(BJ) Dispersion energy=       -0.0053983557 Hartrees.
 Nuclear repulsion after empirical dispersion term =       41.7164791654 Hartrees.
 ------------------------------------------------------------------------------
 Polarizable Continuum Model (PCM)
 =================================
 Model                : C-PCM.
 Atomic radii         : UFF (Universal Force Field).
 Polarization charges : Total charges.
 Charge compensation  : None.
 Solution method      : On-the-fly selection.
 Cavity type          : Scaled VdW (van der Waals Surface) (Alpha=1.100).
 Cavity algorithm     : GePol (No added spheres)
                        Default sphere list used, NSphG=    8.
                        Lebedev-Laikov grids with approx.  5.0 points / Ang**2.
                        Smoothing algorithm: York/Karplus (Gamma=1.0000).
                        Polarization charges: spherical gaussians, with
                                              point-specific exponents (IZeta= 3).
                        Self-potential: point-specific (ISelfS= 7).
                        Self-field    : sphere-specific E.n sum rule (ISelfD= 2).
 Solvent              : Toluene, Eps=   2.374100 Eps(inf)=   2.238315
 ------------------------------------------------------------------------------
 Spheres list:
 ISph  on   Nord     Re0    Alpha      Xe            Ye            Ze
    1   C      1    1.9255  1.100      0.760855     -0.025642      0.002216
    2   C      2    1.9255  1.100     -0.771060     -0.001681     -0.003797
    3   H      3    1.4430  1.100     -1.174369     -0.446852     -0.917113
    4   H      4    1.4430  1.100      1.156596      0.400818      0.967504
    5   H      5    1.4430  1.100      1.168060      0.744438     -0.790213
    6   H      6    1.4430  1.100      1.189837     -1.029349     -0.183202
    7   H      7    1.4430  1.100     -1.164799     -0.542073      0.864197
    8   H      8    1.4430  1.100     -1.114095      1.036954      0.068315
 ------------------------------------------------------------------------------
 GePol: Number of generator spheres                  =       8
 GePol: Total number of spheres                      =       8
 GePol: Number of exposed spheres                    =       8 (100.00%)
 GePol: Number of points                             =     709
 GePol: Average weight of points                     =       0.14
 GePol: Minimum weight of points                     =   0.10D-07
 GePol: Maximum weight of points                     =    0.20577
 GePol: Number of points with low weight             =      31
 GePol: Fraction of low-weight points (<1% of avg)   =       4.37%
 GePol: Cavity surface area                          =     97.467 Ang**2
 GePol: Cavity volume                                =     78.842 Ang**3
 Leave Link  301 at Fri Sep 22 16:29:36 2023, MaxMem=   268435456 cpu:               0.3 elap:               0.1
 (Enter /share/apps/gaussian/g16/l302.exe)
 NPDir=0 NMtPBC=     1 NCelOv=     1 NCel=       1 NClECP=     1 NCelD=      1
         NCelK=      1 NCelE2=     1 NClLst=     1 CellRange=     0.0.
 One-electron integrals computed using PRISM.
 One-electron integral symmetry used in STVInt
 NBasis=    58 RedAO= T EigKep=  9.03D-03  NBF=    58
 NBsUse=    58 1.00D-06 EigRej= -1.00D+00 NBFU=    58
 Precomputing XC quadrature grid using
 IXCGrd= 4 IRadAn=           5 IRanWt=          -1 IRanGd=           0 AccXCQ= 0.00D+00.
 Generated NRdTot=       0 NPtTot=           0 NUsed=           0 NTot=          32
 NSgBfM=    60    60    60    60    60 MxSgAt=     8 MxSgA2=     8.
 Leave Link  302 at Fri Sep 22 16:29:37 2023, MaxMem=   268435456 cpu:               0.3 elap:               0.2
 (Enter /share/apps/gaussian/g16/l303.exe)
 DipDrv:  MaxL=1.
 Leave Link  303 at Fri Sep 22 16:29:37 2023, MaxMem=   268435456 cpu:               0.1 elap:               0.1
 (Enter /share/apps/gaussian/g16/l401.exe)
 ExpMin= 1.06D-01 ExpMax= 1.24D+03 ExpMxC= 1.87D+02 IAcc=3 IRadAn=         5 AccDes= 0.00D+00
 Harris functional with IExCor=  402 and IRadAn=       5 diagonalized for initial guess.
 HarFok:  IExCor=  402 AccDes= 0.00D+00 IRadAn=         5 IDoV= 1 UseB2=F ITyADJ=14
 ICtDFT=  3500011 ScaDFX=  1.000000  1.000000  1.000000  1.000000
 FoFCou: FMM=F IPFlag=           0 FMFlag=      100000 FMFlg1=           0
         NFxFlg=           0 DoJE=T BraDBF=F KetDBF=T FulRan=T
         wScrn=  0.000000 ICntrl=       500 IOpCl=  0 I1Cent=   200000004 NGrid=           0
         NMat0=    1 NMatS0=      1 NMatT0=    0 NMatD0=    1 NMtDS0=    0 NMtDT0=    0
 Petite list used in FoFCou.
 Harris En= -79.8557666592836    
 JPrj=0 DoOrth=F DoCkMO=F.
 Leave Link  401 at Fri Sep 22 16:29:37 2023, MaxMem=   268435456 cpu:               1.3 elap:               0.6
 (Enter /share/apps/gaussian/g16/l502.exe)
 Keep R1 ints in memory in canonical form, NReq=3233002.
 FoFCou: FMM=F IPFlag=           0 FMFlag=           0 FMFlg1=           0
         NFxFlg=           0 DoJE=F BraDBF=F KetDBF=F FulRan=T
         wScrn=  0.000000 ICntrl=       600 IOpCl=  0 I1Cent=           0 NGrid=           0
         NMat0=    1 NMatS0=   1711 NMatT0=    0 NMatD0=    1 NMtDS0=    0 NMtDT0=    0
 Symmetry not used in FoFCou.
 Two-electron integral symmetry not used.
 Closed shell SCF:
 Using DIIS extrapolation, IDIIS=  1040.
 NGot=   268435456 LenX=   266962412 LenY=   266958371
 Requested convergence on RMS density matrix=1.00D-08 within 128 cycles.
 Requested convergence on MAX density matrix=1.00D-06.
 Requested convergence on             energy=1.00D-06.
 No special actions if energy rises.

 Cycle   1  Pass 1  IDiag  1:
 Inv3:  Mode=1 IEnd=     1508043.
 Iteration    1 A*A^-1 deviation from unit magnitude is 2.44D-15 for    696.
 Iteration    1 A*A^-1 deviation from orthogonality  is 1.28D-15 for    560    143.
 Iteration    1 A^-1*A deviation from unit magnitude is 2.66D-15 for    696.
 Iteration    1 A^-1*A deviation from orthogonality  is 9.64D-16 for    695    294.
 E= -79.7002049033897    
 DIIS: error= 4.04D-02 at cycle   1 NSaved=   1.
 NSaved= 1 IEnMin= 1 EnMin= -79.7002049033897     IErMin= 1 ErrMin= 4.04D-02
 ErrMax= 4.04D-02  0.00D+00 EMaxC= 1.00D-01 BMatC= 9.97D-02 BMatP= 9.97D-02
 IDIUse=3 WtCom= 5.96D-01 WtEn= 4.04D-01
 Coeff-Com:  0.100D+01
 Coeff-En:   0.100D+01
 Coeff:      0.100D+01
 Gap=     0.318 Goal=   None    Shift=    0.000
 GapD=    0.318 DampG=1.000 DampE=0.500 DampFc=0.5000 IDamp=-1.
 Damping current iteration by 5.00D-01
 RMSDP=1.10D-02 MaxDP=1.38D-01              OVMax= 1.92D-01

 Cycle   2  Pass 1  IDiag  1:
 E= -79.7492699173484     Delta-E=       -0.049065013959 Rises=F Damp=T
 DIIS: error= 8.97D-03 at cycle   2 NSaved=   2.
 NSaved= 2 IEnMin= 2 EnMin= -79.7492699173484     IErMin= 2 ErrMin= 8.97D-03
 ErrMax= 8.97D-03  0.00D+00 EMaxC= 1.00D-01 BMatC= 3.46D-03 BMatP= 9.97D-02
 IDIUse=3 WtCom= 9.10D-01 WtEn= 8.97D-02
 Coeff-Com:  0.115D+00 0.885D+00
 Coeff-En:   0.186D+00 0.814D+00
 Coeff:      0.121D+00 0.879D+00
 Gap=     0.414 Goal=   None    Shift=    0.000
 RMSDP=1.40D-03 MaxDP=1.19D-02 DE=-4.91D-02 OVMax= 1.03D-01

 Cycle   3  Pass 1  IDiag  1:
 E= -79.8171610558157     Delta-E=       -0.067891138467 Rises=F Damp=F
 DIIS: error= 1.62D-03 at cycle   3 NSaved=   3.
 NSaved= 3 IEnMin= 3 EnMin= -79.8171610558157     IErMin= 3 ErrMin= 1.62D-03
 ErrMax= 1.62D-03  0.00D+00 EMaxC= 1.00D-01 BMatC= 1.43D-04 BMatP= 3.46D-03
 IDIUse=3 WtCom= 9.84D-01 WtEn= 1.62D-02
 Coeff-Com:  0.176D-01 0.143D+00 0.840D+00
 Coeff-En:   0.000D+00 0.000D+00 0.100D+01
 Coeff:      0.173D-01 0.140D+00 0.842D+00
 Gap=     0.381 Goal=   None    Shift=    0.000
 RMSDP=2.17D-04 MaxDP=2.68D-03 DE=-6.79D-02 OVMax= 4.79D-03

 Cycle   4  Pass 1  IDiag  1:
 E= -79.8172721023486     Delta-E=       -0.000111046533 Rises=F Damp=F
 DIIS: error= 5.72D-04 at cycle   4 NSaved=   4.
 NSaved= 4 IEnMin= 4 EnMin= -79.8172721023486     IErMin= 4 ErrMin= 5.72D-04
 ErrMax= 5.72D-04  0.00D+00 EMaxC= 1.00D-01 BMatC= 2.26D-05 BMatP= 1.43D-04
 IDIUse=3 WtCom= 9.94D-01 WtEn= 5.72D-03
 Coeff-Com:  0.206D-02 0.967D-02 0.269D+00 0.719D+00
 Coeff-En:   0.000D+00 0.000D+00 0.000D+00 0.100D+01
 Coeff:      0.205D-02 0.961D-02 0.267D+00 0.721D+00
 Gap=     0.381 Goal=   None    Shift=    0.000
 RMSDP=8.70D-05 MaxDP=1.59D-03 DE=-1.11D-04 OVMax= 2.15D-03

 Cycle   5  Pass 1  IDiag  1:
 E= -79.8172891237123     Delta-E=       -0.000017021364 Rises=F Damp=F
 DIIS: error= 2.85D-04 at cycle   5 NSaved=   5.
 NSaved= 5 IEnMin= 5 EnMin= -79.8172891237123     IErMin= 5 ErrMin= 2.85D-04
 ErrMax= 2.85D-04  0.00D+00 EMaxC= 1.00D-01 BMatC= 5.30D-06 BMatP= 2.26D-05
 IDIUse=3 WtCom= 9.97D-01 WtEn= 2.85D-03
 Coeff-Com: -0.428D-04-0.542D-02 0.750D-01 0.377D+00 0.553D+00
 Coeff-En:   0.000D+00 0.000D+00 0.000D+00 0.152D+00 0.848D+00
 Coeff:     -0.427D-04-0.540D-02 0.748D-01 0.376D+00 0.554D+00
 Gap=     0.381 Goal=   None    Shift=    0.000
 RMSDP=3.03D-05 MaxDP=5.23D-04 DE=-1.70D-05 OVMax= 7.26D-04

 Cycle   6  Pass 1  IDiag  1:
 E= -79.8172944238472     Delta-E=       -0.000005300135 Rises=F Damp=F
 DIIS: error= 6.88D-06 at cycle   6 NSaved=   6.
 NSaved= 6 IEnMin= 6 EnMin= -79.8172944238472     IErMin= 6 ErrMin= 6.88D-06
 ErrMax= 6.88D-06  0.00D+00 EMaxC= 1.00D-01 BMatC= 1.99D-09 BMatP= 5.30D-06
 IDIUse=1 WtCom= 1.00D+00 WtEn= 0.00D+00
 Coeff-Com:  0.829D-04-0.246D-05-0.323D-02-0.121D-01-0.494D-02 0.102D+01
 Coeff:      0.829D-04-0.246D-05-0.323D-02-0.121D-01-0.494D-02 0.102D+01
 Gap=     0.381 Goal=   None    Shift=    0.000
 RMSDP=8.72D-07 MaxDP=1.71D-05 DE=-5.30D-06 OVMax= 2.12D-05

 Cycle   7  Pass 1  IDiag  1:
 E= -79.8172944261372     Delta-E=       -0.000000002290 Rises=F Damp=F
 DIIS: error= 5.86D-07 at cycle   7 NSaved=   7.
 NSaved= 7 IEnMin= 7 EnMin= -79.8172944261372     IErMin= 7 ErrMin= 5.86D-07
 ErrMax= 5.86D-07  0.00D+00 EMaxC= 1.00D-01 BMatC= 2.62D-11 BMatP= 1.99D-09
 IDIUse=1 WtCom= 1.00D+00 WtEn= 0.00D+00
 Coeff-Com:  0.119D-04 0.231D-04-0.951D-03-0.402D-02-0.325D-02 0.181D+00
 Coeff-Com:  0.827D+00
 Coeff:      0.119D-04 0.231D-04-0.951D-03-0.402D-02-0.325D-02 0.181D+00
 Coeff:      0.827D+00
 Gap=     0.381 Goal=   None    Shift=    0.000
 RMSDP=1.24D-07 MaxDP=1.45D-06 DE=-2.29D-09 OVMax= 2.07D-06

 Cycle   8  Pass 1  IDiag  1:
 E= -79.8172944261674     Delta-E=       -0.000000000030 Rises=F Damp=F
 DIIS: error= 1.26D-07 at cycle   8 NSaved=   8.
 NSaved= 8 IEnMin= 8 EnMin= -79.8172944261674     IErMin= 8 ErrMin= 1.26D-07
 ErrMax= 1.26D-07  0.00D+00 EMaxC= 1.00D-01 BMatC= 1.31D-12 BMatP= 2.62D-11
 IDIUse=1 WtCom= 1.00D+00 WtEn= 0.00D+00
 Coeff-Com: -0.198D-05 0.332D-05-0.414D-04-0.226D-03-0.316D-03-0.712D-02
 Coeff-Com:  0.170D+00 0.838D+00
 Coeff:     -0.198D-05 0.332D-05-0.414D-04-0.226D-03-0.316D-03-0.712D-02
 Coeff:      0.170D+00 0.838D+00
 Gap=     0.381 Goal=   None    Shift=    0.000
 RMSDP=2.40D-08 MaxDP=2.43D-07 DE=-3.03D-11 OVMax= 3.85D-07

 Cycle   9  Pass 1  IDiag  1:
 E= -79.8172944261688     Delta-E=       -0.000000000001 Rises=F Damp=F
 DIIS: error= 9.18D-09 at cycle   9 NSaved=   9.
 NSaved= 9 IEnMin= 9 EnMin= -79.8172944261688     IErMin= 9 ErrMin= 9.18D-09
 ErrMax= 9.18D-09  0.00D+00 EMaxC= 1.00D-01 BMatC= 5.16D-15 BMatP= 1.31D-12
 IDIUse=1 WtCom= 1.00D+00 WtEn= 0.00D+00
 Coeff-Com: -0.338D-06 0.238D-06 0.319D-05 0.376D-05-0.231D-04-0.257D-02
 Coeff-Com:  0.136D-01 0.101D+00 0.888D+00
 Coeff:     -0.338D-06 0.238D-06 0.319D-05 0.376D-05-0.231D-04-0.257D-02
 Coeff:      0.136D-01 0.101D+00 0.888D+00
 Gap=     0.381 Goal=   None    Shift=    0.000
 RMSDP=2.15D-09 MaxDP=1.98D-08 DE=-1.34D-12 OVMax= 3.47D-08

 Error on total polarization charges =  0.00548
 SCF Done:  E(RB3LYP) =  -79.8172944262     A.U. after    9 cycles
            NFock=  9  Conv=0.21D-08     -V/T= 2.0093
 KE= 7.907813762142D+01 PE=-2.672970946107D+02 EE= 6.668518339769D+01
 Leave Link  502 at Fri Sep 22 16:29:44 2023, MaxMem=   268435456 cpu:              12.7 elap:               6.4
 (Enter /share/apps/gaussian/g16/l601.exe)
 Copying SCF densities to generalized density rwf, IOpCl= 0 IROHF=0.

 **********************************************************************

            Population analysis using the SCF density.

 **********************************************************************

 Orbital symmetries:
       Occupied  (A) (A) (A) (A) (A) (A) (A) (A) (A)
       Virtual   (A) (A) (A) (A) (A) (A) (A) (A) (A) (A) (A) (A)
                 (A) (A) (A) (A) (A) (A) (A) (A) (A) (A) (A) (A)
                 (A) (A) (A) (A) (A) (A) (A) (A) (A) (A) (A) (A)
                 (A) (A) (A) (A) (A) (A) (A) (A) (A) (A) (A) (A)
                 (A)
 The electronic state is 1-A.
 Alpha  occ. eigenvalues --  -10.17690 -10.16624  -0.75113  -0.60936  -0.43931
 Alpha  occ. eigenvalues --   -0.42899  -0.36817  -0.34878  -0.33393
 Alpha virt. eigenvalues --    0.04739   0.08917   0.09936   0.10362   0.13396
 Alpha virt. eigenvalues --    0.13949   0.21316   0.37356   0.38291   0.39399
 Alpha virt. eigenvalues --    0.46410   0.48258   0.58058   0.60765   0.63345
 Alpha virt. eigenvalues --    0.64521   0.64793   0.65084   0.68565   0.93697
 Alpha virt. eigenvalues --    1.22442   1.26668   1.27237   1.57146   1.58909
 Alpha virt. eigenvalues --    1.75214   1.81581   1.86531   1.86820   1.89777
 Alpha virt. eigenvalues --    1.90370   1.91538   2.06734   2.08277   2.09181
 Alpha virt. eigenvalues --    2.26205   2.29211   2.46425   2.56889   2.58330
 Alpha virt. eigenvalues --    2.60278   2.74428   2.75416   2.90387   3.05504
 Alpha virt. eigenvalues --    3.13595   3.18285   3.27702   3.28203
          Condensed to atoms (all electrons):
               1          2          3          4          5          6
     1  C    4.813942   0.400283  -0.032883   0.394178   0.388487   0.398390
     2  C    0.400283   4.741829   0.401017  -0.032758  -0.036080  -0.032029
     3  H   -0.032883   0.401017   0.598108   0.009443  -0.005684  -0.007625
     4  H    0.394178  -0.032758   0.009443   0.612838  -0.032704  -0.025113
     5  H    0.388487  -0.036080  -0.005684  -0.032704   0.622717  -0.024054
     6  H    0.398390  -0.032029  -0.007625  -0.025113  -0.024054   0.588053
     7  H   -0.034563   0.399982  -0.026546  -0.009412   0.009763  -0.004331
     8  H   -0.032082   0.400061  -0.025617  -0.005625  -0.009829   0.009020
               7          8
     1  C   -0.034563  -0.032082
     2  C    0.399982   0.400061
     3  H   -0.026546  -0.025617
     4  H   -0.009412  -0.005625
     5  H    0.009763  -0.009829
     6  H   -0.004331   0.009020
     7  H    0.604588  -0.026887
     8  H   -0.026887   0.604321
 Mulliken charges:
               1
     1  C   -0.295753
     2  C   -0.242306
     3  H    0.089788
     4  H    0.089153
     5  H    0.087384
     6  H    0.097689
     7  H    0.087406
     8  H    0.086638
 Sum of Mulliken charges =  -0.00000
 Mulliken charges with hydrogens summed into heavy atoms:
               1
     1  C   -0.021527
     2  C    0.021527
 Electronic spatial extent (au):  <R**2>=            111.7407
 Charge=             -0.0000 electrons
 Dipole moment (field-independent basis, Debye):
    X=             -0.0671    Y=              0.0165    Z=              0.0489  Tot=              0.0847
 Quadrupole moment (field-independent basis, Debye-Ang):
   XX=            -16.0453   YY=            -14.9242   ZZ=            -15.2427
   XY=             -0.0145   XZ=              0.0632   YZ=              0.0984
 Traceless Quadrupole moment (field-independent basis, Debye-Ang):
   XX=             -0.6413   YY=              0.4799   ZZ=              0.1613
   XY=             -0.0145   XZ=              0.0632   YZ=              0.0984
 Octapole moment (field-independent basis, Debye-Ang**2):
  XXX=             -0.4951  YYY=              0.0003  ZZZ=              0.3272  XYY=              0.0994
  XXY=             -0.1207  XXZ=              0.0823  XZZ=             -0.4208  YZZ=             -0.0519
  YYZ=             -0.1473  XYZ=              0.0545
 Hexadecapole moment (field-independent basis, Debye-Ang**3):
 XXXX=            -98.6073 YYYY=            -31.2578 ZZZZ=            -31.4821 XXXY=             -0.1928
 XXXZ=              0.2916 YYYX=             -1.3364 YYYZ=              0.1802 ZZZX=              0.6264
 ZZZY=              0.2331 XXYY=            -20.3777 XXZZ=            -20.7358 YYZZ=            -10.4010
 XXYZ=              0.2016 YYXZ=             -0.3990 ZZXY=              1.1233
 N-N= 4.171647916542D+01 E-N=-2.672970946483D+02  KE= 7.907813762142D+01
 There are a total of      177360 grid points.
 ElSum from          density=       17.9999995920
 ElSum from atomic densities=       17.9999992216
 Hirshfeld populations at iteration   1 (CA, CB, DipXYZ):
               1          2          3          4          5
     1  C    3.035571   3.035571  -0.047920  -0.017272   0.002997
     2  C    3.039957   3.039957   0.030206  -0.004707  -0.001424
     3  H    0.486476   0.486476  -0.045091  -0.056423  -0.114334
     4  H    0.488513   0.488513   0.038505   0.056878   0.111951
     5  H    0.489586   0.489586   0.034168   0.090318  -0.077241
     6  H    0.486441   0.486441   0.044912  -0.128778  -0.022158
     7  H    0.487116   0.487116  -0.042372  -0.065100   0.108381
     8  H    0.486340   0.486340  -0.035868   0.129625   0.010549
       Tot   9.000000   9.000000  -0.023459   0.004540   0.018721

 Dip from Atomic Chgs             -0.002945   0.001953   0.000519
         Total Dipole             -0.026405   0.006494   0.019240

 Hirshfeld charges, spin densities, dipoles, and CM5 charges using IRadAn=      5:
              Q-H        S-H        Dx         Dy         Dz        Q-CM5   
     1  C   -0.071142   0.000000  -0.047920  -0.017272   0.002997  -0.208885
     2  C   -0.079914   0.000000   0.030206  -0.004707  -0.001424  -0.230398
     3  H    0.027048   0.000000  -0.045091  -0.056423  -0.114334   0.077647
     4  H    0.022974   0.000000   0.038505   0.056878   0.111951   0.069663
     5  H    0.020829   0.000000   0.034168   0.090318  -0.077241   0.062201
     6  H    0.027118   0.000000   0.044912  -0.128778  -0.022158   0.075817
     7  H    0.025768   0.000000  -0.042372  -0.065100   0.108381   0.076166
     8  H    0.027320   0.000000  -0.035868   0.129625   0.010549   0.077788
       Tot   0.000000   0.000000  -0.023459   0.004540   0.018721   0.000000
 Hirshfeld charges with hydrogens summed into heavy atoms:
              Q-H       Q-CM5   
     1  C   -0.000221  -0.001203
     2  C    0.000221   0.001203
 
 EQQ= 0.000000000000E+00 EQD= 0.000000000000E+00 EDD=-0.177783634436E-02
 EQQ+QD+DD=-0.177783634436E-02
 
 No NMR shielding tensors so no spin-rotation constants.
 Leave Link  601 at Fri Sep 22 16:29:44 2023, MaxMem=   268435456 cpu:               1.0 elap:               0.5
 (Enter /share/apps/gaussian/g16/l9999.exe)
 1\1\GINC-NODE99\SP\RB3LYP\Gen\C2H6\YANZ\22-Sep-2023\0\\#p b3lyp/gen sc
 rf=(cpcm,solvent=toluene) pop=hirshfeld empiricaldispersion=gd3bj\\tmp
 dir/M2_ref_195.gjf\\0,1\C,0,4.827158,0.960475,-1.32507205\C,0,4.994753
 ,0.663539,-2.81876397\H,0,4.063375,0.300653,-3.26129198\H,0,5.78544408
 ,1.37027121,-0.89610295\H,0,4.70856152,-0.05175861,-0.73507173\H,0,3.9
 8042348,1.63715277,-1.09928181\H,0,5.320308,1.563184,-3.35273099\H,0,5
 .771855,-0.098686,-2.94823098\\Version=ES64L-G16RevA.03\State=1-A\HF=-
 79.8172944\RMSD=2.146e-09\Dipole=0.0212656,0.0034448,-0.0254054\Quadru
 pole=0.2841764,0.1672492,-0.4514255,-0.1079328,0.1274204,-0.0896058\PG
 =C01 [X(C2H6)]\\@


 HEAVEN'S NET CASTS WIDE.
 THOUGH ITS MESHES ARE COARSE, NOTHING SLIPS THROUGH.

                                          -- LAO-TSU
 Job cpu time:       0 days  0 hours  0 minutes 16.1 seconds.
 Elapsed time:       0 days  0 hours  0 minutes  8.2 seconds.
 File lengths (MBytes):  RWF=     11 Int=      0 D2E=      0 Chk=      2 Scr=      1
 Normal termination of Gaussian 16 at Fri Sep 22 16:29:44 2023.
