 Entering Gaussian System, Link 0=g16
 Initial command:
 /share/apps/gaussian/g16/l1.exe "/tmp/55556.mgr/Gau-82959.inp" -scrdir="/tmp/55556.mgr/"
 Entering Link 1 = /share/apps/gaussian/g16/l1.exe PID=     82960.
  
 Copyright (c) 1988,1990,1992,1993,1995,1998,2003,2009,2016,
            Gaussian, Inc.  All Rights Reserved.
  
 This is part of the Gaussian(R) 16 program.  It is based on
 the Gaussian(R) 09 system (copyright 2009, Gaussian, Inc.),
 the Gaussian(R) 03 system (copyright 2003, Gaussian, Inc.),
 the Gaussian(R) 98 system (copyright 1998, Gaussian, Inc.),
 the Gaussian(R) 94 system (copyright 1995, Gaussian, Inc.),
 the Gaussian 92(TM) system (copyright 1992, Gaussian, Inc.),
 the Gaussian 90(TM) system (copyright 1990, Gaussian, Inc.),
 the Gaussian 88(TM) system (copyright 1988, Gaussian, Inc.),
 the Gaussian 86(TM) system (copyright 1986, Carnegie Mellon
 University), and the Gaussian 82(TM) system (copyright 1983,
 Carnegie Mellon University). Gaussian is a federally registered
 trademark of Gaussian, Inc.
  
 This software contains proprietary and confidential information,
 including trade secrets, belonging to Gaussian, Inc.
  
 This software is provided under written license and may be
 used, copied, transmitted, or stored only in accord with that
 written license.
  
 The following legend is applicable only to US Government
 contracts under FAR:
  
                    RESTRICTED RIGHTS LEGEND
  
 Use, reproduction and disclosure by the US Government is
 subject to restrictions as set forth in subparagraphs (a)
 and (c) of the Commercial Computer Software - Restricted
 Rights clause in FAR 52.227-19.
  
 Gaussian, Inc.
 340 Quinnipiac St., Bldg. 40, Wallingford CT 06492
  
  
 ---------------------------------------------------------------
 Warning -- This program may not be used in any manner that
 competes with the business of Gaussian, Inc. or will provide
 assistance to any competitor of Gaussian, Inc.  The licensee
 of this program is prohibited from giving any competitor of
 Gaussian, Inc. access to this program.  By using this program,
 the user acknowledges that Gaussian, Inc. is engaged in the
 business of creating and licensing software in the field of
 computational chemistry and represents and warrants to the
 licensee that it is not a competitor of Gaussian, Inc. and that
 it will not use this program in any manner prohibited above.
 ---------------------------------------------------------------
  

 Cite this work as:
 Gaussian 16, Revision A.03,
 M. J. Frisch, G. W. Trucks, H. B. Schlegel, G. E. Scuseria, 
 M. A. Robb, J. R. Cheeseman, G. Scalmani, V. Barone, 
 G. A. Petersson, H. Nakatsuji, X. Li, M. Caricato, A. V. Marenich, 
 J. Bloino, B. G. Janesko, R. Gomperts, B. Mennucci, H. P. Hratchian, 
 J. V. Ortiz, A. F. Izmaylov, J. L. Sonnenberg, D. Williams-Young, 
 F. Ding, F. Lipparini, F. Egidi, J. Goings, B. Peng, A. Petrone, 
 T. Henderson, D. Ranasinghe, V. G. Zakrzewski, J. Gao, N. Rega, 
 G. Zheng, W. Liang, M. Hada, M. Ehara, K. Toyota, R. Fukuda, 
 J. Hasegawa, M. Ishida, T. Nakajima, Y. Honda, O. Kitao, H. Nakai, 
 T. Vreven, K. Throssell, J. A. Montgomery, Jr., J. E. Peralta, 
 F. Ogliaro, M. J. Bearpark, J. J. Heyd, E. N. Brothers, K. N. Kudin, 
 V. N. Staroverov, T. A. Keith, R. Kobayashi, J. Normand, 
 K. Raghavachari, A. P. Rendell, J. C. Burant, S. S. Iyengar, 
 J. Tomasi, M. Cossi, J. M. Millam, M. Klene, C. Adamo, R. Cammi, 
 J. W. Ochterski, R. L. Martin, K. Morokuma, O. Farkas, 
 J. B. Foresman, and D. J. Fox, Gaussian, Inc., Wallingford CT, 2016.
 
 ******************************************
 Gaussian 16:  ES64L-G16RevA.03 25-Dec-2016
                22-Sep-2023 
 ******************************************
 %nprocshared=2
 Will use up to    2 processors via shared memory.
 %mem=2GB
 ----------------------------------------------------------------------
 #p b3lyp/gen scrf=(cpcm,solvent=toluene) pop=hirshfeld empiricaldisper
 sion=gd3bj
 ----------------------------------------------------------------------
 1/38=1,172=1/1;
 2/12=2,17=6,18=5,40=1/2;
 3/5=7,11=2,25=1,30=1,70=2101,72=13,74=-5,124=41/1,2,3;
 4//1;
 5/5=2,38=5,53=13/2;
 6/7=2,8=2,9=2,10=2,28=1,79=1/1;
 99/5=1,9=1/99;
 Leave Link    1 at Fri Sep 22 16:31:41 2023, MaxMem=   268435456 cpu:               0.1 elap:               0.1
 (Enter /share/apps/gaussian/g16/l101.exe)
 ---------------------
 tmpdir/M2_ref_390.gjf
 ---------------------
 Symbolic Z-matrix:
 Charge =  0 Multiplicity = 1
 C                     2.12485   3.6791   -1.67328 
 C                     1.5704    4.52966  -2.6678 
 H                     1.93209   4.44613  -3.69195 
 O                     3.02278   2.84897  -1.93845 
 H                     1.77422   3.74977  -0.70161 
 O                     0.7084    5.33535  -2.38345 
 
 ITRead=  0  0  0  0  0  0
 MicOpt= -1 -1 -1 -1 -1 -1
 NAtoms=      6 NQM=        6 NQMF=       0 NMMI=      0 NMMIF=      0
                NMic=       0 NMicF=      0.
                    Isotopes and Nuclear Properties:
 (Nuclear quadrupole moments (NQMom) in fm**2, nuclear magnetic moments (NMagM)
  in nuclear magnetons)

  Atom         1           2           3           4           5           6
 IAtWgt=          12          12           1          16           1          16
 AtmWgt=  12.0000000  12.0000000   1.0078250  15.9949146   1.0078250  15.9949146
 NucSpn=           0           0           1           0           1           0
 AtZEff=  -0.0000000  -0.0000000  -0.0000000  -0.0000000  -0.0000000  -0.0000000
 NQMom=    0.0000000   0.0000000   0.0000000   0.0000000   0.0000000   0.0000000
 NMagM=    0.0000000   0.0000000   2.7928460   0.0000000   2.7928460   0.0000000
 AtZNuc=   6.0000000   6.0000000   1.0000000   8.0000000   1.0000000   8.0000000
 Leave Link  101 at Fri Sep 22 16:31:41 2023, MaxMem=   268435456 cpu:               0.2 elap:               0.1
 (Enter /share/apps/gaussian/g16/l202.exe)
                          Input orientation:                          
 ---------------------------------------------------------------------
 Center     Atomic      Atomic             Coordinates (Angstroms)
 Number     Number       Type             X           Y           Z
 ---------------------------------------------------------------------
      1          6           0        2.124849    3.679104   -1.673284
      2          6           0        1.570398    4.529661   -2.667798
      3          1           0        1.932092    4.446134   -3.691949
      4          8           0        3.022785    2.848968   -1.938445
      5          1           0        1.774220    3.749767   -0.701605
      6          8           0        0.708401    5.335348   -2.383448
 ---------------------------------------------------------------------
                    Distance matrix (angstroms):
                    1          2          3          4          5
     1  C    0.000000
     2  C    1.421239   0.000000
     3  H    2.168063   1.089350   0.000000
     4  O    1.251289   2.337972   2.610618   0.000000
     5  H    1.035420   2.125016   3.074411   1.974873   0.000000
     6  O    2.292117   1.213683   2.000074   3.425855   2.545315
                    6
     6  O    0.000000
 Stoichiometry    C2H2O2
 Framework group  C1[X(C2H2O2)]
 Deg. of freedom    12
 Full point group                 C1      NOp   1
 Largest Abelian subgroup         C1      NOp   1
 Largest concise Abelian subgroup C1      NOp   1
                         Standard orientation:                         
 ---------------------------------------------------------------------
 Center     Atomic      Atomic             Coordinates (Angstroms)
 Number     Number       Type             X           Y           Z
 ---------------------------------------------------------------------
      1          6           0       -0.585891   -0.383515    0.002987
      2          6           0        0.610427    0.383782    0.002726
      3          1           0        0.537679    1.470685    0.008545
      4          8           0       -1.716151    0.153326   -0.003207
      5          1           0       -0.518244   -1.416707    0.008587
      6          8           0        1.695320   -0.160274   -0.003219
 ---------------------------------------------------------------------
 Rotational constants (GHZ):          59.4686204           4.9422579           4.5630927
 Leave Link  202 at Fri Sep 22 16:31:41 2023, MaxMem=   268435456 cpu:               0.0 elap:               0.0
 (Enter /share/apps/gaussian/g16/l301.exe)
 General basis read from cards:  (5D, 7F)
 Centers:       3      5
 S 3 1.00
     Exponent=  1.2251800000D+01 Coefficients=  2.3337100000D-02
     Exponent=  1.8687100000D+00 Coefficients=  1.5915000000D-01
     Exponent=  4.1820800000D-01 Coefficients=  5.0000000000D-01
 S 1 1.00
     Exponent=  1.0610000000D-01 Coefficients=  1.0000000000D+00
 P 1 1.00
     Exponent=  1.0000000000D+00 Coefficients=  1.0000000000D+00
 ****
 Centers:       1      2
 S 5 1.00
     Exponent=  1.2432000000D+03 Coefficients=  6.0336600000D-03
     Exponent=  1.8714500000D+02 Coefficients=  4.4957600000D-02
     Exponent=  4.2512600000D+01 Coefficients=  1.9790100000D-01
     Exponent=  1.1739300000D+01 Coefficients=  5.0000000000D-01
     Exponent=  3.5054800000D+00 Coefficients=  4.8036400000D-01
 S 2 1.00
     Exponent=  5.3908900000D+00 Coefficients= -7.0398000000D-02
     Exponent=  4.9334100000D-01 Coefficients=  5.0000000000D-01
 S 1 1.00
     Exponent=  1.4974100000D-01 Coefficients=  1.0000000000D+00
 P 3 1.00
     Exponent=  9.1805600000D+00 Coefficients=  4.3170100000D-02
     Exponent=  1.9365800000D+00 Coefficients=  2.2499900000D-01
     Exponent=  5.2629600000D-01 Coefficients=  5.0000000000D-01
 P 1 1.00
     Exponent=  1.3631900000D-01 Coefficients=  1.0000000000D+00
 D 1 1.00
     Exponent=  8.0000000000D-01 Coefficients=  1.0000000000D+00
 ****
 Centers:       4      6
 S 5 1.00
     Exponent=  2.2886400000D+03 Coefficients=  5.8546800000D-03
     Exponent=  3.4441600000D+02 Coefficients=  4.3733300000D-02
     Exponent=  7.8253800000D+01 Coefficients=  1.9479600000D-01
     Exponent=  2.1719500000D+01 Coefficients=  5.0000000000D-01
     Exponent=  6.5590700000D+00 Coefficients=  4.8461400000D-01
 S 2 1.00
     Exponent=  1.0465600000D+01 Coefficients= -7.1334300000D-02
     Exponent=  9.6435100000D-01 Coefficients=  5.0000000000D-01
 S 1 1.00
     Exponent=  2.8512700000D-01 Coefficients=  1.0000000000D+00
 P 3 1.00
     Exponent=  1.7059000000D+01 Coefficients=  4.7443900000D-02
     Exponent=  3.6899900000D+00 Coefficients=  2.4268900000D-01
     Exponent=  9.9299600000D-01 Coefficients=  5.0000000000D-01
 P 1 1.00
     Exponent=  2.4492400000D-01 Coefficients=  1.0000000000D+00
 D 1 1.00
     Exponent=  1.0000000000D+00 Coefficients=  1.0000000000D+00
 ****
 Ernie: Thresh=  0.10000D-02 Tol=  0.10000D-05 Strict=F.
 There are    70 symmetry adapted cartesian basis functions of A   symmetry.
 There are    66 symmetry adapted basis functions of A   symmetry.
    66 basis functions,   118 primitive gaussians,    70 cartesian basis functions
    15 alpha electrons       15 beta electrons
       nuclear repulsion energy       103.1207327908 Hartrees.
 IExCor=  402 DFT=T Ex+Corr=B3LYP ExCW=0 ScaHFX=  0.200000
 ScaDFX=  0.800000  0.720000  1.000000  0.810000 ScalE2=  1.000000  1.000000
 IRadAn=      5 IRanWt=     -1 IRanGd=            0 ICorTp=0 IEmpDi=141
 NAtoms=    6 NActive=    6 NUniq=    6 SFac= 1.00D+00 NAtFMM=   60 NAOKFM=F Big=F
 Integral buffers will be    131072 words long.
 Raffenetti 2 integral format.
 Two-electron integral symmetry is turned on.
 R6Disp:  Grimme-D3(BJ) Dispersion energy=       -0.0053658385 Hartrees.
 Nuclear repulsion after empirical dispersion term =      103.1153669523 Hartrees.
 ------------------------------------------------------------------------------
 Polarizable Continuum Model (PCM)
 =================================
 Model                : C-PCM.
 Atomic radii         : UFF (Universal Force Field).
 Polarization charges : Total charges.
 Charge compensation  : None.
 Solution method      : On-the-fly selection.
 Cavity type          : Scaled VdW (van der Waals Surface) (Alpha=1.100).
 Cavity algorithm     : GePol (No added spheres)
                        Default sphere list used, NSphG=    6.
                        Lebedev-Laikov grids with approx.  5.0 points / Ang**2.
                        Smoothing algorithm: York/Karplus (Gamma=1.0000).
                        Polarization charges: spherical gaussians, with
                                              point-specific exponents (IZeta= 3).
                        Self-potential: point-specific (ISelfS= 7).
                        Self-field    : sphere-specific E.n sum rule (ISelfD= 2).
 Solvent              : Toluene, Eps=   2.374100 Eps(inf)=   2.238315
 ------------------------------------------------------------------------------
 Spheres list:
 ISph  on   Nord     Re0    Alpha      Xe            Ye            Ze
    1   C      1    1.9255  1.100     -0.585891     -0.383515      0.002987
    2   C      2    1.9255  1.100      0.610427      0.383782      0.002726
    3   H      3    1.4430  1.100      0.537679      1.470685      0.008545
    4   O      4    1.7500  1.100     -1.716151      0.153326     -0.003207
    5   H      5    1.4430  1.100     -0.518244     -1.416707      0.008587
    6   O      6    1.7500  1.100      1.695320     -0.160274     -0.003219
 ------------------------------------------------------------------------------
 GePol: Number of generator spheres                  =       6
 GePol: Total number of spheres                      =       6
 GePol: Number of exposed spheres                    =       6 (100.00%)
 GePol: Number of points                             =     751
 GePol: Average weight of points                     =       0.14
 GePol: Minimum weight of points                     =   0.21D-09
 GePol: Maximum weight of points                     =    0.20299
 GePol: Number of points with low weight             =      20
 GePol: Fraction of low-weight points (<1% of avg)   =       2.66%
 GePol: Cavity surface area                          =    102.670 Ang**2
 GePol: Cavity volume                                =     85.726 Ang**3
 Leave Link  301 at Fri Sep 22 16:31:41 2023, MaxMem=   268435456 cpu:               0.2 elap:               0.1
 (Enter /share/apps/gaussian/g16/l302.exe)
 NPDir=0 NMtPBC=     1 NCelOv=     1 NCel=       1 NClECP=     1 NCelD=      1
         NCelK=      1 NCelE2=     1 NClLst=     1 CellRange=     0.0.
 One-electron integrals computed using PRISM.
 One-electron integral symmetry used in STVInt
 NBasis=    66 RedAO= T EigKep=  4.04D-03  NBF=    66
 NBsUse=    66 1.00D-06 EigRej= -1.00D+00 NBFU=    66
 Precomputing XC quadrature grid using
 IXCGrd= 4 IRadAn=           5 IRanWt=          -1 IRanGd=           0 AccXCQ= 0.00D+00.
 Generated NRdTot=       0 NPtTot=           0 NUsed=           0 NTot=          32
 NSgBfM=    70    70    70    70    70 MxSgAt=     6 MxSgA2=     6.
 Leave Link  302 at Fri Sep 22 16:31:42 2023, MaxMem=   268435456 cpu:               0.3 elap:               0.2
 (Enter /share/apps/gaussian/g16/l303.exe)
 DipDrv:  MaxL=1.
 Leave Link  303 at Fri Sep 22 16:31:42 2023, MaxMem=   268435456 cpu:               0.1 elap:               0.0
 (Enter /share/apps/gaussian/g16/l401.exe)
 ExpMin= 1.06D-01 ExpMax= 2.29D+03 ExpMxC= 3.44D+02 IAcc=3 IRadAn=         5 AccDes= 0.00D+00
 Harris functional with IExCor=  402 and IRadAn=       5 diagonalized for initial guess.
 HarFok:  IExCor=  402 AccDes= 0.00D+00 IRadAn=         5 IDoV= 1 UseB2=F ITyADJ=14
 ICtDFT=  3500011 ScaDFX=  1.000000  1.000000  1.000000  1.000000
 FoFCou: FMM=F IPFlag=           0 FMFlag=      100000 FMFlg1=           0
         NFxFlg=           0 DoJE=T BraDBF=F KetDBF=T FulRan=T
         wScrn=  0.000000 ICntrl=       500 IOpCl=  0 I1Cent=   200000004 NGrid=           0
         NMat0=    1 NMatS0=      1 NMatT0=    0 NMatD0=    1 NMtDS0=    0 NMtDT0=    0
 Petite list used in FoFCou.
 Harris En= -227.785160700181    
 JPrj=0 DoOrth=F DoCkMO=F.
 Leave Link  401 at Fri Sep 22 16:31:42 2023, MaxMem=   268435456 cpu:               1.2 elap:               0.6
 (Enter /share/apps/gaussian/g16/l502.exe)
 Keep R1 ints in memory in canonical form, NReq=4230386.
 FoFCou: FMM=F IPFlag=           0 FMFlag=           0 FMFlg1=           0
         NFxFlg=           0 DoJE=F BraDBF=F KetDBF=F FulRan=T
         wScrn=  0.000000 ICntrl=       600 IOpCl=  0 I1Cent=           0 NGrid=           0
         NMat0=    1 NMatS0=   2211 NMatT0=    0 NMatD0=    1 NMtDS0=    0 NMtDT0=    0
 Symmetry not used in FoFCou.
 Two-electron integral symmetry not used.
 Closed shell SCF:
 Using DIIS extrapolation, IDIIS=  1040.
 NGot=   268435456 LenX=   265979008 LenY=   265973667
 Requested convergence on RMS density matrix=1.00D-08 within 128 cycles.
 Requested convergence on MAX density matrix=1.00D-06.
 Requested convergence on             energy=1.00D-06.
 No special actions if energy rises.

 Cycle   1  Pass 1  IDiag  1:
 Inv3:  Mode=1 IEnd=     1692003.
 Iteration    1 A*A^-1 deviation from unit magnitude is 2.44D-15 for    731.
 Iteration    1 A*A^-1 deviation from orthogonality  is 1.73D-15 for    667    499.
 Iteration    1 A^-1*A deviation from unit magnitude is 2.44D-15 for    731.
 Iteration    1 A^-1*A deviation from orthogonality  is 1.01D-15 for    737    412.
 E= -227.714706940702    
 DIIS: error= 3.30D-02 at cycle   1 NSaved=   1.
 NSaved= 1 IEnMin= 1 EnMin= -227.714706940702     IErMin= 1 ErrMin= 3.30D-02
 ErrMax= 3.30D-02  0.00D+00 EMaxC= 1.00D-01 BMatC= 8.73D-02 BMatP= 8.73D-02
 IDIUse=3 WtCom= 6.70D-01 WtEn= 3.30D-01
 Coeff-Com:  0.100D+01
 Coeff-En:   0.100D+01
 Coeff:      0.100D+01
 Gap=     0.117 Goal=   None    Shift=    0.000
 GapD=    0.117 DampG=1.000 DampE=0.500 DampFc=0.5000 IDamp=-1.
 Damping current iteration by 5.00D-01
 RMSDP=1.04D-02 MaxDP=1.48D-01              OVMax= 2.35D-01

 Cycle   2  Pass 1  IDiag  1:
 E= -227.719917432581     Delta-E=       -0.005210491879 Rises=F Damp=T
 DIIS: error= 1.76D-02 at cycle   2 NSaved=   2.
 NSaved= 2 IEnMin= 2 EnMin= -227.719917432581     IErMin= 2 ErrMin= 1.76D-02
 ErrMax= 1.76D-02  0.00D+00 EMaxC= 1.00D-01 BMatC= 2.31D-02 BMatP= 8.73D-02
 IDIUse=3 WtCom= 8.24D-01 WtEn= 1.76D-01
 Coeff-Com:  0.314D+00 0.686D+00
 Coeff-En:   0.469D+00 0.531D+00
 Coeff:      0.341D+00 0.659D+00
 Gap=     0.148 Goal=   None    Shift=    0.000
 RMSDP=2.35D-03 MaxDP=3.51D-02 DE=-5.21D-03 OVMax= 1.42D-01

 Cycle   3  Pass 1  IDiag  1:
 E= -227.779607284641     Delta-E=       -0.059689852060 Rises=F Damp=F
 DIIS: error= 6.07D-03 at cycle   3 NSaved=   3.
 NSaved= 3 IEnMin= 3 EnMin= -227.779607284641     IErMin= 3 ErrMin= 6.07D-03
 ErrMax= 6.07D-03  0.00D+00 EMaxC= 1.00D-01 BMatC= 3.08D-03 BMatP= 2.31D-02
 IDIUse=3 WtCom= 9.39D-01 WtEn= 6.07D-02
 Coeff-Com:  0.101D+00 0.290D+00 0.609D+00
 Coeff-En:   0.000D+00 0.000D+00 0.100D+01
 Coeff:      0.952D-01 0.272D+00 0.633D+00
 Gap=     0.149 Goal=   None    Shift=    0.000
 RMSDP=9.99D-04 MaxDP=1.59D-02 DE=-5.97D-02 OVMax= 2.32D-02

 Cycle   4  Pass 1  IDiag  1:
 E= -227.782535573653     Delta-E=       -0.002928289012 Rises=F Damp=F
 DIIS: error= 2.14D-03 at cycle   4 NSaved=   4.
 NSaved= 4 IEnMin= 4 EnMin= -227.782535573653     IErMin= 4 ErrMin= 2.14D-03
 ErrMax= 2.14D-03  0.00D+00 EMaxC= 1.00D-01 BMatC= 4.01D-04 BMatP= 3.08D-03
 IDIUse=3 WtCom= 9.79D-01 WtEn= 2.14D-02
 Coeff-Com:  0.232D-01 0.369D-01 0.267D+00 0.673D+00
 Coeff-En:   0.000D+00 0.000D+00 0.132D-01 0.987D+00
 Coeff:      0.227D-01 0.361D-01 0.261D+00 0.680D+00
 Gap=     0.151 Goal=   None    Shift=    0.000
 RMSDP=3.48D-04 MaxDP=6.18D-03 DE=-2.93D-03 OVMax= 1.21D-02

 Cycle   5  Pass 1  IDiag  1:
 E= -227.782734899193     Delta-E=       -0.000199325540 Rises=F Damp=F
 DIIS: error= 1.78D-03 at cycle   5 NSaved=   5.
 NSaved= 5 IEnMin= 5 EnMin= -227.782734899193     IErMin= 5 ErrMin= 1.78D-03
 ErrMax= 1.78D-03  0.00D+00 EMaxC= 1.00D-01 BMatC= 1.98D-04 BMatP= 4.01D-04
 IDIUse=3 WtCom= 9.82D-01 WtEn= 1.78D-02
 Coeff-Com:  0.953D-02 0.155D-02 0.144D+00 0.494D+00 0.351D+00
 Coeff-En:   0.000D+00 0.000D+00 0.000D+00 0.293D+00 0.707D+00
 Coeff:      0.936D-02 0.152D-02 0.141D+00 0.490D+00 0.358D+00
 Gap=     0.151 Goal=   None    Shift=    0.000
 RMSDP=1.75D-04 MaxDP=3.12D-03 DE=-1.99D-04 OVMax= 6.68D-03

 Cycle   6  Pass 1  IDiag  1:
 E= -227.782888804883     Delta-E=       -0.000153905690 Rises=F Damp=F
 DIIS: error= 1.51D-04 at cycle   6 NSaved=   6.
 NSaved= 6 IEnMin= 6 EnMin= -227.782888804883     IErMin= 6 ErrMin= 1.51D-04
 ErrMax= 1.51D-04  0.00D+00 EMaxC= 1.00D-01 BMatC= 2.24D-06 BMatP= 1.98D-04
 IDIUse=3 WtCom= 9.98D-01 WtEn= 1.51D-03
 Coeff-Com:  0.132D-02-0.541D-02 0.174D-01 0.794D-01 0.122D+00 0.786D+00
 Coeff-En:   0.000D+00 0.000D+00 0.000D+00 0.000D+00 0.000D+00 0.100D+01
 Coeff:      0.132D-02-0.540D-02 0.174D-01 0.793D-01 0.121D+00 0.786D+00
 Gap=     0.151 Goal=   None    Shift=    0.000
 RMSDP=1.86D-05 MaxDP=3.01D-04 DE=-1.54D-04 OVMax= 5.44D-04

 Cycle   7  Pass 1  IDiag  1:
 E= -227.782890542675     Delta-E=       -0.000001737792 Rises=F Damp=F
 DIIS: error= 1.04D-05 at cycle   7 NSaved=   7.
 NSaved= 7 IEnMin= 7 EnMin= -227.782890542675     IErMin= 7 ErrMin= 1.04D-05
 ErrMax= 1.04D-05  0.00D+00 EMaxC= 1.00D-01 BMatC= 1.40D-08 BMatP= 2.24D-06
 IDIUse=1 WtCom= 1.00D+00 WtEn= 0.00D+00
 Coeff-Com:  0.254D-03-0.102D-02 0.207D-02 0.859D-02 0.137D-01 0.101D+00
 Coeff-Com:  0.875D+00
 Coeff:      0.254D-03-0.102D-02 0.207D-02 0.859D-02 0.137D-01 0.101D+00
 Coeff:      0.875D+00
 Gap=     0.151 Goal=   None    Shift=    0.000
 RMSDP=2.24D-06 MaxDP=2.68D-05 DE=-1.74D-06 OVMax= 3.39D-05

 Cycle   8  Pass 1  IDiag  1:
 E= -227.782890552631     Delta-E=       -0.000000009956 Rises=F Damp=F
 DIIS: error= 3.54D-06 at cycle   8 NSaved=   8.
 NSaved= 8 IEnMin= 8 EnMin= -227.782890552631     IErMin= 8 ErrMin= 3.54D-06
 ErrMax= 3.54D-06  0.00D+00 EMaxC= 1.00D-01 BMatC= 2.16D-09 BMatP= 1.40D-08
 IDIUse=1 WtCom= 1.00D+00 WtEn= 0.00D+00
 Coeff-Com:  0.318D-04-0.886D-04-0.252D-03-0.190D-02-0.290D-02-0.133D-01
 Coeff-Com:  0.391D+00 0.627D+00
 Coeff:      0.318D-04-0.886D-04-0.252D-03-0.190D-02-0.290D-02-0.133D-01
 Coeff:      0.391D+00 0.627D+00
 Gap=     0.151 Goal=   None    Shift=    0.000
 RMSDP=7.37D-07 MaxDP=1.01D-05 DE=-9.96D-09 OVMax= 1.23D-05

 Cycle   9  Pass 1  IDiag  1:
 E= -227.782890554644     Delta-E=       -0.000000002014 Rises=F Damp=F
 DIIS: error= 4.04D-07 at cycle   9 NSaved=   9.
 NSaved= 9 IEnMin= 9 EnMin= -227.782890554644     IErMin= 9 ErrMin= 4.04D-07
 ErrMax= 4.04D-07  0.00D+00 EMaxC= 1.00D-01 BMatC= 2.68D-11 BMatP= 2.16D-09
 IDIUse=1 WtCom= 1.00D+00 WtEn= 0.00D+00
 Coeff-Com: -0.343D-05 0.234D-04-0.130D-03-0.836D-03-0.123D-02-0.761D-02
 Coeff-Com:  0.440D-01 0.135D+00 0.831D+00
 Coeff:     -0.343D-05 0.234D-04-0.130D-03-0.836D-03-0.123D-02-0.761D-02
 Coeff:      0.440D-01 0.135D+00 0.831D+00
 Gap=     0.151 Goal=   None    Shift=    0.000
 RMSDP=9.22D-08 MaxDP=1.22D-06 DE=-2.01D-09 OVMax= 1.17D-06

 Cycle  10  Pass 1  IDiag  1:
 E= -227.782890554668     Delta-E=       -0.000000000024 Rises=F Damp=F
 DIIS: error= 7.74D-08 at cycle  10 NSaved=  10.
 NSaved=10 IEnMin=10 EnMin= -227.782890554668     IErMin=10 ErrMin= 7.74D-08
 ErrMax= 7.74D-08  0.00D+00 EMaxC= 1.00D-01 BMatC= 5.39D-13 BMatP= 2.68D-11
 IDIUse=1 WtCom= 1.00D+00 WtEn= 0.00D+00
 Coeff-Com:  0.210D-06 0.629D-06 0.993D-06-0.195D-04-0.106D-04-0.692D-04
 Coeff-Com: -0.397D-02-0.297D-02 0.369D-01 0.970D+00
 Coeff:      0.210D-06 0.629D-06 0.993D-06-0.195D-04-0.106D-04-0.692D-04
 Coeff:     -0.397D-02-0.297D-02 0.369D-01 0.970D+00
 Gap=     0.151 Goal=   None    Shift=    0.000
 RMSDP=1.04D-08 MaxDP=1.04D-07 DE=-2.37D-11 OVMax= 1.26D-07

 Cycle  11  Pass 1  IDiag  1:
 E= -227.782890554668     Delta-E=        0.000000000000 Rises=F Damp=F
 DIIS: error= 1.31D-08 at cycle  11 NSaved=  11.
 NSaved=11 IEnMin=10 EnMin= -227.782890554668     IErMin=11 ErrMin= 1.31D-08
 ErrMax= 1.31D-08  0.00D+00 EMaxC= 1.00D-01 BMatC= 1.24D-14 BMatP= 5.39D-13
 IDIUse=1 WtCom= 1.00D+00 WtEn= 0.00D+00
 Coeff-Com:  0.223D-06-0.455D-06 0.243D-05 0.810D-05 0.161D-04 0.988D-04
 Coeff-Com: -0.139D-02-0.263D-02-0.468D-02 0.189D+00 0.820D+00
 Coeff:      0.223D-06-0.455D-06 0.243D-05 0.810D-05 0.161D-04 0.988D-04
 Coeff:     -0.139D-02-0.263D-02-0.468D-02 0.189D+00 0.820D+00
 Gap=     0.151 Goal=   None    Shift=    0.000
 RMSDP=1.54D-09 MaxDP=1.87D-08 DE= 1.14D-13 OVMax= 2.29D-08

 Error on total polarization charges =  0.00287
 SCF Done:  E(RB3LYP) =  -227.782890555     A.U. after   11 cycles
            NFock= 11  Conv=0.15D-08     -V/T= 2.0031
 KE= 2.270823891408D+02 PE=-7.412425427525D+02 EE= 1.832618961048D+02
 Leave Link  502 at Fri Sep 22 16:31:49 2023, MaxMem=   268435456 cpu:              13.6 elap:               6.8
 (Enter /share/apps/gaussian/g16/l601.exe)
 Copying SCF densities to generalized density rwf, IOpCl= 0 IROHF=0.

 **********************************************************************

            Population analysis using the SCF density.

 **********************************************************************

 Orbital symmetries:
       Occupied  (A) (A) (A) (A) (A) (A) (A) (A) (A) (A) (A) (A)
                 (A) (A) (A)
       Virtual   (A) (A) (A) (A) (A) (A) (A) (A) (A) (A) (A) (A)
                 (A) (A) (A) (A) (A) (A) (A) (A) (A) (A) (A) (A)
                 (A) (A) (A) (A) (A) (A) (A) (A) (A) (A) (A) (A)
                 (A) (A) (A) (A) (A) (A) (A) (A) (A) (A) (A) (A)
                 (A) (A) (A)
 The electronic state is 1-A.
 Alpha  occ. eigenvalues --  -19.16826 -19.16768 -10.29283 -10.29035  -1.10008
 Alpha  occ. eigenvalues --   -1.07177  -0.74786  -0.62150  -0.52170  -0.50236
 Alpha  occ. eigenvalues --   -0.46124  -0.45992  -0.39540  -0.33012  -0.28795
 Alpha virt. eigenvalues --   -0.13697   0.01470   0.06853   0.09056   0.15107
 Alpha virt. eigenvalues --    0.24263   0.31896   0.38058   0.40812   0.44477
 Alpha virt. eigenvalues --    0.47345   0.57490   0.58829   0.62250   0.67222
 Alpha virt. eigenvalues --    0.69953   0.72311   0.83731   0.84183   0.88706
 Alpha virt. eigenvalues --    0.95848   0.99813   1.01403   1.25893   1.40706
 Alpha virt. eigenvalues --    1.49587   1.63879   1.67977   1.70397   1.78066
 Alpha virt. eigenvalues --    1.82697   1.90804   1.92449   1.92484   2.08280
 Alpha virt. eigenvalues --    2.12508   2.16053   2.27006   2.32982   2.33787
 Alpha virt. eigenvalues --    2.34618   2.47760   2.65508   2.74728   2.82612
 Alpha virt. eigenvalues --    2.85802   3.02458   3.06285   3.12970   3.40756
 Alpha virt. eigenvalues --    3.49340
          Condensed to atoms (all electrons):
               1          2          3          4          5          6
     1  C    4.643162   0.296787  -0.083473   0.548795   0.391101  -0.064131
     2  C    0.296787   4.653457   0.385189  -0.059953  -0.080096   0.568454
     3  H   -0.083473   0.385189   0.634940   0.013571   0.012981  -0.047108
     4  O    0.548795  -0.059953   0.013571   7.883990  -0.045008   0.002624
     5  H    0.391101  -0.080096   0.012981  -0.045008   0.635688   0.013810
     6  O   -0.064131   0.568454  -0.047108   0.002624   0.013810   7.841679
 Mulliken charges:
               1
     1  C    0.267759
     2  C    0.236162
     3  H    0.083899
     4  O   -0.344018
     5  H    0.071526
     6  O   -0.315328
 Sum of Mulliken charges =   0.00000
 Mulliken charges with hydrogens summed into heavy atoms:
               1
     1  C    0.339284
     2  C    0.320062
     4  O   -0.344018
     6  O   -0.315328
 Electronic spatial extent (au):  <R**2>=            261.2086
 Charge=             -0.0000 electrons
 Dipole moment (field-independent basis, Debye):
    X=              0.1699    Y=             -0.0438    Z=              0.0272  Tot=              0.1776
 Quadrupole moment (field-independent basis, Debye-Ang):
   XX=            -32.3208   YY=            -20.4753   ZZ=            -21.2134
   XY=              2.3385   XZ=             -0.0004   YZ=             -0.0005
 Traceless Quadrupole moment (field-independent basis, Debye-Ang):
   XX=             -7.6509   YY=              4.1945   ZZ=              3.4564
   XY=              2.3385   XZ=             -0.0004   YZ=             -0.0005
 Octapole moment (field-independent basis, Debye-Ang**2):
  XXX=              0.6940  YYY=             -0.2477  ZZZ=             -0.0114  XYY=              0.0955
  XXY=              0.0172  XXZ=              0.0511  XZZ=              0.0899  YZZ=             -0.0979
  YYZ=              0.0194  XYZ=             -0.0007
 Hexadecapole moment (field-independent basis, Debye-Ang**3):
 XXXX=           -273.9637 YYYY=            -43.6431 ZZZZ=            -18.3868 XXXY=              0.4287
 XXXZ=             -0.0006 YYYX=              1.6390 YYYZ=             -0.0008 ZZZX=             -0.0008
 ZZZY=             -0.0025 XXYY=            -48.2640 XXZZ=            -41.1925 YYZZ=            -11.2299
 XXYZ=             -0.0004 YYXZ=             -0.0007 ZZXY=             -0.4865
 N-N= 1.031153669523D+02 E-N=-7.412425429352D+02  KE= 2.270823891408D+02
 There are a total of      133348 grid points.
 ElSum from          density=       29.9999995876
 ElSum from atomic densities=       29.9999994232
 Hirshfeld populations at iteration   1 (CA, CB, DipXYZ):
               1          2          3          4          5
     1  C    2.925136   2.925136   0.056609  -0.028078   0.000541
     2  C    2.923353   2.923353  -0.050990   0.021130   0.000434
     3  H    0.470797   0.470797  -0.001276   0.137629   0.000902
     4  O    4.107927   4.107927   0.141566  -0.059311   0.000900
     5  H    0.469750   0.469750   0.003573  -0.145905   0.000955
     6  O    4.103036   4.103036  -0.133625   0.054413   0.000847
       Tot  15.000000  15.000000   0.015856  -0.020121   0.004579

 Dip from Atomic Chgs              0.050988   0.002884   0.006122
         Total Dipole              0.066844  -0.017237   0.010701

 Hirshfeld charges, spin densities, dipoles, and CM5 charges using IRadAn=      5:
              Q-H        S-H        Dx         Dy         Dz        Q-CM5   
     1  C    0.149727   0.000000   0.056609  -0.028078   0.000541   0.127217
     2  C    0.153293   0.000000  -0.050990   0.021130   0.000434   0.140187
     3  H    0.058406   0.000000  -0.001276   0.137629   0.000902   0.125141
     4  O   -0.215854   0.000000   0.141566  -0.059311   0.000900  -0.267461
     5  H    0.060500   0.000000   0.003573  -0.145905   0.000955   0.135752
     6  O   -0.206072   0.000000  -0.133625   0.054413   0.000847  -0.260836
       Tot   0.000000   0.000000   0.015856  -0.020121   0.004579   0.000000
 Hirshfeld charges with hydrogens summed into heavy atoms:
              Q-H       Q-CM5   
     1  C    0.210227   0.262969
     2  C    0.211699   0.265328
     4  O   -0.215854  -0.267461
     6  O   -0.206072  -0.260836
 
 EQQ= 0.000000000000E+00 EQD= 0.000000000000E+00 EDD= 0.179863581883E-02
 EQQ+QD+DD= 0.179863581883E-02
 
 No NMR shielding tensors so no spin-rotation constants.
 Leave Link  601 at Fri Sep 22 16:31:50 2023, MaxMem=   268435456 cpu:               1.0 elap:               0.5
 (Enter /share/apps/gaussian/g16/l9999.exe)
 1\1\GINC-NODE99\SP\RB3LYP\Gen\C2H2O2\YANZ\22-Sep-2023\0\\#p b3lyp/gen 
 scrf=(cpcm,solvent=toluene) pop=hirshfeld empiricaldispersion=gd3bj\\t
 mpdir/M2_ref_390.gjf\\0,1\C,0,2.124849,3.679104,-1.67328405\C,0,1.5703
 98,4.529661,-2.66779804\H,0,1.932092,4.446134,-3.69194889\O,0,3.022784
 59,2.8489682,-1.93844501\H,0,1.77421961,3.74976686,-0.70160532\O,0,0.7
 084006,5.33534782,-2.38344767\\Version=ES64L-G16RevA.03\State=1-A\HF=-
 227.7828906\RMSD=1.540e-09\Dipole=-0.0560862,0.041642,-0.0002227\Quadr
 upole=-1.5518231,-1.8511184,3.4029415,4.3029199,-0.3569664,0.1243388\P
 G=C01 [X(C2H2O2)]\\@


 THERE IS NO SUBJECT, HOWEVER COMPLEX,
 WHICH, IF STUDIED WITH PATIENCE AND INTELLIGIENCE
 WILL NOT BECOME
 MORE COMPLEX
                        QUOTED BY D. GORDON ROHMAN
 Job cpu time:       0 days  0 hours  0 minutes 16.9 seconds.
 Elapsed time:       0 days  0 hours  0 minutes  8.6 seconds.
 File lengths (MBytes):  RWF=     11 Int=      0 D2E=      0 Chk=      2 Scr=      1
 Normal termination of Gaussian 16 at Fri Sep 22 16:31:50 2023.
