 Entering Gaussian System, Link 0=g16
 Initial command:
 /share/apps/gaussian/g16/l1.exe "/tmp/55556.mgr/Gau-81677.inp" -scrdir="/tmp/55556.mgr/"
 Entering Link 1 = /share/apps/gaussian/g16/l1.exe PID=     81678.
  
 Copyright (c) 1988,1990,1992,1993,1995,1998,2003,2009,2016,
            Gaussian, Inc.  All Rights Reserved.
  
 This is part of the Gaussian(R) 16 program.  It is based on
 the Gaussian(R) 09 system (copyright 2009, Gaussian, Inc.),
 the Gaussian(R) 03 system (copyright 2003, Gaussian, Inc.),
 the Gaussian(R) 98 system (copyright 1998, Gaussian, Inc.),
 the Gaussian(R) 94 system (copyright 1995, Gaussian, Inc.),
 the Gaussian 92(TM) system (copyright 1992, Gaussian, Inc.),
 the Gaussian 90(TM) system (copyright 1990, Gaussian, Inc.),
 the Gaussian 88(TM) system (copyright 1988, Gaussian, Inc.),
 the Gaussian 86(TM) system (copyright 1986, Carnegie Mellon
 University), and the Gaussian 82(TM) system (copyright 1983,
 Carnegie Mellon University). Gaussian is a federally registered
 trademark of Gaussian, Inc.
  
 This software contains proprietary and confidential information,
 including trade secrets, belonging to Gaussian, Inc.
  
 This software is provided under written license and may be
 used, copied, transmitted, or stored only in accord with that
 written license.
  
 The following legend is applicable only to US Government
 contracts under FAR:
  
                    RESTRICTED RIGHTS LEGEND
  
 Use, reproduction and disclosure by the US Government is
 subject to restrictions as set forth in subparagraphs (a)
 and (c) of the Commercial Computer Software - Restricted
 Rights clause in FAR 52.227-19.
  
 Gaussian, Inc.
 340 Quinnipiac St., Bldg. 40, Wallingford CT 06492
  
  
 ---------------------------------------------------------------
 Warning -- This program may not be used in any manner that
 competes with the business of Gaussian, Inc. or will provide
 assistance to any competitor of Gaussian, Inc.  The licensee
 of this program is prohibited from giving any competitor of
 Gaussian, Inc. access to this program.  By using this program,
 the user acknowledges that Gaussian, Inc. is engaged in the
 business of creating and licensing software in the field of
 computational chemistry and represents and warrants to the
 licensee that it is not a competitor of Gaussian, Inc. and that
 it will not use this program in any manner prohibited above.
 ---------------------------------------------------------------
  

 Cite this work as:
 Gaussian 16, Revision A.03,
 M. J. Frisch, G. W. Trucks, H. B. Schlegel, G. E. Scuseria, 
 M. A. Robb, J. R. Cheeseman, G. Scalmani, V. Barone, 
 G. A. Petersson, H. Nakatsuji, X. Li, M. Caricato, A. V. Marenich, 
 J. Bloino, B. G. Janesko, R. Gomperts, B. Mennucci, H. P. Hratchian, 
 J. V. Ortiz, A. F. Izmaylov, J. L. Sonnenberg, D. Williams-Young, 
 F. Ding, F. Lipparini, F. Egidi, J. Goings, B. Peng, A. Petrone, 
 T. Henderson, D. Ranasinghe, V. G. Zakrzewski, J. Gao, N. Rega, 
 G. Zheng, W. Liang, M. Hada, M. Ehara, K. Toyota, R. Fukuda, 
 J. Hasegawa, M. Ishida, T. Nakajima, Y. Honda, O. Kitao, H. Nakai, 
 T. Vreven, K. Throssell, J. A. Montgomery, Jr., J. E. Peralta, 
 F. Ogliaro, M. J. Bearpark, J. J. Heyd, E. N. Brothers, K. N. Kudin, 
 V. N. Staroverov, T. A. Keith, R. Kobayashi, J. Normand, 
 K. Raghavachari, A. P. Rendell, J. C. Burant, S. S. Iyengar, 
 J. Tomasi, M. Cossi, J. M. Millam, M. Klene, C. Adamo, R. Cammi, 
 J. W. Ochterski, R. L. Martin, K. Morokuma, O. Farkas, 
 J. B. Foresman, and D. J. Fox, Gaussian, Inc., Wallingford CT, 2016.
 
 ******************************************
 Gaussian 16:  ES64L-G16RevA.03 25-Dec-2016
                22-Sep-2023 
 ******************************************
 %nprocshared=2
 Will use up to    2 processors via shared memory.
 %mem=2GB
 ----------------------------------------------------------------------
 #p b3lyp/gen scrf=(cpcm,solvent=toluene) pop=hirshfeld empiricaldisper
 sion=gd3bj
 ----------------------------------------------------------------------
 1/38=1,172=1/1;
 2/12=2,17=6,18=5,40=1/2;
 3/5=7,11=2,25=1,30=1,70=2101,72=13,74=-5,124=41/1,2,3;
 4//1;
 5/5=2,38=5,53=13/2;
 6/7=2,8=2,9=2,10=2,28=1,79=1/1;
 99/5=1,9=1/99;
 Leave Link    1 at Fri Sep 22 16:30:33 2023, MaxMem=   268435456 cpu:               0.1 elap:               0.0
 (Enter /share/apps/gaussian/g16/l101.exe)
 ---------------------
 tmpdir/M2_ref_292.gjf
 ---------------------
 Symbolic Z-matrix:
 Charge =  0 Multiplicity = 1
 C                    -1.26632   1.26703   2.65369 
 C                    -1.97333   1.0814    1.37211 
 C                    -3.26151   0.48705   1.26309 
 H                    -0.86881   0.46999   3.27701 
 O                    -0.89339   2.33613   3.13643 
 O                    -1.45478   1.54754   0.3738 
 O                    -3.83985   0.44952   0.19754 
 H                    -3.74433   0.08437   2.15081 
 
 ITRead=  0  0  0  0  0  0  0  0
 MicOpt= -1 -1 -1 -1 -1 -1 -1 -1
 NAtoms=      8 NQM=        8 NQMF=       0 NMMI=      0 NMMIF=      0
                NMic=       0 NMicF=      0.
                    Isotopes and Nuclear Properties:
 (Nuclear quadrupole moments (NQMom) in fm**2, nuclear magnetic moments (NMagM)
  in nuclear magnetons)

  Atom         1           2           3           4           5           6           7           8
 IAtWgt=          12          12          12           1          16          16          16           1
 AtmWgt=  12.0000000  12.0000000  12.0000000   1.0078250  15.9949146  15.9949146  15.9949146   1.0078250
 NucSpn=           0           0           0           1           0           0           0           1
 AtZEff=  -0.0000000  -0.0000000  -0.0000000  -0.0000000  -0.0000000  -0.0000000  -0.0000000  -0.0000000
 NQMom=    0.0000000   0.0000000   0.0000000   0.0000000   0.0000000   0.0000000   0.0000000   0.0000000
 NMagM=    0.0000000   0.0000000   0.0000000   2.7928460   0.0000000   0.0000000   0.0000000   2.7928460
 AtZNuc=   6.0000000   6.0000000   6.0000000   1.0000000   8.0000000   8.0000000   8.0000000   1.0000000
 Leave Link  101 at Fri Sep 22 16:30:33 2023, MaxMem=   268435456 cpu:               0.3 elap:               0.1
 (Enter /share/apps/gaussian/g16/l202.exe)
                          Input orientation:                          
 ---------------------------------------------------------------------
 Center     Atomic      Atomic             Coordinates (Angstroms)
 Number     Number       Type             X           Y           Z
 ---------------------------------------------------------------------
      1          6           0       -1.266324    1.267027    2.653688
      2          6           0       -1.973327    1.081404    1.372114
      3          6           0       -3.261506    0.487047    1.263092
      4          1           0       -0.868806    0.469988    3.277014
      5          8           0       -0.893394    2.336134    3.136430
      6          8           0       -1.454777    1.547543    0.373797
      7          8           0       -3.839855    0.449517    0.197537
      8          1           0       -3.744334    0.084365    2.150805
 ---------------------------------------------------------------------
                    Distance matrix (angstroms):
                    1          2          3          4          5
     1  C    0.000000
     2  C    1.475378   0.000000
     3  C    2.553992   1.422867   0.000000
     4  H    1.087118   2.285266   3.127488   0.000000
     5  O    1.230896   2.419383   3.540688   1.871595   0.000000
     6  O    2.304801   1.217709   2.275910   3.151691   2.927314
     7  O    3.650214   2.294088   1.212973   4.279104   4.569250
     8  H    2.791436   2.176445   1.087801   3.112188   3.764276
                    6          7          8
     6  O    0.000000
     7  O    2.631601   0.000000
     8  H    3.246647   1.989402   0.000000
 Stoichiometry    C3H2O3
 Framework group  C1[X(C3H2O3)]
 Deg. of freedom    18
 Full point group                 C1      NOp   1
 Largest Abelian subgroup         C1      NOp   1
 Largest concise Abelian subgroup C1      NOp   1
                         Standard orientation:                         
 ---------------------------------------------------------------------
 Center     Atomic      Atomic             Coordinates (Angstroms)
 Number     Number       Type             X           Y           Z
 ---------------------------------------------------------------------
      1          6           0       -1.327580   -0.393616    0.316052
      2          6           0        0.036724    0.149184    0.171892
      3          6           0        1.194293   -0.663308    0.015553
      4          1           0       -1.697336   -0.954087    1.171026
      5          8           0       -2.284735   -0.176244   -0.426720
      6          8           0        0.152844    1.358826    0.093797
      7          8           0        2.278823   -0.164258   -0.199033
      8          1           0        1.101268   -1.746057    0.063636
 ---------------------------------------------------------------------
 Rotational constants (GHZ):          10.4486990           2.3407936           2.0120999
 Leave Link  202 at Fri Sep 22 16:30:33 2023, MaxMem=   268435456 cpu:               0.0 elap:               0.0
 (Enter /share/apps/gaussian/g16/l301.exe)
 General basis read from cards:  (5D, 7F)
 Centers:       4      8
 S 3 1.00
     Exponent=  1.2251800000D+01 Coefficients=  2.3337100000D-02
     Exponent=  1.8687100000D+00 Coefficients=  1.5915000000D-01
     Exponent=  4.1820800000D-01 Coefficients=  5.0000000000D-01
 S 1 1.00
     Exponent=  1.0610000000D-01 Coefficients=  1.0000000000D+00
 P 1 1.00
     Exponent=  1.0000000000D+00 Coefficients=  1.0000000000D+00
 ****
 Centers:       1      2      3
 S 5 1.00
     Exponent=  1.2432000000D+03 Coefficients=  6.0336600000D-03
     Exponent=  1.8714500000D+02 Coefficients=  4.4957600000D-02
     Exponent=  4.2512600000D+01 Coefficients=  1.9790100000D-01
     Exponent=  1.1739300000D+01 Coefficients=  5.0000000000D-01
     Exponent=  3.5054800000D+00 Coefficients=  4.8036400000D-01
 S 2 1.00
     Exponent=  5.3908900000D+00 Coefficients= -7.0398000000D-02
     Exponent=  4.9334100000D-01 Coefficients=  5.0000000000D-01
 S 1 1.00
     Exponent=  1.4974100000D-01 Coefficients=  1.0000000000D+00
 P 3 1.00
     Exponent=  9.1805600000D+00 Coefficients=  4.3170100000D-02
     Exponent=  1.9365800000D+00 Coefficients=  2.2499900000D-01
     Exponent=  5.2629600000D-01 Coefficients=  5.0000000000D-01
 P 1 1.00
     Exponent=  1.3631900000D-01 Coefficients=  1.0000000000D+00
 D 1 1.00
     Exponent=  8.0000000000D-01 Coefficients=  1.0000000000D+00
 ****
 Centers:       5      6      7
 S 5 1.00
     Exponent=  2.2886400000D+03 Coefficients=  5.8546800000D-03
     Exponent=  3.4441600000D+02 Coefficients=  4.3733300000D-02
     Exponent=  7.8253800000D+01 Coefficients=  1.9479600000D-01
     Exponent=  2.1719500000D+01 Coefficients=  5.0000000000D-01
     Exponent=  6.5590700000D+00 Coefficients=  4.8461400000D-01
 S 2 1.00
     Exponent=  1.0465600000D+01 Coefficients= -7.1334300000D-02
     Exponent=  9.6435100000D-01 Coefficients=  5.0000000000D-01
 S 1 1.00
     Exponent=  2.8512700000D-01 Coefficients=  1.0000000000D+00
 P 3 1.00
     Exponent=  1.7059000000D+01 Coefficients=  4.7443900000D-02
     Exponent=  3.6899900000D+00 Coefficients=  2.4268900000D-01
     Exponent=  9.9299600000D-01 Coefficients=  5.0000000000D-01
 P 1 1.00
     Exponent=  2.4492400000D-01 Coefficients=  1.0000000000D+00
 D 1 1.00
     Exponent=  1.0000000000D+00 Coefficients=  1.0000000000D+00
 ****
 Ernie: Thresh=  0.10000D-02 Tol=  0.10000D-05 Strict=F.
 There are   100 symmetry adapted cartesian basis functions of A   symmetry.
 There are    94 symmetry adapted basis functions of A   symmetry.
    94 basis functions,   170 primitive gaussians,   100 cartesian basis functions
    22 alpha electrons       22 beta electrons
       nuclear repulsion energy       206.0926705422 Hartrees.
 IExCor=  402 DFT=T Ex+Corr=B3LYP ExCW=0 ScaHFX=  0.200000
 ScaDFX=  0.800000  0.720000  1.000000  0.810000 ScalE2=  1.000000  1.000000
 IRadAn=      5 IRanWt=     -1 IRanGd=            0 ICorTp=0 IEmpDi=141
 NAtoms=    8 NActive=    8 NUniq=    8 SFac= 1.00D+00 NAtFMM=   60 NAOKFM=F Big=F
 Integral buffers will be    131072 words long.
 Raffenetti 2 integral format.
 Two-electron integral symmetry is turned on.
 R6Disp:  Grimme-D3(BJ) Dispersion energy=       -0.0097386386 Hartrees.
 Nuclear repulsion after empirical dispersion term =      206.0829319036 Hartrees.
 ------------------------------------------------------------------------------
 Polarizable Continuum Model (PCM)
 =================================
 Model                : C-PCM.
 Atomic radii         : UFF (Universal Force Field).
 Polarization charges : Total charges.
 Charge compensation  : None.
 Solution method      : On-the-fly selection.
 Cavity type          : Scaled VdW (van der Waals Surface) (Alpha=1.100).
 Cavity algorithm     : GePol (No added spheres)
                        Default sphere list used, NSphG=    8.
                        Lebedev-Laikov grids with approx.  5.0 points / Ang**2.
                        Smoothing algorithm: York/Karplus (Gamma=1.0000).
                        Polarization charges: spherical gaussians, with
                                              point-specific exponents (IZeta= 3).
                        Self-potential: point-specific (ISelfS= 7).
                        Self-field    : sphere-specific E.n sum rule (ISelfD= 2).
 Solvent              : Toluene, Eps=   2.374100 Eps(inf)=   2.238315
 ------------------------------------------------------------------------------
 Spheres list:
 ISph  on   Nord     Re0    Alpha      Xe            Ye            Ze
    1   C      1    1.9255  1.100     -1.327580     -0.393616      0.316052
    2   C      2    1.9255  1.100      0.036724      0.149184      0.171892
    3   C      3    1.9255  1.100      1.194293     -0.663308      0.015553
    4   H      4    1.4430  1.100     -1.697336     -0.954087      1.171026
    5   O      5    1.7500  1.100     -2.284735     -0.176244     -0.426720
    6   O      6    1.7500  1.100      0.152844      1.358826      0.093797
    7   O      7    1.7500  1.100      2.278823     -0.164258     -0.199033
    8   H      8    1.4430  1.100      1.101268     -1.746057      0.063636
 ------------------------------------------------------------------------------
 GePol: Number of generator spheres                  =       8
 GePol: Total number of spheres                      =       8
 GePol: Number of exposed spheres                    =       8 (100.00%)
 GePol: Number of points                             =     972
 GePol: Average weight of points                     =       0.13
 GePol: Minimum weight of points                     =   0.72D-10
 GePol: Maximum weight of points                     =    0.20577
 GePol: Number of points with low weight             =      38
 GePol: Fraction of low-weight points (<1% of avg)   =       3.91%
 GePol: Cavity surface area                          =    131.075 Ang**2
 GePol: Cavity volume                                =    115.718 Ang**3
 Leave Link  301 at Fri Sep 22 16:30:33 2023, MaxMem=   268435456 cpu:               0.2 elap:               0.1
 (Enter /share/apps/gaussian/g16/l302.exe)
 NPDir=0 NMtPBC=     1 NCelOv=     1 NCel=       1 NClECP=     1 NCelD=      1
         NCelK=      1 NCelE2=     1 NClLst=     1 CellRange=     0.0.
 One-electron integrals computed using PRISM.
 One-electron integral symmetry used in STVInt
 NBasis=    94 RedAO= T EigKep=  2.28D-03  NBF=    94
 NBsUse=    94 1.00D-06 EigRej= -1.00D+00 NBFU=    94
 Precomputing XC quadrature grid using
 IXCGrd= 4 IRadAn=           5 IRanWt=          -1 IRanGd=           0 AccXCQ= 0.00D+00.
 Generated NRdTot=       0 NPtTot=           0 NUsed=           0 NTot=          32
 NSgBfM=   100   100   100   100   100 MxSgAt=     8 MxSgA2=     8.
 Leave Link  302 at Fri Sep 22 16:30:33 2023, MaxMem=   268435456 cpu:               0.4 elap:               0.2
 (Enter /share/apps/gaussian/g16/l303.exe)
 DipDrv:  MaxL=1.
 Leave Link  303 at Fri Sep 22 16:30:33 2023, MaxMem=   268435456 cpu:               0.1 elap:               0.1
 (Enter /share/apps/gaussian/g16/l401.exe)
 ExpMin= 1.06D-01 ExpMax= 2.29D+03 ExpMxC= 3.44D+02 IAcc=3 IRadAn=         5 AccDes= 0.00D+00
 Harris functional with IExCor=  402 and IRadAn=       5 diagonalized for initial guess.
 HarFok:  IExCor=  402 AccDes= 0.00D+00 IRadAn=         5 IDoV= 1 UseB2=F ITyADJ=14
 ICtDFT=  3500011 ScaDFX=  1.000000  1.000000  1.000000  1.000000
 FoFCou: FMM=F IPFlag=           0 FMFlag=      100000 FMFlg1=           0
         NFxFlg=           0 DoJE=T BraDBF=F KetDBF=T FulRan=T
         wScrn=  0.000000 ICntrl=       500 IOpCl=  0 I1Cent=   200000004 NGrid=           0
         NMat0=    1 NMatS0=      1 NMatT0=    0 NMatD0=    1 NMtDS0=    0 NMtDT0=    0
 Petite list used in FoFCou.
 Harris En= -341.070705563717    
 JPrj=0 DoOrth=F DoCkMO=F.
 Leave Link  401 at Fri Sep 22 16:30:34 2023, MaxMem=   268435456 cpu:               1.8 elap:               0.9
 (Enter /share/apps/gaussian/g16/l502.exe)
 Keep R1 ints in memory in canonical form, NReq=11821795.
 FoFCou: FMM=F IPFlag=           0 FMFlag=           0 FMFlg1=           0
         NFxFlg=           0 DoJE=F BraDBF=F KetDBF=F FulRan=T
         wScrn=  0.000000 ICntrl=       600 IOpCl=  0 I1Cent=           0 NGrid=           0
         NMat0=    1 NMatS0=   4465 NMatT0=    0 NMatD0=    1 NMtDS0=    0 NMtDT0=    0
 Symmetry not used in FoFCou.
 Two-electron integral symmetry not used.
 Closed shell SCF:
 Using DIIS extrapolation, IDIIS=  1040.
 NGot=   268435456 LenX=   258443371 LenY=   258432930
 Requested convergence on RMS density matrix=1.00D-08 within 128 cycles.
 Requested convergence on MAX density matrix=1.00D-06.
 Requested convergence on             energy=1.00D-06.
 No special actions if energy rises.

 Cycle   1  Pass 1  IDiag  1:
 Inv3:  Mode=1 IEnd=     2834352.
 Iteration    1 A*A^-1 deviation from unit magnitude is 3.33D-15 for    969.
 Iteration    1 A*A^-1 deviation from orthogonality  is 1.62D-15 for    904    153.
 Iteration    1 A^-1*A deviation from unit magnitude is 3.11D-15 for    954.
 Iteration    1 A^-1*A deviation from orthogonality  is 9.32D-16 for    584    211.
 E= -340.931759619084    
 DIIS: error= 2.95D-02 at cycle   1 NSaved=   1.
 NSaved= 1 IEnMin= 1 EnMin= -340.931759619084     IErMin= 1 ErrMin= 2.95D-02
 ErrMax= 2.95D-02  0.00D+00 EMaxC= 1.00D-01 BMatC= 1.66D-01 BMatP= 1.66D-01
 IDIUse=3 WtCom= 7.05D-01 WtEn= 2.95D-01
 Coeff-Com:  0.100D+01
 Coeff-En:   0.100D+01
 Coeff:      0.100D+01
 Gap=     0.078 Goal=   None    Shift=    0.000
 GapD=    0.078 DampG=0.500 DampE=0.500 DampFc=0.2500 IDamp=-1.
 Damping current iteration by 2.50D-01
 RMSDP=1.38D-02 MaxDP=3.87D-01              OVMax= 2.86D-01

 Cycle   2  Pass 1  IDiag  1:
 E= -340.974248442281     Delta-E=       -0.042488823196 Rises=F Damp=T
 DIIS: error= 7.88D-03 at cycle   2 NSaved=   2.
 NSaved= 2 IEnMin= 2 EnMin= -340.974248442281     IErMin= 2 ErrMin= 7.88D-03
 ErrMax= 7.88D-03  0.00D+00 EMaxC= 1.00D-01 BMatC= 1.53D-02 BMatP= 1.66D-01
 IDIUse=3 WtCom= 9.21D-01 WtEn= 7.88D-02
 Coeff-Com: -0.240D+00 0.124D+01
 Coeff-En:   0.104D+00 0.896D+00
 Coeff:     -0.213D+00 0.121D+01
 Gap=     0.124 Goal=   None    Shift=    0.000
 RMSDP=2.22D-03 MaxDP=3.12D-02 DE=-4.25D-02 OVMax= 2.24D-01

 Cycle   3  Pass 1  IDiag  1:
 E= -341.055806027842     Delta-E=       -0.081557585561 Rises=F Damp=F
 DIIS: error= 5.00D-03 at cycle   3 NSaved=   3.
 NSaved= 3 IEnMin= 3 EnMin= -341.055806027842     IErMin= 3 ErrMin= 5.00D-03
 ErrMax= 5.00D-03  0.00D+00 EMaxC= 1.00D-01 BMatC= 4.58D-03 BMatP= 1.53D-02
 IDIUse=3 WtCom= 9.50D-01 WtEn= 5.00D-02
 Coeff-Com: -0.134D+00 0.515D+00 0.619D+00
 Coeff-En:   0.000D+00 0.000D+00 0.100D+01
 Coeff:     -0.127D+00 0.489D+00 0.638D+00
 Gap=     0.123 Goal=   None    Shift=    0.000
 RMSDP=8.57D-04 MaxDP=1.50D-02 DE=-8.16D-02 OVMax= 2.36D-02

 Cycle   4  Pass 1  IDiag  1:
 E= -341.060428821633     Delta-E=       -0.004622793792 Rises=F Damp=F
 DIIS: error= 1.64D-03 at cycle   4 NSaved=   4.
 NSaved= 4 IEnMin= 4 EnMin= -341.060428821633     IErMin= 4 ErrMin= 1.64D-03
 ErrMax= 1.64D-03  0.00D+00 EMaxC= 1.00D-01 BMatC= 3.28D-04 BMatP= 4.58D-03
 IDIUse=3 WtCom= 9.84D-01 WtEn= 1.64D-02
 Coeff-Com:  0.473D-02 0.218D-01 0.197D+00 0.777D+00
 Coeff-En:   0.000D+00 0.000D+00 0.000D+00 0.100D+01
 Coeff:      0.465D-02 0.215D-01 0.194D+00 0.780D+00
 Gap=     0.126 Goal=   None    Shift=    0.000
 RMSDP=2.02D-04 MaxDP=3.79D-03 DE=-4.62D-03 OVMax= 6.41D-03

 Cycle   5  Pass 1  IDiag  1:
 E= -341.060688955833     Delta-E=       -0.000260134199 Rises=F Damp=F
 DIIS: error= 4.40D-04 at cycle   5 NSaved=   5.
 NSaved= 5 IEnMin= 5 EnMin= -341.060688955833     IErMin= 5 ErrMin= 4.40D-04
 ErrMax= 4.40D-04  0.00D+00 EMaxC= 1.00D-01 BMatC= 5.46D-05 BMatP= 3.28D-04
 IDIUse=3 WtCom= 9.96D-01 WtEn= 4.40D-03
 Coeff-Com:  0.875D-02-0.504D-02 0.983D-01 0.464D+00 0.434D+00
 Coeff-En:   0.000D+00 0.000D+00 0.000D+00 0.000D+00 0.100D+01
 Coeff:      0.871D-02-0.501D-02 0.978D-01 0.462D+00 0.437D+00
 Gap=     0.125 Goal=   None    Shift=    0.000
 RMSDP=8.18D-05 MaxDP=1.72D-03 DE=-2.60D-04 OVMax= 2.81D-03

 Cycle   6  Pass 1  IDiag  1:
 E= -341.060725087348     Delta-E=       -0.000036131515 Rises=F Damp=F
 DIIS: error= 2.08D-04 at cycle   6 NSaved=   6.
 NSaved= 6 IEnMin= 6 EnMin= -341.060725087348     IErMin= 6 ErrMin= 2.08D-04
 ErrMax= 2.08D-04  0.00D+00 EMaxC= 1.00D-01 BMatC= 7.88D-06 BMatP= 5.46D-05
 IDIUse=3 WtCom= 9.98D-01 WtEn= 2.08D-03
 Coeff-Com:  0.569D-02-0.979D-02 0.170D-01 0.106D+00 0.282D+00 0.599D+00
 Coeff-En:   0.000D+00 0.000D+00 0.000D+00 0.000D+00 0.143D+00 0.857D+00
 Coeff:      0.568D-02-0.977D-02 0.170D-01 0.106D+00 0.282D+00 0.600D+00
 Gap=     0.126 Goal=   None    Shift=    0.000
 RMSDP=2.53D-05 MaxDP=5.11D-04 DE=-3.61D-05 OVMax= 8.47D-04

 Cycle   7  Pass 1  IDiag  1:
 E= -341.060731160080     Delta-E=       -0.000006072732 Rises=F Damp=F
 DIIS: error= 1.17D-05 at cycle   7 NSaved=   7.
 NSaved= 7 IEnMin= 7 EnMin= -341.060731160080     IErMin= 7 ErrMin= 1.17D-05
 ErrMax= 1.17D-05  0.00D+00 EMaxC= 1.00D-01 BMatC= 4.04D-08 BMatP= 7.88D-06
 IDIUse=1 WtCom= 1.00D+00 WtEn= 0.00D+00
 Coeff-Com:  0.120D-02-0.222D-02 0.186D-02 0.105D-01 0.457D-01 0.108D+00
 Coeff-Com:  0.835D+00
 Coeff:      0.120D-02-0.222D-02 0.186D-02 0.105D-01 0.457D-01 0.108D+00
 Coeff:      0.835D+00
 Gap=     0.126 Goal=   None    Shift=    0.000
 RMSDP=3.41D-06 MaxDP=5.06D-05 DE=-6.07D-06 OVMax= 9.22D-05

 Cycle   8  Pass 1  IDiag  1:
 E= -341.060731179168     Delta-E=       -0.000000019088 Rises=F Damp=F
 DIIS: error= 1.18D-05 at cycle   8 NSaved=   8.
 NSaved= 8 IEnMin= 8 EnMin= -341.060731179168     IErMin= 7 ErrMin= 1.17D-05
 ErrMax= 1.18D-05  0.00D+00 EMaxC= 1.00D-01 BMatC= 2.14D-08 BMatP= 4.04D-08
 IDIUse=1 WtCom= 1.00D+00 WtEn= 0.00D+00
 Coeff-Com:  0.429D-03-0.802D-03 0.271D-03 0.927D-04 0.107D-01 0.280D-01
 Coeff-Com:  0.509D+00 0.453D+00
 Coeff:      0.429D-03-0.802D-03 0.271D-03 0.927D-04 0.107D-01 0.280D-01
 Coeff:      0.509D+00 0.453D+00
 Gap=     0.126 Goal=   None    Shift=    0.000
 RMSDP=1.90D-06 MaxDP=4.29D-05 DE=-1.91D-08 OVMax= 8.20D-05

 Cycle   9  Pass 1  IDiag  1:
 E= -341.060731194215     Delta-E=       -0.000000015046 Rises=F Damp=F
 DIIS: error= 5.31D-06 at cycle   9 NSaved=   9.
 NSaved= 9 IEnMin= 9 EnMin= -341.060731194215     IErMin= 9 ErrMin= 5.31D-06
 ErrMax= 5.31D-06  0.00D+00 EMaxC= 1.00D-01 BMatC= 3.83D-09 BMatP= 2.14D-08
 IDIUse=1 WtCom= 1.00D+00 WtEn= 0.00D+00
 Coeff-Com:  0.661D-04-0.111D-03-0.117D-03-0.198D-02-0.234D-02-0.440D-02
 Coeff-Com:  0.160D+00 0.307D+00 0.541D+00
 Coeff:      0.661D-04-0.111D-03-0.117D-03-0.198D-02-0.234D-02-0.440D-02
 Coeff:      0.160D+00 0.307D+00 0.541D+00
 Gap=     0.126 Goal=   None    Shift=    0.000
 RMSDP=6.22D-07 MaxDP=1.19D-05 DE=-1.50D-08 OVMax= 2.29D-05

 Cycle  10  Pass 1  IDiag  1:
 E= -341.060731197301     Delta-E=       -0.000000003086 Rises=F Damp=F
 DIIS: error= 8.26D-07 at cycle  10 NSaved=  10.
 NSaved=10 IEnMin=10 EnMin= -341.060731197301     IErMin=10 ErrMin= 8.26D-07
 ErrMax= 8.26D-07  0.00D+00 EMaxC= 1.00D-01 BMatC= 1.58D-10 BMatP= 3.83D-09
 IDIUse=1 WtCom= 1.00D+00 WtEn= 0.00D+00
 Coeff-Com: -0.956D-05 0.278D-04-0.777D-04-0.952D-03-0.230D-02-0.494D-02
 Coeff-Com:  0.117D-01 0.824D-01 0.219D+00 0.695D+00
 Coeff:     -0.956D-05 0.278D-04-0.777D-04-0.952D-03-0.230D-02-0.494D-02
 Coeff:      0.117D-01 0.824D-01 0.219D+00 0.695D+00
 Gap=     0.126 Goal=   None    Shift=    0.000
 RMSDP=2.12D-07 MaxDP=2.61D-06 DE=-3.09D-09 OVMax= 1.03D-05

 Cycle  11  Pass 1  IDiag  1:
 E= -341.060731197499     Delta-E=       -0.000000000198 Rises=F Damp=F
 DIIS: error= 1.51D-07 at cycle  11 NSaved=  11.
 NSaved=11 IEnMin=11 EnMin= -341.060731197499     IErMin=11 ErrMin= 1.51D-07
 ErrMax= 1.51D-07  0.00D+00 EMaxC= 1.00D-01 BMatC= 5.04D-12 BMatP= 1.58D-10
 IDIUse=1 WtCom= 1.00D+00 WtEn= 0.00D+00
 Coeff-Com: -0.282D-05 0.688D-05-0.181D-05 0.140D-05-0.647D-04-0.403D-04
 Coeff-Com: -0.912D-02-0.115D-01-0.174D-01 0.909D-01 0.947D+00
 Coeff:     -0.282D-05 0.688D-05-0.181D-05 0.140D-05-0.647D-04-0.403D-04
 Coeff:     -0.912D-02-0.115D-01-0.174D-01 0.909D-01 0.947D+00
 Gap=     0.126 Goal=   None    Shift=    0.000
 RMSDP=9.71D-08 MaxDP=1.26D-06 DE=-1.98D-10 OVMax= 6.47D-06

 Cycle  12  Pass 1  IDiag  1:
 E= -341.060731197521     Delta-E=       -0.000000000022 Rises=F Damp=F
 DIIS: error= 4.94D-08 at cycle  12 NSaved=  12.
 NSaved=12 IEnMin=12 EnMin= -341.060731197521     IErMin=12 ErrMin= 4.94D-08
 ErrMax= 4.94D-08  0.00D+00 EMaxC= 1.00D-01 BMatC= 5.45D-13 BMatP= 5.04D-12
 IDIUse=1 WtCom= 1.00D+00 WtEn= 0.00D+00
 Coeff-Com:  0.268D-07-0.144D-05 0.637D-05 0.108D-03 0.283D-03 0.645D-03
 Coeff-Com: -0.269D-02-0.121D-01-0.316D-01-0.723D-01 0.151D+00 0.967D+00
 Coeff:      0.268D-07-0.144D-05 0.637D-05 0.108D-03 0.283D-03 0.645D-03
 Coeff:     -0.269D-02-0.121D-01-0.316D-01-0.723D-01 0.151D+00 0.967D+00
 Gap=     0.126 Goal=   None    Shift=    0.000
 RMSDP=4.37D-08 MaxDP=5.71D-07 DE=-2.22D-11 OVMax= 2.90D-06

 Cycle  13  Pass 1  IDiag  1:
 E= -341.060731197522     Delta-E=       -0.000000000001 Rises=F Damp=F
 DIIS: error= 1.44D-08 at cycle  13 NSaved=  13.
 NSaved=13 IEnMin=13 EnMin= -341.060731197522     IErMin=13 ErrMin= 1.44D-08
 ErrMax= 1.44D-08  0.00D+00 EMaxC= 1.00D-01 BMatC= 5.64D-14 BMatP= 5.45D-13
 IDIUse=1 WtCom= 1.00D+00 WtEn= 0.00D+00
 Coeff-Com: -0.357D-06 0.183D-06-0.940D-07 0.754D-05 0.224D-04 0.502D-04
 Coeff-Com:  0.556D-03 0.658D-04-0.106D-02-0.126D-01-0.585D-01 0.452D-01
 Coeff-Com:  0.103D+01
 Coeff:     -0.357D-06 0.183D-06-0.940D-07 0.754D-05 0.224D-04 0.502D-04
 Coeff:      0.556D-03 0.658D-04-0.106D-02-0.126D-01-0.585D-01 0.452D-01
 Coeff:      0.103D+01
 Gap=     0.126 Goal=   None    Shift=    0.000
 RMSDP=1.02D-08 MaxDP=1.36D-07 DE=-1.48D-12 OVMax= 6.85D-07

 Cycle  14  Pass 1  IDiag  1:
 E= -341.060731197525     Delta-E=       -0.000000000003 Rises=F Damp=F
 DIIS: error= 4.07D-09 at cycle  14 NSaved=  14.
 NSaved=14 IEnMin=14 EnMin= -341.060731197525     IErMin=14 ErrMin= 4.07D-09
 ErrMax= 4.07D-09  0.00D+00 EMaxC= 1.00D-01 BMatC= 3.41D-15 BMatP= 5.64D-14
 IDIUse=1 WtCom= 1.00D+00 WtEn= 0.00D+00
 Coeff-Com: -0.180D-06 0.211D-06-0.336D-06-0.182D-05-0.522D-05-0.881D-05
 Coeff-Com:  0.291D-03 0.520D-03 0.992D-03-0.119D-02-0.242D-01-0.234D-01
 Coeff-Com:  0.333D+00 0.714D+00
 Coeff:     -0.180D-06 0.211D-06-0.336D-06-0.182D-05-0.522D-05-0.881D-05
 Coeff:      0.291D-03 0.520D-03 0.992D-03-0.119D-02-0.242D-01-0.234D-01
 Coeff:      0.333D+00 0.714D+00
 Gap=     0.126 Goal=   None    Shift=    0.000
 RMSDP=1.02D-09 MaxDP=1.50D-08 DE=-2.84D-12 OVMax= 4.90D-08

 Error on total polarization charges =  0.00296
 SCF Done:  E(RB3LYP) =  -341.060731198     A.U. after   14 cycles
            NFock= 14  Conv=0.10D-08     -V/T= 2.0029
 KE= 3.400810030490D+02 PE=-1.213175109166D+03 EE= 3.259504430159D+02
 Leave Link  502 at Fri Sep 22 16:30:53 2023, MaxMem=   268435456 cpu:              36.8 elap:              18.6
 (Enter /share/apps/gaussian/g16/l601.exe)
 Copying SCF densities to generalized density rwf, IOpCl= 0 IROHF=0.

 **********************************************************************

            Population analysis using the SCF density.

 **********************************************************************

 Orbital symmetries:
       Occupied  (A) (A) (A) (A) (A) (A) (A) (A) (A) (A) (A) (A)
                 (A) (A) (A) (A) (A) (A) (A) (A) (A) (A)
       Virtual   (A) (A) (A) (A) (A) (A) (A) (A) (A) (A) (A) (A)
                 (A) (A) (A) (A) (A) (A) (A) (A) (A) (A) (A) (A)
                 (A) (A) (A) (A) (A) (A) (A) (A) (A) (A) (A) (A)
                 (A) (A) (A) (A) (A) (A) (A) (A) (A) (A) (A) (A)
                 (A) (A) (A) (A) (A) (A) (A) (A) (A) (A) (A) (A)
                 (A) (A) (A) (A) (A) (A) (A) (A) (A) (A) (A) (A)
 The electronic state is 1-A.
 Alpha  occ. eigenvalues --  -19.18237 -19.17462 -19.16467 -10.31181 -10.30333
 Alpha  occ. eigenvalues --  -10.30328  -1.12872  -1.09302  -1.07764  -0.79470
 Alpha  occ. eigenvalues --   -0.68114  -0.58467  -0.57199  -0.50469  -0.49906
 Alpha  occ. eigenvalues --   -0.47782  -0.46235  -0.42356  -0.40458  -0.34498
 Alpha  occ. eigenvalues --   -0.31864  -0.28165
 Alpha virt. eigenvalues --   -0.15596  -0.08084   0.01028   0.05658   0.08263
 Alpha virt. eigenvalues --    0.16857   0.20215   0.23661   0.27471   0.31413
 Alpha virt. eigenvalues --    0.38480   0.39032   0.44320   0.47007   0.52148
 Alpha virt. eigenvalues --    0.53699   0.55612   0.56332   0.61198   0.63758
 Alpha virt. eigenvalues --    0.64916   0.66682   0.73121   0.75760   0.80804
 Alpha virt. eigenvalues --    0.81743   0.85125   0.88120   0.92320   0.94975
 Alpha virt. eigenvalues --    0.99314   1.01005   1.10392   1.31829   1.41722
 Alpha virt. eigenvalues --    1.46410   1.48987   1.53336   1.65001   1.66841
 Alpha virt. eigenvalues --    1.70040   1.73668   1.79651   1.82040   1.89807
 Alpha virt. eigenvalues --    1.90711   1.94363   2.04418   2.08712   2.10810
 Alpha virt. eigenvalues --    2.12458   2.15971   2.20023   2.21834   2.25351
 Alpha virt. eigenvalues --    2.27337   2.35170   2.36848   2.43026   2.51220
 Alpha virt. eigenvalues --    2.67091   2.69148   2.80368   2.86101   2.86741
 Alpha virt. eigenvalues --    3.00944   3.02969   3.07090   3.10985   3.18871
 Alpha virt. eigenvalues --    3.29377   3.49408
          Condensed to atoms (all electrons):
               1          2          3          4          5          6
     1  C    4.773757   0.136693  -0.109093   0.421446   0.584648  -0.080398
     2  C    0.136693   5.257107   0.134992  -0.092356  -0.058194   0.634436
     3  C   -0.109093   0.134992   4.726192   0.008783   0.003366  -0.088424
     4  H    0.421446  -0.092356   0.008783   0.631772  -0.070827   0.003152
     5  O    0.584648  -0.058194   0.003366  -0.070827   7.865963   0.001032
     6  O   -0.080398   0.634436  -0.088424   0.003152   0.001032   7.793307
     7  O    0.004155  -0.070025   0.606468  -0.000168  -0.000036   0.000620
     8  H    0.012671  -0.118012   0.438190   0.000538  -0.000236   0.004396
               7          8
     1  C    0.004155   0.012671
     2  C   -0.070025  -0.118012
     3  C    0.606468   0.438190
     4  H   -0.000168   0.000538
     5  O   -0.000036  -0.000236
     6  O    0.000620   0.004396
     7  O    7.799365  -0.050908
     8  H   -0.050908   0.638716
 Mulliken charges:
               1
     1  C    0.256120
     2  C    0.175359
     3  C    0.279525
     4  H    0.097659
     5  O   -0.325715
     6  O   -0.268120
     7  O   -0.289472
     8  H    0.074643
 Sum of Mulliken charges =  -0.00000
 Mulliken charges with hydrogens summed into heavy atoms:
               1
     1  C    0.353780
     2  C    0.175359
     3  C    0.354168
     5  O   -0.325715
     6  O   -0.268120
     7  O   -0.289472
 Electronic spatial extent (au):  <R**2>=            558.7705
 Charge=             -0.0000 electrons
 Dipole moment (field-independent basis, Debye):
    X=             -0.2440    Y=             -3.6724    Z=              2.0733  Tot=              4.2243
 Quadrupole moment (field-independent basis, Debye-Ang):
   XX=            -45.0911   YY=            -33.4174   ZZ=            -31.2481
   XY=             -0.9642   XZ=             -2.3510   YZ=             -0.7069
 Traceless Quadrupole moment (field-independent basis, Debye-Ang):
   XX=             -8.5056   YY=              3.1681   ZZ=              5.3375
   XY=             -0.9642   XZ=             -2.3510   YZ=             -0.7069
 Octapole moment (field-independent basis, Debye-Ang**2):
  XXX=             -0.6588  YYY=             -5.3466  ZZZ=             -0.1973  XYY=              0.3821
  XXY=              0.2091  XXZ=              8.8431  XZZ=              0.7374  YZZ=              0.4638
  YYZ=             -0.2401  XYZ=              0.7793
 Hexadecapole moment (field-independent basis, Debye-Ang**3):
 XXXX=           -578.0631 YYYY=           -127.8130 ZZZZ=            -44.4997 XXXY=              0.6367
 XXXZ=             -7.6714 YYYX=             -2.3082 YYYZ=             -0.4588 ZZZX=             -1.0918
 ZZZY=              0.1109 XXYY=            -99.6961 XXZZ=            -86.9553 YYZZ=            -27.6925
 XXYZ=             -2.5435 YYXZ=             -0.2810 ZZXY=              1.4906
 N-N= 2.060829319036D+02 E-N=-1.213175109033D+03  KE= 3.400810030490D+02
 There are a total of      178368 grid points.
 ElSum from          density=       43.9999999082
 ElSum from atomic densities=       44.0000021468
 Hirshfeld populations at iteration   1 (CA, CB, DipXYZ):
               1          2          3          4          5
     1  C    2.925680   2.925680   0.097638  -0.024730   0.033384
     2  C    2.914982   2.914982  -0.018791  -0.099686   0.035677
     3  C    2.924875   2.924875  -0.073299  -0.043228   0.016277
     4  H    0.471669   0.471669  -0.057773  -0.070860   0.109299
     5  O    4.109308   4.109308   0.094708  -0.022713   0.097481
     6  O    4.088393   4.088393  -0.007607  -0.125405  -0.002335
     7  O    4.094501   4.094501  -0.117327  -0.049570   0.022532
     8  H    0.470593   0.470593  -0.011095  -0.138988   0.006453
       Tot  22.000000  22.000000  -0.093545  -0.575180   0.318768

 Dip from Atomic Chgs             -0.002445  -0.869654   0.496926
         Total Dipole             -0.095990  -1.444834   0.815694

 Hirshfeld charges, spin densities, dipoles, and CM5 charges using IRadAn=      5:
              Q-H        S-H        Dx         Dy         Dz        Q-CM5   
     1  C    0.148640   0.000000   0.097638  -0.024730   0.033384   0.137020
     2  C    0.170037   0.000000  -0.018791  -0.099686   0.035677   0.204474
     3  C    0.150249   0.000000  -0.073299  -0.043228   0.016277   0.140891
     4  H    0.056663   0.000000  -0.057773  -0.070860   0.109299   0.125876
     5  O   -0.218616   0.000000   0.094708  -0.022713   0.097481  -0.272931
     6  O   -0.176786   0.000000  -0.007607  -0.125405  -0.002335  -0.218993
     7  O   -0.189001   0.000000  -0.117327  -0.049570   0.022532  -0.240983
     8  H    0.058814   0.000000  -0.011095  -0.138988   0.006453   0.124647
       Tot   0.000000   0.000000  -0.093545  -0.575180   0.318768   0.000000
 Hirshfeld charges with hydrogens summed into heavy atoms:
              Q-H       Q-CM5   
     1  C    0.205302   0.262896
     2  C    0.170037   0.204474
     3  C    0.209063   0.265538
     5  O   -0.218616  -0.272931
     6  O   -0.176786  -0.218993
     7  O   -0.189001  -0.240983
 
 EQQ= 0.000000000000E+00 EQD= 0.000000000000E+00 EDD= 0.530489226312E-02
 EQQ+QD+DD= 0.530489226312E-02
 
 No NMR shielding tensors so no spin-rotation constants.
 Leave Link  601 at Fri Sep 22 16:30:54 2023, MaxMem=   268435456 cpu:               1.4 elap:               0.7
 (Enter /share/apps/gaussian/g16/l9999.exe)
 1\1\GINC-NODE99\SP\RB3LYP\Gen\C3H2O3\YANZ\22-Sep-2023\0\\#p b3lyp/gen 
 scrf=(cpcm,solvent=toluene) pop=hirshfeld empiricaldispersion=gd3bj\\t
 mpdir/M2_ref_292.gjf\\0,1\C,0,-1.266324,1.267027,2.65368795\C,0,-1.973
 327,1.081404,1.37211394\C,0,-3.261506,0.487047,1.26309204\H,0,-0.86880
 601,0.46998827,3.27701359\O,0,-0.89339426,2.33613363,3.13643001\O,0,-1
 .45477722,1.54754259,0.37379672\O,0,-3.83985491,0.44951749,0.19753652\
 H,0,-3.744334,0.084365,2.150805\\Version=ES64L-G16RevA.03\State=1-A\HF
 =-341.0607312\RMSD=1.019e-09\Dipole=-0.2729916,-1.1889603,1.1286992\Qu
 adrupole=0.30219,1.7439288,-2.0461188,-3.0987657,-3.1611644,-3.3514463
 \PG=C01 [X(C3H2O3)]\\@


 I FIND THAT THE THREE TRULY GREAT TIMES FOR THINKING THOUGHTS
 ARE WHEN I AM STANDING IN THE SHOWER, SITTING ON THE JOHN, OR WALKING.

                                    -- COLIN FLETCHER
 Job cpu time:       0 days  0 hours  0 minutes 41.2 seconds.
 Elapsed time:       0 days  0 hours  0 minutes 20.9 seconds.
 File lengths (MBytes):  RWF=     15 Int=      0 D2E=      0 Chk=      2 Scr=      1
 Normal termination of Gaussian 16 at Fri Sep 22 16:30:54 2023.
