 Entering Gaussian System, Link 0=g16
 Initial command:
 /share/apps/gaussian/g16/l1.exe "/tmp/55556.mgr/Gau-78069.inp" -scrdir="/tmp/55556.mgr/"
 Entering Link 1 = /share/apps/gaussian/g16/l1.exe PID=     78070.
  
 Copyright (c) 1988,1990,1992,1993,1995,1998,2003,2009,2016,
            Gaussian, Inc.  All Rights Reserved.
  
 This is part of the Gaussian(R) 16 program.  It is based on
 the Gaussian(R) 09 system (copyright 2009, Gaussian, Inc.),
 the Gaussian(R) 03 system (copyright 2003, Gaussian, Inc.),
 the Gaussian(R) 98 system (copyright 1998, Gaussian, Inc.),
 the Gaussian(R) 94 system (copyright 1995, Gaussian, Inc.),
 the Gaussian 92(TM) system (copyright 1992, Gaussian, Inc.),
 the Gaussian 90(TM) system (copyright 1990, Gaussian, Inc.),
 the Gaussian 88(TM) system (copyright 1988, Gaussian, Inc.),
 the Gaussian 86(TM) system (copyright 1986, Carnegie Mellon
 University), and the Gaussian 82(TM) system (copyright 1983,
 Carnegie Mellon University). Gaussian is a federally registered
 trademark of Gaussian, Inc.
  
 This software contains proprietary and confidential information,
 including trade secrets, belonging to Gaussian, Inc.
  
 This software is provided under written license and may be
 used, copied, transmitted, or stored only in accord with that
 written license.
  
 The following legend is applicable only to US Government
 contracts under FAR:
  
                    RESTRICTED RIGHTS LEGEND
  
 Use, reproduction and disclosure by the US Government is
 subject to restrictions as set forth in subparagraphs (a)
 and (c) of the Commercial Computer Software - Restricted
 Rights clause in FAR 52.227-19.
  
 Gaussian, Inc.
 340 Quinnipiac St., Bldg. 40, Wallingford CT 06492
  
  
 ---------------------------------------------------------------
 Warning -- This program may not be used in any manner that
 competes with the business of Gaussian, Inc. or will provide
 assistance to any competitor of Gaussian, Inc.  The licensee
 of this program is prohibited from giving any competitor of
 Gaussian, Inc. access to this program.  By using this program,
 the user acknowledges that Gaussian, Inc. is engaged in the
 business of creating and licensing software in the field of
 computational chemistry and represents and warrants to the
 licensee that it is not a competitor of Gaussian, Inc. and that
 it will not use this program in any manner prohibited above.
 ---------------------------------------------------------------
  

 Cite this work as:
 Gaussian 16, Revision A.03,
 M. J. Frisch, G. W. Trucks, H. B. Schlegel, G. E. Scuseria, 
 M. A. Robb, J. R. Cheeseman, G. Scalmani, V. Barone, 
 G. A. Petersson, H. Nakatsuji, X. Li, M. Caricato, A. V. Marenich, 
 J. Bloino, B. G. Janesko, R. Gomperts, B. Mennucci, H. P. Hratchian, 
 J. V. Ortiz, A. F. Izmaylov, J. L. Sonnenberg, D. Williams-Young, 
 F. Ding, F. Lipparini, F. Egidi, J. Goings, B. Peng, A. Petrone, 
 T. Henderson, D. Ranasinghe, V. G. Zakrzewski, J. Gao, N. Rega, 
 G. Zheng, W. Liang, M. Hada, M. Ehara, K. Toyota, R. Fukuda, 
 J. Hasegawa, M. Ishida, T. Nakajima, Y. Honda, O. Kitao, H. Nakai, 
 T. Vreven, K. Throssell, J. A. Montgomery, Jr., J. E. Peralta, 
 F. Ogliaro, M. J. Bearpark, J. J. Heyd, E. N. Brothers, K. N. Kudin, 
 V. N. Staroverov, T. A. Keith, R. Kobayashi, J. Normand, 
 K. Raghavachari, A. P. Rendell, J. C. Burant, S. S. Iyengar, 
 J. Tomasi, M. Cossi, J. M. Millam, M. Klene, C. Adamo, R. Cammi, 
 J. W. Ochterski, R. L. Martin, K. Morokuma, O. Farkas, 
 J. B. Foresman, and D. J. Fox, Gaussian, Inc., Wallingford CT, 2016.
 
 ******************************************
 Gaussian 16:  ES64L-G16RevA.03 25-Dec-2016
                22-Sep-2023 
 ******************************************
 %nprocshared=2
 Will use up to    2 processors via shared memory.
 %mem=2GB
 ----------------------------------------------------------------------
 #p b3lyp/gen scrf=(cpcm,solvent=toluene) pop=hirshfeld empiricaldisper
 sion=gd3bj
 ----------------------------------------------------------------------
 1/38=1,172=1/1;
 2/12=2,17=6,18=5,40=1/2;
 3/5=7,11=2,25=1,30=1,70=2101,72=13,74=-5,124=41/1,2,3;
 4//1;
 5/5=2,38=5,53=13/2;
 6/7=2,8=2,9=2,10=2,28=1,79=1/1;
 99/5=1,9=1/99;
 Leave Link    1 at Fri Sep 22 16:27:25 2023, MaxMem=   268435456 cpu:               0.1 elap:               0.0
 (Enter /share/apps/gaussian/g16/l101.exe)
 --------------------
 tmpdir/M2_ref_55.gjf
 --------------------
 Symbolic Z-matrix:
 Charge =  0 Multiplicity = 1
 C                     1.82982  -2.07322   1.76568 
 N                     0.51234  -2.17858   2.0284 
 C                    -0.12851  -2.19573   3.33461 
 H                     2.10324  -2.46684   0.81274 
 O                     2.69303  -1.5322    2.57256 
 H                    -0.03841  -2.62595   1.28528 
 H                    -0.52765  -3.22591   3.49367 
 H                     0.63793  -1.97977   4.07922 
 H                    -0.94125  -1.42824   3.37192 
 
 ITRead=  0  0  0  0  0  0  0  0  0
 MicOpt= -1 -1 -1 -1 -1 -1 -1 -1 -1
 NAtoms=      9 NQM=        9 NQMF=       0 NMMI=      0 NMMIF=      0
                NMic=       0 NMicF=      0.
                    Isotopes and Nuclear Properties:
 (Nuclear quadrupole moments (NQMom) in fm**2, nuclear magnetic moments (NMagM)
  in nuclear magnetons)

  Atom         1           2           3           4           5           6           7           8           9
 IAtWgt=          12          14          12           1          16           1           1           1           1
 AtmWgt=  12.0000000  14.0030740  12.0000000   1.0078250  15.9949146   1.0078250   1.0078250   1.0078250   1.0078250
 NucSpn=           0           2           0           1           0           1           1           1           1
 AtZEff=  -0.0000000  -0.0000000  -0.0000000  -0.0000000  -0.0000000  -0.0000000  -0.0000000  -0.0000000  -0.0000000
 NQMom=    0.0000000   2.0440000   0.0000000   0.0000000   0.0000000   0.0000000   0.0000000   0.0000000   0.0000000
 NMagM=    0.0000000   0.4037610   0.0000000   2.7928460   0.0000000   2.7928460   2.7928460   2.7928460   2.7928460
 AtZNuc=   6.0000000   7.0000000   6.0000000   1.0000000   8.0000000   1.0000000   1.0000000   1.0000000   1.0000000
 Leave Link  101 at Fri Sep 22 16:27:26 2023, MaxMem=   268435456 cpu:               0.2 elap:               0.1
 (Enter /share/apps/gaussian/g16/l202.exe)
                          Input orientation:                          
 ---------------------------------------------------------------------
 Center     Atomic      Atomic             Coordinates (Angstroms)
 Number     Number       Type             X           Y           Z
 ---------------------------------------------------------------------
      1          6           0        1.829817   -2.073215    1.765681
      2          7           0        0.512336   -2.178578    2.028396
      3          6           0       -0.128509   -2.195729    3.334609
      4          1           0        2.103243   -2.466843    0.812745
      5          8           0        2.693026   -1.532197    2.572559
      6          1           0       -0.038410   -2.625953    1.285281
      7          1           0       -0.527650   -3.225906    3.493668
      8          1           0        0.637928   -1.979767    4.079215
      9          1           0       -0.941250   -1.428244    3.371915
 ---------------------------------------------------------------------
                    Distance matrix (angstroms):
                    1          2          3          4          5
     1  C    0.000000
     2  N    1.347545   0.000000
     3  C    2.512287   1.455050   0.000000
     4  H    1.066673   2.022842   3.378464   0.000000
     5  O    1.299570   2.338660   2.997008   2.078065   0.000000
     6  H    2.006633   1.027466   2.095938   2.198928   3.211562
     7  H    3.142019   2.079781   1.116189   3.832117   3.753644
     8  H    2.604183   2.064257   1.090185   3.613062   2.587230
     9  H    3.267229   2.116827   1.118469   4.110593   3.722598
                    6          7          8          9
     6  H    0.000000
     7  H    2.340144   0.000000
     8  H    2.946363   1.803967   0.000000
     9  H    2.569761   1.848642   1.816109   0.000000
 Stoichiometry    C2H5NO
 Framework group  C1[X(C2H5NO)]
 Deg. of freedom    21
 Full point group                 C1      NOp   1
 Largest Abelian subgroup         C1      NOp   1
 Largest concise Abelian subgroup C1      NOp   1
                         Standard orientation:                         
 ---------------------------------------------------------------------
 Center     Atomic      Atomic             Coordinates (Angstroms)
 Number     Number       Type             X           Y           Z
 ---------------------------------------------------------------------
      1          6           0       -0.845930    0.473980    0.055837
      2          7           0        0.484504    0.590844   -0.123513
      3          6           0        1.491872   -0.445855    0.042720
      4          1           0       -1.327224    1.402861    0.263988
      5          8           0       -1.497464   -0.647120   -0.030884
      6          1           0        0.847450    1.547304   -0.027919
      7          1           0        2.097628   -0.177390    0.940976
      8          1           0        0.969284   -1.386101    0.219759
      9          1           0        2.125391   -0.514364   -0.876483
 ---------------------------------------------------------------------
 Rotational constants (GHZ):          20.0638966           5.6946187           4.6025319
 Leave Link  202 at Fri Sep 22 16:27:26 2023, MaxMem=   268435456 cpu:               0.0 elap:               0.0
 (Enter /share/apps/gaussian/g16/l301.exe)
 General basis read from cards:  (5D, 7F)
 Centers:       4      6      7      8      9
 S 3 1.00
     Exponent=  1.2251800000D+01 Coefficients=  2.3337100000D-02
     Exponent=  1.8687100000D+00 Coefficients=  1.5915000000D-01
     Exponent=  4.1820800000D-01 Coefficients=  5.0000000000D-01
 S 1 1.00
     Exponent=  1.0610000000D-01 Coefficients=  1.0000000000D+00
 P 1 1.00
     Exponent=  1.0000000000D+00 Coefficients=  1.0000000000D+00
 ****
 Centers:       1      3
 S 5 1.00
     Exponent=  1.2432000000D+03 Coefficients=  6.0336600000D-03
     Exponent=  1.8714500000D+02 Coefficients=  4.4957600000D-02
     Exponent=  4.2512600000D+01 Coefficients=  1.9790100000D-01
     Exponent=  1.1739300000D+01 Coefficients=  5.0000000000D-01
     Exponent=  3.5054800000D+00 Coefficients=  4.8036400000D-01
 S 2 1.00
     Exponent=  5.3908900000D+00 Coefficients= -7.0398000000D-02
     Exponent=  4.9334100000D-01 Coefficients=  5.0000000000D-01
 S 1 1.00
     Exponent=  1.4974100000D-01 Coefficients=  1.0000000000D+00
 P 3 1.00
     Exponent=  9.1805600000D+00 Coefficients=  4.3170100000D-02
     Exponent=  1.9365800000D+00 Coefficients=  2.2499900000D-01
     Exponent=  5.2629600000D-01 Coefficients=  5.0000000000D-01
 P 1 1.00
     Exponent=  1.3631900000D-01 Coefficients=  1.0000000000D+00
 D 1 1.00
     Exponent=  8.0000000000D-01 Coefficients=  1.0000000000D+00
 ****
 Centers:       2
 S 5 1.00
     Exponent=  1.7263200000D+03 Coefficients=  5.9307700000D-03
     Exponent=  2.5982700000D+02 Coefficients=  4.4253900000D-02
     Exponent=  5.9033500000D+01 Coefficients=  1.9609600000D-01
     Exponent=  1.6350900000D+01 Coefficients=  5.0000000000D-01
     Exponent=  4.9108400000D+00 Coefficients=  4.8298700000D-01
 S 2 1.00
     Exponent=  7.7589400000D+00 Coefficients= -7.0335600000D-02
     Exponent=  7.0557300000D-01 Coefficients=  5.0000000000D-01
 S 1 1.00
     Exponent=  2.0928600000D-01 Coefficients=  1.0000000000D+00
 P 3 1.00
     Exponent=  1.3184400000D+01 Coefficients=  4.4074700000D-02
     Exponent=  2.8186000000D+00 Coefficients=  2.3047800000D-01
     Exponent=  7.6557100000D-01 Coefficients=  5.0000000000D-01
 P 1 1.00
     Exponent=  1.9594900000D-01 Coefficients=  1.0000000000D+00
 D 1 1.00
     Exponent=  9.0000000000D-01 Coefficients=  1.0000000000D+00
 ****
 Centers:       5
 S 5 1.00
     Exponent=  2.2886400000D+03 Coefficients=  5.8546800000D-03
     Exponent=  3.4441600000D+02 Coefficients=  4.3733300000D-02
     Exponent=  7.8253800000D+01 Coefficients=  1.9479600000D-01
     Exponent=  2.1719500000D+01 Coefficients=  5.0000000000D-01
     Exponent=  6.5590700000D+00 Coefficients=  4.8461400000D-01
 S 2 1.00
     Exponent=  1.0465600000D+01 Coefficients= -7.1334300000D-02
     Exponent=  9.6435100000D-01 Coefficients=  5.0000000000D-01
 S 1 1.00
     Exponent=  2.8512700000D-01 Coefficients=  1.0000000000D+00
 P 3 1.00
     Exponent=  1.7059000000D+01 Coefficients=  4.7443900000D-02
     Exponent=  3.6899900000D+00 Coefficients=  2.4268900000D-01
     Exponent=  9.9299600000D-01 Coefficients=  5.0000000000D-01
 P 1 1.00
     Exponent=  2.4492400000D-01 Coefficients=  1.0000000000D+00
 D 1 1.00
     Exponent=  1.0000000000D+00 Coefficients=  1.0000000000D+00
 ****
 Ernie: Thresh=  0.10000D-02 Tol=  0.10000D-05 Strict=F.
 There are    85 symmetry adapted cartesian basis functions of A   symmetry.
 There are    81 symmetry adapted basis functions of A   symmetry.
    81 basis functions,   139 primitive gaussians,    85 cartesian basis functions
    16 alpha electrons       16 beta electrons
       nuclear repulsion energy       119.0087204700 Hartrees.
 IExCor=  402 DFT=T Ex+Corr=B3LYP ExCW=0 ScaHFX=  0.200000
 ScaDFX=  0.800000  0.720000  1.000000  0.810000 ScalE2=  1.000000  1.000000
 IRadAn=      5 IRanWt=     -1 IRanGd=            0 ICorTp=0 IEmpDi=141
 NAtoms=    9 NActive=    9 NUniq=    9 SFac= 1.00D+00 NAtFMM=   60 NAOKFM=F Big=F
 Integral buffers will be    131072 words long.
 Raffenetti 2 integral format.
 Two-electron integral symmetry is turned on.
 R6Disp:  Grimme-D3(BJ) Dispersion energy=       -0.0084339202 Hartrees.
 Nuclear repulsion after empirical dispersion term =      119.0002865498 Hartrees.
 ------------------------------------------------------------------------------
 Polarizable Continuum Model (PCM)
 =================================
 Model                : C-PCM.
 Atomic radii         : UFF (Universal Force Field).
 Polarization charges : Total charges.
 Charge compensation  : None.
 Solution method      : On-the-fly selection.
 Cavity type          : Scaled VdW (van der Waals Surface) (Alpha=1.100).
 Cavity algorithm     : GePol (No added spheres)
                        Default sphere list used, NSphG=    9.
                        Lebedev-Laikov grids with approx.  5.0 points / Ang**2.
                        Smoothing algorithm: York/Karplus (Gamma=1.0000).
                        Polarization charges: spherical gaussians, with
                                              point-specific exponents (IZeta= 3).
                        Self-potential: point-specific (ISelfS= 7).
                        Self-field    : sphere-specific E.n sum rule (ISelfD= 2).
 Solvent              : Toluene, Eps=   2.374100 Eps(inf)=   2.238315
 ------------------------------------------------------------------------------
 Spheres list:
 ISph  on   Nord     Re0    Alpha      Xe            Ye            Ze
    1   C      1    1.9255  1.100     -0.845930      0.473980      0.055837
    2   N      2    1.8300  1.100      0.484504      0.590844     -0.123513
    3   C      3    1.9255  1.100      1.491872     -0.445855      0.042720
    4   H      4    1.4430  1.100     -1.327224      1.402861      0.263988
    5   O      5    1.7500  1.100     -1.497464     -0.647120     -0.030884
    6   H      6    1.4430  1.100      0.847450      1.547304     -0.027919
    7   H      7    1.4430  1.100      2.097628     -0.177390      0.940976
    8   H      8    1.4430  1.100      0.969284     -1.386101      0.219759
    9   H      9    1.4430  1.100      2.125391     -0.514364     -0.876483
 ------------------------------------------------------------------------------
 GePol: Number of generator spheres                  =       9
 GePol: Total number of spheres                      =       9
 GePol: Number of exposed spheres                    =       9 (100.00%)
 GePol: Number of points                             =     878
 GePol: Average weight of points                     =       0.13
 GePol: Minimum weight of points                     =   0.24D-08
 GePol: Maximum weight of points                     =    0.20577
 GePol: Number of points with low weight             =      49
 GePol: Fraction of low-weight points (<1% of avg)   =       5.58%
 GePol: Cavity surface area                          =    118.267 Ang**2
 GePol: Cavity volume                                =    101.683 Ang**3
 Leave Link  301 at Fri Sep 22 16:27:26 2023, MaxMem=   268435456 cpu:               0.2 elap:               0.1
 (Enter /share/apps/gaussian/g16/l302.exe)
 NPDir=0 NMtPBC=     1 NCelOv=     1 NCel=       1 NClECP=     1 NCelD=      1
         NCelK=      1 NCelE2=     1 NClLst=     1 CellRange=     0.0.
 One-electron integrals computed using PRISM.
 One-electron integral symmetry used in STVInt
 NBasis=    81 RedAO= T EigKep=  8.95D-03  NBF=    81
 NBsUse=    81 1.00D-06 EigRej= -1.00D+00 NBFU=    81
 Precomputing XC quadrature grid using
 IXCGrd= 4 IRadAn=           5 IRanWt=          -1 IRanGd=           0 AccXCQ= 0.00D+00.
 Generated NRdTot=       0 NPtTot=           0 NUsed=           0 NTot=          32
 NSgBfM=    85    85    85    85    85 MxSgAt=     9 MxSgA2=     9.
 Leave Link  302 at Fri Sep 22 16:27:26 2023, MaxMem=   268435456 cpu:               0.3 elap:               0.2
 (Enter /share/apps/gaussian/g16/l303.exe)
 DipDrv:  MaxL=1.
 Leave Link  303 at Fri Sep 22 16:27:26 2023, MaxMem=   268435456 cpu:               0.1 elap:               0.0
 (Enter /share/apps/gaussian/g16/l401.exe)
 ExpMin= 1.06D-01 ExpMax= 2.29D+03 ExpMxC= 3.44D+02 IAcc=3 IRadAn=         5 AccDes= 0.00D+00
 Harris functional with IExCor=  402 and IRadAn=       5 diagonalized for initial guess.
 HarFok:  IExCor=  402 AccDes= 0.00D+00 IRadAn=         5 IDoV= 1 UseB2=F ITyADJ=14
 ICtDFT=  3500011 ScaDFX=  1.000000  1.000000  1.000000  1.000000
 FoFCou: FMM=F IPFlag=           0 FMFlag=      100000 FMFlg1=           0
         NFxFlg=           0 DoJE=T BraDBF=F KetDBF=T FulRan=T
         wScrn=  0.000000 ICntrl=       500 IOpCl=  0 I1Cent=   200000004 NGrid=           0
         NMat0=    1 NMatS0=      1 NMatT0=    0 NMatD0=    1 NMtDS0=    0 NMtDT0=    0
 Petite list used in FoFCou.
 Harris En= -209.182009135031    
 JPrj=0 DoOrth=F DoCkMO=F.
 Leave Link  401 at Fri Sep 22 16:27:27 2023, MaxMem=   268435456 cpu:               1.8 elap:               0.9
 (Enter /share/apps/gaussian/g16/l502.exe)
 Keep R1 ints in memory in canonical form, NReq=7334660.
 FoFCou: FMM=F IPFlag=           0 FMFlag=           0 FMFlg1=           0
         NFxFlg=           0 DoJE=F BraDBF=F KetDBF=F FulRan=T
         wScrn=  0.000000 ICntrl=       600 IOpCl=  0 I1Cent=           0 NGrid=           0
         NMat0=    1 NMatS0=   3321 NMatT0=    0 NMatD0=    1 NMtDS0=    0 NMtDT0=    0
 Symmetry not used in FoFCou.
 Two-electron integral symmetry not used.
 Closed shell SCF:
 Using DIIS extrapolation, IDIIS=  1040.
 NGot=   268435456 LenX=   262903234 LenY=   262895568
 Requested convergence on RMS density matrix=1.00D-08 within 128 cycles.
 Requested convergence on MAX density matrix=1.00D-06.
 Requested convergence on             energy=1.00D-06.
 No special actions if energy rises.

 Cycle   1  Pass 1  IDiag  1:
 Inv3:  Mode=1 IEnd=     2312652.
 Iteration    1 A*A^-1 deviation from unit magnitude is 4.22D-15 for    867.
 Iteration    1 A*A^-1 deviation from orthogonality  is 1.55D-15 for    837    391.
 Iteration    1 A^-1*A deviation from unit magnitude is 4.00D-15 for    867.
 Iteration    1 A^-1*A deviation from orthogonality  is 1.44D-15 for    516    294.
 E= -209.052975930277    
 DIIS: error= 3.10D-02 at cycle   1 NSaved=   1.
 NSaved= 1 IEnMin= 1 EnMin= -209.052975930277     IErMin= 1 ErrMin= 3.10D-02
 ErrMax= 3.10D-02  0.00D+00 EMaxC= 1.00D-01 BMatC= 1.36D-01 BMatP= 1.36D-01
 IDIUse=3 WtCom= 6.90D-01 WtEn= 3.10D-01
 Coeff-Com:  0.100D+01
 Coeff-En:   0.100D+01
 Coeff:      0.100D+01
 Gap=     0.226 Goal=   None    Shift=    0.000
 GapD=    0.226 DampG=1.000 DampE=0.500 DampFc=0.5000 IDamp=-1.
 Damping current iteration by 5.00D-01
 RMSDP=1.21D-02 MaxDP=2.45D-01              OVMax= 3.54D-01

 Cycle   2  Pass 1  IDiag  1:
 E= -209.055633551531     Delta-E=       -0.002657621254 Rises=F Damp=T
 DIIS: error= 1.67D-02 at cycle   2 NSaved=   2.
 NSaved= 2 IEnMin= 2 EnMin= -209.055633551531     IErMin= 2 ErrMin= 1.67D-02
 ErrMax= 1.67D-02  0.00D+00 EMaxC= 1.00D-01 BMatC= 4.18D-02 BMatP= 1.36D-01
 IDIUse=3 WtCom= 8.33D-01 WtEn= 1.67D-01
 Coeff-Com:  0.328D+00 0.672D+00
 Coeff-En:   0.491D+00 0.509D+00
 Coeff:      0.355D+00 0.645D+00
 Gap=     0.284 Goal=   None    Shift=    0.000
 RMSDP=3.73D-03 MaxDP=5.53D-02 DE=-2.66D-03 OVMax= 2.30D-01

 Cycle   3  Pass 1  IDiag  1:
 E= -209.154567666635     Delta-E=       -0.098934115104 Rises=F Damp=F
 DIIS: error= 1.17D-02 at cycle   3 NSaved=   3.
 NSaved= 3 IEnMin= 3 EnMin= -209.154567666635     IErMin= 3 ErrMin= 1.17D-02
 ErrMax= 1.17D-02  0.00D+00 EMaxC= 1.00D-01 BMatC= 1.92D-02 BMatP= 4.18D-02
 IDIUse=3 WtCom= 8.83D-01 WtEn= 1.17D-01
 Coeff-Com:  0.142D+00 0.406D+00 0.452D+00
 Coeff-En:   0.000D+00 0.000D+00 0.100D+01
 Coeff:      0.125D+00 0.359D+00 0.516D+00
 Gap=     0.265 Goal=   None    Shift=    0.000
 RMSDP=1.82D-03 MaxDP=4.17D-02 DE=-9.89D-02 OVMax= 7.38D-02

 Cycle   4  Pass 1  IDiag  1:
 E= -209.170156324520     Delta-E=       -0.015588657885 Rises=F Damp=F
 DIIS: error= 4.43D-03 at cycle   4 NSaved=   4.
 NSaved= 4 IEnMin= 4 EnMin= -209.170156324520     IErMin= 4 ErrMin= 4.43D-03
 ErrMax= 4.43D-03  0.00D+00 EMaxC= 1.00D-01 BMatC= 2.87D-03 BMatP= 1.92D-02
 IDIUse=3 WtCom= 9.56D-01 WtEn= 4.43D-02
 Coeff-Com:  0.366D-01 0.108D+00 0.299D+00 0.556D+00
 Coeff-En:   0.000D+00 0.000D+00 0.125D+00 0.875D+00
 Coeff:      0.349D-01 0.104D+00 0.291D+00 0.570D+00
 Gap=     0.255 Goal=   None    Shift=    0.000
 RMSDP=5.79D-04 MaxDP=1.61D-02 DE=-1.56D-02 OVMax= 2.26D-02

 Cycle   5  Pass 1  IDiag  1:
 E= -209.172464321991     Delta-E=       -0.002307997471 Rises=F Damp=F
 DIIS: error= 8.63D-04 at cycle   5 NSaved=   5.
 NSaved= 5 IEnMin= 5 EnMin= -209.172464321991     IErMin= 5 ErrMin= 8.63D-04
 ErrMax= 8.63D-04  0.00D+00 EMaxC= 1.00D-01 BMatC= 1.81D-04 BMatP= 2.87D-03
 IDIUse=3 WtCom= 9.91D-01 WtEn= 8.63D-03
 Coeff-Com:  0.458D-02 0.170D-01 0.104D+00 0.302D+00 0.573D+00
 Coeff-En:   0.000D+00 0.000D+00 0.000D+00 0.000D+00 0.100D+01
 Coeff:      0.455D-02 0.169D-01 0.103D+00 0.299D+00 0.576D+00
 Gap=     0.256 Goal=   None    Shift=    0.000
 RMSDP=1.46D-04 MaxDP=3.76D-03 DE=-2.31D-03 OVMax= 5.40D-03

 Cycle   6  Pass 1  IDiag  1:
 E= -209.172622766752     Delta-E=       -0.000158444761 Rises=F Damp=F
 DIIS: error= 1.77D-04 at cycle   6 NSaved=   6.
 NSaved= 6 IEnMin= 6 EnMin= -209.172622766752     IErMin= 6 ErrMin= 1.77D-04
 ErrMax= 1.77D-04  0.00D+00 EMaxC= 1.00D-01 BMatC= 7.51D-06 BMatP= 1.81D-04
 IDIUse=3 WtCom= 9.98D-01 WtEn= 1.77D-03
 Coeff-Com: -0.951D-03-0.284D-02 0.152D-01 0.600D-01 0.228D+00 0.701D+00
 Coeff-En:   0.000D+00 0.000D+00 0.000D+00 0.000D+00 0.000D+00 0.100D+01
 Coeff:     -0.949D-03-0.284D-02 0.151D-01 0.598D-01 0.228D+00 0.701D+00
 Gap=     0.256 Goal=   None    Shift=    0.000
 RMSDP=2.37D-05 MaxDP=4.94D-04 DE=-1.58D-04 OVMax= 5.12D-04

 Cycle   7  Pass 1  IDiag  1:
 E= -209.172628699426     Delta-E=       -0.000005932675 Rises=F Damp=F
 DIIS: error= 4.74D-05 at cycle   7 NSaved=   7.
 NSaved= 7 IEnMin= 7 EnMin= -209.172628699426     IErMin= 7 ErrMin= 4.74D-05
 ErrMax= 4.74D-05  0.00D+00 EMaxC= 1.00D-01 BMatC= 3.16D-07 BMatP= 7.51D-06
 IDIUse=1 WtCom= 1.00D+00 WtEn= 0.00D+00
 Coeff-Com: -0.262D-03-0.166D-02 0.459D-02 0.172D-01 0.858D-01 0.289D+00
 Coeff-Com:  0.605D+00
 Coeff:     -0.262D-03-0.166D-02 0.459D-02 0.172D-01 0.858D-01 0.289D+00
 Coeff:      0.605D+00
 Gap=     0.256 Goal=   None    Shift=    0.000
 RMSDP=7.15D-06 MaxDP=9.00D-05 DE=-5.93D-06 OVMax= 1.50D-04

 Cycle   8  Pass 1  IDiag  1:
 E= -209.172628967753     Delta-E=       -0.000000268327 Rises=F Damp=F
 DIIS: error= 1.31D-05 at cycle   8 NSaved=   8.
 NSaved= 8 IEnMin= 8 EnMin= -209.172628967753     IErMin= 8 ErrMin= 1.31D-05
 ErrMax= 1.31D-05  0.00D+00 EMaxC= 1.00D-01 BMatC= 3.56D-08 BMatP= 3.16D-07
 IDIUse=1 WtCom= 1.00D+00 WtEn= 0.00D+00
 Coeff-Com:  0.950D-04-0.459D-03 0.165D-03-0.938D-03 0.731D-02 0.220D-01
 Coeff-Com:  0.223D+00 0.749D+00
 Coeff:      0.950D-04-0.459D-03 0.165D-03-0.938D-03 0.731D-02 0.220D-01
 Coeff:      0.223D+00 0.749D+00
 Gap=     0.256 Goal=   None    Shift=    0.000
 RMSDP=1.93D-06 MaxDP=2.72D-05 DE=-2.68D-07 OVMax= 3.65D-05

 Cycle   9  Pass 1  IDiag  1:
 E= -209.172628997938     Delta-E=       -0.000000030186 Rises=F Damp=F
 DIIS: error= 2.32D-06 at cycle   9 NSaved=   9.
 NSaved= 9 IEnMin= 9 EnMin= -209.172628997938     IErMin= 9 ErrMin= 2.32D-06
 ErrMax= 2.32D-06  0.00D+00 EMaxC= 1.00D-01 BMatC= 7.64D-10 BMatP= 3.56D-08
 IDIUse=1 WtCom= 1.00D+00 WtEn= 0.00D+00
 Coeff-Com:  0.355D-04-0.873D-05-0.962D-04-0.816D-03-0.187D-02-0.100D-01
 Coeff-Com:  0.434D-03 0.856D-01 0.927D+00
 Coeff:      0.355D-04-0.873D-05-0.962D-04-0.816D-03-0.187D-02-0.100D-01
 Coeff:      0.434D-03 0.856D-01 0.927D+00
 Gap=     0.256 Goal=   None    Shift=    0.000
 RMSDP=4.99D-07 MaxDP=8.03D-06 DE=-3.02D-08 OVMax= 1.17D-05

 Cycle  10  Pass 1  IDiag  1:
 E= -209.172628998650     Delta-E=       -0.000000000712 Rises=F Damp=F
 DIIS: error= 2.21D-07 at cycle  10 NSaved=  10.
 NSaved=10 IEnMin=10 EnMin= -209.172628998650     IErMin=10 ErrMin= 2.21D-07
 ErrMax= 2.21D-07  0.00D+00 EMaxC= 1.00D-01 BMatC= 4.36D-12 BMatP= 7.64D-10
 IDIUse=1 WtCom= 1.00D+00 WtEn= 0.00D+00
 Coeff-Com:  0.235D-05 0.560D-05-0.140D-04-0.912D-04-0.333D-03-0.173D-02
 Coeff-Com: -0.327D-02-0.346D-02 0.144D+00 0.865D+00
 Coeff:      0.235D-05 0.560D-05-0.140D-04-0.912D-04-0.333D-03-0.173D-02
 Coeff:     -0.327D-02-0.346D-02 0.144D+00 0.865D+00
 Gap=     0.256 Goal=   None    Shift=    0.000
 RMSDP=4.09D-08 MaxDP=5.47D-07 DE=-7.12D-10 OVMax= 1.60D-06

 Cycle  11  Pass 1  IDiag  1:
 E= -209.172628998655     Delta-E=       -0.000000000005 Rises=F Damp=F
 DIIS: error= 4.46D-08 at cycle  11 NSaved=  11.
 NSaved=11 IEnMin=11 EnMin= -209.172628998655     IErMin=11 ErrMin= 4.46D-08
 ErrMax= 4.46D-08  0.00D+00 EMaxC= 1.00D-01 BMatC= 3.94D-13 BMatP= 4.36D-12
 IDIUse=1 WtCom= 1.00D+00 WtEn= 0.00D+00
 Coeff-Com: -0.518D-06 0.115D-05 0.974D-06 0.426D-05-0.106D-04-0.352D-04
 Coeff-Com: -0.632D-03-0.365D-02-0.489D-02 0.153D+00 0.857D+00
 Coeff:     -0.518D-06 0.115D-05 0.974D-06 0.426D-05-0.106D-04-0.352D-04
 Coeff:     -0.632D-03-0.365D-02-0.489D-02 0.153D+00 0.857D+00
 Gap=     0.256 Goal=   None    Shift=    0.000
 RMSDP=7.99D-09 MaxDP=8.94D-08 DE=-5.40D-12 OVMax= 1.28D-07

 Error on total polarization charges =  0.00381
 SCF Done:  E(RB3LYP) =  -209.172628999     A.U. after   11 cycles
            NFock= 11  Conv=0.80D-08     -V/T= 2.0059
 KE= 2.079366674277D+02 PE=-7.271288597605D+02 EE= 1.910192767844D+02
 Leave Link  502 at Fri Sep 22 16:27:39 2023, MaxMem=   268435456 cpu:              24.8 elap:              12.5
 (Enter /share/apps/gaussian/g16/l601.exe)
 Copying SCF densities to generalized density rwf, IOpCl= 0 IROHF=0.

 **********************************************************************

            Population analysis using the SCF density.

 **********************************************************************

 Orbital symmetries:
       Occupied  (A) (A) (A) (A) (A) (A) (A) (A) (A) (A) (A) (A)
                 (A) (A) (A) (A)
       Virtual   (A) (A) (A) (A) (A) (A) (A) (A) (A) (A) (A) (A)
                 (A) (A) (A) (A) (A) (A) (A) (A) (A) (A) (A) (A)
                 (A) (A) (A) (A) (A) (A) (A) (A) (A) (A) (A) (A)
                 (A) (A) (A) (A) (A) (A) (A) (A) (A) (A) (A) (A)
                 (A) (A) (A) (A) (A) (A) (A) (A) (A) (A) (A) (A)
                 (A) (A) (A) (A) (A)
 The electronic state is 1-A.
 Alpha  occ. eigenvalues --  -19.09061 -14.35856 -10.28251 -10.22260  -1.00911
 Alpha  occ. eigenvalues --   -0.92989  -0.72993  -0.60017  -0.55305  -0.46535
 Alpha  occ. eigenvalues --   -0.46003  -0.41737  -0.39398  -0.37294  -0.26475
 Alpha  occ. eigenvalues --   -0.25933
 Alpha virt. eigenvalues --   -0.00352   0.03229   0.06769   0.09790   0.10921
 Alpha virt. eigenvalues --    0.12076   0.16861   0.21882   0.30579   0.37325
 Alpha virt. eigenvalues --    0.38249   0.43855   0.47151   0.49547   0.55330
 Alpha virt. eigenvalues --    0.56882   0.58652   0.60532   0.63348   0.67268
 Alpha virt. eigenvalues --    0.70357   0.72360   0.80819   0.82584   0.92648
 Alpha virt. eigenvalues --    0.97542   1.05103   1.10108   1.31103   1.33373
 Alpha virt. eigenvalues --    1.35015   1.49056   1.55618   1.70812   1.75348
 Alpha virt. eigenvalues --    1.78813   1.82591   1.83966   1.84871   1.88353
 Alpha virt. eigenvalues --    1.90460   1.95686   2.01674   2.11320   2.15688
 Alpha virt. eigenvalues --    2.16445   2.21184   2.28679   2.31449   2.36346
 Alpha virt. eigenvalues --    2.40568   2.48919   2.54840   2.59751   2.68902
 Alpha virt. eigenvalues --    2.77792   2.83232   2.84278   2.98079   3.02003
 Alpha virt. eigenvalues --    3.13473   3.17655   3.21693   3.28133   3.52917
          Condensed to atoms (all electrons):
               1          2          3          4          5          6
     1  C    4.308745   0.351912  -0.034834   0.409081   0.590779  -0.015610
     2  N    0.351912   6.758800   0.254758  -0.076972  -0.091740   0.357786
     3  C   -0.034834   0.254758   4.621947   0.006503  -0.007195  -0.031679
     4  H    0.409081  -0.076972   0.006503   0.641940  -0.045002  -0.006622
     5  O    0.590779  -0.091740  -0.007195  -0.045002   8.042651   0.004005
     6  H   -0.015610   0.357786  -0.031679  -0.006622   0.004005   0.495494
     7  H    0.001446  -0.036969   0.408115   0.000019   0.000288  -0.007371
     8  H   -0.005918  -0.033662   0.398808   0.002481   0.023479   0.007553
     9  H    0.002755  -0.028800   0.402139  -0.000668  -0.000563  -0.001180
               7          8          9
     1  C    0.001446  -0.005918   0.002755
     2  N   -0.036969  -0.033662  -0.028800
     3  C    0.408115   0.398808   0.402139
     4  H    0.000019   0.002481  -0.000668
     5  O    0.000288   0.023479  -0.000563
     6  H   -0.007371   0.007553  -0.001180
     7  H    0.569300  -0.017823  -0.025155
     8  H   -0.017823   0.538057  -0.022350
     9  H   -0.025155  -0.022350   0.559479
 Mulliken charges:
               1
     1  C    0.391643
     2  N   -0.455114
     3  C   -0.018561
     4  H    0.069240
     5  O   -0.516702
     6  H    0.197623
     7  H    0.108152
     8  H    0.109375
     9  H    0.114343
 Sum of Mulliken charges =  -0.00000
 Mulliken charges with hydrogens summed into heavy atoms:
               1
     1  C    0.460883
     2  N   -0.257491
     3  C    0.313310
     5  O   -0.516702
 Electronic spatial extent (au):  <R**2>=            292.0108
 Charge=             -0.0000 electrons
 Dipole moment (field-independent basis, Debye):
    X=              4.0517    Y=              3.2840    Z=              0.6292  Tot=              5.2533
 Quadrupole moment (field-independent basis, Debye-Ang):
   XX=            -26.7213   YY=            -22.1601   ZZ=            -24.9646
   XY=             -3.2958   XZ=             -0.1146   YZ=              0.3789
 Traceless Quadrupole moment (field-independent basis, Debye-Ang):
   XX=             -2.1059   YY=              2.4552   ZZ=             -0.3493
   XY=             -3.2958   XZ=             -0.1146   YZ=              0.3789
 Octapole moment (field-independent basis, Debye-Ang**2):
  XXX=             10.8960  YYY=              6.7021  ZZZ=              0.3336  XYY=              2.3545
  XXY=              6.6094  XXZ=              0.2401  XZZ=              0.2643  YZZ=             -0.2278
  YYZ=              0.6537  XYZ=              0.0592
 Hexadecapole moment (field-independent basis, Debye-Ang**3):
 XXXX=           -262.9270 YYYY=            -76.9974 ZZZZ=            -32.0754 XXXY=             -5.1377
 XXXZ=             -0.5617 YYYX=              3.7574 YYYZ=              0.1847 ZZZX=              0.1064
 ZZZY=              0.7488 XXYY=            -54.9977 XXZZ=            -44.6926 YYZZ=            -20.7615
 XXYZ=              1.2463 YYXZ=             -0.3711 ZZXY=              0.4187
 N-N= 1.190002865498D+02 E-N=-7.271288582195D+02  KE= 2.079366674277D+02
 There are a total of      200122 grid points.
 ElSum from          density=       31.9999965754
 ElSum from atomic densities=       31.9999976974
 Hirshfeld populations at iteration   1 (CA, CB, DipXYZ):
               1          2          3          4          5
     1  C    2.935293   2.935293   0.039804   0.065345   0.018667
     2  N    3.532532   3.532532   0.047211  -0.021119   0.051262
     3  C    3.006694   3.006694  -0.010774   0.033885  -0.004810
     4  H    0.473578   0.473578  -0.062493   0.133163   0.032730
     5  O    4.184687   4.184687   0.118973   0.154825   0.006732
     6  H    0.433513   0.433513   0.075268   0.177931   0.022777
     7  H    0.477895   0.477895   0.079607   0.032386   0.114872
     8  H    0.477795   0.477795  -0.034404  -0.130969   0.027544
     9  H    0.478011   0.478011   0.086172  -0.014680  -0.115098
       Tot  15.999998  15.999998   0.339364   0.430767   0.154676

 Dip from Atomic Chgs              1.254698   0.861257   0.092880
         Total Dipole              1.594061   1.292024   0.247557

 Hirshfeld charges, spin densities, dipoles, and CM5 charges using IRadAn=      5:
              Q-H        S-H        Dx         Dy         Dz        Q-CM5   
     1  C    0.129414   0.000000   0.039804   0.065345   0.018667   0.174909
     2  N   -0.065065   0.000000   0.047211  -0.021119   0.051262  -0.426970
     3  C   -0.013388   0.000000  -0.010774   0.033885  -0.004810  -0.097858
     4  H    0.052844   0.000000  -0.062493   0.133163   0.032730   0.129118
     5  O   -0.369374   0.000000   0.118973   0.154825   0.006732  -0.410559
     6  H    0.132974   0.000000   0.075268   0.177931   0.022777   0.318322
     7  H    0.044210   0.000000   0.079607   0.032386   0.114872   0.102467
     8  H    0.044410   0.000000  -0.034404  -0.130969   0.027544   0.109798
     9  H    0.043978   0.000000   0.086172  -0.014680  -0.115098   0.100777
       Tot   0.000003   0.000000   0.339364   0.430767   0.154676   0.000003
 Hirshfeld charges with hydrogens summed into heavy atoms:
              Q-H       Q-CM5   
     1  C    0.182258   0.304026
     2  N    0.067909  -0.108648
     3  C    0.119211   0.215184
     5  O   -0.369374  -0.410559
 
 EQQ= 0.000000000000E+00 EQD= 0.000000000000E+00 EDD= 0.201138574612E-02
 EQQ+QD+DD= 0.201138574612E-02
 
 No NMR shielding tensors so no spin-rotation constants.
 Leave Link  601 at Fri Sep 22 16:27:40 2023, MaxMem=   268435456 cpu:               1.4 elap:               0.7
 (Enter /share/apps/gaussian/g16/l9999.exe)
 1\1\GINC-NODE99\SP\RB3LYP\Gen\C2H5N1O1\YANZ\22-Sep-2023\0\\#p b3lyp/ge
 n scrf=(cpcm,solvent=toluene) pop=hirshfeld empiricaldispersion=gd3bj\
 \tmpdir/M2_ref_55.gjf\\0,1\C,0,1.829817,-2.073215,1.76568103\N,0,0.512
 336,-2.178578,2.02839589\C,0,-0.128509,-2.195729,3.33460903\H,0,2.1032
 4272,-2.46684302,0.81274484\O,0,2.69302596,-1.53219665,2.57255861\H,0,
 -0.03841,-2.625953,1.28528094\H,0,-0.52764961,-3.22590564,3.49366843\H
 ,0,0.637928,-1.979767,4.07921505\H,0,-0.94124983,-1.42824407,3.3719152
 8\\Version=ES64L-G16RevA.03\State=1-A\HF=-209.172629\RMSD=7.986e-09\Di
 pole=-1.7437526,-0.9118535,-0.6320534\Quadrupole=-2.3973627,-0.240002,
 2.6373647,-0.8964208,-1.1323904,0.741607\PG=C01 [X(C2H5N1O1)]\\@


 REVOLUTIONS HAVE NEVER LIGHTENED THE BURDEN OF TYRANNY:
 THEY HAVE MERELY SHIFTED IT TO OTHER SHOULDERS.
                                   -- G. B. SHAW (1903)
 Job cpu time:       0 days  0 hours  0 minutes 28.9 seconds.
 Elapsed time:       0 days  0 hours  0 minutes 14.6 seconds.
 File lengths (MBytes):  RWF=     13 Int=      0 D2E=      0 Chk=      2 Scr=      1
 Normal termination of Gaussian 16 at Fri Sep 22 16:27:40 2023.
