 Entering Gaussian System, Link 0=g16
 Initial command:
 /share/apps/gaussian/g16/l1.exe "/tmp/55556.mgr/Gau-81751.inp" -scrdir="/tmp/55556.mgr/"
 Entering Link 1 = /share/apps/gaussian/g16/l1.exe PID=     81752.
  
 Copyright (c) 1988,1990,1992,1993,1995,1998,2003,2009,2016,
            Gaussian, Inc.  All Rights Reserved.
  
 This is part of the Gaussian(R) 16 program.  It is based on
 the Gaussian(R) 09 system (copyright 2009, Gaussian, Inc.),
 the Gaussian(R) 03 system (copyright 2003, Gaussian, Inc.),
 the Gaussian(R) 98 system (copyright 1998, Gaussian, Inc.),
 the Gaussian(R) 94 system (copyright 1995, Gaussian, Inc.),
 the Gaussian 92(TM) system (copyright 1992, Gaussian, Inc.),
 the Gaussian 90(TM) system (copyright 1990, Gaussian, Inc.),
 the Gaussian 88(TM) system (copyright 1988, Gaussian, Inc.),
 the Gaussian 86(TM) system (copyright 1986, Carnegie Mellon
 University), and the Gaussian 82(TM) system (copyright 1983,
 Carnegie Mellon University). Gaussian is a federally registered
 trademark of Gaussian, Inc.
  
 This software contains proprietary and confidential information,
 including trade secrets, belonging to Gaussian, Inc.
  
 This software is provided under written license and may be
 used, copied, transmitted, or stored only in accord with that
 written license.
  
 The following legend is applicable only to US Government
 contracts under FAR:
  
                    RESTRICTED RIGHTS LEGEND
  
 Use, reproduction and disclosure by the US Government is
 subject to restrictions as set forth in subparagraphs (a)
 and (c) of the Commercial Computer Software - Restricted
 Rights clause in FAR 52.227-19.
  
 Gaussian, Inc.
 340 Quinnipiac St., Bldg. 40, Wallingford CT 06492
  
  
 ---------------------------------------------------------------
 Warning -- This program may not be used in any manner that
 competes with the business of Gaussian, Inc. or will provide
 assistance to any competitor of Gaussian, Inc.  The licensee
 of this program is prohibited from giving any competitor of
 Gaussian, Inc. access to this program.  By using this program,
 the user acknowledges that Gaussian, Inc. is engaged in the
 business of creating and licensing software in the field of
 computational chemistry and represents and warrants to the
 licensee that it is not a competitor of Gaussian, Inc. and that
 it will not use this program in any manner prohibited above.
 ---------------------------------------------------------------
  

 Cite this work as:
 Gaussian 16, Revision A.03,
 M. J. Frisch, G. W. Trucks, H. B. Schlegel, G. E. Scuseria, 
 M. A. Robb, J. R. Cheeseman, G. Scalmani, V. Barone, 
 G. A. Petersson, H. Nakatsuji, X. Li, M. Caricato, A. V. Marenich, 
 J. Bloino, B. G. Janesko, R. Gomperts, B. Mennucci, H. P. Hratchian, 
 J. V. Ortiz, A. F. Izmaylov, J. L. Sonnenberg, D. Williams-Young, 
 F. Ding, F. Lipparini, F. Egidi, J. Goings, B. Peng, A. Petrone, 
 T. Henderson, D. Ranasinghe, V. G. Zakrzewski, J. Gao, N. Rega, 
 G. Zheng, W. Liang, M. Hada, M. Ehara, K. Toyota, R. Fukuda, 
 J. Hasegawa, M. Ishida, T. Nakajima, Y. Honda, O. Kitao, H. Nakai, 
 T. Vreven, K. Throssell, J. A. Montgomery, Jr., J. E. Peralta, 
 F. Ogliaro, M. J. Bearpark, J. J. Heyd, E. N. Brothers, K. N. Kudin, 
 V. N. Staroverov, T. A. Keith, R. Kobayashi, J. Normand, 
 K. Raghavachari, A. P. Rendell, J. C. Burant, S. S. Iyengar, 
 J. Tomasi, M. Cossi, J. M. Millam, M. Klene, C. Adamo, R. Cammi, 
 J. W. Ochterski, R. L. Martin, K. Morokuma, O. Farkas, 
 J. B. Foresman, and D. J. Fox, Gaussian, Inc., Wallingford CT, 2016.
 
 ******************************************
 Gaussian 16:  ES64L-G16RevA.03 25-Dec-2016
                22-Sep-2023 
 ******************************************
 %nprocshared=2
 Will use up to    2 processors via shared memory.
 %mem=2GB
 ----------------------------------------------------------------------
 #p b3lyp/gen scrf=(cpcm,solvent=toluene) pop=hirshfeld empiricaldisper
 sion=gd3bj
 ----------------------------------------------------------------------
 1/38=1,172=1/1;
 2/12=2,17=6,18=5,40=1/2;
 3/5=7,11=2,25=1,30=1,70=2101,72=13,74=-5,124=41/1,2,3;
 4//1;
 5/5=2,38=5,53=13/2;
 6/7=2,8=2,9=2,10=2,28=1,79=1/1;
 99/5=1,9=1/99;
 Leave Link    1 at Fri Sep 22 16:30:37 2023, MaxMem=   268435456 cpu:               0.1 elap:               0.0
 (Enter /share/apps/gaussian/g16/l101.exe)
 ---------------------
 tmpdir/M2_ref_301.gjf
 ---------------------
 Symbolic Z-matrix:
 Charge =  0 Multiplicity = 1
 C                    -1.97333   1.0814    1.37211 
 C                    -3.26151   0.48705   1.26309 
 C                    -3.91752   0.44448   0.05445 
 H                    -1.46154   1.21577   2.29983 
 O                    -1.45478   1.54754   0.3738 
 H                    -3.74433   0.08437   2.15081 
 H                    -3.49529   0.84725  -0.79192 
 H                    -4.89452  -0.02713  -0.02077 
 
 ITRead=  0  0  0  0  0  0  0  0
 MicOpt= -1 -1 -1 -1 -1 -1 -1 -1
 NAtoms=      8 NQM=        8 NQMF=       0 NMMI=      0 NMMIF=      0
                NMic=       0 NMicF=      0.
                    Isotopes and Nuclear Properties:
 (Nuclear quadrupole moments (NQMom) in fm**2, nuclear magnetic moments (NMagM)
  in nuclear magnetons)

  Atom         1           2           3           4           5           6           7           8
 IAtWgt=          12          12          12           1          16           1           1           1
 AtmWgt=  12.0000000  12.0000000  12.0000000   1.0078250  15.9949146   1.0078250   1.0078250   1.0078250
 NucSpn=           0           0           0           1           0           1           1           1
 AtZEff=  -0.0000000  -0.0000000  -0.0000000  -0.0000000  -0.0000000  -0.0000000  -0.0000000  -0.0000000
 NQMom=    0.0000000   0.0000000   0.0000000   0.0000000   0.0000000   0.0000000   0.0000000   0.0000000
 NMagM=    0.0000000   0.0000000   0.0000000   2.7928460   0.0000000   2.7928460   2.7928460   2.7928460
 AtZNuc=   6.0000000   6.0000000   6.0000000   1.0000000   8.0000000   1.0000000   1.0000000   1.0000000
 Leave Link  101 at Fri Sep 22 16:30:37 2023, MaxMem=   268435456 cpu:               0.2 elap:               0.1
 (Enter /share/apps/gaussian/g16/l202.exe)
                          Input orientation:                          
 ---------------------------------------------------------------------
 Center     Atomic      Atomic             Coordinates (Angstroms)
 Number     Number       Type             X           Y           Z
 ---------------------------------------------------------------------
      1          6           0       -1.973327    1.081404    1.372114
      2          6           0       -3.261506    0.487047    1.263092
      3          6           0       -3.917516    0.444478    0.054453
      4          1           0       -1.461537    1.215774    2.299827
      5          8           0       -1.454777    1.547543    0.373797
      6          1           0       -3.744334    0.084365    2.150805
      7          1           0       -3.495291    0.847248   -0.791916
      8          1           0       -4.894517   -0.027125   -0.020766
 ---------------------------------------------------------------------
                    Distance matrix (angstroms):
                    1          2          3          4          5
     1  C    0.000000
     2  C    1.422867   0.000000
     3  C    2.433470   1.375852   0.000000
     4  H    1.068006   2.201306   3.415909   0.000000
     5  O    1.217709   2.275910   2.717317   1.954408   0.000000
     6  H    2.176445   1.087801   2.134096   2.552147   3.246647
     7  H    2.655980   2.099395   1.028026   3.718984   2.452141
     8  H    3.420863   2.139951   1.087473   4.326118   3.803560
                    6          7          8
     6  H    0.000000
     7  H    3.050184   0.000000
     8  H    2.459893   1.821273   0.000000
 Stoichiometry    C3H4O
 Framework group  C1[X(C3H4O)]
 Deg. of freedom    18
 Full point group                 C1      NOp   1
 Largest Abelian subgroup         C1      NOp   1
 Largest concise Abelian subgroup C1      NOp   1
                         Standard orientation:                         
 ---------------------------------------------------------------------
 Center     Atomic      Atomic             Coordinates (Angstroms)
 Number     Number       Type             X           Y           Z
 ---------------------------------------------------------------------
      1          6           0       -0.818096    0.482177   -0.008766
      2          6           0        0.596333    0.636907   -0.008620
      3          6           0        1.424974   -0.461318    0.006368
      4          1           0       -1.501581    1.299396    0.066310
      5          8           0       -1.286321   -0.641898   -0.002616
      6          1           0        1.027615    1.635458    0.005603
      7          1           0        1.040710   -1.414631    0.025686
      8          1           0        2.504555   -0.331636   -0.010570
 ---------------------------------------------------------------------
 Rotational constants (GHZ):          21.7953742           6.8437368           5.2091004
 Leave Link  202 at Fri Sep 22 16:30:37 2023, MaxMem=   268435456 cpu:               0.0 elap:               0.0
 (Enter /share/apps/gaussian/g16/l301.exe)
 General basis read from cards:  (5D, 7F)
 Centers:       4      6      7      8
 S 3 1.00
     Exponent=  1.2251800000D+01 Coefficients=  2.3337100000D-02
     Exponent=  1.8687100000D+00 Coefficients=  1.5915000000D-01
     Exponent=  4.1820800000D-01 Coefficients=  5.0000000000D-01
 S 1 1.00
     Exponent=  1.0610000000D-01 Coefficients=  1.0000000000D+00
 P 1 1.00
     Exponent=  1.0000000000D+00 Coefficients=  1.0000000000D+00
 ****
 Centers:       1      2      3
 S 5 1.00
     Exponent=  1.2432000000D+03 Coefficients=  6.0336600000D-03
     Exponent=  1.8714500000D+02 Coefficients=  4.4957600000D-02
     Exponent=  4.2512600000D+01 Coefficients=  1.9790100000D-01
     Exponent=  1.1739300000D+01 Coefficients=  5.0000000000D-01
     Exponent=  3.5054800000D+00 Coefficients=  4.8036400000D-01
 S 2 1.00
     Exponent=  5.3908900000D+00 Coefficients= -7.0398000000D-02
     Exponent=  4.9334100000D-01 Coefficients=  5.0000000000D-01
 S 1 1.00
     Exponent=  1.4974100000D-01 Coefficients=  1.0000000000D+00
 P 3 1.00
     Exponent=  9.1805600000D+00 Coefficients=  4.3170100000D-02
     Exponent=  1.9365800000D+00 Coefficients=  2.2499900000D-01
     Exponent=  5.2629600000D-01 Coefficients=  5.0000000000D-01
 P 1 1.00
     Exponent=  1.3631900000D-01 Coefficients=  1.0000000000D+00
 D 1 1.00
     Exponent=  8.0000000000D-01 Coefficients=  1.0000000000D+00
 ****
 Centers:       5
 S 5 1.00
     Exponent=  2.2886400000D+03 Coefficients=  5.8546800000D-03
     Exponent=  3.4441600000D+02 Coefficients=  4.3733300000D-02
     Exponent=  7.8253800000D+01 Coefficients=  1.9479600000D-01
     Exponent=  2.1719500000D+01 Coefficients=  5.0000000000D-01
     Exponent=  6.5590700000D+00 Coefficients=  4.8461400000D-01
 S 2 1.00
     Exponent=  1.0465600000D+01 Coefficients= -7.1334300000D-02
     Exponent=  9.6435100000D-01 Coefficients=  5.0000000000D-01
 S 1 1.00
     Exponent=  2.8512700000D-01 Coefficients=  1.0000000000D+00
 P 3 1.00
     Exponent=  1.7059000000D+01 Coefficients=  4.7443900000D-02
     Exponent=  3.6899900000D+00 Coefficients=  2.4268900000D-01
     Exponent=  9.9299600000D-01 Coefficients=  5.0000000000D-01
 P 1 1.00
     Exponent=  2.4492400000D-01 Coefficients=  1.0000000000D+00
 D 1 1.00
     Exponent=  1.0000000000D+00 Coefficients=  1.0000000000D+00
 ****
 Ernie: Thresh=  0.10000D-02 Tol=  0.10000D-05 Strict=F.
 There are    80 symmetry adapted cartesian basis functions of A   symmetry.
 There are    76 symmetry adapted basis functions of A   symmetry.
    76 basis functions,   132 primitive gaussians,    80 cartesian basis functions
    15 alpha electrons       15 beta electrons
       nuclear repulsion energy       106.2294881613 Hartrees.
 IExCor=  402 DFT=T Ex+Corr=B3LYP ExCW=0 ScaHFX=  0.200000
 ScaDFX=  0.800000  0.720000  1.000000  0.810000 ScalE2=  1.000000  1.000000
 IRadAn=      5 IRanWt=     -1 IRanGd=            0 ICorTp=0 IEmpDi=141
 NAtoms=    8 NActive=    8 NUniq=    8 SFac= 1.00D+00 NAtFMM=   60 NAOKFM=F Big=F
 Integral buffers will be    131072 words long.
 Raffenetti 2 integral format.
 Two-electron integral symmetry is turned on.
 R6Disp:  Grimme-D3(BJ) Dispersion energy=       -0.0082360583 Hartrees.
 Nuclear repulsion after empirical dispersion term =      106.2212521029 Hartrees.
 ------------------------------------------------------------------------------
 Polarizable Continuum Model (PCM)
 =================================
 Model                : C-PCM.
 Atomic radii         : UFF (Universal Force Field).
 Polarization charges : Total charges.
 Charge compensation  : None.
 Solution method      : On-the-fly selection.
 Cavity type          : Scaled VdW (van der Waals Surface) (Alpha=1.100).
 Cavity algorithm     : GePol (No added spheres)
                        Default sphere list used, NSphG=    8.
                        Lebedev-Laikov grids with approx.  5.0 points / Ang**2.
                        Smoothing algorithm: York/Karplus (Gamma=1.0000).
                        Polarization charges: spherical gaussians, with
                                              point-specific exponents (IZeta= 3).
                        Self-potential: point-specific (ISelfS= 7).
                        Self-field    : sphere-specific E.n sum rule (ISelfD= 2).
 Solvent              : Toluene, Eps=   2.374100 Eps(inf)=   2.238315
 ------------------------------------------------------------------------------
 Spheres list:
 ISph  on   Nord     Re0    Alpha      Xe            Ye            Ze
    1   C      1    1.9255  1.100     -0.818096      0.482177     -0.008766
    2   C      2    1.9255  1.100      0.596333      0.636907     -0.008620
    3   C      3    1.9255  1.100      1.424974     -0.461318      0.006368
    4   H      4    1.4430  1.100     -1.501581      1.299396      0.066310
    5   O      5    1.7500  1.100     -1.286321     -0.641898     -0.002616
    6   H      6    1.4430  1.100      1.027615      1.635458      0.005603
    7   H      7    1.4430  1.100      1.040710     -1.414631      0.025686
    8   H      8    1.4430  1.100      2.504555     -0.331636     -0.010570
 ------------------------------------------------------------------------------
 GePol: Number of generator spheres                  =       8
 GePol: Total number of spheres                      =       8
 GePol: Number of exposed spheres                    =       8 (100.00%)
 GePol: Number of points                             =     840
 GePol: Average weight of points                     =       0.14
 GePol: Minimum weight of points                     =   0.23D-11
 GePol: Maximum weight of points                     =    0.20577
 GePol: Number of points with low weight             =      53
 GePol: Fraction of low-weight points (<1% of avg)   =       6.31%
 GePol: Cavity surface area                          =    113.497 Ang**2
 GePol: Cavity volume                                =     98.181 Ang**3
 Leave Link  301 at Fri Sep 22 16:30:38 2023, MaxMem=   268435456 cpu:               0.2 elap:               0.1
 (Enter /share/apps/gaussian/g16/l302.exe)
 NPDir=0 NMtPBC=     1 NCelOv=     1 NCel=       1 NClECP=     1 NCelD=      1
         NCelK=      1 NCelE2=     1 NClLst=     1 CellRange=     0.0.
 One-electron integrals computed using PRISM.
 One-electron integral symmetry used in STVInt
 NBasis=    76 RedAO= T EigKep=  3.14D-03  NBF=    76
 NBsUse=    76 1.00D-06 EigRej= -1.00D+00 NBFU=    76
 Precomputing XC quadrature grid using
 IXCGrd= 4 IRadAn=           5 IRanWt=          -1 IRanGd=           0 AccXCQ= 0.00D+00.
 Generated NRdTot=       0 NPtTot=           0 NUsed=           0 NTot=          32
 NSgBfM=    80    80    80    80    80 MxSgAt=     8 MxSgA2=     8.
 Leave Link  302 at Fri Sep 22 16:30:38 2023, MaxMem=   268435456 cpu:               0.3 elap:               0.2
 (Enter /share/apps/gaussian/g16/l303.exe)
 DipDrv:  MaxL=1.
 Leave Link  303 at Fri Sep 22 16:30:38 2023, MaxMem=   268435456 cpu:               0.1 elap:               0.0
 (Enter /share/apps/gaussian/g16/l401.exe)
 ExpMin= 1.06D-01 ExpMax= 2.29D+03 ExpMxC= 3.44D+02 IAcc=3 IRadAn=         5 AccDes= 0.00D+00
 Harris functional with IExCor=  402 and IRadAn=       5 diagonalized for initial guess.
 HarFok:  IExCor=  402 AccDes= 0.00D+00 IRadAn=         5 IDoV= 1 UseB2=F ITyADJ=14
 ICtDFT=  3500011 ScaDFX=  1.000000  1.000000  1.000000  1.000000
 FoFCou: FMM=F IPFlag=           0 FMFlag=      100000 FMFlg1=           0
         NFxFlg=           0 DoJE=T BraDBF=F KetDBF=T FulRan=T
         wScrn=  0.000000 ICntrl=       500 IOpCl=  0 I1Cent=   200000004 NGrid=           0
         NMat0=    1 NMatS0=      1 NMatT0=    0 NMatD0=    1 NMtDS0=    0 NMtDT0=    0
 Petite list used in FoFCou.
 Harris En= -191.902550539743    
 JPrj=0 DoOrth=F DoCkMO=F.
 Leave Link  401 at Fri Sep 22 16:30:39 2023, MaxMem=   268435456 cpu:               1.5 elap:               0.8
 (Enter /share/apps/gaussian/g16/l502.exe)
 Keep R1 ints in memory in canonical form, NReq=6092111.
 FoFCou: FMM=F IPFlag=           0 FMFlag=           0 FMFlg1=           0
         NFxFlg=           0 DoJE=F BraDBF=F KetDBF=F FulRan=T
         wScrn=  0.000000 ICntrl=       600 IOpCl=  0 I1Cent=           0 NGrid=           0
         NMat0=    1 NMatS0=   2926 NMatT0=    0 NMatD0=    1 NMtDS0=    0 NMtDT0=    0
 Symmetry not used in FoFCou.
 Two-electron integral symmetry not used.
 Closed shell SCF:
 Using DIIS extrapolation, IDIIS=  1040.
 NGot=   268435456 LenX=   264138979 LenY=   264132138
 Requested convergence on RMS density matrix=1.00D-08 within 128 cycles.
 Requested convergence on MAX density matrix=1.00D-06.
 Requested convergence on             energy=1.00D-06.
 No special actions if energy rises.

 Cycle   1  Pass 1  IDiag  1:
 Inv3:  Mode=1 IEnd=     2116800.
 Iteration    1 A*A^-1 deviation from unit magnitude is 4.00D-15 for    835.
 Iteration    1 A*A^-1 deviation from orthogonality  is 2.17D-15 for    831    662.
 Iteration    1 A^-1*A deviation from unit magnitude is 4.00D-15 for    835.
 Iteration    1 A^-1*A deviation from orthogonality  is 1.01D-15 for    557    249.
 E= -191.779799206221    
 DIIS: error= 3.30D-02 at cycle   1 NSaved=   1.
 NSaved= 1 IEnMin= 1 EnMin= -191.779799206221     IErMin= 1 ErrMin= 3.30D-02
 ErrMax= 3.30D-02  0.00D+00 EMaxC= 1.00D-01 BMatC= 1.04D-01 BMatP= 1.04D-01
 IDIUse=3 WtCom= 6.70D-01 WtEn= 3.30D-01
 Coeff-Com:  0.100D+01
 Coeff-En:   0.100D+01
 Coeff:      0.100D+01
 Gap=     0.130 Goal=   None    Shift=    0.000
 GapD=    0.130 DampG=1.000 DampE=0.500 DampFc=0.5000 IDamp=-1.
 Damping current iteration by 5.00D-01
 RMSDP=1.14D-02 MaxDP=2.34D-01              OVMax= 2.07D-01

 Cycle   2  Pass 1  IDiag  1:
 E= -191.811248536376     Delta-E=       -0.031449330155 Rises=F Damp=T
 DIIS: error= 1.20D-02 at cycle   2 NSaved=   2.
 NSaved= 2 IEnMin= 2 EnMin= -191.811248536376     IErMin= 2 ErrMin= 1.20D-02
 ErrMax= 1.20D-02  0.00D+00 EMaxC= 1.00D-01 BMatC= 1.54D-02 BMatP= 1.04D-01
 IDIUse=3 WtCom= 8.80D-01 WtEn= 1.20D-01
 Coeff-Com:  0.220D+00 0.780D+00
 Coeff-En:   0.306D+00 0.694D+00
 Coeff:      0.231D+00 0.769D+00
 Gap=     0.194 Goal=   None    Shift=    0.000
 RMSDP=3.34D-03 MaxDP=5.91D-02 DE=-3.14D-02 OVMax= 1.40D-01

 Cycle   3  Pass 1  IDiag  1:
 E= -191.869303070723     Delta-E=       -0.058054534347 Rises=F Damp=F
 DIIS: error= 1.54D-02 at cycle   3 NSaved=   3.
 NSaved= 3 IEnMin= 3 EnMin= -191.869303070723     IErMin= 2 ErrMin= 1.20D-02
 ErrMax= 1.54D-02  0.00D+00 EMaxC= 1.00D-01 BMatC= 1.34D-02 BMatP= 1.54D-02
 IDIUse=3 WtCom= 8.46D-01 WtEn= 1.54D-01
 Coeff-Com:  0.672D-01 0.483D+00 0.450D+00
 Coeff-En:   0.000D+00 0.000D+00 0.100D+01
 Coeff:      0.568D-01 0.408D+00 0.535D+00
 Gap=     0.198 Goal=   None    Shift=    0.000
 RMSDP=1.86D-03 MaxDP=3.77D-02 DE=-5.81D-02 OVMax= 6.02D-02

 Cycle   4  Pass 1  IDiag  1:
 E= -191.879738027931     Delta-E=       -0.010434957208 Rises=F Damp=F
 DIIS: error= 6.07D-03 at cycle   4 NSaved=   4.
 NSaved= 4 IEnMin= 4 EnMin= -191.879738027931     IErMin= 4 ErrMin= 6.07D-03
 ErrMax= 6.07D-03  0.00D+00 EMaxC= 1.00D-01 BMatC= 2.31D-03 BMatP= 1.34D-02
 IDIUse=3 WtCom= 9.39D-01 WtEn= 6.07D-02
 Coeff-Com:  0.179D-01 0.477D-01 0.293D+00 0.642D+00
 Coeff-En:   0.000D+00 0.000D+00 0.160D+00 0.840D+00
 Coeff:      0.168D-01 0.448D-01 0.285D+00 0.654D+00
 Gap=     0.181 Goal=   None    Shift=    0.000
 RMSDP=6.31D-04 MaxDP=1.18D-02 DE=-1.04D-02 OVMax= 2.04D-02

 Cycle   5  Pass 1  IDiag  1:
 E= -191.881645377929     Delta-E=       -0.001907349998 Rises=F Damp=F
 DIIS: error= 7.22D-04 at cycle   5 NSaved=   5.
 NSaved= 5 IEnMin= 5 EnMin= -191.881645377929     IErMin= 5 ErrMin= 7.22D-04
 ErrMax= 7.22D-04  0.00D+00 EMaxC= 1.00D-01 BMatC= 4.28D-05 BMatP= 2.31D-03
 IDIUse=3 WtCom= 9.93D-01 WtEn= 7.22D-03
 Coeff-Com:  0.523D-02 0.182D-02 0.117D+00 0.316D+00 0.560D+00
 Coeff-En:   0.000D+00 0.000D+00 0.000D+00 0.000D+00 0.100D+01
 Coeff:      0.520D-02 0.180D-02 0.116D+00 0.314D+00 0.563D+00
 Gap=     0.179 Goal=   None    Shift=    0.000
 RMSDP=1.21D-04 MaxDP=2.59D-03 DE=-1.91D-03 OVMax= 6.01D-03

 Cycle   6  Pass 1  IDiag  1:
 E= -191.881681593482     Delta-E=       -0.000036215553 Rises=F Damp=F
 DIIS: error= 3.56D-04 at cycle   6 NSaved=   6.
 NSaved= 6 IEnMin= 6 EnMin= -191.881681593482     IErMin= 6 ErrMin= 3.56D-04
 ErrMax= 3.56D-04  0.00D+00 EMaxC= 1.00D-01 BMatC= 1.01D-05 BMatP= 4.28D-05
 IDIUse=3 WtCom= 9.96D-01 WtEn= 3.56D-03
 Coeff-Com:  0.138D-02-0.422D-02 0.371D-01 0.111D+00 0.358D+00 0.497D+00
 Coeff-En:   0.000D+00 0.000D+00 0.000D+00 0.000D+00 0.201D+00 0.799D+00
 Coeff:      0.138D-02-0.421D-02 0.370D-01 0.111D+00 0.357D+00 0.498D+00
 Gap=     0.179 Goal=   None    Shift=    0.000
 RMSDP=4.02D-05 MaxDP=1.05D-03 DE=-3.62D-05 OVMax= 2.15D-03

 Cycle   7  Pass 1  IDiag  1:
 E= -191.881692056175     Delta-E=       -0.000010462693 Rises=F Damp=F
 DIIS: error= 6.88D-05 at cycle   7 NSaved=   7.
 NSaved= 7 IEnMin= 7 EnMin= -191.881692056175     IErMin= 7 ErrMin= 6.88D-05
 ErrMax= 6.88D-05  0.00D+00 EMaxC= 1.00D-01 BMatC= 4.70D-07 BMatP= 1.01D-05
 IDIUse=1 WtCom= 1.00D+00 WtEn= 0.00D+00
 Coeff-Com:  0.368D-03-0.261D-02 0.101D-01 0.315D-01 0.147D+00 0.252D+00
 Coeff-Com:  0.562D+00
 Coeff:      0.368D-03-0.261D-02 0.101D-01 0.315D-01 0.147D+00 0.252D+00
 Coeff:      0.562D+00
 Gap=     0.180 Goal=   None    Shift=    0.000
 RMSDP=9.67D-06 MaxDP=1.84D-04 DE=-1.05D-05 OVMax= 2.59D-04

 Cycle   8  Pass 1  IDiag  1:
 E= -191.881692491908     Delta-E=       -0.000000435733 Rises=F Damp=F
 DIIS: error= 8.48D-06 at cycle   8 NSaved=   8.
 NSaved= 8 IEnMin= 8 EnMin= -191.881692491908     IErMin= 8 ErrMin= 8.48D-06
 ErrMax= 8.48D-06  0.00D+00 EMaxC= 1.00D-01 BMatC= 1.11D-08 BMatP= 4.70D-07
 IDIUse=1 WtCom= 1.00D+00 WtEn= 0.00D+00
 Coeff-Com:  0.520D-04-0.456D-03 0.337D-03 0.611D-03 0.153D-01 0.238D-01
 Coeff-Com:  0.138D+00 0.823D+00
 Coeff:      0.520D-04-0.456D-03 0.337D-03 0.611D-03 0.153D-01 0.238D-01
 Coeff:      0.138D+00 0.823D+00
 Gap=     0.180 Goal=   None    Shift=    0.000
 RMSDP=1.50D-06 MaxDP=2.09D-05 DE=-4.36D-07 OVMax= 4.66D-05

 Cycle   9  Pass 1  IDiag  1:
 E= -191.881692502361     Delta-E=       -0.000000010453 Rises=F Damp=F
 DIIS: error= 9.77D-07 at cycle   9 NSaved=   9.
 NSaved= 9 IEnMin= 9 EnMin= -191.881692502361     IErMin= 9 ErrMin= 9.77D-07
 ErrMax= 9.77D-07  0.00D+00 EMaxC= 1.00D-01 BMatC= 1.43D-10 BMatP= 1.11D-08
 IDIUse=1 WtCom= 1.00D+00 WtEn= 0.00D+00
 Coeff-Com:  0.187D-05 0.146D-04-0.198D-03-0.801D-03-0.223D-02-0.480D-02
 Coeff-Com: -0.333D-02 0.927D-01 0.919D+00
 Coeff:      0.187D-05 0.146D-04-0.198D-03-0.801D-03-0.223D-02-0.480D-02
 Coeff:     -0.333D-02 0.927D-01 0.919D+00
 Gap=     0.180 Goal=   None    Shift=    0.000
 RMSDP=3.81D-07 MaxDP=7.62D-06 DE=-1.05D-08 OVMax= 5.14D-06

 Cycle  10  Pass 1  IDiag  1:
 E= -191.881692502510     Delta-E=       -0.000000000150 Rises=F Damp=F
 DIIS: error= 1.45D-07 at cycle  10 NSaved=  10.
 NSaved=10 IEnMin=10 EnMin= -191.881692502510     IErMin=10 ErrMin= 1.45D-07
 ErrMax= 1.45D-07  0.00D+00 EMaxC= 1.00D-01 BMatC= 1.85D-12 BMatP= 1.43D-10
 IDIUse=1 WtCom= 1.00D+00 WtEn= 0.00D+00
 Coeff-Com: -0.109D-05 0.108D-04-0.304D-04-0.125D-03-0.578D-03-0.112D-02
 Coeff-Com: -0.281D-02-0.357D-02 0.138D+00 0.870D+00
 Coeff:     -0.109D-05 0.108D-04-0.304D-04-0.125D-03-0.578D-03-0.112D-02
 Coeff:     -0.281D-02-0.357D-02 0.138D+00 0.870D+00
 Gap=     0.180 Goal=   None    Shift=    0.000
 RMSDP=3.09D-08 MaxDP=3.60D-07 DE=-1.50D-10 OVMax= 9.70D-07

 Cycle  11  Pass 1  IDiag  1:
 E= -191.881692502514     Delta-E=       -0.000000000004 Rises=F Damp=F
 DIIS: error= 2.80D-08 at cycle  11 NSaved=  11.
 NSaved=11 IEnMin=11 EnMin= -191.881692502514     IErMin=11 ErrMin= 2.80D-08
 ErrMax= 2.80D-08  0.00D+00 EMaxC= 1.00D-01 BMatC= 1.15D-13 BMatP= 1.85D-12
 IDIUse=1 WtCom= 1.00D+00 WtEn= 0.00D+00
 Coeff-Com: -0.266D-06 0.982D-06 0.106D-05 0.957D-06-0.129D-04-0.476D-04
 Coeff-Com: -0.221D-03-0.303D-02-0.936D-02 0.974D-01 0.915D+00
 Coeff:     -0.266D-06 0.982D-06 0.106D-05 0.957D-06-0.129D-04-0.476D-04
 Coeff:     -0.221D-03-0.303D-02-0.936D-02 0.974D-01 0.915D+00
 Gap=     0.180 Goal=   None    Shift=    0.000
 RMSDP=8.23D-09 MaxDP=1.14D-07 DE=-3.81D-12 OVMax= 2.33D-07

 Error on total polarization charges =  0.00466
 SCF Done:  E(RB3LYP) =  -191.881692503     A.U. after   11 cycles
            NFock= 11  Conv=0.82D-08     -V/T= 2.0038
 KE= 1.911508630079D+02 PE=-6.607747242860D+02 EE= 1.715209166726D+02
 Leave Link  502 at Fri Sep 22 16:30:50 2023, MaxMem=   268435456 cpu:              22.3 elap:              11.2
 (Enter /share/apps/gaussian/g16/l601.exe)
 Copying SCF densities to generalized density rwf, IOpCl= 0 IROHF=0.

 **********************************************************************

            Population analysis using the SCF density.

 **********************************************************************

 Orbital symmetries:
       Occupied  (A) (A) (A) (A) (A) (A) (A) (A) (A) (A) (A) (A)
                 (A) (A) (A)
       Virtual   (A) (A) (A) (A) (A) (A) (A) (A) (A) (A) (A) (A)
                 (A) (A) (A) (A) (A) (A) (A) (A) (A) (A) (A) (A)
                 (A) (A) (A) (A) (A) (A) (A) (A) (A) (A) (A) (A)
                 (A) (A) (A) (A) (A) (A) (A) (A) (A) (A) (A) (A)
                 (A) (A) (A) (A) (A) (A) (A) (A) (A) (A) (A) (A)
                 (A)
 The electronic state is 1-A.
 Alpha  occ. eigenvalues --  -19.11813 -10.26306 -10.20739 -10.19713  -1.05556
 Alpha  occ. eigenvalues --   -0.79956  -0.67456  -0.56042  -0.52488  -0.45835
 Alpha  occ. eigenvalues --   -0.43133  -0.41084  -0.39506  -0.28854  -0.26815
 Alpha virt. eigenvalues --   -0.08857   0.05222   0.05743   0.08273   0.10642
 Alpha virt. eigenvalues --    0.13336   0.21961   0.25402   0.28669   0.40183
 Alpha virt. eigenvalues --    0.41162   0.45603   0.46342   0.48147   0.51731
 Alpha virt. eigenvalues --    0.52679   0.60891   0.62930   0.63948   0.67825
 Alpha virt. eigenvalues --    0.72082   0.76175   0.84844   0.90022   0.94677
 Alpha virt. eigenvalues --    0.95513   1.01845   1.13037   1.27237   1.31563
 Alpha virt. eigenvalues --    1.38251   1.51476   1.66408   1.68741   1.75278
 Alpha virt. eigenvalues --    1.81669   1.84142   1.86191   1.89737   1.94785
 Alpha virt. eigenvalues --    2.04062   2.08697   2.12609   2.20466   2.22344
 Alpha virt. eigenvalues --    2.23848   2.29633   2.37100   2.43241   2.46012
 Alpha virt. eigenvalues --    2.60280   2.64926   2.67746   2.83155   2.88659
 Alpha virt. eigenvalues --    3.02675   3.07861   3.20412   3.24169   3.41250
 Alpha virt. eigenvalues --    3.64740
          Condensed to atoms (all electrons):
               1          2          3          4          5          6
     1  C    4.459087   0.277083  -0.064444   0.430566   0.633247  -0.035144
     2  C    0.277083   5.320513   0.588220  -0.112579  -0.136032   0.394882
     3  C   -0.064444   0.588220   4.711497   0.013140  -0.000688  -0.033507
     4  H    0.430566  -0.112579   0.013140   0.674398  -0.055484  -0.004151
     5  O    0.633247  -0.136032  -0.000688  -0.055484   7.910159   0.005016
     6  H   -0.035144   0.394882  -0.033507  -0.004151   0.005016   0.588387
     7  H   -0.019580  -0.033428   0.405401   0.001876   0.022904   0.009054
     8  H    0.009388  -0.028104   0.390429   0.000004   0.000728  -0.012173
               7          8
     1  C   -0.019580   0.009388
     2  C   -0.033428  -0.028104
     3  C    0.405401   0.390429
     4  H    0.001876   0.000004
     5  O    0.022904   0.000728
     6  H    0.009054  -0.012173
     7  H    0.559547  -0.036528
     8  H   -0.036528   0.556218
 Mulliken charges:
               1
     1  C    0.309797
     2  C   -0.270556
     3  C   -0.010048
     4  H    0.052230
     5  O   -0.379851
     6  H    0.087636
     7  H    0.090754
     8  H    0.120037
 Sum of Mulliken charges =  -0.00000
 Mulliken charges with hydrogens summed into heavy atoms:
               1
     1  C    0.362027
     2  C   -0.182920
     3  C    0.200743
     5  O   -0.379851
 Electronic spatial extent (au):  <R**2>=            256.9427
 Charge=             -0.0000 electrons
 Dipole moment (field-independent basis, Debye):
    X=              2.2255    Y=              2.0455    Z=              0.0424  Tot=              3.0230
 Quadrupole moment (field-independent basis, Debye-Ang):
   XX=            -23.6514   YY=            -22.5960   ZZ=            -24.9950
   XY=             -3.6188   XZ=             -0.0272   YZ=              0.0062
 Traceless Quadrupole moment (field-independent basis, Debye-Ang):
   XX=              0.0961   YY=              1.1515   ZZ=             -1.2476
   XY=             -3.6188   XZ=             -0.0272   YZ=              0.0062
 Octapole moment (field-independent basis, Debye-Ang**2):
  XXX=              5.8949  YYY=             -0.1880  ZZZ=              0.0576  XYY=              0.5301
  XXY=              3.0269  XXZ=              0.0173  XZZ=             -3.4386  YZZ=             -1.0437
  YYZ=              0.1707  XYZ=             -0.0432
 Hexadecapole moment (field-independent basis, Debye-Ang**3):
 XXXX=           -208.0976 YYYY=            -85.9284 ZZZZ=            -26.4055 XXXY=             -6.5637
 XXXZ=             -0.3345 YYYX=              0.4380 YYYZ=              0.0763 ZZZX=              0.0139
 ZZZY=              0.0104 XXYY=            -50.4854 XXZZ=            -42.7220 YYZZ=            -20.0597
 XXYZ=              0.1777 YYXZ=             -0.0457 ZZXY=              0.2442
 N-N= 1.062212521029D+02 E-N=-6.607747243182D+02  KE= 1.911508630079D+02
 There are a total of      177562 grid points.
 ElSum from          density=       30.0000020375
 ElSum from atomic densities=       29.9999960038
 Hirshfeld populations at iteration   1 (CA, CB, DipXYZ):
               1          2          3          4          5
     1  C    2.936339   2.936339   0.000507   0.083516  -0.013771
     2  C    3.020662   3.020662  -0.059662   0.072548   0.001082
     3  C    3.006676   3.006676   0.075260  -0.084921   0.002499
     4  H    0.475744   0.475744  -0.088198   0.104785   0.011706
     5  O    4.131566   4.131566   0.103720   0.134150   0.003322
     6  H    0.478888   0.478888   0.055923   0.141011   0.003517
     7  H    0.477423   0.477423  -0.019715  -0.149245   0.004124
     8  H    0.472703   0.472703   0.155934   0.011133  -0.003134
       Tot  15.000001  15.000001   0.223768   0.312976   0.009345

 Dip from Atomic Chgs              0.651797   0.491798   0.007331
         Total Dipole              0.875565   0.804774   0.016677

 Hirshfeld charges, spin densities, dipoles, and CM5 charges using IRadAn=      5:
              Q-H        S-H        Dx         Dy         Dz        Q-CM5   
     1  C    0.127321   0.000000   0.000507   0.083516  -0.013771   0.108318
     2  C   -0.041324   0.000000  -0.059662   0.072548   0.001082  -0.097293
     3  C   -0.013351   0.000000   0.075260  -0.084921   0.002499  -0.120004
     4  H    0.048512   0.000000  -0.088198   0.104785   0.011706   0.116442
     5  O   -0.263132   0.000000   0.103720   0.134150   0.003322  -0.321632
     6  H    0.042225   0.000000   0.055923   0.141011   0.003517   0.097705
     7  H    0.045153   0.000000  -0.019715  -0.149245   0.004124   0.109937
     8  H    0.054594   0.000000   0.155934   0.011133  -0.003134   0.106524
       Tot  -0.000002   0.000000   0.223768   0.312976   0.009345  -0.000002
 Hirshfeld charges with hydrogens summed into heavy atoms:
              Q-H       Q-CM5   
     1  C    0.175833   0.224760
     2  C    0.000901   0.000412
     3  C    0.086396   0.096458
     5  O   -0.263132  -0.321632
 
 EQQ= 0.000000000000E+00 EQD= 0.000000000000E+00 EDD= 0.489268123322E-02
 EQQ+QD+DD= 0.489268123322E-02
 
 No NMR shielding tensors so no spin-rotation constants.
 Leave Link  601 at Fri Sep 22 16:30:50 2023, MaxMem=   268435456 cpu:               1.2 elap:               0.6
 (Enter /share/apps/gaussian/g16/l9999.exe)
 1\1\GINC-NODE99\SP\RB3LYP\Gen\C3H4O1\YANZ\22-Sep-2023\0\\#p b3lyp/gen 
 scrf=(cpcm,solvent=toluene) pop=hirshfeld empiricaldispersion=gd3bj\\t
 mpdir/M2_ref_301.gjf\\0,1\C,0,-1.973327,1.081404,1.37211394\C,0,-3.261
 506,0.487047,1.26309204\C,0,-3.917516,0.444478,0.054453\H,0,-1.4615374
 3,1.21577389,2.29982742\O,0,-1.45477722,1.54754259,0.37379672\H,0,-3.7
 44334,0.084365,2.150805\H,0,-3.49529067,0.84724817,-0.79191592\H,0,-4.
 894517,-0.027125,-0.020766\\Version=ES64L-G16RevA.03\State=1-A\HF=-191
 .8816925\RMSD=8.233e-09\Dipole=-0.867075,-0.5276232,0.6199603\Quadrupo
 le=-0.5459494,-1.1735858,1.7195352,-0.2840388,2.3088201,0.5575066\PG=C
 01 [X(C3H4O1)]\\@


 THE TRULY SUCCESSFUL PERFORMANCE OF RESEARCHES IN
 INORGANIC CHEMISTRY IS POSSIBLE ONLY TO ONE WHO IS NOT
 ONLY A THEORETICAL CHEMIST, BUT ALSO AN ACCOMPLISHED
 ANALYST AND, MOREOVER, NOT MERELY A PRACTICALLY TRAINED,
 MECHANICAL WORKER, BUT A THINKING CREATIVE ARTIST.
   --  CLEMENS WINKLER, BER. 33, 1697(1900)
 Job cpu time:       0 days  0 hours  0 minutes 26.0 seconds.
 Elapsed time:       0 days  0 hours  0 minutes 13.2 seconds.
 File lengths (MBytes):  RWF=     13 Int=      0 D2E=      0 Chk=      2 Scr=      1
 Normal termination of Gaussian 16 at Fri Sep 22 16:30:51 2023.
