 Entering Gaussian System, Link 0=g16
 Initial command:
 /share/apps/gaussian/g16/l1.exe "/tmp/55557.mgr/Gau-215528.inp" -scrdir="/tmp/55557.mgr/"
 Entering Link 1 = /share/apps/gaussian/g16/l1.exe PID=    215529.
  
 Copyright (c) 1988,1990,1992,1993,1995,1998,2003,2009,2016,
            Gaussian, Inc.  All Rights Reserved.
  
 This is part of the Gaussian(R) 16 program.  It is based on
 the Gaussian(R) 09 system (copyright 2009, Gaussian, Inc.),
 the Gaussian(R) 03 system (copyright 2003, Gaussian, Inc.),
 the Gaussian(R) 98 system (copyright 1998, Gaussian, Inc.),
 the Gaussian(R) 94 system (copyright 1995, Gaussian, Inc.),
 the Gaussian 92(TM) system (copyright 1992, Gaussian, Inc.),
 the Gaussian 90(TM) system (copyright 1990, Gaussian, Inc.),
 the Gaussian 88(TM) system (copyright 1988, Gaussian, Inc.),
 the Gaussian 86(TM) system (copyright 1986, Carnegie Mellon
 University), and the Gaussian 82(TM) system (copyright 1983,
 Carnegie Mellon University). Gaussian is a federally registered
 trademark of Gaussian, Inc.
  
 This software contains proprietary and confidential information,
 including trade secrets, belonging to Gaussian, Inc.
  
 This software is provided under written license and may be
 used, copied, transmitted, or stored only in accord with that
 written license.
  
 The following legend is applicable only to US Government
 contracts under FAR:
  
                    RESTRICTED RIGHTS LEGEND
  
 Use, reproduction and disclosure by the US Government is
 subject to restrictions as set forth in subparagraphs (a)
 and (c) of the Commercial Computer Software - Restricted
 Rights clause in FAR 52.227-19.
  
 Gaussian, Inc.
 340 Quinnipiac St., Bldg. 40, Wallingford CT 06492
  
  
 ---------------------------------------------------------------
 Warning -- This program may not be used in any manner that
 competes with the business of Gaussian, Inc. or will provide
 assistance to any competitor of Gaussian, Inc.  The licensee
 of this program is prohibited from giving any competitor of
 Gaussian, Inc. access to this program.  By using this program,
 the user acknowledges that Gaussian, Inc. is engaged in the
 business of creating and licensing software in the field of
 computational chemistry and represents and warrants to the
 licensee that it is not a competitor of Gaussian, Inc. and that
 it will not use this program in any manner prohibited above.
 ---------------------------------------------------------------
  

 Cite this work as:
 Gaussian 16, Revision A.03,
 M. J. Frisch, G. W. Trucks, H. B. Schlegel, G. E. Scuseria, 
 M. A. Robb, J. R. Cheeseman, G. Scalmani, V. Barone, 
 G. A. Petersson, H. Nakatsuji, X. Li, M. Caricato, A. V. Marenich, 
 J. Bloino, B. G. Janesko, R. Gomperts, B. Mennucci, H. P. Hratchian, 
 J. V. Ortiz, A. F. Izmaylov, J. L. Sonnenberg, D. Williams-Young, 
 F. Ding, F. Lipparini, F. Egidi, J. Goings, B. Peng, A. Petrone, 
 T. Henderson, D. Ranasinghe, V. G. Zakrzewski, J. Gao, N. Rega, 
 G. Zheng, W. Liang, M. Hada, M. Ehara, K. Toyota, R. Fukuda, 
 J. Hasegawa, M. Ishida, T. Nakajima, Y. Honda, O. Kitao, H. Nakai, 
 T. Vreven, K. Throssell, J. A. Montgomery, Jr., J. E. Peralta, 
 F. Ogliaro, M. J. Bearpark, J. J. Heyd, E. N. Brothers, K. N. Kudin, 
 V. N. Staroverov, T. A. Keith, R. Kobayashi, J. Normand, 
 K. Raghavachari, A. P. Rendell, J. C. Burant, S. S. Iyengar, 
 J. Tomasi, M. Cossi, J. M. Millam, M. Klene, C. Adamo, R. Cammi, 
 J. W. Ochterski, R. L. Martin, K. Morokuma, O. Farkas, 
 J. B. Foresman, and D. J. Fox, Gaussian, Inc., Wallingford CT, 2016.
 
 ******************************************
 Gaussian 16:  ES64L-G16RevA.03 25-Dec-2016
                22-Sep-2023 
 ******************************************
 %nprocshared=4
 Will use up to    4 processors via shared memory.
 %mem=4GB
 ----------------------------------------------------------------------
 #p b3lyp/gen scrf=(cpcm,solvent=toluene) pop=hirshfeld empiricaldisper
 sion=gd3bj
 ----------------------------------------------------------------------
 1/38=1,172=1/1;
 2/12=2,17=6,18=5,40=1/2;
 3/5=7,11=2,25=1,30=1,70=2101,72=13,74=-5,124=41/1,2,3;
 4//1;
 5/5=2,38=5,53=13/2;
 6/7=2,8=2,9=2,10=2,28=1,79=1/1;
 99/5=1,9=1/99;
 Leave Link    1 at Fri Sep 22 16:33:47 2023, MaxMem=   536870912 cpu:               0.1 elap:               0.0
 (Enter /share/apps/gaussian/g16/l101.exe)
 -----------------------
 tmpdir/M3_conf_0_83.gjf
 -----------------------
 Symbolic Z-matrix:
 Charge =  0 Multiplicity = 1
 C                     0.        0.        0. 
 O                     1.25      0.        0. 
 H                    -0.55058   0.       -0.9606 
 H                    -0.52168  -0.02727   0.90829 
 
 ITRead=  0  0  0  0
 MicOpt= -1 -1 -1 -1
 NAtoms=      4 NQM=        4 NQMF=       0 NMMI=      0 NMMIF=      0
                NMic=       0 NMicF=      0.
                    Isotopes and Nuclear Properties:
 (Nuclear quadrupole moments (NQMom) in fm**2, nuclear magnetic moments (NMagM)
  in nuclear magnetons)

  Atom         1           2           3           4
 IAtWgt=          12          16           1           1
 AtmWgt=  12.0000000  15.9949146   1.0078250   1.0078250
 NucSpn=           0           0           1           1
 AtZEff=  -0.0000000  -0.0000000  -0.0000000  -0.0000000
 NQMom=    0.0000000   0.0000000   0.0000000   0.0000000
 NMagM=    0.0000000   0.0000000   2.7928460   2.7928460
 AtZNuc=   6.0000000   8.0000000   1.0000000   1.0000000
 Leave Link  101 at Fri Sep 22 16:33:47 2023, MaxMem=   536870912 cpu:               0.3 elap:               0.1
 (Enter /share/apps/gaussian/g16/l202.exe)
                          Input orientation:                          
 ---------------------------------------------------------------------
 Center     Atomic      Atomic             Coordinates (Angstroms)
 Number     Number       Type             X           Y           Z
 ---------------------------------------------------------------------
      1          6           0        0.000000    0.000000    0.000000
      2          8           0        1.250000    0.000000    0.000000
      3          1           0       -0.550580    0.000000   -0.960600
      4          1           0       -0.521680   -0.027270    0.908290
 ---------------------------------------------------------------------
                    Distance matrix (angstroms):
                    1          2          3          4
     1  C    0.000000
     2  O    1.250000   0.000000
     3  H    1.107199   2.040794   0.000000
     4  H    1.047800   1.991126   1.869312   0.000000
 Stoichiometry    CH2O
 Framework group  C1[X(CH2O)]
 Deg. of freedom     6
 Full point group                 C1      NOp   1
 Largest Abelian subgroup         C1      NOp   1
 Largest concise Abelian subgroup C1      NOp   1
                         Standard orientation:                         
 ---------------------------------------------------------------------
 Center     Atomic      Atomic             Coordinates (Angstroms)
 Number     Number       Type             X           Y           Z
 ---------------------------------------------------------------------
      1          6           0        0.557882   -0.010611   -0.003865
      2          8           0       -0.692000    0.005892    0.000870
      3          1           0        1.121143    0.942536    0.007890
      4          1           0        1.067570   -0.926009    0.008341
 ---------------------------------------------------------------------
 Rotational constants (GHZ):         286.9325012          37.0141003          32.7861058
 Leave Link  202 at Fri Sep 22 16:33:47 2023, MaxMem=   536870912 cpu:               0.0 elap:               0.0
 (Enter /share/apps/gaussian/g16/l301.exe)
 General basis read from cards:  (5D, 7F)
 Centers:       3      4
 S 3 1.00
     Exponent=  1.2251800000D+01 Coefficients=  2.3337100000D-02
     Exponent=  1.8687100000D+00 Coefficients=  1.5915000000D-01
     Exponent=  4.1820800000D-01 Coefficients=  5.0000000000D-01
 S 1 1.00
     Exponent=  1.0610000000D-01 Coefficients=  1.0000000000D+00
 P 1 1.00
     Exponent=  1.0000000000D+00 Coefficients=  1.0000000000D+00
 ****
 Centers:       1
 S 5 1.00
     Exponent=  1.2432000000D+03 Coefficients=  6.0336600000D-03
     Exponent=  1.8714500000D+02 Coefficients=  4.4957600000D-02
     Exponent=  4.2512600000D+01 Coefficients=  1.9790100000D-01
     Exponent=  1.1739300000D+01 Coefficients=  5.0000000000D-01
     Exponent=  3.5054800000D+00 Coefficients=  4.8036400000D-01
 S 2 1.00
     Exponent=  5.3908900000D+00 Coefficients= -7.0398000000D-02
     Exponent=  4.9334100000D-01 Coefficients=  5.0000000000D-01
 S 1 1.00
     Exponent=  1.4974100000D-01 Coefficients=  1.0000000000D+00
 P 3 1.00
     Exponent=  9.1805600000D+00 Coefficients=  4.3170100000D-02
     Exponent=  1.9365800000D+00 Coefficients=  2.2499900000D-01
     Exponent=  5.2629600000D-01 Coefficients=  5.0000000000D-01
 P 1 1.00
     Exponent=  1.3631900000D-01 Coefficients=  1.0000000000D+00
 D 1 1.00
     Exponent=  8.0000000000D-01 Coefficients=  1.0000000000D+00
 ****
 Centers:       2
 S 5 1.00
     Exponent=  2.2886400000D+03 Coefficients=  5.8546800000D-03
     Exponent=  3.4441600000D+02 Coefficients=  4.3733300000D-02
     Exponent=  7.8253800000D+01 Coefficients=  1.9479600000D-01
     Exponent=  2.1719500000D+01 Coefficients=  5.0000000000D-01
     Exponent=  6.5590700000D+00 Coefficients=  4.8461400000D-01
 S 2 1.00
     Exponent=  1.0465600000D+01 Coefficients= -7.1334300000D-02
     Exponent=  9.6435100000D-01 Coefficients=  5.0000000000D-01
 S 1 1.00
     Exponent=  2.8512700000D-01 Coefficients=  1.0000000000D+00
 P 3 1.00
     Exponent=  1.7059000000D+01 Coefficients=  4.7443900000D-02
     Exponent=  3.6899900000D+00 Coefficients=  2.4268900000D-01
     Exponent=  9.9299600000D-01 Coefficients=  5.0000000000D-01
 P 1 1.00
     Exponent=  2.4492400000D-01 Coefficients=  1.0000000000D+00
 D 1 1.00
     Exponent=  1.0000000000D+00 Coefficients=  1.0000000000D+00
 ****
 Ernie: Thresh=  0.10000D-02 Tol=  0.10000D-05 Strict=F.
 There are    40 symmetry adapted cartesian basis functions of A   symmetry.
 There are    38 symmetry adapted basis functions of A   symmetry.
    38 basis functions,    66 primitive gaussians,    40 cartesian basis functions
     8 alpha electrons        8 beta electrons
       nuclear repulsion energy        30.7019026053 Hartrees.
 IExCor=  402 DFT=T Ex+Corr=B3LYP ExCW=0 ScaHFX=  0.200000
 ScaDFX=  0.800000  0.720000  1.000000  0.810000 ScalE2=  1.000000  1.000000
 IRadAn=      5 IRanWt=     -1 IRanGd=            0 ICorTp=0 IEmpDi=141
 NAtoms=    4 NActive=    4 NUniq=    4 SFac= 1.00D+00 NAtFMM=   60 NAOKFM=F Big=F
 Integral buffers will be    131072 words long.
 Raffenetti 2 integral format.
 Two-electron integral symmetry is turned on.
 R6Disp:  Grimme-D3(BJ) Dispersion energy=       -0.0018344970 Hartrees.
 Nuclear repulsion after empirical dispersion term =       30.7000681083 Hartrees.
 ------------------------------------------------------------------------------
 Polarizable Continuum Model (PCM)
 =================================
 Model                : C-PCM.
 Atomic radii         : UFF (Universal Force Field).
 Polarization charges : Total charges.
 Charge compensation  : None.
 Solution method      : On-the-fly selection.
 Cavity type          : Scaled VdW (van der Waals Surface) (Alpha=1.100).
 Cavity algorithm     : GePol (No added spheres)
                        Default sphere list used, NSphG=    4.
                        Lebedev-Laikov grids with approx.  5.0 points / Ang**2.
                        Smoothing algorithm: York/Karplus (Gamma=1.0000).
                        Polarization charges: spherical gaussians, with
                                              point-specific exponents (IZeta= 3).
                        Self-potential: point-specific (ISelfS= 7).
                        Self-field    : sphere-specific E.n sum rule (ISelfD= 2).
 Solvent              : Toluene, Eps=   2.374100 Eps(inf)=   2.238315
 ------------------------------------------------------------------------------
 Spheres list:
 ISph  on   Nord     Re0    Alpha      Xe            Ye            Ze
    1   C      1    1.9255  1.100      0.557882     -0.010611     -0.003865
    2   O      2    1.7500  1.100     -0.692000      0.005892      0.000870
    3   H      3    1.4430  1.100      1.121143      0.942536      0.007890
    4   H      4    1.4430  1.100      1.067570     -0.926009      0.008341
 ------------------------------------------------------------------------------
 GePol: Number of generator spheres                  =       4
 GePol: Total number of spheres                      =       4
 GePol: Number of exposed spheres                    =       4 (100.00%)
 GePol: Number of points                             =     522
 GePol: Average weight of points                     =       0.14
 GePol: Minimum weight of points                     =   0.11D-06
 GePol: Maximum weight of points                     =    0.20577
 GePol: Number of points with low weight             =      11
 GePol: Fraction of low-weight points (<1% of avg)   =       2.11%
 GePol: Cavity surface area                          =     74.241 Ang**2
 GePol: Cavity volume                                =     56.451 Ang**3
 Leave Link  301 at Fri Sep 22 16:33:48 2023, MaxMem=   536870912 cpu:               0.4 elap:               0.1
 (Enter /share/apps/gaussian/g16/l302.exe)
 NPDir=0 NMtPBC=     1 NCelOv=     1 NCel=       1 NClECP=     1 NCelD=      1
         NCelK=      1 NCelE2=     1 NClLst=     1 CellRange=     0.0.
 One-electron integrals computed using PRISM.
 One-electron integral symmetry used in STVInt
 NBasis=    38 RedAO= T EigKep=  2.35D-02  NBF=    38
 NBsUse=    38 1.00D-06 EigRej= -1.00D+00 NBFU=    38
 Precomputing XC quadrature grid using
 IXCGrd= 4 IRadAn=           5 IRanWt=          -1 IRanGd=           0 AccXCQ= 0.00D+00.
 Generated NRdTot=       0 NPtTot=           0 NUsed=           0 NTot=          32
 NSgBfM=    40    40    40    40    40 MxSgAt=     4 MxSgA2=     4.
 Leave Link  302 at Fri Sep 22 16:33:48 2023, MaxMem=   536870912 cpu:               0.4 elap:               0.1
 (Enter /share/apps/gaussian/g16/l303.exe)
 DipDrv:  MaxL=1.
 Leave Link  303 at Fri Sep 22 16:33:48 2023, MaxMem=   536870912 cpu:               0.1 elap:               0.0
 (Enter /share/apps/gaussian/g16/l401.exe)
 ExpMin= 1.06D-01 ExpMax= 2.29D+03 ExpMxC= 3.44D+02 IAcc=3 IRadAn=         5 AccDes= 0.00D+00
 Harris functional with IExCor=  402 and IRadAn=       5 diagonalized for initial guess.
 HarFok:  IExCor=  402 AccDes= 0.00D+00 IRadAn=         5 IDoV= 1 UseB2=F ITyADJ=14
 ICtDFT=  3500011 ScaDFX=  1.000000  1.000000  1.000000  1.000000
 FoFCou: FMM=F IPFlag=           0 FMFlag=      100000 FMFlg1=           0
         NFxFlg=           0 DoJE=T BraDBF=F KetDBF=T FulRan=T
         wScrn=  0.000000 ICntrl=       500 IOpCl=  0 I1Cent=   200000004 NGrid=           0
         NMat0=    1 NMatS0=      1 NMatT0=    0 NMatD0=    1 NMtDS0=    0 NMtDT0=    0
 Petite list used in FoFCou.
 Harris En= -114.491242796088    
 JPrj=0 DoOrth=F DoCkMO=F.
 Leave Link  401 at Fri Sep 22 16:33:48 2023, MaxMem=   536870912 cpu:               0.8 elap:               0.2
 (Enter /share/apps/gaussian/g16/l502.exe)
 Keep R1 ints in memory in canonical form, NReq=3727303.
 FoFCou: FMM=F IPFlag=           0 FMFlag=           0 FMFlg1=           0
         NFxFlg=           0 DoJE=F BraDBF=F KetDBF=F FulRan=T
         wScrn=  0.000000 ICntrl=       600 IOpCl=  0 I1Cent=           0 NGrid=           0
         NMat0=    1 NMatS0=    741 NMatT0=    0 NMatD0=    1 NMtDS0=    0 NMtDT0=    0
 Symmetry not used in FoFCou.
 Two-electron integral symmetry not used.
 Closed shell SCF:
 Using DIIS extrapolation, IDIIS=  1040.
 NGot=   536870912 LenX=   536591977 LenY=   536589936
 Requested convergence on RMS density matrix=1.00D-08 within 128 cycles.
 Requested convergence on MAX density matrix=1.00D-06.
 Requested convergence on             energy=1.00D-06.
 No special actions if energy rises.

 Cycle   1  Pass 1  IDiag  1:
 Inv3:  Mode=1 IEnd=      817452.
 Iteration    1 A*A^-1 deviation from unit magnitude is 3.33D-15 for    509.
 Iteration    1 A*A^-1 deviation from orthogonality  is 1.70D-15 for    423    111.
 Iteration    1 A^-1*A deviation from unit magnitude is 3.33D-15 for    509.
 Iteration    1 A^-1*A deviation from orthogonality  is 1.03D-15 for    487    109.
 E= -114.439595278983    
 DIIS: error= 4.19D-02 at cycle   1 NSaved=   1.
 NSaved= 1 IEnMin= 1 EnMin= -114.439595278983     IErMin= 1 ErrMin= 4.19D-02
 ErrMax= 4.19D-02  0.00D+00 EMaxC= 1.00D-01 BMatC= 5.42D-02 BMatP= 5.42D-02
 IDIUse=3 WtCom= 5.81D-01 WtEn= 4.19D-01
 Coeff-Com:  0.100D+01
 Coeff-En:   0.100D+01
 Coeff:      0.100D+01
 Gap=     0.158 Goal=   None    Shift=    0.000
 GapD=    0.158 DampG=1.000 DampE=0.500 DampFc=0.5000 IDamp=-1.
 Damping current iteration by 5.00D-01
 RMSDP=1.29D-02 MaxDP=1.75D-01              OVMax= 2.61D-01

 Cycle   2  Pass 1  IDiag  1:
 E= -114.440786086010     Delta-E=       -0.001190807026 Rises=F Damp=T
 DIIS: error= 1.64D-02 at cycle   2 NSaved=   2.
 NSaved= 2 IEnMin= 2 EnMin= -114.440786086010     IErMin= 2 ErrMin= 1.64D-02
 ErrMax= 1.64D-02  0.00D+00 EMaxC= 1.00D-01 BMatC= 1.61D-02 BMatP= 5.42D-02
 IDIUse=3 WtCom= 8.36D-01 WtEn= 1.64D-01
 Coeff-Com:  0.332D+00 0.668D+00
 Coeff-En:   0.490D+00 0.510D+00
 Coeff:      0.358D+00 0.642D+00
 Gap=     0.210 Goal=   None    Shift=    0.000
 RMSDP=3.17D-03 MaxDP=3.68D-02 DE=-1.19D-03 OVMax= 1.93D-01

 Cycle   3  Pass 1  IDiag  1:
 E= -114.481729793418     Delta-E=       -0.040943707408 Rises=F Damp=F
 DIIS: error= 8.20D-03 at cycle   3 NSaved=   3.
 NSaved= 3 IEnMin= 3 EnMin= -114.481729793418     IErMin= 3 ErrMin= 8.20D-03
 ErrMax= 8.20D-03  0.00D+00 EMaxC= 1.00D-01 BMatC= 2.21D-03 BMatP= 1.61D-02
 IDIUse=3 WtCom= 9.18D-01 WtEn= 8.20D-02
 Coeff-Com:  0.117D+00 0.301D+00 0.583D+00
 Coeff-En:   0.000D+00 0.000D+00 0.100D+01
 Coeff:      0.107D+00 0.276D+00 0.617D+00
 Gap=     0.211 Goal=   None    Shift=    0.000
 RMSDP=1.25D-03 MaxDP=1.59D-02 DE=-4.09D-02 OVMax= 2.44D-02

 Cycle   4  Pass 1  IDiag  1:
 E= -114.483920344007     Delta-E=       -0.002190550589 Rises=F Damp=F
 DIIS: error= 2.41D-03 at cycle   4 NSaved=   4.
 NSaved= 4 IEnMin= 4 EnMin= -114.483920344007     IErMin= 4 ErrMin= 2.41D-03
 ErrMax= 2.41D-03  0.00D+00 EMaxC= 1.00D-01 BMatC= 1.94D-04 BMatP= 2.21D-03
 IDIUse=3 WtCom= 9.76D-01 WtEn= 2.41D-02
 Coeff-Com:  0.169D-01 0.147D-01 0.224D+00 0.745D+00
 Coeff-En:   0.000D+00 0.000D+00 0.000D+00 0.100D+01
 Coeff:      0.165D-01 0.144D-01 0.218D+00 0.751D+00
 Gap=     0.213 Goal=   None    Shift=    0.000
 RMSDP=2.48D-04 MaxDP=3.69D-03 DE=-2.19D-03 OVMax= 4.14D-03

 Cycle   5  Pass 1  IDiag  1:
 E= -114.484092839955     Delta-E=       -0.000172495948 Rises=F Damp=F
 DIIS: error= 2.20D-04 at cycle   5 NSaved=   5.
 NSaved= 5 IEnMin= 5 EnMin= -114.484092839955     IErMin= 5 ErrMin= 2.20D-04
 ErrMax= 2.20D-04  0.00D+00 EMaxC= 1.00D-01 BMatC= 1.82D-06 BMatP= 1.94D-04
 IDIUse=3 WtCom= 9.98D-01 WtEn= 2.20D-03
 Coeff-Com:  0.234D-02-0.788D-02 0.300D-01 0.144D+00 0.832D+00
 Coeff-En:   0.000D+00 0.000D+00 0.000D+00 0.000D+00 0.100D+01
 Coeff:      0.233D-02-0.786D-02 0.299D-01 0.143D+00 0.832D+00
 Gap=     0.214 Goal=   None    Shift=    0.000
 RMSDP=2.79D-05 MaxDP=2.33D-04 DE=-1.72D-04 OVMax= 3.15D-04

 Cycle   6  Pass 1  IDiag  1:
 E= -114.484094279497     Delta-E=       -0.000001439541 Rises=F Damp=F
 DIIS: error= 4.10D-05 at cycle   6 NSaved=   6.
 NSaved= 6 IEnMin= 6 EnMin= -114.484094279497     IErMin= 6 ErrMin= 4.10D-05
 ErrMax= 4.10D-05  0.00D+00 EMaxC= 1.00D-01 BMatC= 6.46D-08 BMatP= 1.82D-06
 IDIUse=1 WtCom= 1.00D+00 WtEn= 0.00D+00
 Coeff-Com:  0.458D-03-0.139D-02 0.129D-02 0.198D-02 0.362D-01 0.961D+00
 Coeff:      0.458D-03-0.139D-02 0.129D-02 0.198D-02 0.362D-01 0.961D+00
 Gap=     0.214 Goal=   None    Shift=    0.000
 RMSDP=5.88D-06 MaxDP=5.66D-05 DE=-1.44D-06 OVMax= 7.48D-05

 Cycle   7  Pass 1  IDiag  1:
 E= -114.484094331693     Delta-E=       -0.000000052197 Rises=F Damp=F
 DIIS: error= 2.29D-06 at cycle   7 NSaved=   7.
 NSaved= 7 IEnMin= 7 EnMin= -114.484094331693     IErMin= 7 ErrMin= 2.29D-06
 ErrMax= 2.29D-06  0.00D+00 EMaxC= 1.00D-01 BMatC= 3.86D-10 BMatP= 6.46D-08
 IDIUse=1 WtCom= 1.00D+00 WtEn= 0.00D+00
 Coeff-Com:  0.630D-05 0.240D-04-0.214D-03-0.204D-02-0.134D-01 0.321D-01
 Coeff-Com:  0.984D+00
 Coeff:      0.630D-05 0.240D-04-0.214D-03-0.204D-02-0.134D-01 0.321D-01
 Coeff:      0.984D+00
 Gap=     0.214 Goal=   None    Shift=    0.000
 RMSDP=4.32D-07 MaxDP=4.16D-06 DE=-5.22D-08 OVMax= 4.14D-06

 Cycle   8  Pass 1  IDiag  1:
 E= -114.484094331989     Delta-E=       -0.000000000296 Rises=F Damp=F
 DIIS: error= 4.40D-07 at cycle   8 NSaved=   8.
 NSaved= 8 IEnMin= 8 EnMin= -114.484094331989     IErMin= 8 ErrMin= 4.40D-07
 ErrMax= 4.40D-07  0.00D+00 EMaxC= 1.00D-01 BMatC= 7.62D-12 BMatP= 3.86D-10
 IDIUse=1 WtCom= 1.00D+00 WtEn= 0.00D+00
 Coeff-Com: -0.128D-06 0.895D-05-0.169D-04-0.237D-03-0.164D-02-0.696D-02
 Coeff-Com:  0.995D-01 0.909D+00
 Coeff:     -0.128D-06 0.895D-05-0.169D-04-0.237D-03-0.164D-02-0.696D-02
 Coeff:      0.995D-01 0.909D+00
 Gap=     0.214 Goal=   None    Shift=    0.000
 RMSDP=5.69D-08 MaxDP=4.66D-07 DE=-2.96D-10 OVMax= 6.91D-07

 Cycle   9  Pass 1  IDiag  1:
 E= -114.484094331995     Delta-E=       -0.000000000006 Rises=F Damp=F
 DIIS: error= 5.54D-08 at cycle   9 NSaved=   9.
 NSaved= 9 IEnMin= 9 EnMin= -114.484094331995     IErMin= 9 ErrMin= 5.54D-08
 ErrMax= 5.54D-08  0.00D+00 EMaxC= 1.00D-01 BMatC= 1.58D-13 BMatP= 7.62D-12
 IDIUse=1 WtCom= 1.00D+00 WtEn= 0.00D+00
 Coeff-Com:  0.260D-06 0.104D-07 0.368D-05 0.181D-05 0.431D-04-0.205D-02
 Coeff-Com: -0.417D-02 0.158D+00 0.848D+00
 Coeff:      0.260D-06 0.104D-07 0.368D-05 0.181D-05 0.431D-04-0.205D-02
 Coeff:     -0.417D-02 0.158D+00 0.848D+00
 Gap=     0.214 Goal=   None    Shift=    0.000
 RMSDP=7.25D-09 MaxDP=6.88D-08 DE=-6.22D-12 OVMax= 1.03D-07

 Error on total polarization charges =  0.00274
 SCF Done:  E(RB3LYP) =  -114.484094332     A.U. after    9 cycles
            NFock=  9  Conv=0.72D-08     -V/T= 2.0047
 KE= 1.139466399524D+02 PE=-3.303189636436D+02 EE= 7.118816125092D+01
 Leave Link  502 at Fri Sep 22 16:33:49 2023, MaxMem=   536870912 cpu:               5.9 elap:               1.5
 (Enter /share/apps/gaussian/g16/l601.exe)
 Copying SCF densities to generalized density rwf, IOpCl= 0 IROHF=0.

 **********************************************************************

            Population analysis using the SCF density.

 **********************************************************************

 Orbital symmetries:
       Occupied  (A) (A) (A) (A) (A) (A) (A) (A)
       Virtual   (A) (A) (A) (A) (A) (A) (A) (A) (A) (A) (A) (A)
                 (A) (A) (A) (A) (A) (A) (A) (A) (A) (A) (A) (A)
                 (A) (A) (A) (A) (A) (A)
 The electronic state is 1-A.
 Alpha  occ. eigenvalues --  -19.14167 -10.27933  -1.04638  -0.64964  -0.50430
 Alpha  occ. eigenvalues --   -0.44955  -0.39295  -0.27647
 Alpha virt. eigenvalues --   -0.06285   0.06091   0.11498   0.17500   0.40427
 Alpha virt. eigenvalues --    0.45920   0.52765   0.57607   0.59712   0.71744
 Alpha virt. eigenvalues --    0.79028   0.87461   0.97875   1.32099   1.49601
 Alpha virt. eigenvalues --    1.59557   1.72519   1.78419   1.93966   1.95044
 Alpha virt. eigenvalues --    2.11123   2.13338   2.25420   2.49405   2.62700
 Alpha virt. eigenvalues --    2.71462   2.76562   3.10317   3.22830   3.37484
          Condensed to atoms (all electrons):
               1          2          3          4
     1  C    4.446854   0.570430   0.382137   0.393028
     2  O    0.570430   7.917798  -0.052919  -0.050564
     3  H    0.382137  -0.052919   0.649789  -0.072708
     4  H    0.393028  -0.050564  -0.072708   0.646755
 Mulliken charges:
               1
     1  C    0.207552
     2  O   -0.384744
     3  H    0.093702
     4  H    0.083490
 Sum of Mulliken charges =  -0.00000
 Mulliken charges with hydrogens summed into heavy atoms:
               1
     1  C    0.384744
     2  O   -0.384744
 Electronic spatial extent (au):  <R**2>=             61.2679
 Charge=             -0.0000 electrons
 Dipole moment (field-independent basis, Debye):
    X=              2.8957    Y=             -0.0803    Z=              0.0028  Tot=              2.8968
 Quadrupole moment (field-independent basis, Debye-Ang):
   XX=            -12.0248   YY=            -11.4573   ZZ=            -11.6521
   XY=             -0.0302   XZ=              0.0086   YZ=              0.0004
 Traceless Quadrupole moment (field-independent basis, Debye-Ang):
   XX=             -0.3134   YY=              0.2541   ZZ=              0.0593
   XY=             -0.0302   XZ=              0.0086   YZ=              0.0004
 Octapole moment (field-independent basis, Debye-Ang**2):
  XXX=              0.4660  YYY=             -0.1745  ZZZ=              0.0116  XYY=              0.7234
  XXY=             -0.0509  XXZ=              0.0203  XZZ=             -0.5004  YZZ=             -0.0738
  YYZ=              0.0202  XYZ=              0.0004
 Hexadecapole moment (field-independent basis, Debye-Ang**3):
 XXXX=            -45.5262 YYYY=            -17.6259 ZZZZ=            -10.2059 XXXY=             -0.1565
 XXXZ=              0.0237 YYYX=             -0.1446 YYYZ=             -0.0008 ZZZX=              0.0008
 ZZZY=             -0.0007 XXYY=            -10.0667 XXZZ=             -9.2803 YYZZ=             -4.9261
 XXYZ=              0.0011 YYXZ=              0.0209 ZZXY=             -0.0876
 N-N= 3.070006810828D+01 E-N=-3.303189640829D+02  KE= 1.139466399524D+02
 There are a total of       88026 grid points.
 ElSum from          density=       16.0000000690
 ElSum from atomic densities=       15.9999998846
 Hirshfeld populations at iteration   1 (CA, CB, DipXYZ):
               1          2          3          4          5
     1  C    2.930169   2.930169   0.109825  -0.009486  -0.004703
     2  O    4.126196   4.126196   0.155297  -0.003819   0.000701
     3  H    0.472443   0.472443   0.081574   0.107452   0.002348
     4  H    0.471192   0.471192   0.082272  -0.117473   0.002448
       Tot   8.000000   8.000000   0.428969  -0.023326   0.000794

 Dip from Atomic Chgs              0.710292  -0.008267   0.000295
         Total Dipole              1.139261  -0.031594   0.001089

 Hirshfeld charges, spin densities, dipoles, and CM5 charges using IRadAn=      5:
              Q-H        S-H        Dx         Dy         Dz        Q-CM5   
     1  C    0.139662   0.000000   0.109825  -0.009486  -0.004703   0.073927
     2  O   -0.252392   0.000000   0.155297  -0.003819   0.000701  -0.310039
     3  H    0.055114   0.000000   0.081574   0.107452   0.002348   0.112428
     4  H    0.057616   0.000000   0.082272  -0.117473   0.002448   0.123684
       Tot  -0.000000   0.000000   0.428969  -0.023326   0.000794  -0.000000
 Hirshfeld charges with hydrogens summed into heavy atoms:
              Q-H       Q-CM5   
     1  C    0.252392   0.310039
     2  O   -0.252392  -0.310039
 
 EQQ= 0.000000000000E+00 EQD= 0.000000000000E+00 EDD= 0.379616034554E-02
 EQQ+QD+DD= 0.379616034554E-02
 
 No NMR shielding tensors so no spin-rotation constants.
 Leave Link  601 at Fri Sep 22 16:33:50 2023, MaxMem=   536870912 cpu:               0.6 elap:               0.2
 (Enter /share/apps/gaussian/g16/l9999.exe)
 1\1\GINC-NODE74\SP\RB3LYP\Gen\C1H2O1\YANZ\22-Sep-2023\0\\#p b3lyp/gen 
 scrf=(cpcm,solvent=toluene) pop=hirshfeld empiricaldispersion=gd3bj\\t
 mpdir/M3_conf_0_83.gjf\\0,1\C,0,0.,0.,0.\O,0,1.25,0.,0.\H,0,-0.55058,0
 .,-0.9606\H,0,-0.52168,-0.02727,0.90829\\Version=ES64L-G16RevA.03\Stat
 e=1-A\HF=-114.4840943\RMSD=7.245e-09\Dipole=-1.1395658,-0.0056427,0.01
 64698\Quadrupole=-0.2323824,0.0441674,0.188215,0.0057494,-0.0279148,-0
 .001793\PG=C01 [X(C1H2O1)]\\@


 ABOVE ALL I AM AN OPTIMIST FOR NUMBER THEORY,
 AND I HOLD THE HOPE THAT WE MAY NOT BE FAR FROM
 A TIME WHEN IRREFUTABLE ARITHMETIC WILL CELEBRATE
 ITS TRIUMPHS IN PHYSICS AND CHEMISTRY.
   -- HERMANN MINKOWSKI, 1905
 Job cpu time:       0 days  0 hours  0 minutes  8.8 seconds.
 Elapsed time:       0 days  0 hours  0 minutes  2.3 seconds.
 File lengths (MBytes):  RWF=      6 Int=      0 D2E=      0 Chk=      1 Scr=      1
 Normal termination of Gaussian 16 at Fri Sep 22 16:33:50 2023.
