 Entering Gaussian System, Link 0=g16
 Initial command:
 /share/apps/gaussian/g16/l1.exe "/tmp/55557.mgr/Gau-219578.inp" -scrdir="/tmp/55557.mgr/"
 Entering Link 1 = /share/apps/gaussian/g16/l1.exe PID=    219582.
  
 Copyright (c) 1988,1990,1992,1993,1995,1998,2003,2009,2016,
            Gaussian, Inc.  All Rights Reserved.
  
 This is part of the Gaussian(R) 16 program.  It is based on
 the Gaussian(R) 09 system (copyright 2009, Gaussian, Inc.),
 the Gaussian(R) 03 system (copyright 2003, Gaussian, Inc.),
 the Gaussian(R) 98 system (copyright 1998, Gaussian, Inc.),
 the Gaussian(R) 94 system (copyright 1995, Gaussian, Inc.),
 the Gaussian 92(TM) system (copyright 1992, Gaussian, Inc.),
 the Gaussian 90(TM) system (copyright 1990, Gaussian, Inc.),
 the Gaussian 88(TM) system (copyright 1988, Gaussian, Inc.),
 the Gaussian 86(TM) system (copyright 1986, Carnegie Mellon
 University), and the Gaussian 82(TM) system (copyright 1983,
 Carnegie Mellon University). Gaussian is a federally registered
 trademark of Gaussian, Inc.
  
 This software contains proprietary and confidential information,
 including trade secrets, belonging to Gaussian, Inc.
  
 This software is provided under written license and may be
 used, copied, transmitted, or stored only in accord with that
 written license.
  
 The following legend is applicable only to US Government
 contracts under FAR:
  
                    RESTRICTED RIGHTS LEGEND
  
 Use, reproduction and disclosure by the US Government is
 subject to restrictions as set forth in subparagraphs (a)
 and (c) of the Commercial Computer Software - Restricted
 Rights clause in FAR 52.227-19.
  
 Gaussian, Inc.
 340 Quinnipiac St., Bldg. 40, Wallingford CT 06492
  
  
 ---------------------------------------------------------------
 Warning -- This program may not be used in any manner that
 competes with the business of Gaussian, Inc. or will provide
 assistance to any competitor of Gaussian, Inc.  The licensee
 of this program is prohibited from giving any competitor of
 Gaussian, Inc. access to this program.  By using this program,
 the user acknowledges that Gaussian, Inc. is engaged in the
 business of creating and licensing software in the field of
 computational chemistry and represents and warrants to the
 licensee that it is not a competitor of Gaussian, Inc. and that
 it will not use this program in any manner prohibited above.
 ---------------------------------------------------------------
  

 Cite this work as:
 Gaussian 16, Revision A.03,
 M. J. Frisch, G. W. Trucks, H. B. Schlegel, G. E. Scuseria, 
 M. A. Robb, J. R. Cheeseman, G. Scalmani, V. Barone, 
 G. A. Petersson, H. Nakatsuji, X. Li, M. Caricato, A. V. Marenich, 
 J. Bloino, B. G. Janesko, R. Gomperts, B. Mennucci, H. P. Hratchian, 
 J. V. Ortiz, A. F. Izmaylov, J. L. Sonnenberg, D. Williams-Young, 
 F. Ding, F. Lipparini, F. Egidi, J. Goings, B. Peng, A. Petrone, 
 T. Henderson, D. Ranasinghe, V. G. Zakrzewski, J. Gao, N. Rega, 
 G. Zheng, W. Liang, M. Hada, M. Ehara, K. Toyota, R. Fukuda, 
 J. Hasegawa, M. Ishida, T. Nakajima, Y. Honda, O. Kitao, H. Nakai, 
 T. Vreven, K. Throssell, J. A. Montgomery, Jr., J. E. Peralta, 
 F. Ogliaro, M. J. Bearpark, J. J. Heyd, E. N. Brothers, K. N. Kudin, 
 V. N. Staroverov, T. A. Keith, R. Kobayashi, J. Normand, 
 K. Raghavachari, A. P. Rendell, J. C. Burant, S. S. Iyengar, 
 J. Tomasi, M. Cossi, J. M. Millam, M. Klene, C. Adamo, R. Cammi, 
 J. W. Ochterski, R. L. Martin, K. Morokuma, O. Farkas, 
 J. B. Foresman, and D. J. Fox, Gaussian, Inc., Wallingford CT, 2016.
 
 ******************************************
 Gaussian 16:  ES64L-G16RevA.03 25-Dec-2016
                22-Sep-2023 
 ******************************************
 %nprocshared=4
 Will use up to    4 processors via shared memory.
 %mem=4GB
 ----------------------------------------------------------------------
 #p b3lyp/gen scrf=(cpcm,solvent=toluene) pop=hirshfeld empiricaldisper
 sion=gd3bj
 ----------------------------------------------------------------------
 1/38=1,172=1/1;
 2/12=2,17=6,18=5,40=1/2;
 3/5=7,11=2,25=1,30=1,70=2101,72=13,74=-5,124=41/1,2,3;
 4//1;
 5/5=2,38=5,53=13/2;
 6/7=2,8=2,9=2,10=2,28=1,79=1/1;
 99/5=1,9=1/99;
 Leave Link    1 at Fri Sep 22 16:36:23 2023, MaxMem=   536870912 cpu:               0.1 elap:               0.0
 (Enter /share/apps/gaussian/g16/l101.exe)
 ------------------------
 tmpdir/M3_conf_0_239.gjf
 ------------------------
 Symbolic Z-matrix:
 Charge =  0 Multiplicity = 1
 H                     0.        0.        0. 
 C                     1.0997    0.        0. 
 H                     1.47179   0.        1.02846 
 H                     1.47562   0.84177  -0.58005 
 H                     1.41182  -0.94887  -0.45972 
 
 ITRead=  0  0  0  0  0
 MicOpt= -1 -1 -1 -1 -1
 NAtoms=      5 NQM=        5 NQMF=       0 NMMI=      0 NMMIF=      0
                NMic=       0 NMicF=      0.
                    Isotopes and Nuclear Properties:
 (Nuclear quadrupole moments (NQMom) in fm**2, nuclear magnetic moments (NMagM)
  in nuclear magnetons)

  Atom         1           2           3           4           5
 IAtWgt=           1          12           1           1           1
 AtmWgt=   1.0078250  12.0000000   1.0078250   1.0078250   1.0078250
 NucSpn=           1           0           1           1           1
 AtZEff=  -0.0000000  -0.0000000  -0.0000000  -0.0000000  -0.0000000
 NQMom=    0.0000000   0.0000000   0.0000000   0.0000000   0.0000000
 NMagM=    2.7928460   0.0000000   2.7928460   2.7928460   2.7928460
 AtZNuc=   1.0000000   6.0000000   1.0000000   1.0000000   1.0000000
 Leave Link  101 at Fri Sep 22 16:36:23 2023, MaxMem=   536870912 cpu:               0.4 elap:               0.1
 (Enter /share/apps/gaussian/g16/l202.exe)
                          Input orientation:                          
 ---------------------------------------------------------------------
 Center     Atomic      Atomic             Coordinates (Angstroms)
 Number     Number       Type             X           Y           Z
 ---------------------------------------------------------------------
      1          1           0        0.000000    0.000000    0.000000
      2          6           0        1.099700    0.000000    0.000000
      3          1           0        1.471790    0.000000    1.028460
      4          1           0        1.475620    0.841770   -0.580050
      5          1           0        1.411820   -0.948870   -0.459720
 ---------------------------------------------------------------------
                    Distance matrix (angstroms):
                    1          2          3          4          5
     1  H    0.000000
     2  C    1.099700   0.000000
     3  H    1.795521   1.093701   0.000000
     4  H    1.795129   1.089197   1.815460   0.000000
     5  H    1.762082   1.099598   1.765964   1.795812   0.000000
 Stoichiometry    CH4
 Framework group  C1[X(CH4)]
 Deg. of freedom     9
 Full point group                 C1      NOp   1
 Largest Abelian subgroup         C1      NOp   1
 Largest concise Abelian subgroup C1      NOp   1
                         Standard orientation:                         
 ---------------------------------------------------------------------
 Center     Atomic      Atomic             Coordinates (Angstroms)
 Number     Number       Type             X           Y           Z
 ---------------------------------------------------------------------
      1          1           0       -0.016426    0.939041   -0.564536
      2          6           0       -0.006809   -0.007688   -0.005116
      3          1           0        0.717492   -0.695655   -0.450392
      4          1           0       -1.010386   -0.428729    0.038571
      5          1           0        0.350173    0.231474    1.007051
 ---------------------------------------------------------------------
 Rotational constants (GHZ):         159.6409483         156.8781047         153.6926935
 Leave Link  202 at Fri Sep 22 16:36:23 2023, MaxMem=   536870912 cpu:               0.1 elap:               0.0
 (Enter /share/apps/gaussian/g16/l301.exe)
 General basis read from cards:  (5D, 7F)
 Centers:       1      3      4      5
 S 3 1.00
     Exponent=  1.2251800000D+01 Coefficients=  2.3337100000D-02
     Exponent=  1.8687100000D+00 Coefficients=  1.5915000000D-01
     Exponent=  4.1820800000D-01 Coefficients=  5.0000000000D-01
 S 1 1.00
     Exponent=  1.0610000000D-01 Coefficients=  1.0000000000D+00
 P 1 1.00
     Exponent=  1.0000000000D+00 Coefficients=  1.0000000000D+00
 ****
 Centers:       2
 S 5 1.00
     Exponent=  1.2432000000D+03 Coefficients=  6.0336600000D-03
     Exponent=  1.8714500000D+02 Coefficients=  4.4957600000D-02
     Exponent=  4.2512600000D+01 Coefficients=  1.9790100000D-01
     Exponent=  1.1739300000D+01 Coefficients=  5.0000000000D-01
     Exponent=  3.5054800000D+00 Coefficients=  4.8036400000D-01
 S 2 1.00
     Exponent=  5.3908900000D+00 Coefficients= -7.0398000000D-02
     Exponent=  4.9334100000D-01 Coefficients=  5.0000000000D-01
 S 1 1.00
     Exponent=  1.4974100000D-01 Coefficients=  1.0000000000D+00
 P 3 1.00
     Exponent=  9.1805600000D+00 Coefficients=  4.3170100000D-02
     Exponent=  1.9365800000D+00 Coefficients=  2.2499900000D-01
     Exponent=  5.2629600000D-01 Coefficients=  5.0000000000D-01
 P 1 1.00
     Exponent=  1.3631900000D-01 Coefficients=  1.0000000000D+00
 D 1 1.00
     Exponent=  8.0000000000D-01 Coefficients=  1.0000000000D+00
 ****
 Ernie: Thresh=  0.10000D-02 Tol=  0.10000D-05 Strict=F.
 There are    35 symmetry adapted cartesian basis functions of A   symmetry.
 There are    34 symmetry adapted basis functions of A   symmetry.
    34 basis functions,    54 primitive gaussians,    35 cartesian basis functions
     5 alpha electrons        5 beta electrons
       nuclear repulsion energy        13.3684097049 Hartrees.
 IExCor=  402 DFT=T Ex+Corr=B3LYP ExCW=0 ScaHFX=  0.200000
 ScaDFX=  0.800000  0.720000  1.000000  0.810000 ScalE2=  1.000000  1.000000
 IRadAn=      5 IRanWt=     -1 IRanGd=            0 ICorTp=0 IEmpDi=141
 NAtoms=    5 NActive=    5 NUniq=    5 SFac= 1.00D+00 NAtFMM=   60 NAOKFM=F Big=F
 Integral buffers will be    131072 words long.
 Raffenetti 2 integral format.
 Two-electron integral symmetry is turned on.
 R6Disp:  Grimme-D3(BJ) Dispersion energy=       -0.0019130317 Hartrees.
 Nuclear repulsion after empirical dispersion term =       13.3664966732 Hartrees.
 ------------------------------------------------------------------------------
 Polarizable Continuum Model (PCM)
 =================================
 Model                : C-PCM.
 Atomic radii         : UFF (Universal Force Field).
 Polarization charges : Total charges.
 Charge compensation  : None.
 Solution method      : On-the-fly selection.
 Cavity type          : Scaled VdW (van der Waals Surface) (Alpha=1.100).
 Cavity algorithm     : GePol (No added spheres)
                        Default sphere list used, NSphG=    5.
                        Lebedev-Laikov grids with approx.  5.0 points / Ang**2.
                        Smoothing algorithm: York/Karplus (Gamma=1.0000).
                        Polarization charges: spherical gaussians, with
                                              point-specific exponents (IZeta= 3).
                        Self-potential: point-specific (ISelfS= 7).
                        Self-field    : sphere-specific E.n sum rule (ISelfD= 2).
 Solvent              : Toluene, Eps=   2.374100 Eps(inf)=   2.238315
 ------------------------------------------------------------------------------
 Spheres list:
 ISph  on   Nord     Re0    Alpha      Xe            Ye            Ze
    1   H      1    1.4430  1.100     -0.016426      0.939041     -0.564536
    2   C      2    1.9255  1.100     -0.006809     -0.007688     -0.005116
    3   H      3    1.4430  1.100      0.717492     -0.695655     -0.450392
    4   H      4    1.4430  1.100     -1.010386     -0.428729      0.038571
    5   H      5    1.4430  1.100      0.350173      0.231474      1.007051
 ------------------------------------------------------------------------------
 GePol: Number of generator spheres                  =       5
 GePol: Total number of spheres                      =       5
 GePol: Number of exposed spheres                    =       5 (100.00%)
 GePol: Number of points                             =     492
 GePol: Average weight of points                     =       0.14
 GePol: Minimum weight of points                     =   0.12D-05
 GePol: Maximum weight of points                     =    0.20577
 GePol: Number of points with low weight             =      18
 GePol: Fraction of low-weight points (<1% of avg)   =       3.66%
 GePol: Cavity surface area                          =     69.941 Ang**2
 GePol: Cavity volume                                =     51.592 Ang**3
 Leave Link  301 at Fri Sep 22 16:36:23 2023, MaxMem=   536870912 cpu:               0.4 elap:               0.1
 (Enter /share/apps/gaussian/g16/l302.exe)
 NPDir=0 NMtPBC=     1 NCelOv=     1 NCel=       1 NClECP=     1 NCelD=      1
         NCelK=      1 NCelE2=     1 NClLst=     1 CellRange=     0.0.
 One-electron integrals computed using PRISM.
 One-electron integral symmetry used in STVInt
 NBasis=    34 RedAO= T EigKep=  2.82D-02  NBF=    34
 NBsUse=    34 1.00D-06 EigRej= -1.00D+00 NBFU=    34
 Precomputing XC quadrature grid using
 IXCGrd= 4 IRadAn=           5 IRanWt=          -1 IRanGd=           0 AccXCQ= 0.00D+00.
 Generated NRdTot=       0 NPtTot=           0 NUsed=           0 NTot=          32
 NSgBfM=    35    35    35    35    35 MxSgAt=     5 MxSgA2=     5.
 Leave Link  302 at Fri Sep 22 16:36:23 2023, MaxMem=   536870912 cpu:               0.4 elap:               0.1
 (Enter /share/apps/gaussian/g16/l303.exe)
 DipDrv:  MaxL=1.
 Leave Link  303 at Fri Sep 22 16:36:23 2023, MaxMem=   536870912 cpu:               0.1 elap:               0.0
 (Enter /share/apps/gaussian/g16/l401.exe)
 ExpMin= 1.06D-01 ExpMax= 1.24D+03 ExpMxC= 1.87D+02 IAcc=3 IRadAn=         5 AccDes= 0.00D+00
 Harris functional with IExCor=  402 and IRadAn=       5 diagonalized for initial guess.
 HarFok:  IExCor=  402 AccDes= 0.00D+00 IRadAn=         5 IDoV= 1 UseB2=F ITyADJ=14
 ICtDFT=  3500011 ScaDFX=  1.000000  1.000000  1.000000  1.000000
 FoFCou: FMM=F IPFlag=           0 FMFlag=      100000 FMFlg1=           0
         NFxFlg=           0 DoJE=T BraDBF=F KetDBF=T FulRan=T
         wScrn=  0.000000 ICntrl=       500 IOpCl=  0 I1Cent=   200000004 NGrid=           0
         NMat0=    1 NMatS0=      1 NMatT0=    0 NMatD0=    1 NMtDS0=    0 NMtDT0=    0
 Petite list used in FoFCou.
 Harris En= -40.5522869414884    
 JPrj=0 DoOrth=F DoCkMO=F.
 Leave Link  401 at Fri Sep 22 16:36:23 2023, MaxMem=   536870912 cpu:               0.8 elap:               0.2
 (Enter /share/apps/gaussian/g16/l502.exe)
 Keep R1 ints in memory in canonical form, NReq=3628609.
 FoFCou: FMM=F IPFlag=           0 FMFlag=           0 FMFlg1=           0
         NFxFlg=           0 DoJE=F BraDBF=F KetDBF=F FulRan=T
         wScrn=  0.000000 ICntrl=       600 IOpCl=  0 I1Cent=           0 NGrid=           0
         NMat0=    1 NMatS0=    595 NMatT0=    0 NMatD0=    1 NMtDS0=    0 NMtDT0=    0
 Symmetry not used in FoFCou.
 Two-electron integral symmetry not used.
 Closed shell SCF:
 Using DIIS extrapolation, IDIIS=  1040.
 NGot=   536870912 LenX=   536690353 LenY=   536688687
 Requested convergence on RMS density matrix=1.00D-08 within 128 cycles.
 Requested convergence on MAX density matrix=1.00D-06.
 Requested convergence on             energy=1.00D-06.
 No special actions if energy rises.

 Cycle   1  Pass 1  IDiag  1:
 Inv3:  Mode=1 IEnd=      726192.
 Iteration    1 A*A^-1 deviation from unit magnitude is 4.44D-15 for    109.
 Iteration    1 A*A^-1 deviation from orthogonality  is 1.34D-15 for    461    313.
 Iteration    1 A^-1*A deviation from unit magnitude is 4.00D-15 for    109.
 Iteration    1 A^-1*A deviation from orthogonality  is 1.30D-15 for    340    228.
 E= -40.4256308262291    
 DIIS: error= 4.70D-02 at cycle   1 NSaved=   1.
 NSaved= 1 IEnMin= 1 EnMin= -40.4256308262291     IErMin= 1 ErrMin= 4.70D-02
 ErrMax= 4.70D-02  0.00D+00 EMaxC= 1.00D-01 BMatC= 7.85D-02 BMatP= 7.85D-02
 IDIUse=3 WtCom= 5.30D-01 WtEn= 4.70D-01
 Coeff-Com:  0.100D+01
 Coeff-En:   0.100D+01
 Coeff:      0.100D+01
 Gap=     0.356 Goal=   None    Shift=    0.000
 GapD=    0.356 DampG=1.000 DampE=0.500 DampFc=0.5000 IDamp=-1.
 Damping current iteration by 5.00D-01
 RMSDP=1.47D-02 MaxDP=1.51D-01              OVMax= 2.00D-01

 Cycle   2  Pass 1  IDiag  1:
 E= -40.4654841501185     Delta-E=       -0.039853323889 Rises=F Damp=T
 DIIS: error= 8.16D-03 at cycle   2 NSaved=   2.
 NSaved= 2 IEnMin= 2 EnMin= -40.4654841501185     IErMin= 2 ErrMin= 8.16D-03
 ErrMax= 8.16D-03  0.00D+00 EMaxC= 1.00D-01 BMatC= 1.25D-03 BMatP= 7.85D-02
 IDIUse=3 WtCom= 9.18D-01 WtEn= 8.16D-02
 Coeff-Com:  0.819D-01 0.918D+00
 Coeff-En:   0.134D+00 0.866D+00
 Coeff:      0.862D-01 0.914D+00
 Gap=     0.435 Goal=   None    Shift=    0.000
 RMSDP=1.37D-03 MaxDP=1.17D-02 DE=-3.99D-02 OVMax= 1.06D-01

 Cycle   3  Pass 1  IDiag  1:
 E= -40.5137293760860     Delta-E=       -0.048245225967 Rises=F Damp=F
 DIIS: error= 4.97D-04 at cycle   3 NSaved=   3.
 NSaved= 3 IEnMin= 3 EnMin= -40.5137293760860     IErMin= 3 ErrMin= 4.97D-04
 ErrMax= 4.97D-04  0.00D+00 EMaxC= 1.00D-01 BMatC= 9.67D-06 BMatP= 1.25D-03
 IDIUse=3 WtCom= 9.95D-01 WtEn= 4.97D-03
 Coeff-Com:  0.592D-02-0.499D-01 0.104D+01
 Coeff-En:   0.000D+00 0.000D+00 0.100D+01
 Coeff:      0.589D-02-0.496D-01 0.104D+01
 Gap=     0.443 Goal=   None    Shift=    0.000
 RMSDP=8.12D-05 MaxDP=7.85D-04 DE=-4.82D-02 OVMax= 9.53D-04

 Cycle   4  Pass 1  IDiag  1:
 E= -40.5137378585816     Delta-E=       -0.000008482496 Rises=F Damp=F
 DIIS: error= 7.08D-05 at cycle   4 NSaved=   4.
 NSaved= 4 IEnMin= 4 EnMin= -40.5137378585816     IErMin= 4 ErrMin= 7.08D-05
 ErrMax= 7.08D-05  0.00D+00 EMaxC= 1.00D-01 BMatC= 1.10D-07 BMatP= 9.67D-06
 IDIUse=1 WtCom= 1.00D+00 WtEn= 0.00D+00
 Coeff-Com:  0.173D-02-0.961D-02 0.206D+00 0.801D+00
 Coeff:      0.173D-02-0.961D-02 0.206D+00 0.801D+00
 Gap=     0.443 Goal=   None    Shift=    0.000
 RMSDP=9.94D-06 MaxDP=9.98D-05 DE=-8.48D-06 OVMax= 1.38D-04

 Cycle   5  Pass 1  IDiag  1:
 E= -40.5137379855341     Delta-E=       -0.000000126953 Rises=F Damp=F
 DIIS: error= 8.92D-06 at cycle   5 NSaved=   5.
 NSaved= 5 IEnMin= 5 EnMin= -40.5137379855341     IErMin= 5 ErrMin= 8.92D-06
 ErrMax= 8.92D-06  0.00D+00 EMaxC= 1.00D-01 BMatC= 1.94D-09 BMatP= 1.10D-07
 IDIUse=1 WtCom= 1.00D+00 WtEn= 0.00D+00
 Coeff-Com:  0.202D-03-0.219D-05 0.528D-02 0.111D+00 0.884D+00
 Coeff:      0.202D-03-0.219D-05 0.528D-02 0.111D+00 0.884D+00
 Gap=     0.443 Goal=   None    Shift=    0.000
 RMSDP=1.50D-06 MaxDP=1.65D-05 DE=-1.27D-07 OVMax= 2.05D-05

 Cycle   6  Pass 1  IDiag  1:
 E= -40.5137379878547     Delta-E=       -0.000000002321 Rises=F Damp=F
 DIIS: error= 7.91D-07 at cycle   6 NSaved=   6.
 NSaved= 6 IEnMin= 6 EnMin= -40.5137379878547     IErMin= 6 ErrMin= 7.91D-07
 ErrMax= 7.91D-07  0.00D+00 EMaxC= 1.00D-01 BMatC= 1.46D-11 BMatP= 1.94D-09
 IDIUse=1 WtCom= 1.00D+00 WtEn= 0.00D+00
 Coeff-Com: -0.116D-04 0.473D-04-0.121D-02-0.145D-02 0.694D-01 0.933D+00
 Coeff:     -0.116D-04 0.473D-04-0.121D-02-0.145D-02 0.694D-01 0.933D+00
 Gap=     0.443 Goal=   None    Shift=    0.000
 RMSDP=1.23D-07 MaxDP=1.47D-06 DE=-2.32D-09 OVMax= 1.86D-06

 Cycle   7  Pass 1  IDiag  1:
 E= -40.5137379878748     Delta-E=       -0.000000000020 Rises=F Damp=F
 DIIS: error= 1.84D-08 at cycle   7 NSaved=   7.
 NSaved= 7 IEnMin= 7 EnMin= -40.5137379878748     IErMin= 7 ErrMin= 1.84D-08
 ErrMax= 1.84D-08  0.00D+00 EMaxC= 1.00D-01 BMatC= 8.93D-15 BMatP= 1.46D-11
 IDIUse=1 WtCom= 1.00D+00 WtEn= 0.00D+00
 Coeff-Com: -0.111D-06-0.204D-06-0.291D-04 0.162D-03 0.908D-03 0.129D-02
 Coeff-Com:  0.998D+00
 Coeff:     -0.111D-06-0.204D-06-0.291D-04 0.162D-03 0.908D-03 0.129D-02
 Coeff:      0.998D+00
 Gap=     0.443 Goal=   None    Shift=    0.000
 RMSDP=4.30D-09 MaxDP=6.04D-08 DE=-2.01D-11 OVMax= 5.02D-08

 Error on total polarization charges =  0.00446
 SCF Done:  E(RB3LYP) =  -40.5137379879     A.U. after    7 cycles
            NFock=  7  Conv=0.43D-08     -V/T= 2.0091
 KE= 4.014942561346D+01 PE=-1.198222620256D+02 EE= 2.579260175106D+01
 Leave Link  502 at Fri Sep 22 16:36:24 2023, MaxMem=   536870912 cpu:               4.9 elap:               1.3
 (Enter /share/apps/gaussian/g16/l601.exe)
 Copying SCF densities to generalized density rwf, IOpCl= 0 IROHF=0.

 **********************************************************************

            Population analysis using the SCF density.

 **********************************************************************

 Orbital symmetries:
       Occupied  (A) (A) (A) (A) (A)
       Virtual   (A) (A) (A) (A) (A) (A) (A) (A) (A) (A) (A) (A)
                 (A) (A) (A) (A) (A) (A) (A) (A) (A) (A) (A) (A)
                 (A) (A) (A) (A) (A)
 The electronic state is 1-A.
 Alpha  occ. eigenvalues --  -10.16242  -0.69398  -0.39967  -0.39281  -0.38635
 Alpha virt. eigenvalues --    0.05708   0.12508   0.12579   0.12678   0.37016
 Alpha virt. eigenvalues --    0.37631   0.38349   0.63438   0.63839   0.64417
 Alpha virt. eigenvalues --    0.67868   0.96204   1.28635   1.29179   1.84541
 Alpha virt. eigenvalues --    1.85645   1.86240   1.88308   1.89893   1.90574
 Alpha virt. eigenvalues --    2.38710   2.41804   2.45439   2.75182   2.76242
 Alpha virt. eigenvalues --    2.93342   3.20034   3.20944   3.21503
          Condensed to atoms (all electrons):
               1          2          3          4          5
     1  H    0.575540   0.402629  -0.020427  -0.020910  -0.023050
     2  C    0.402629   4.736297   0.404070   0.405266   0.402043
     3  H   -0.020427   0.404070   0.569610  -0.019185  -0.022891
     4  H   -0.020910   0.405266  -0.019185   0.563390  -0.020256
     5  H   -0.023050   0.402043  -0.022891  -0.020256   0.580587
 Mulliken charges:
               1
     1  H    0.086218
     2  C   -0.350304
     3  H    0.088822
     4  H    0.091696
     5  H    0.083568
 Sum of Mulliken charges =   0.00000
 Mulliken charges with hydrogens summed into heavy atoms:
               1
     2  C    0.000000
 Electronic spatial extent (au):  <R**2>=             35.9853
 Charge=              0.0000 electrons
 Dipole moment (field-independent basis, Debye):
    X=              0.0229    Y=              0.0243    Z=              0.0205  Tot=              0.0391
 Quadrupole moment (field-independent basis, Debye-Ang):
   XX=             -8.3236   YY=             -8.4478   ZZ=             -8.5762
   XY=              0.0074   XZ=             -0.0135   YZ=              0.0053
 Traceless Quadrupole moment (field-independent basis, Debye-Ang):
   XX=              0.1256   YY=              0.0014   ZZ=             -0.1270
   XY=              0.0074   XZ=             -0.0135   YZ=              0.0053
 Octapole moment (field-independent basis, Debye-Ang**2):
  XXX=             -0.3954  YYY=              0.3035  ZZZ=              0.4681  XYY=              0.1212
  XXY=             -0.5073  XXZ=             -0.0328  XZZ=              0.3144  YZZ=              0.2435
  YYZ=             -0.3890  XYZ=              0.2110
 Hexadecapole moment (field-independent basis, Debye-Ang**3):
 XXXX=            -16.0853 YYYY=            -16.4322 ZZZZ=            -16.2730 XXXY=              0.2224
 XXXZ=             -0.2089 YYYX=             -0.1689 YYYZ=             -0.3252 ZZZX=              0.2956
 ZZZY=              0.1572 XXYY=             -5.3711 XXZZ=             -5.5934 YYZZ=             -5.3844
 XXYZ=              0.1930 YYXZ=             -0.1569 ZZXY=             -0.0159
 N-N= 1.336649667323D+01 E-N=-1.198222618635D+02  KE= 4.014942561346D+01
 There are a total of      109428 grid points.
 ElSum from          density=        9.9999999444
 ElSum from atomic densities=        9.9999999488
 Hirshfeld populations at iteration   1 (CA, CB, DipXYZ):
               1          2          3          4          5
     1  H    0.485092   0.485092   0.000477   0.120788  -0.066156
     2  C    3.060994   3.060994  -0.004430  -0.004963  -0.002869
     3  H    0.484452   0.484452   0.096913  -0.085852  -0.053340
     4  H    0.483802   0.483802  -0.131723  -0.052444   0.006906
     5  H    0.485661   0.485661   0.047844   0.031923   0.123670
       Tot   5.000000   5.000000   0.009080   0.009453   0.008211

 Dip from Atomic Chgs             -0.000071   0.000099  -0.000159
         Total Dipole              0.009009   0.009553   0.008052

 Hirshfeld charges, spin densities, dipoles, and CM5 charges using IRadAn=      5:
              Q-H        S-H        Dx         Dy         Dz        Q-CM5   
     1  H    0.029816   0.000000   0.000477   0.120788  -0.066156   0.076460
     2  C   -0.121987   0.000000  -0.004430  -0.004963  -0.002869  -0.310499
     3  H    0.031097   0.000000   0.096913  -0.085852  -0.053340   0.078438
     4  H    0.032396   0.000000  -0.131723  -0.052444   0.006906   0.080268
     5  H    0.028678   0.000000   0.047844   0.031923   0.123670   0.075334
       Tot   0.000000   0.000000   0.009080   0.009453   0.008211   0.000000
 Hirshfeld charges with hydrogens summed into heavy atoms:
              Q-H       Q-CM5   
     2  C    0.000000   0.000000
 
 EQQ= 0.000000000000E+00 EQD= 0.000000000000E+00 EDD=-0.100379574533E-02
 EQQ+QD+DD=-0.100379574533E-02
 
 No NMR shielding tensors so no spin-rotation constants.
 Leave Link  601 at Fri Sep 22 16:36:25 2023, MaxMem=   536870912 cpu:               0.6 elap:               0.2
 (Enter /share/apps/gaussian/g16/l9999.exe)
 1\1\GINC-NODE74\SP\RB3LYP\Gen\C1H4\YANZ\22-Sep-2023\0\\#p b3lyp/gen sc
 rf=(cpcm,solvent=toluene) pop=hirshfeld empiricaldispersion=gd3bj\\tmp
 dir/M3_conf_0_239.gjf\\0,1\H,0,0.,0.,0.\C,0,1.0997,0.,0.\H,0,1.47179,0
 .,1.02846\H,0,1.47562,0.84177,-0.58005\H,0,1.41182,-0.94887,-0.45972\\
 Version=ES64L-G16RevA.03\State=1-A\HF=-40.513738\RMSD=4.304e-09\Dipole
 =-0.0040492,-0.0147166,-0.0020667\Quadrupole=-0.0272769,0.0095604,0.01
 77165,0.0369532,0.0250199,-0.0799892\PG=C01 [X(C1H4)]\\@


 THE 2ND LAW OF THERMODYNAMICS HAS THE SAME
 DEGREE OF TRUTH AS THE STATEMENT THAT IF YOU THROW
 A TUMBLERFULL OF WATER INTO THE SEA, YOU CANNOT GET
 THE SAME TUMBLERFULL OF WATER OUT AGAIN.
          - J.C. MAXWELL, LETTER TO LORD RAYLEIGH, DECEMBER 6,1870
 Job cpu time:       0 days  0 hours  0 minutes  8.0 seconds.
 Elapsed time:       0 days  0 hours  0 minutes  2.1 seconds.
 File lengths (MBytes):  RWF=      6 Int=      0 D2E=      0 Chk=      1 Scr=      1
 Normal termination of Gaussian 16 at Fri Sep 22 16:36:25 2023.
