 Entering Gaussian System, Link 0=g16
 Initial command:
 /share/apps/gaussian/g16/l1.exe "/tmp/55557.mgr/Gau-212853.inp" -scrdir="/tmp/55557.mgr/"
 Entering Link 1 = /share/apps/gaussian/g16/l1.exe PID=    212854.
  
 Copyright (c) 1988,1990,1992,1993,1995,1998,2003,2009,2016,
            Gaussian, Inc.  All Rights Reserved.
  
 This is part of the Gaussian(R) 16 program.  It is based on
 the Gaussian(R) 09 system (copyright 2009, Gaussian, Inc.),
 the Gaussian(R) 03 system (copyright 2003, Gaussian, Inc.),
 the Gaussian(R) 98 system (copyright 1998, Gaussian, Inc.),
 the Gaussian(R) 94 system (copyright 1995, Gaussian, Inc.),
 the Gaussian 92(TM) system (copyright 1992, Gaussian, Inc.),
 the Gaussian 90(TM) system (copyright 1990, Gaussian, Inc.),
 the Gaussian 88(TM) system (copyright 1988, Gaussian, Inc.),
 the Gaussian 86(TM) system (copyright 1986, Carnegie Mellon
 University), and the Gaussian 82(TM) system (copyright 1983,
 Carnegie Mellon University). Gaussian is a federally registered
 trademark of Gaussian, Inc.
  
 This software contains proprietary and confidential information,
 including trade secrets, belonging to Gaussian, Inc.
  
 This software is provided under written license and may be
 used, copied, transmitted, or stored only in accord with that
 written license.
  
 The following legend is applicable only to US Government
 contracts under FAR:
  
                    RESTRICTED RIGHTS LEGEND
  
 Use, reproduction and disclosure by the US Government is
 subject to restrictions as set forth in subparagraphs (a)
 and (c) of the Commercial Computer Software - Restricted
 Rights clause in FAR 52.227-19.
  
 Gaussian, Inc.
 340 Quinnipiac St., Bldg. 40, Wallingford CT 06492
  
  
 ---------------------------------------------------------------
 Warning -- This program may not be used in any manner that
 competes with the business of Gaussian, Inc. or will provide
 assistance to any competitor of Gaussian, Inc.  The licensee
 of this program is prohibited from giving any competitor of
 Gaussian, Inc. access to this program.  By using this program,
 the user acknowledges that Gaussian, Inc. is engaged in the
 business of creating and licensing software in the field of
 computational chemistry and represents and warrants to the
 licensee that it is not a competitor of Gaussian, Inc. and that
 it will not use this program in any manner prohibited above.
 ---------------------------------------------------------------
  

 Cite this work as:
 Gaussian 16, Revision A.03,
 M. J. Frisch, G. W. Trucks, H. B. Schlegel, G. E. Scuseria, 
 M. A. Robb, J. R. Cheeseman, G. Scalmani, V. Barone, 
 G. A. Petersson, H. Nakatsuji, X. Li, M. Caricato, A. V. Marenich, 
 J. Bloino, B. G. Janesko, R. Gomperts, B. Mennucci, H. P. Hratchian, 
 J. V. Ortiz, A. F. Izmaylov, J. L. Sonnenberg, D. Williams-Young, 
 F. Ding, F. Lipparini, F. Egidi, J. Goings, B. Peng, A. Petrone, 
 T. Henderson, D. Ranasinghe, V. G. Zakrzewski, J. Gao, N. Rega, 
 G. Zheng, W. Liang, M. Hada, M. Ehara, K. Toyota, R. Fukuda, 
 J. Hasegawa, M. Ishida, T. Nakajima, Y. Honda, O. Kitao, H. Nakai, 
 T. Vreven, K. Throssell, J. A. Montgomery, Jr., J. E. Peralta, 
 F. Ogliaro, M. J. Bearpark, J. J. Heyd, E. N. Brothers, K. N. Kudin, 
 V. N. Staroverov, T. A. Keith, R. Kobayashi, J. Normand, 
 K. Raghavachari, A. P. Rendell, J. C. Burant, S. S. Iyengar, 
 J. Tomasi, M. Cossi, J. M. Millam, M. Klene, C. Adamo, R. Cammi, 
 J. W. Ochterski, R. L. Martin, K. Morokuma, O. Farkas, 
 J. B. Foresman, and D. J. Fox, Gaussian, Inc., Wallingford CT, 2016.
 
 ******************************************
 Gaussian 16:  ES64L-G16RevA.03 25-Dec-2016
                22-Sep-2023 
 ******************************************
 %nprocshared=4
 Will use up to    4 processors via shared memory.
 %mem=4GB
 ----------------------------------------------------------------------
 #p b3lyp/gen scrf=(cpcm,solvent=toluene) pop=hirshfeld empiricaldisper
 sion=gd3bj
 ----------------------------------------------------------------------
 1/38=1,172=1/1;
 2/12=2,17=6,18=5,40=1/2;
 3/5=7,11=2,25=1,30=1,70=2101,72=13,74=-5,124=41/1,2,3;
 4//1;
 5/5=2,38=5,53=13/2;
 6/7=2,8=2,9=2,10=2,28=1,79=1/1;
 99/5=1,9=1/99;
 Leave Link    1 at Fri Sep 22 16:32:38 2023, MaxMem=   536870912 cpu:               0.1 elap:               0.0
 (Enter /share/apps/gaussian/g16/l101.exe)
 -----------------------
 tmpdir/M3_conf_0_15.gjf
 -----------------------
 Symbolic Z-matrix:
 Charge =  0 Multiplicity = 1
 C                     0.        0.        0. 
 S                     1.7027    0.        0. 
 H                    -0.57392   0.       -0.89915 
 H                    -0.59413   0.0153    0.87674 
 
 ITRead=  0  0  0  0
 MicOpt= -1 -1 -1 -1
 NAtoms=      4 NQM=        4 NQMF=       0 NMMI=      0 NMMIF=      0
                NMic=       0 NMicF=      0.
                    Isotopes and Nuclear Properties:
 (Nuclear quadrupole moments (NQMom) in fm**2, nuclear magnetic moments (NMagM)
  in nuclear magnetons)

  Atom         1           2           3           4
 IAtWgt=          12          32           1           1
 AtmWgt=  12.0000000  31.9720718   1.0078250   1.0078250
 NucSpn=           0           0           1           1
 AtZEff=  -0.0000000  -0.0000000  -0.0000000  -0.0000000
 NQMom=    0.0000000   0.0000000   0.0000000   0.0000000
 NMagM=    0.0000000   0.0000000   2.7928460   2.7928460
 AtZNuc=   6.0000000  16.0000000   1.0000000   1.0000000
 Leave Link  101 at Fri Sep 22 16:32:38 2023, MaxMem=   536870912 cpu:               0.3 elap:               0.1
 (Enter /share/apps/gaussian/g16/l202.exe)
                          Input orientation:                          
 ---------------------------------------------------------------------
 Center     Atomic      Atomic             Coordinates (Angstroms)
 Number     Number       Type             X           Y           Z
 ---------------------------------------------------------------------
      1          6           0        0.000000    0.000000    0.000000
      2         16           0        1.702700    0.000000    0.000000
      3          1           0       -0.573920    0.000000   -0.899150
      4          1           0       -0.594130    0.015300    0.876740
 ---------------------------------------------------------------------
                    Distance matrix (angstroms):
                    1          2          3          4
     1  C    0.000000
     2  S    1.702700   0.000000
     3  H    1.066703   2.447748   0.000000
     4  H    1.059197   2.458523   1.776071   0.000000
 Stoichiometry    CH2S
 Framework group  C1[X(CH2S)]
 Deg. of freedom     6
 Full point group                 C1      NOp   1
 Largest Abelian subgroup         C1      NOp   1
 Largest concise Abelian subgroup C1      NOp   1
                         Standard orientation:                         
 ---------------------------------------------------------------------
 Center     Atomic      Atomic             Coordinates (Angstroms)
 Number     Number       Type             X           Y           Z
 ---------------------------------------------------------------------
      1          6           0       -1.086461   -0.002148   -0.002146
      2         16           0        0.616236   -0.000236    0.000206
      3          1           0       -1.661400    0.896324    0.004733
      4          1           0       -1.679616   -0.879653    0.004853
 ---------------------------------------------------------------------
 Rotational constants (GHZ):         317.9150992          15.9451962          15.1837365
 Leave Link  202 at Fri Sep 22 16:32:38 2023, MaxMem=   536870912 cpu:               0.0 elap:               0.0
 (Enter /share/apps/gaussian/g16/l301.exe)
 General basis read from cards:  (5D, 7F)
 Centers:       3      4
 S 3 1.00
     Exponent=  1.2251800000D+01 Coefficients=  2.3337100000D-02
     Exponent=  1.8687100000D+00 Coefficients=  1.5915000000D-01
     Exponent=  4.1820800000D-01 Coefficients=  5.0000000000D-01
 S 1 1.00
     Exponent=  1.0610000000D-01 Coefficients=  1.0000000000D+00
 P 1 1.00
     Exponent=  1.0000000000D+00 Coefficients=  1.0000000000D+00
 ****
 Centers:       1
 S 5 1.00
     Exponent=  1.2432000000D+03 Coefficients=  6.0336600000D-03
     Exponent=  1.8714500000D+02 Coefficients=  4.4957600000D-02
     Exponent=  4.2512600000D+01 Coefficients=  1.9790100000D-01
     Exponent=  1.1739300000D+01 Coefficients=  5.0000000000D-01
     Exponent=  3.5054800000D+00 Coefficients=  4.8036400000D-01
 S 2 1.00
     Exponent=  5.3908900000D+00 Coefficients= -7.0398000000D-02
     Exponent=  4.9334100000D-01 Coefficients=  5.0000000000D-01
 S 1 1.00
     Exponent=  1.4974100000D-01 Coefficients=  1.0000000000D+00
 P 3 1.00
     Exponent=  9.1805600000D+00 Coefficients=  4.3170100000D-02
     Exponent=  1.9365800000D+00 Coefficients=  2.2499900000D-01
     Exponent=  5.2629600000D-01 Coefficients=  5.0000000000D-01
 P 1 1.00
     Exponent=  1.3631900000D-01 Coefficients=  1.0000000000D+00
 D 1 1.00
     Exponent=  8.0000000000D-01 Coefficients=  1.0000000000D+00
 ****
 Centers:       2
 S 7 1.00
     Exponent=  4.9299400000D+04 Coefficients=  7.4568000000D-04
     Exponent=  7.3958400000D+03 Coefficients=  5.7589300000D-03
     Exponent=  1.6833000000D+03 Coefficients=  2.9463700000D-02
     Exponent=  4.7614400000D+02 Coefficients=  1.1322300000D-01
     Exponent=  1.5432900000D+02 Coefficients=  3.1526700000D-01
     Exponent=  5.5028800000D+01 Coefficients=  5.0000000000D-01
     Exponent=  2.0502900000D+01 Coefficients=  2.9909300000D-01
 S 3 1.00
     Exponent=  4.5959600000D+01 Coefficients= -8.7474400000D-02
     Exponent=  4.9274000000D+00 Coefficients=  5.5830300000D-01
     Exponent=  1.9179900000D+00 Coefficients=  5.0000000000D-01
 S 1 1.00
     Exponent=  3.6849800000D-01 Coefficients=  1.0000000000D+00
 S 1 1.00
     Exponent=  1.2916500000D-01 Coefficients=  1.0000000000D+00
 P 6 1.00
     Exponent=  4.5166200000D+02 Coefficients=  4.0055400000D-03
     Exponent=  1.0609800000D+02 Coefficients=  3.1566500000D-02
     Exponent=  3.3699600000D+01 Coefficients=  1.3444100000D-01
     Exponent=  1.2305400000D+01 Coefficients=  3.4765900000D-01
     Exponent=  4.7141200000D+00 Coefficients=  5.0000000000D-01
     Exponent=  1.7810500000D+00 Coefficients=  2.8792200000D-01
 P 2 1.00
     Exponent=  8.7223500000D-01 Coefficients=  2.4352100000D-01
     Exponent=  3.1027800000D-01 Coefficients=  5.0000000000D-01
 P 1 1.00
     Exponent=  1.0019400000D-01 Coefficients=  1.0000000000D+00
 D 1 1.00
     Exponent=  5.5000000000D-01 Coefficients=  1.0000000000D+00
 ****
 Ernie: Thresh=  0.10000D-02 Tol=  0.10000D-05 Strict=F.
 There are    44 symmetry adapted cartesian basis functions of A   symmetry.
 There are    42 symmetry adapted basis functions of A   symmetry.
    42 basis functions,    85 primitive gaussians,    44 cartesian basis functions
    12 alpha electrons       12 beta electrons
       nuclear repulsion energy        43.0105478649 Hartrees.
 IExCor=  402 DFT=T Ex+Corr=B3LYP ExCW=0 ScaHFX=  0.200000
 ScaDFX=  0.800000  0.720000  1.000000  0.810000 ScalE2=  1.000000  1.000000
 IRadAn=      5 IRanWt=     -1 IRanGd=            0 ICorTp=0 IEmpDi=141
 NAtoms=    4 NActive=    4 NUniq=    4 SFac= 1.00D+00 NAtFMM=   60 NAOKFM=F Big=F
 Integral buffers will be    131072 words long.
 Raffenetti 2 integral format.
 Two-electron integral symmetry is turned on.
 R6Disp:  Grimme-D3(BJ) Dispersion energy=       -0.0033843457 Hartrees.
 Nuclear repulsion after empirical dispersion term =       43.0071635192 Hartrees.
 ------------------------------------------------------------------------------
 Polarizable Continuum Model (PCM)
 =================================
 Model                : C-PCM.
 Atomic radii         : UFF (Universal Force Field).
 Polarization charges : Total charges.
 Charge compensation  : None.
 Solution method      : On-the-fly selection.
 Cavity type          : Scaled VdW (van der Waals Surface) (Alpha=1.100).
 Cavity algorithm     : GePol (No added spheres)
                        Default sphere list used, NSphG=    4.
                        Lebedev-Laikov grids with approx.  5.0 points / Ang**2.
                        Smoothing algorithm: York/Karplus (Gamma=1.0000).
                        Polarization charges: spherical gaussians, with
                                              point-specific exponents (IZeta= 3).
                        Self-potential: point-specific (ISelfS= 7).
                        Self-field    : sphere-specific E.n sum rule (ISelfD= 2).
 Solvent              : Toluene, Eps=   2.374100 Eps(inf)=   2.238315
 ------------------------------------------------------------------------------
 Spheres list:
 ISph  on   Nord     Re0    Alpha      Xe            Ye            Ze
    1   C      1    1.9255  1.100     -1.086461     -0.002148     -0.002146
    2   S      2    2.0175  1.100      0.616236     -0.000236      0.000206
    3   H      3    1.4430  1.100     -1.661400      0.896324      0.004733
    4   H      4    1.4430  1.100     -1.679616     -0.879653      0.004853
 ------------------------------------------------------------------------------
 GePol: Number of generator spheres                  =       4
 GePol: Total number of spheres                      =       4
 GePol: Number of exposed spheres                    =       4 (100.00%)
 GePol: Number of points                             =     648
 GePol: Average weight of points                     =       0.14
 GePol: Minimum weight of points                     =   0.41D-06
 GePol: Maximum weight of points                     =    0.20577
 GePol: Number of points with low weight             =      18
 GePol: Fraction of low-weight points (<1% of avg)   =       2.78%
 GePol: Cavity surface area                          =     88.429 Ang**2
 GePol: Cavity volume                                =     72.114 Ang**3
 Leave Link  301 at Fri Sep 22 16:32:38 2023, MaxMem=   536870912 cpu:               0.4 elap:               0.1
 (Enter /share/apps/gaussian/g16/l302.exe)
 NPDir=0 NMtPBC=     1 NCelOv=     1 NCel=       1 NClECP=     1 NCelD=      1
         NCelK=      1 NCelE2=     1 NClLst=     1 CellRange=     0.0.
 One-electron integrals computed using PRISM.
 One-electron integral symmetry used in STVInt
 NBasis=    42 RedAO= T EigKep=  1.88D-02  NBF=    42
 NBsUse=    42 1.00D-06 EigRej= -1.00D+00 NBFU=    42
 Precomputing XC quadrature grid using
 IXCGrd= 4 IRadAn=           5 IRanWt=          -1 IRanGd=           0 AccXCQ= 0.00D+00.
 Generated NRdTot=       0 NPtTot=           0 NUsed=           0 NTot=          32
 NSgBfM=    44    44    44    44    44 MxSgAt=     4 MxSgA2=     4.
 Leave Link  302 at Fri Sep 22 16:32:38 2023, MaxMem=   536870912 cpu:               0.4 elap:               0.1
 (Enter /share/apps/gaussian/g16/l303.exe)
 DipDrv:  MaxL=1.
 Leave Link  303 at Fri Sep 22 16:32:38 2023, MaxMem=   536870912 cpu:               0.1 elap:               0.0
 (Enter /share/apps/gaussian/g16/l401.exe)
 ExpMin= 1.00D-01 ExpMax= 4.93D+04 ExpMxC= 1.68D+03 IAcc=3 IRadAn=         5 AccDes= 0.00D+00
 Harris functional with IExCor=  402 and IRadAn=       5 diagonalized for initial guess.
 HarFok:  IExCor=  402 AccDes= 0.00D+00 IRadAn=         5 IDoV= 1 UseB2=F ITyADJ=14
 ICtDFT=  3500011 ScaDFX=  1.000000  1.000000  1.000000  1.000000
 FoFCou: FMM=F IPFlag=           0 FMFlag=      100000 FMFlg1=           0
         NFxFlg=           0 DoJE=T BraDBF=F KetDBF=T FulRan=T
         wScrn=  0.000000 ICntrl=       500 IOpCl=  0 I1Cent=   200000004 NGrid=           0
         NMat0=    1 NMatS0=      1 NMatT0=    0 NMatD0=    1 NMtDS0=    0 NMtDT0=    0
 Petite list used in FoFCou.
 Harris En= -437.414810369279    
 JPrj=0 DoOrth=F DoCkMO=F.
 Leave Link  401 at Fri Sep 22 16:32:38 2023, MaxMem=   536870912 cpu:               0.8 elap:               0.2
 (Enter /share/apps/gaussian/g16/l502.exe)
 Keep R1 ints in memory in canonical form, NReq=3877190.
 FoFCou: FMM=F IPFlag=           0 FMFlag=           0 FMFlg1=           0
         NFxFlg=           0 DoJE=F BraDBF=F KetDBF=F FulRan=T
         wScrn=  0.000000 ICntrl=       600 IOpCl=  0 I1Cent=           0 NGrid=           0
         NMat0=    1 NMatS0=    903 NMatT0=    0 NMatD0=    1 NMtDS0=    0 NMtDT0=    0
 Symmetry not used in FoFCou.
 Two-electron integral symmetry not used.
 Closed shell SCF:
 Using DIIS extrapolation, IDIIS=  1040.
 NGot=   536870912 LenX=   536458006 LenY=   536455629
 Requested convergence on RMS density matrix=1.00D-08 within 128 cycles.
 Requested convergence on MAX density matrix=1.00D-06.
 Requested convergence on             energy=1.00D-06.
 No special actions if energy rises.

 Cycle   1  Pass 1  IDiag  1:
 Inv3:  Mode=1 IEnd=     1259712.
 Iteration    1 A*A^-1 deviation from unit magnitude is 2.66D-15 for    638.
 Iteration    1 A*A^-1 deviation from orthogonality  is 1.18D-15 for    373    284.
 Iteration    1 A^-1*A deviation from unit magnitude is 2.66D-15 for    638.
 Iteration    1 A^-1*A deviation from orthogonality  is 1.00D-15 for    391    188.
 E= -437.395933827832    
 DIIS: error= 3.47D-02 at cycle   1 NSaved=   1.
 NSaved= 1 IEnMin= 1 EnMin= -437.395933827832     IErMin= 1 ErrMin= 3.47D-02
 ErrMax= 3.47D-02  0.00D+00 EMaxC= 1.00D-01 BMatC= 5.26D-02 BMatP= 5.26D-02
 IDIUse=3 WtCom= 6.53D-01 WtEn= 3.47D-01
 Coeff-Com:  0.100D+01
 Coeff-En:   0.100D+01
 Coeff:      0.100D+01
 Gap=     0.191 Goal=   None    Shift=    0.000
 GapD=    0.191 DampG=1.000 DampE=0.500 DampFc=0.5000 IDamp=-1.
 Damping current iteration by 5.00D-01
 RMSDP=1.49D-02 MaxDP=2.67D-01              OVMax= 4.20D-01

 Cycle   2  Pass 1  IDiag  1:
 E= -437.401897876938     Delta-E=       -0.005964049106 Rises=F Damp=T
 DIIS: error= 1.44D-02 at cycle   2 NSaved=   2.
 NSaved= 2 IEnMin= 2 EnMin= -437.401897876938     IErMin= 2 ErrMin= 1.44D-02
 ErrMax= 1.44D-02  0.00D+00 EMaxC= 1.00D-01 BMatC= 1.31D-02 BMatP= 5.26D-02
 IDIUse=3 WtCom= 8.56D-01 WtEn= 1.44D-01
 Coeff-Com:  0.314D+00 0.686D+00
 Coeff-En:   0.466D+00 0.534D+00
 Coeff:      0.336D+00 0.664D+00
 Gap=     0.139 Goal=   None    Shift=    0.000
 RMSDP=3.90D-03 MaxDP=5.80D-02 DE=-5.96D-03 OVMax= 2.73D-01

 Cycle   3  Pass 1  IDiag  1:
 E= -437.457836263807     Delta-E=       -0.055938386869 Rises=F Damp=F
 DIIS: error= 2.92D-03 at cycle   3 NSaved=   3.
 NSaved= 3 IEnMin= 3 EnMin= -437.457836263807     IErMin= 3 ErrMin= 2.92D-03
 ErrMax= 2.92D-03  0.00D+00 EMaxC= 1.00D-01 BMatC= 5.13D-04 BMatP= 1.31D-02
 IDIUse=3 WtCom= 9.71D-01 WtEn= 2.92D-02
 Coeff-Com:  0.919D-01 0.112D+00 0.796D+00
 Coeff-En:   0.000D+00 0.000D+00 0.100D+01
 Coeff:      0.893D-01 0.109D+00 0.802D+00
 Gap=     0.131 Goal=   None    Shift=    0.000
 RMSDP=1.18D-03 MaxDP=1.69D-02 DE=-5.59D-02 OVMax= 1.06D-02

 Cycle   4  Pass 1  IDiag  1:
 E= -437.458371888918     Delta-E=       -0.000535625111 Rises=F Damp=F
 DIIS: error= 1.40D-03 at cycle   4 NSaved=   4.
 NSaved= 4 IEnMin= 4 EnMin= -437.458371888918     IErMin= 4 ErrMin= 1.40D-03
 ErrMax= 1.40D-03  0.00D+00 EMaxC= 1.00D-01 BMatC= 8.43D-05 BMatP= 5.13D-04
 IDIUse=3 WtCom= 9.86D-01 WtEn= 1.40D-02
 Coeff-Com:  0.210D-01-0.196D-01 0.270D+00 0.729D+00
 Coeff-En:   0.000D+00 0.000D+00 0.000D+00 0.100D+01
 Coeff:      0.207D-01-0.193D-01 0.266D+00 0.732D+00
 Gap=     0.130 Goal=   None    Shift=    0.000
 RMSDP=4.17D-04 MaxDP=6.34D-03 DE=-5.36D-04 OVMax= 6.09D-03

 Cycle   5  Pass 1  IDiag  1:
 E= -437.458490456725     Delta-E=       -0.000118567807 Rises=F Damp=F
 DIIS: error= 2.33D-04 at cycle   5 NSaved=   5.
 NSaved= 5 IEnMin= 5 EnMin= -437.458490456725     IErMin= 5 ErrMin= 2.33D-04
 ErrMax= 2.33D-04  0.00D+00 EMaxC= 1.00D-01 BMatC= 3.22D-06 BMatP= 8.43D-05
 IDIUse=3 WtCom= 9.98D-01 WtEn= 2.33D-03
 Coeff-Com:  0.460D-02-0.114D-01 0.742D-01 0.275D+00 0.657D+00
 Coeff-En:   0.000D+00 0.000D+00 0.000D+00 0.000D+00 0.100D+01
 Coeff:      0.459D-02-0.113D-01 0.741D-01 0.274D+00 0.658D+00
 Gap=     0.130 Goal=   None    Shift=    0.000
 RMSDP=5.94D-05 MaxDP=9.08D-04 DE=-1.19D-04 OVMax= 9.50D-04

 Cycle   6  Pass 1  IDiag  1:
 E= -437.458494573341     Delta-E=       -0.000004116616 Rises=F Damp=F
 DIIS: error= 2.75D-05 at cycle   6 NSaved=   6.
 NSaved= 6 IEnMin= 6 EnMin= -437.458494573341     IErMin= 6 ErrMin= 2.75D-05
 ErrMax= 2.75D-05  0.00D+00 EMaxC= 1.00D-01 BMatC= 5.70D-08 BMatP= 3.22D-06
 IDIUse=1 WtCom= 1.00D+00 WtEn= 0.00D+00
 Coeff-Com:  0.241D-03-0.157D-02 0.252D-02 0.752D-02 0.855D-01 0.906D+00
 Coeff:      0.241D-03-0.157D-02 0.252D-02 0.752D-02 0.855D-01 0.906D+00
 Gap=     0.130 Goal=   None    Shift=    0.000
 RMSDP=7.48D-06 MaxDP=1.20D-04 DE=-4.12D-06 OVMax= 8.19D-05

 Cycle   7  Pass 1  IDiag  1:
 E= -437.458494636322     Delta-E=       -0.000000062981 Rises=F Damp=F
 DIIS: error= 1.09D-05 at cycle   7 NSaved=   7.
 NSaved= 7 IEnMin= 7 EnMin= -437.458494636322     IErMin= 7 ErrMin= 1.09D-05
 ErrMax= 1.09D-05  0.00D+00 EMaxC= 1.00D-01 BMatC= 5.84D-09 BMatP= 5.70D-08
 IDIUse=1 WtCom= 1.00D+00 WtEn= 0.00D+00
 Coeff-Com:  0.725D-04-0.188D-03-0.119D-02-0.659D-02-0.428D-02 0.959D-01
 Coeff-Com:  0.916D+00
 Coeff:      0.725D-04-0.188D-03-0.119D-02-0.659D-02-0.428D-02 0.959D-01
 Coeff:      0.916D+00
 Gap=     0.130 Goal=   None    Shift=    0.000
 RMSDP=2.44D-06 MaxDP=3.31D-05 DE=-6.30D-08 OVMax= 3.60D-05

 Cycle   8  Pass 1  IDiag  1:
 E= -437.458494644078     Delta-E=       -0.000000007756 Rises=F Damp=F
 DIIS: error= 5.77D-07 at cycle   8 NSaved=   8.
 NSaved= 8 IEnMin= 8 EnMin= -437.458494644078     IErMin= 8 ErrMin= 5.77D-07
 ErrMax= 5.77D-07  0.00D+00 EMaxC= 1.00D-01 BMatC= 1.66D-11 BMatP= 5.84D-09
 IDIUse=1 WtCom= 1.00D+00 WtEn= 0.00D+00
 Coeff-Com:  0.481D-05 0.121D-04-0.129D-04 0.507D-06-0.493D-03-0.137D-01
 Coeff-Com: -0.212D-01 0.104D+01
 Coeff:      0.481D-05 0.121D-04-0.129D-04 0.507D-06-0.493D-03-0.137D-01
 Coeff:     -0.212D-01 0.104D+01
 Gap=     0.130 Goal=   None    Shift=    0.000
 RMSDP=1.53D-07 MaxDP=2.41D-06 DE=-7.76D-09 OVMax= 2.34D-06

 Cycle   9  Pass 1  IDiag  1:
 E= -437.458494644097     Delta-E=       -0.000000000019 Rises=F Damp=F
 DIIS: error= 3.34D-08 at cycle   9 NSaved=   9.
 NSaved= 9 IEnMin= 9 EnMin= -437.458494644097     IErMin= 9 ErrMin= 3.34D-08
 ErrMax= 3.34D-08  0.00D+00 EMaxC= 1.00D-01 BMatC= 6.42D-14 BMatP= 1.66D-11
 IDIUse=1 WtCom= 1.00D+00 WtEn= 0.00D+00
 Coeff-Com:  0.173D-06 0.196D-05 0.651D-05 0.486D-04 0.521D-04-0.203D-02
 Coeff-Com: -0.743D-02 0.968D-01 0.913D+00
 Coeff:      0.173D-06 0.196D-05 0.651D-05 0.486D-04 0.521D-04-0.203D-02
 Coeff:     -0.743D-02 0.968D-01 0.913D+00
 Gap=     0.130 Goal=   None    Shift=    0.000
 RMSDP=1.08D-08 MaxDP=9.89D-08 DE=-1.95D-11 OVMax= 1.61D-07

 Cycle  10  Pass 1  IDiag  1:
 E= -437.458494644099     Delta-E=       -0.000000000001 Rises=F Damp=F
 DIIS: error= 1.76D-08 at cycle  10 NSaved=  10.
 NSaved=10 IEnMin=10 EnMin= -437.458494644099     IErMin=10 ErrMin= 1.76D-08
 ErrMax= 1.76D-08  0.00D+00 EMaxC= 1.00D-01 BMatC= 1.28D-14 BMatP= 6.42D-14
 IDIUse=1 WtCom= 1.00D+00 WtEn= 0.00D+00
 Coeff-Com: -0.429D-08 0.216D-06 0.266D-05 0.175D-04 0.384D-04-0.370D-03
 Coeff-Com: -0.198D-02 0.476D-02 0.326D+00 0.671D+00
 Coeff:     -0.429D-08 0.216D-06 0.266D-05 0.175D-04 0.384D-04-0.370D-03
 Coeff:     -0.198D-02 0.476D-02 0.326D+00 0.671D+00
 Gap=     0.130 Goal=   None    Shift=    0.000
 RMSDP=3.23D-09 MaxDP=3.58D-08 DE=-1.42D-12 OVMax= 5.22D-08

 Error on total polarization charges =  0.00809
 SCF Done:  E(RB3LYP) =  -437.458494644     A.U. after   10 cycles
            NFock= 10  Conv=0.32D-08     -V/T= 2.0018
 KE= 4.366590403238D+02 PE=-1.124088093380D+03 EE= 2.069633948924D+02
 Leave Link  502 at Fri Sep 22 16:32:40 2023, MaxMem=   536870912 cpu:               7.7 elap:               2.0
 (Enter /share/apps/gaussian/g16/l601.exe)
 Copying SCF densities to generalized density rwf, IOpCl= 0 IROHF=0.

 **********************************************************************

            Population analysis using the SCF density.

 **********************************************************************

 Orbital symmetries:
       Occupied  (A) (A) (A) (A) (A) (A) (A) (A) (A) (A) (A) (A)
       Virtual   (A) (A) (A) (A) (A) (A) (A) (A) (A) (A) (A) (A)
                 (A) (A) (A) (A) (A) (A) (A) (A) (A) (A) (A) (A)
                 (A) (A) (A) (A) (A) (A)
 The electronic state is 1-A.
 Alpha  occ. eigenvalues --  -88.85982 -10.26120  -7.94268  -5.91083  -5.91035
 Alpha  occ. eigenvalues --   -5.90075  -0.78877  -0.62268  -0.47125  -0.40217
 Alpha  occ. eigenvalues --   -0.31780  -0.24564
 Alpha virt. eigenvalues --   -0.11530   0.04218   0.09492   0.10119   0.29512
 Alpha virt. eigenvalues --    0.30630   0.31328   0.33694   0.40366   0.44394
 Alpha virt. eigenvalues --    0.44867   0.61255   0.61637   0.66678   0.67235
 Alpha virt. eigenvalues --    0.67510   0.80246   0.87917   0.96909   1.34842
 Alpha virt. eigenvalues --    1.62557   1.77316   1.84546   2.00305   2.14445
 Alpha virt. eigenvalues --    2.26342   2.37624   2.66239   3.11740   3.20827
          Condensed to atoms (all electrons):
               1          2          3          4
     1  C    4.952341   0.431989   0.391100   0.391648
     2  S    0.431989  15.790963  -0.051060  -0.048587
     3  H    0.391100  -0.051060   0.562131  -0.048083
     4  H    0.391648  -0.048587  -0.048083   0.560548
 Mulliken charges:
               1
     1  C   -0.167078
     2  S   -0.123306
     3  H    0.145911
     4  H    0.144473
 Sum of Mulliken charges =   0.00000
 Mulliken charges with hydrogens summed into heavy atoms:
               1
     1  C    0.123306
     2  S   -0.123306
 Electronic spatial extent (au):  <R**2>=            115.3868
 Charge=              0.0000 electrons
 Dipole moment (field-independent basis, Debye):
    X=             -2.3150    Y=              0.0091    Z=              0.0104  Tot=              2.3150
 Quadrupole moment (field-independent basis, Debye-Ang):
   XX=            -16.6549   YY=            -20.8819   ZZ=            -20.0757
   XY=              0.0259   XZ=             -0.0085   YZ=              0.0002
 Traceless Quadrupole moment (field-independent basis, Debye-Ang):
   XX=              2.5493   YY=             -1.6777   ZZ=             -0.8715
   XY=              0.0259   XZ=             -0.0085   YZ=              0.0002
 Octapole moment (field-independent basis, Debye-Ang**2):
  XXX=             -3.9206  YYY=              0.0519  ZZZ=              0.0208  XYY=             -3.5331
  XXY=             -0.0358  XXZ=              0.0393  XZZ=              0.6040  YZZ=              0.0006
  YYZ=              0.0169  XYZ=              0.0002
 Hexadecapole moment (field-independent basis, Debye-Ang**3):
 XXXX=           -102.9099 YYYY=            -34.7981 ZZZZ=            -25.5370 XXXY=              0.2140
 XXXZ=             -0.0483 YYYX=             -0.0016 YYYZ=              0.0004 ZZZX=             -0.0104
 ZZZY=              0.0001 XXYY=            -22.8279 XXZZ=            -23.0448 YYZZ=            -10.3752
 XXYZ=             -0.0002 YYXZ=             -0.0229 ZZXY=              0.0180
 N-N= 4.300716351921D+01 E-N=-1.124088093129D+03  KE= 4.366590403238D+02
 There are a total of       87616 grid points.
 ElSum from          density=       23.9999995941
 ElSum from atomic densities=       23.9999997080
 Hirshfeld populations at iteration   1 (CA, CB, DipXYZ):
               1          2          3          4          5
     1  C    2.989974   2.989974  -0.131493  -0.002263  -0.001228
     2  S    8.065734   8.065734  -0.012818   0.003705   0.001547
     3  H    0.472395   0.472395  -0.108179   0.121387   0.001434
     4  H    0.471897   0.471897  -0.112299  -0.119330   0.001452
       Tot  12.000000  12.000000  -0.364788   0.003500   0.003206

 Dip from Atomic Chgs             -0.546001   0.000063   0.000877
         Total Dipole             -0.910789   0.003563   0.004083

 Hirshfeld charges, spin densities, dipoles, and CM5 charges using IRadAn=      5:
              Q-H        S-H        Dx         Dy         Dz        Q-CM5   
     1  C    0.020053   0.000000  -0.131493  -0.002263  -0.001228  -0.067349
     2  S   -0.131468   0.000000  -0.012818   0.003705   0.001547  -0.154548
     3  H    0.055210   0.000000  -0.108179   0.121387   0.001434   0.110032
     4  H    0.056205   0.000000  -0.112299  -0.119330   0.001452   0.111865
       Tot   0.000000   0.000000  -0.364788   0.003500   0.003206   0.000000
 Hirshfeld charges with hydrogens summed into heavy atoms:
              Q-H       Q-CM5   
     1  C    0.131468   0.154548
     2  S   -0.131468  -0.154548
 
 EQQ= 0.000000000000E+00 EQD= 0.000000000000E+00 EDD= 0.359485041172E-02
 EQQ+QD+DD= 0.359485041172E-02
 
 No NMR shielding tensors so no spin-rotation constants.
 Leave Link  601 at Fri Sep 22 16:32:40 2023, MaxMem=   536870912 cpu:               0.6 elap:               0.2
 (Enter /share/apps/gaussian/g16/l9999.exe)
 1\1\GINC-NODE74\SP\RB3LYP\Gen\C1H2S1\YANZ\22-Sep-2023\0\\#p b3lyp/gen 
 scrf=(cpcm,solvent=toluene) pop=hirshfeld empiricaldispersion=gd3bj\\t
 mpdir/M3_conf_0_15.gjf\\0,1\C,0,0.,0.,0.\S,0,1.7027,0.,0.\H,0,-0.57392
 ,0.,-0.89915\H,0,-0.59413,0.0153,0.87674\\Version=ES64L-G16RevA.03\Sta
 te=1-A\HF=-437.4584946\RMSD=3.227e-09\Dipole=-0.9107774,0.0053013,-0.0
 046311\Quadrupole=1.8953222,-0.6479883,-1.247334,-0.0100004,-0.0156253
 ,-0.0052548\PG=C01 [X(C1H2S1)]\\@


 THE WISE MAN HAS THE POWER TO REASON AWAY
 WHAT A FOOL BELIEVES.
                     - DOOBIE BROTHERS
 Job cpu time:       0 days  0 hours  0 minutes 10.6 seconds.
 Elapsed time:       0 days  0 hours  0 minutes  2.8 seconds.
 File lengths (MBytes):  RWF=     10 Int=      0 D2E=      0 Chk=      1 Scr=      1
 Normal termination of Gaussian 16 at Fri Sep 22 16:32:40 2023.
