 Entering Gaussian System, Link 0=g16
 Initial command:
 /share/apps/gaussian/g16/l1.exe "/tmp/55557.mgr/Gau-213842.inp" -scrdir="/tmp/55557.mgr/"
 Entering Link 1 = /share/apps/gaussian/g16/l1.exe PID=    213843.
  
 Copyright (c) 1988,1990,1992,1993,1995,1998,2003,2009,2016,
            Gaussian, Inc.  All Rights Reserved.
  
 This is part of the Gaussian(R) 16 program.  It is based on
 the Gaussian(R) 09 system (copyright 2009, Gaussian, Inc.),
 the Gaussian(R) 03 system (copyright 2003, Gaussian, Inc.),
 the Gaussian(R) 98 system (copyright 1998, Gaussian, Inc.),
 the Gaussian(R) 94 system (copyright 1995, Gaussian, Inc.),
 the Gaussian 92(TM) system (copyright 1992, Gaussian, Inc.),
 the Gaussian 90(TM) system (copyright 1990, Gaussian, Inc.),
 the Gaussian 88(TM) system (copyright 1988, Gaussian, Inc.),
 the Gaussian 86(TM) system (copyright 1986, Carnegie Mellon
 University), and the Gaussian 82(TM) system (copyright 1983,
 Carnegie Mellon University). Gaussian is a federally registered
 trademark of Gaussian, Inc.
  
 This software contains proprietary and confidential information,
 including trade secrets, belonging to Gaussian, Inc.
  
 This software is provided under written license and may be
 used, copied, transmitted, or stored only in accord with that
 written license.
  
 The following legend is applicable only to US Government
 contracts under FAR:
  
                    RESTRICTED RIGHTS LEGEND
  
 Use, reproduction and disclosure by the US Government is
 subject to restrictions as set forth in subparagraphs (a)
 and (c) of the Commercial Computer Software - Restricted
 Rights clause in FAR 52.227-19.
  
 Gaussian, Inc.
 340 Quinnipiac St., Bldg. 40, Wallingford CT 06492
  
  
 ---------------------------------------------------------------
 Warning -- This program may not be used in any manner that
 competes with the business of Gaussian, Inc. or will provide
 assistance to any competitor of Gaussian, Inc.  The licensee
 of this program is prohibited from giving any competitor of
 Gaussian, Inc. access to this program.  By using this program,
 the user acknowledges that Gaussian, Inc. is engaged in the
 business of creating and licensing software in the field of
 computational chemistry and represents and warrants to the
 licensee that it is not a competitor of Gaussian, Inc. and that
 it will not use this program in any manner prohibited above.
 ---------------------------------------------------------------
  

 Cite this work as:
 Gaussian 16, Revision A.03,
 M. J. Frisch, G. W. Trucks, H. B. Schlegel, G. E. Scuseria, 
 M. A. Robb, J. R. Cheeseman, G. Scalmani, V. Barone, 
 G. A. Petersson, H. Nakatsuji, X. Li, M. Caricato, A. V. Marenich, 
 J. Bloino, B. G. Janesko, R. Gomperts, B. Mennucci, H. P. Hratchian, 
 J. V. Ortiz, A. F. Izmaylov, J. L. Sonnenberg, D. Williams-Young, 
 F. Ding, F. Lipparini, F. Egidi, J. Goings, B. Peng, A. Petrone, 
 T. Henderson, D. Ranasinghe, V. G. Zakrzewski, J. Gao, N. Rega, 
 G. Zheng, W. Liang, M. Hada, M. Ehara, K. Toyota, R. Fukuda, 
 J. Hasegawa, M. Ishida, T. Nakajima, Y. Honda, O. Kitao, H. Nakai, 
 T. Vreven, K. Throssell, J. A. Montgomery, Jr., J. E. Peralta, 
 F. Ogliaro, M. J. Bearpark, J. J. Heyd, E. N. Brothers, K. N. Kudin, 
 V. N. Staroverov, T. A. Keith, R. Kobayashi, J. Normand, 
 K. Raghavachari, A. P. Rendell, J. C. Burant, S. S. Iyengar, 
 J. Tomasi, M. Cossi, J. M. Millam, M. Klene, C. Adamo, R. Cammi, 
 J. W. Ochterski, R. L. Martin, K. Morokuma, O. Farkas, 
 J. B. Foresman, and D. J. Fox, Gaussian, Inc., Wallingford CT, 2016.
 
 ******************************************
 Gaussian 16:  ES64L-G16RevA.03 25-Dec-2016
                22-Sep-2023 
 ******************************************
 %nprocshared=4
 Will use up to    4 processors via shared memory.
 %mem=4GB
 ----------------------------------------------------------------------
 #p b3lyp/gen scrf=(cpcm,solvent=toluene) pop=hirshfeld empiricaldisper
 sion=gd3bj
 ----------------------------------------------------------------------
 1/38=1,172=1/1;
 2/12=2,17=6,18=5,40=1/2;
 3/5=7,11=2,25=1,30=1,70=2101,72=13,74=-5,124=41/1,2,3;
 4//1;
 5/5=2,38=5,53=13/2;
 6/7=2,8=2,9=2,10=2,28=1,79=1/1;
 99/5=1,9=1/99;
 Leave Link    1 at Fri Sep 22 16:33:06 2023, MaxMem=   536870912 cpu:               0.2 elap:               0.0
 (Enter /share/apps/gaussian/g16/l101.exe)
 -----------------------
 tmpdir/M3_conf_0_66.gjf
 -----------------------
 Symbolic Z-matrix:
 Charge =  0 Multiplicity = 1
 C                     0.        0.        0. 
 H                     1.098     0.        0. 
 H                    -0.36945   0.       -1.04098 
 H                    -0.39826  -0.87712   0.54299 
 H                    -0.31705   0.92182   0.51266 
 
 ITRead=  0  0  0  0  0
 MicOpt= -1 -1 -1 -1 -1
 NAtoms=      5 NQM=        5 NQMF=       0 NMMI=      0 NMMIF=      0
                NMic=       0 NMicF=      0.
                    Isotopes and Nuclear Properties:
 (Nuclear quadrupole moments (NQMom) in fm**2, nuclear magnetic moments (NMagM)
  in nuclear magnetons)

  Atom         1           2           3           4           5
 IAtWgt=          12           1           1           1           1
 AtmWgt=  12.0000000   1.0078250   1.0078250   1.0078250   1.0078250
 NucSpn=           0           1           1           1           1
 AtZEff=  -0.0000000  -0.0000000  -0.0000000  -0.0000000  -0.0000000
 NQMom=    0.0000000   0.0000000   0.0000000   0.0000000   0.0000000
 NMagM=    0.0000000   2.7928460   2.7928460   2.7928460   2.7928460
 AtZNuc=   6.0000000   1.0000000   1.0000000   1.0000000   1.0000000
 Leave Link  101 at Fri Sep 22 16:33:06 2023, MaxMem=   536870912 cpu:               0.4 elap:               0.1
 (Enter /share/apps/gaussian/g16/l202.exe)
                          Input orientation:                          
 ---------------------------------------------------------------------
 Center     Atomic      Atomic             Coordinates (Angstroms)
 Number     Number       Type             X           Y           Z
 ---------------------------------------------------------------------
      1          6           0        0.000000    0.000000    0.000000
      2          1           0        1.098000    0.000000    0.000000
      3          1           0       -0.369450    0.000000   -1.040980
      4          1           0       -0.398260   -0.877120    0.542990
      5          1           0       -0.317050    0.921820    0.512660
 ---------------------------------------------------------------------
                    Distance matrix (angstroms):
                    1          2          3          4          5
     1  C    0.000000
     2  H    1.098000   0.000000
     3  H    1.104596   1.799180   0.000000
     4  H    1.105798   1.817408   1.810837   0.000000
     5  H    1.101405   1.764919   1.807289   1.801028   0.000000
 Stoichiometry    CH4
 Framework group  C1[X(CH4)]
 Deg. of freedom     9
 Full point group                 C1      NOp   1
 Largest Abelian subgroup         C1      NOp   1
 Largest concise Abelian subgroup C1      NOp   1
                         Standard orientation:                         
 ---------------------------------------------------------------------
 Center     Atomic      Atomic             Coordinates (Angstroms)
 Number     Number       Type             X           Y           Z
 ---------------------------------------------------------------------
      1          6           0       -0.004301    0.001168   -0.002007
      2          1           0        0.711421   -0.037330   -0.833791
      3          1           0       -0.281481    1.051440    0.198573
      4          1           0       -0.909401   -0.592707   -0.227603
      5          1           0        0.505264   -0.428411    0.874862
 ---------------------------------------------------------------------
 Rotational constants (GHZ):         157.0170365         155.7460585         151.5151106
 Leave Link  202 at Fri Sep 22 16:33:06 2023, MaxMem=   536870912 cpu:               0.0 elap:               0.0
 (Enter /share/apps/gaussian/g16/l301.exe)
 General basis read from cards:  (5D, 7F)
 Centers:       2      3      4      5
 S 3 1.00
     Exponent=  1.2251800000D+01 Coefficients=  2.3337100000D-02
     Exponent=  1.8687100000D+00 Coefficients=  1.5915000000D-01
     Exponent=  4.1820800000D-01 Coefficients=  5.0000000000D-01
 S 1 1.00
     Exponent=  1.0610000000D-01 Coefficients=  1.0000000000D+00
 P 1 1.00
     Exponent=  1.0000000000D+00 Coefficients=  1.0000000000D+00
 ****
 Centers:       1
 S 5 1.00
     Exponent=  1.2432000000D+03 Coefficients=  6.0336600000D-03
     Exponent=  1.8714500000D+02 Coefficients=  4.4957600000D-02
     Exponent=  4.2512600000D+01 Coefficients=  1.9790100000D-01
     Exponent=  1.1739300000D+01 Coefficients=  5.0000000000D-01
     Exponent=  3.5054800000D+00 Coefficients=  4.8036400000D-01
 S 2 1.00
     Exponent=  5.3908900000D+00 Coefficients= -7.0398000000D-02
     Exponent=  4.9334100000D-01 Coefficients=  5.0000000000D-01
 S 1 1.00
     Exponent=  1.4974100000D-01 Coefficients=  1.0000000000D+00
 P 3 1.00
     Exponent=  9.1805600000D+00 Coefficients=  4.3170100000D-02
     Exponent=  1.9365800000D+00 Coefficients=  2.2499900000D-01
     Exponent=  5.2629600000D-01 Coefficients=  5.0000000000D-01
 P 1 1.00
     Exponent=  1.3631900000D-01 Coefficients=  1.0000000000D+00
 D 1 1.00
     Exponent=  8.0000000000D-01 Coefficients=  1.0000000000D+00
 ****
 Ernie: Thresh=  0.10000D-02 Tol=  0.10000D-05 Strict=F.
 There are    35 symmetry adapted cartesian basis functions of A   symmetry.
 There are    34 symmetry adapted basis functions of A   symmetry.
    34 basis functions,    54 primitive gaussians,    35 cartesian basis functions
     5 alpha electrons        5 beta electrons
       nuclear repulsion energy        13.2840889379 Hartrees.
 IExCor=  402 DFT=T Ex+Corr=B3LYP ExCW=0 ScaHFX=  0.200000
 ScaDFX=  0.800000  0.720000  1.000000  0.810000 ScalE2=  1.000000  1.000000
 IRadAn=      5 IRanWt=     -1 IRanGd=            0 ICorTp=0 IEmpDi=141
 NAtoms=    5 NActive=    5 NUniq=    5 SFac= 1.00D+00 NAtFMM=   60 NAOKFM=F Big=F
 Integral buffers will be    131072 words long.
 Raffenetti 2 integral format.
 Two-electron integral symmetry is turned on.
 R6Disp:  Grimme-D3(BJ) Dispersion energy=       -0.0019124606 Hartrees.
 Nuclear repulsion after empirical dispersion term =       13.2821764773 Hartrees.
 ------------------------------------------------------------------------------
 Polarizable Continuum Model (PCM)
 =================================
 Model                : C-PCM.
 Atomic radii         : UFF (Universal Force Field).
 Polarization charges : Total charges.
 Charge compensation  : None.
 Solution method      : On-the-fly selection.
 Cavity type          : Scaled VdW (van der Waals Surface) (Alpha=1.100).
 Cavity algorithm     : GePol (No added spheres)
                        Default sphere list used, NSphG=    5.
                        Lebedev-Laikov grids with approx.  5.0 points / Ang**2.
                        Smoothing algorithm: York/Karplus (Gamma=1.0000).
                        Polarization charges: spherical gaussians, with
                                              point-specific exponents (IZeta= 3).
                        Self-potential: point-specific (ISelfS= 7).
                        Self-field    : sphere-specific E.n sum rule (ISelfD= 2).
 Solvent              : Toluene, Eps=   2.374100 Eps(inf)=   2.238315
 ------------------------------------------------------------------------------
 Spheres list:
 ISph  on   Nord     Re0    Alpha      Xe            Ye            Ze
    1   C      1    1.9255  1.100     -0.004301      0.001168     -0.002007
    2   H      2    1.4430  1.100      0.711421     -0.037330     -0.833791
    3   H      3    1.4430  1.100     -0.281481      1.051440      0.198573
    4   H      4    1.4430  1.100     -0.909401     -0.592707     -0.227603
    5   H      5    1.4430  1.100      0.505264     -0.428411      0.874862
 ------------------------------------------------------------------------------
 GePol: Number of generator spheres                  =       5
 GePol: Total number of spheres                      =       5
 GePol: Number of exposed spheres                    =       5 (100.00%)
 GePol: Number of points                             =     490
 GePol: Average weight of points                     =       0.14
 GePol: Minimum weight of points                     =   0.13D-07
 GePol: Maximum weight of points                     =    0.20577
 GePol: Number of points with low weight             =      25
 GePol: Fraction of low-weight points (<1% of avg)   =       5.10%
 GePol: Cavity surface area                          =     70.311 Ang**2
 GePol: Cavity volume                                =     51.872 Ang**3
 Leave Link  301 at Fri Sep 22 16:33:06 2023, MaxMem=   536870912 cpu:               0.3 elap:               0.1
 (Enter /share/apps/gaussian/g16/l302.exe)
 NPDir=0 NMtPBC=     1 NCelOv=     1 NCel=       1 NClECP=     1 NCelD=      1
         NCelK=      1 NCelE2=     1 NClLst=     1 CellRange=     0.0.
 One-electron integrals computed using PRISM.
 One-electron integral symmetry used in STVInt
 NBasis=    34 RedAO= T EigKep=  2.86D-02  NBF=    34
 NBsUse=    34 1.00D-06 EigRej= -1.00D+00 NBFU=    34
 Precomputing XC quadrature grid using
 IXCGrd= 4 IRadAn=           5 IRanWt=          -1 IRanGd=           0 AccXCQ= 0.00D+00.
 Generated NRdTot=       0 NPtTot=           0 NUsed=           0 NTot=          32
 NSgBfM=    35    35    35    35    35 MxSgAt=     5 MxSgA2=     5.
 Leave Link  302 at Fri Sep 22 16:33:06 2023, MaxMem=   536870912 cpu:               0.4 elap:               0.1
 (Enter /share/apps/gaussian/g16/l303.exe)
 DipDrv:  MaxL=1.
 Leave Link  303 at Fri Sep 22 16:33:06 2023, MaxMem=   536870912 cpu:               0.1 elap:               0.0
 (Enter /share/apps/gaussian/g16/l401.exe)
 ExpMin= 1.06D-01 ExpMax= 1.24D+03 ExpMxC= 1.87D+02 IAcc=3 IRadAn=         5 AccDes= 0.00D+00
 Harris functional with IExCor=  402 and IRadAn=       5 diagonalized for initial guess.
 HarFok:  IExCor=  402 AccDes= 0.00D+00 IRadAn=         5 IDoV= 1 UseB2=F ITyADJ=14
 ICtDFT=  3500011 ScaDFX=  1.000000  1.000000  1.000000  1.000000
 FoFCou: FMM=F IPFlag=           0 FMFlag=      100000 FMFlg1=           0
         NFxFlg=           0 DoJE=T BraDBF=F KetDBF=T FulRan=T
         wScrn=  0.000000 ICntrl=       500 IOpCl=  0 I1Cent=   200000004 NGrid=           0
         NMat0=    1 NMatS0=      1 NMatT0=    0 NMatD0=    1 NMtDS0=    0 NMtDT0=    0
 Petite list used in FoFCou.
 Harris En= -40.5500797649540    
 JPrj=0 DoOrth=F DoCkMO=F.
 Leave Link  401 at Fri Sep 22 16:33:06 2023, MaxMem=   536870912 cpu:               0.8 elap:               0.2
 (Enter /share/apps/gaussian/g16/l502.exe)
 Keep R1 ints in memory in canonical form, NReq=3628609.
 FoFCou: FMM=F IPFlag=           0 FMFlag=           0 FMFlg1=           0
         NFxFlg=           0 DoJE=F BraDBF=F KetDBF=F FulRan=T
         wScrn=  0.000000 ICntrl=       600 IOpCl=  0 I1Cent=           0 NGrid=           0
         NMat0=    1 NMatS0=    595 NMatT0=    0 NMatD0=    1 NMtDS0=    0 NMtDT0=    0
 Symmetry not used in FoFCou.
 Two-electron integral symmetry not used.
 Closed shell SCF:
 Using DIIS extrapolation, IDIIS=  1040.
 NGot=   536870912 LenX=   536690353 LenY=   536688687
 Requested convergence on RMS density matrix=1.00D-08 within 128 cycles.
 Requested convergence on MAX density matrix=1.00D-06.
 Requested convergence on             energy=1.00D-06.
 No special actions if energy rises.

 Cycle   1  Pass 1  IDiag  1:
 Inv3:  Mode=1 IEnd=      720300.
 Iteration    1 A*A^-1 deviation from unit magnitude is 2.33D-15 for    481.
 Iteration    1 A*A^-1 deviation from orthogonality  is 1.78D-15 for    358    125.
 Iteration    1 A^-1*A deviation from unit magnitude is 2.33D-15 for    481.
 Iteration    1 A^-1*A deviation from orthogonality  is 6.87D-16 for    432    149.
 E= -40.4280084677143    
 DIIS: error= 4.52D-02 at cycle   1 NSaved=   1.
 NSaved= 1 IEnMin= 1 EnMin= -40.4280084677143     IErMin= 1 ErrMin= 4.52D-02
 ErrMax= 4.52D-02  0.00D+00 EMaxC= 1.00D-01 BMatC= 7.63D-02 BMatP= 7.63D-02
 IDIUse=3 WtCom= 5.48D-01 WtEn= 4.52D-01
 Coeff-Com:  0.100D+01
 Coeff-En:   0.100D+01
 Coeff:      0.100D+01
 Gap=     0.358 Goal=   None    Shift=    0.000
 GapD=    0.358 DampG=1.000 DampE=0.500 DampFc=0.5000 IDamp=-1.
 Damping current iteration by 5.00D-01
 RMSDP=1.45D-02 MaxDP=1.49D-01              OVMax= 1.97D-01

 Cycle   2  Pass 1  IDiag  1:
 E= -40.4666313018506     Delta-E=       -0.038622834136 Rises=F Damp=T
 DIIS: error= 8.21D-03 at cycle   2 NSaved=   2.
 NSaved= 2 IEnMin= 2 EnMin= -40.4666313018506     IErMin= 2 ErrMin= 8.21D-03
 ErrMax= 8.21D-03  0.00D+00 EMaxC= 1.00D-01 BMatC= 1.29D-03 BMatP= 7.63D-02
 IDIUse=3 WtCom= 9.18D-01 WtEn= 8.21D-02
 Coeff-Com:  0.856D-01 0.914D+00
 Coeff-En:   0.140D+00 0.860D+00
 Coeff:      0.901D-01 0.910D+00
 Gap=     0.435 Goal=   None    Shift=    0.000
 RMSDP=1.35D-03 MaxDP=1.11D-02 DE=-3.86D-02 OVMax= 1.04D-01

 Cycle   3  Pass 1  IDiag  1:
 E= -40.5138535509723     Delta-E=       -0.047222249122 Rises=F Damp=F
 DIIS: error= 4.51D-04 at cycle   3 NSaved=   3.
 NSaved= 3 IEnMin= 3 EnMin= -40.5138535509723     IErMin= 3 ErrMin= 4.51D-04
 ErrMax= 4.51D-04  0.00D+00 EMaxC= 1.00D-01 BMatC= 1.05D-05 BMatP= 1.29D-03
 IDIUse=3 WtCom= 9.95D-01 WtEn= 4.51D-03
 Coeff-Com:  0.652D-02-0.505D-01 0.104D+01
 Coeff-En:   0.000D+00 0.000D+00 0.100D+01
 Coeff:      0.649D-02-0.503D-01 0.104D+01
 Gap=     0.443 Goal=   None    Shift=    0.000
 RMSDP=8.28D-05 MaxDP=8.14D-04 DE=-4.72D-02 OVMax= 8.99D-04

 Cycle   4  Pass 1  IDiag  1:
 E= -40.5138630352004     Delta-E=       -0.000009484228 Rises=F Damp=F
 DIIS: error= 5.46D-05 at cycle   4 NSaved=   4.
 NSaved= 4 IEnMin= 4 EnMin= -40.5138630352004     IErMin= 4 ErrMin= 5.46D-05
 ErrMax= 5.46D-05  0.00D+00 EMaxC= 1.00D-01 BMatC= 7.47D-08 BMatP= 1.05D-05
 IDIUse=1 WtCom= 1.00D+00 WtEn= 0.00D+00
 Coeff-Com:  0.167D-02-0.820D-02 0.180D+00 0.827D+00
 Coeff:      0.167D-02-0.820D-02 0.180D+00 0.827D+00
 Gap=     0.443 Goal=   None    Shift=    0.000
 RMSDP=8.52D-06 MaxDP=7.97D-05 DE=-9.48D-06 OVMax= 1.12D-04

 Cycle   5  Pass 1  IDiag  1:
 E= -40.5138631230141     Delta-E=       -0.000000087814 Rises=F Damp=F
 DIIS: error= 8.85D-06 at cycle   5 NSaved=   5.
 NSaved= 5 IEnMin= 5 EnMin= -40.5138631230141     IErMin= 5 ErrMin= 8.85D-06
 ErrMax= 8.85D-06  0.00D+00 EMaxC= 1.00D-01 BMatC= 1.58D-09 BMatP= 7.47D-08
 IDIUse=1 WtCom= 1.00D+00 WtEn= 0.00D+00
 Coeff-Com:  0.162D-03 0.169D-03 0.132D-02 0.126D+00 0.873D+00
 Coeff:      0.162D-03 0.169D-03 0.132D-02 0.126D+00 0.873D+00
 Gap=     0.443 Goal=   None    Shift=    0.000
 RMSDP=1.30D-06 MaxDP=1.32D-05 DE=-8.78D-08 OVMax= 1.83D-05

 Cycle   6  Pass 1  IDiag  1:
 E= -40.5138631248535     Delta-E=       -0.000000001839 Rises=F Damp=F
 DIIS: error= 7.38D-07 at cycle   6 NSaved=   6.
 NSaved= 6 IEnMin= 6 EnMin= -40.5138631248535     IErMin= 6 ErrMin= 7.38D-07
 ErrMax= 7.38D-07  0.00D+00 EMaxC= 1.00D-01 BMatC= 1.59D-11 BMatP= 1.58D-09
 IDIUse=1 WtCom= 1.00D+00 WtEn= 0.00D+00
 Coeff-Com: -0.111D-04 0.451D-04-0.119D-02 0.104D-02 0.866D-01 0.913D+00
 Coeff:     -0.111D-04 0.451D-04-0.119D-02 0.104D-02 0.866D-01 0.913D+00
 Gap=     0.443 Goal=   None    Shift=    0.000
 RMSDP=1.33D-07 MaxDP=1.35D-06 DE=-1.84D-09 OVMax= 1.82D-06

 Cycle   7  Pass 1  IDiag  1:
 E= -40.5138631248750     Delta-E=       -0.000000000021 Rises=F Damp=F
 DIIS: error= 1.72D-08 at cycle   7 NSaved=   7.
 NSaved= 7 IEnMin= 7 EnMin= -40.5138631248750     IErMin= 7 ErrMin= 1.72D-08
 ErrMax= 1.72D-08  0.00D+00 EMaxC= 1.00D-01 BMatC= 8.16D-15 BMatP= 1.59D-11
 IDIUse=1 WtCom= 1.00D+00 WtEn= 0.00D+00
 Coeff-Com:  0.283D-07-0.496D-06-0.220D-04 0.174D-03 0.313D-03-0.514D-02
 Coeff-Com:  0.100D+01
 Coeff:      0.283D-07-0.496D-06-0.220D-04 0.174D-03 0.313D-03-0.514D-02
 Coeff:      0.100D+01
 Gap=     0.443 Goal=   None    Shift=    0.000
 RMSDP=3.42D-09 MaxDP=4.66D-08 DE=-2.15D-11 OVMax= 3.96D-08

 Error on total polarization charges =  0.00450
 SCF Done:  E(RB3LYP) =  -40.5138631249     A.U. after    7 cycles
            NFock=  7  Conv=0.34D-08     -V/T= 2.0099
 KE= 4.011473384156D+01 PE=-1.196301789833D+02 EE= 2.571940553965D+01
 Leave Link  502 at Fri Sep 22 16:33:08 2023, MaxMem=   536870912 cpu:               4.9 elap:               1.2
 (Enter /share/apps/gaussian/g16/l601.exe)
 Copying SCF densities to generalized density rwf, IOpCl= 0 IROHF=0.

 **********************************************************************

            Population analysis using the SCF density.

 **********************************************************************

 Orbital symmetries:
       Occupied  (A) (A) (A) (A) (A)
       Virtual   (A) (A) (A) (A) (A) (A) (A) (A) (A) (A) (A) (A)
                 (A) (A) (A) (A) (A) (A) (A) (A) (A) (A) (A) (A)
                 (A) (A) (A) (A) (A)
 The electronic state is 1-A.
 Alpha  occ. eigenvalues --  -10.16515  -0.69186  -0.39560  -0.39264  -0.38731
 Alpha virt. eigenvalues --    0.05603   0.12397   0.12475   0.12519   0.37047
 Alpha virt. eigenvalues --    0.37820   0.38171   0.63291   0.63470   0.63656
 Alpha virt. eigenvalues --    0.66996   0.95962   1.28588   1.29455   1.85050
 Alpha virt. eigenvalues --    1.85610   1.85826   1.87034   1.88181   1.90119
 Alpha virt. eigenvalues --    2.39262   2.40709   2.42948   2.73627   2.75242
 Alpha virt. eigenvalues --    2.91209   3.18312   3.18703   3.20890
          Condensed to atoms (all electrons):
               1          2          3          4          5
     1  C    4.748846   0.402675   0.402122   0.402051   0.401925
     2  H    0.402675   0.573665  -0.021105  -0.019548  -0.023598
     3  H    0.402122  -0.021105   0.569548  -0.021193  -0.020214
     4  H    0.402051  -0.019548  -0.021193   0.567961  -0.021190
     5  H    0.401925  -0.023598  -0.020214  -0.021190   0.576130
 Mulliken charges:
               1
     1  C   -0.357619
     2  H    0.087911
     3  H    0.090841
     4  H    0.091918
     5  H    0.086948
 Sum of Mulliken charges =  -0.00000
 Mulliken charges with hydrogens summed into heavy atoms:
               1
     1  C   -0.000000
 Electronic spatial extent (au):  <R**2>=             36.2497
 Charge=             -0.0000 electrons
 Dipole moment (field-independent basis, Debye):
    X=              0.0251    Y=             -0.0060    Z=              0.0061  Tot=              0.0266
 Quadrupole moment (field-independent basis, Debye-Ang):
   XX=             -8.3938   YY=             -8.4373   ZZ=             -8.5757
   XY=              0.0014   XZ=             -0.0064   YZ=              0.0028
 Traceless Quadrupole moment (field-independent basis, Debye-Ang):
   XX=              0.0751   YY=              0.0316   ZZ=             -0.1067
   XY=              0.0014   XZ=             -0.0064   YZ=              0.0028
 Octapole moment (field-independent basis, Debye-Ang**2):
  XXX=             -0.1232  YYY=              0.5619  ZZZ=              0.0564  XYY=             -0.3345
  XXY=             -0.3638  XXZ=             -0.2399  XZZ=              0.5344  YZZ=             -0.2144
  YYZ=              0.1935  XYZ=             -0.2231
 Hexadecapole moment (field-independent basis, Debye-Ang**3):
 XXXX=            -16.7409 YYYY=            -16.3048 ZZZZ=            -16.4350 XXXY=              0.3887
 XXXZ=             -0.0411 YYYX=             -0.1940 YYYZ=              0.2319 ZZZX=             -0.0844
 ZZZY=             -0.2674 XXYY=             -5.4781 XXZZ=             -5.2593 YYZZ=             -5.6795
 XXYZ=              0.0522 YYXZ=              0.0949 ZZXY=             -0.1842
 N-N= 1.328217647726D+01 E-N=-1.196301790039D+02  KE= 4.011473384156D+01
 There are a total of      109428 grid points.
 ElSum from          density=       10.0000000184
 ElSum from atomic densities=        9.9999999591
 Hirshfeld populations at iteration   1 (CA, CB, DipXYZ):
               1          2          3          4          5
     1  C    3.060449   3.060449  -0.002105   0.000587  -0.001240
     2  H    0.485165   0.485165   0.094795  -0.005317  -0.101484
     3  H    0.484602   0.484602  -0.034213   0.132665   0.024682
     4  H    0.484362   0.484362  -0.114463  -0.075323  -0.026524
     5  H    0.485422   0.485422   0.067295  -0.055169   0.106955
       Tot   5.000000   5.000000   0.011309  -0.002558   0.002389

 Dip from Atomic Chgs             -0.001422   0.000195   0.000014
         Total Dipole              0.009886  -0.002363   0.002403

 Hirshfeld charges, spin densities, dipoles, and CM5 charges using IRadAn=      5:
              Q-H        S-H        Dx         Dy         Dz        Q-CM5   
     1  C   -0.120898   0.000000  -0.002105   0.000587  -0.001240  -0.306213
     2  H    0.029670   0.000000   0.094795  -0.005317  -0.101484   0.076510
     3  H    0.030796   0.000000  -0.034213   0.132665   0.024682   0.076878
     4  H    0.031277   0.000000  -0.114463  -0.075323  -0.026524   0.077222
     5  H    0.029155   0.000000   0.067295  -0.055169   0.106955   0.075603
       Tot  -0.000000   0.000000   0.011309  -0.002558   0.002389  -0.000000
 Hirshfeld charges with hydrogens summed into heavy atoms:
              Q-H       Q-CM5   
     1  C   -0.000000  -0.000000
 
 EQQ= 0.000000000000E+00 EQD= 0.000000000000E+00 EDD=-0.977935289137E-03
 EQQ+QD+DD=-0.977935289137E-03
 
 No NMR shielding tensors so no spin-rotation constants.
 Leave Link  601 at Fri Sep 22 16:33:08 2023, MaxMem=   536870912 cpu:               0.6 elap:               0.2
 (Enter /share/apps/gaussian/g16/l9999.exe)
 1\1\GINC-NODE74\SP\RB3LYP\Gen\C1H4\YANZ\22-Sep-2023\0\\#p b3lyp/gen sc
 rf=(cpcm,solvent=toluene) pop=hirshfeld empiricaldispersion=gd3bj\\tmp
 dir/M3_conf_0_66.gjf\\0,1\C,0,0.,0.,0.\H,0,1.098,0.,0.\H,0,-0.36945,0.
 ,-1.04098\H,0,-0.39826,-0.87712,0.54299\H,0,-0.31705,0.92182,0.51266\\
 Version=ES64L-G16RevA.03\State=1-A\HF=-40.5138631\RMSD=3.418e-09\Dipol
 e=0.0047069,0.0088682,0.0028833\Quadrupole=-0.0170046,-0.0055225,0.022
 5271,0.0670623,0.0074364,-0.0067405\PG=C01 [X(C1H4)]\\@


 LET US PLACE AT THE END OF EVERY CHAPTER.....THE
 TWO LETTERS USED BY THE ROMAN JUDGES WHEN THEY DID
 NOT UNDERSTAND A PLEADING.
 N. L. -NON LIQUET- IT IS NOT CLEAR.
                                              -- VOLTAIRE
 Job cpu time:       0 days  0 hours  0 minutes  8.0 seconds.
 Elapsed time:       0 days  0 hours  0 minutes  2.1 seconds.
 File lengths (MBytes):  RWF=      6 Int=      0 D2E=      0 Chk=      1 Scr=      1
 Normal termination of Gaussian 16 at Fri Sep 22 16:33:08 2023.
