 Entering Gaussian System, Link 0=g16
 Initial command:
 /share/apps/gaussian/g16/l1.exe "/tmp/55557.mgr/Gau-218967.inp" -scrdir="/tmp/55557.mgr/"
 Entering Link 1 = /share/apps/gaussian/g16/l1.exe PID=    218968.
  
 Copyright (c) 1988,1990,1992,1993,1995,1998,2003,2009,2016,
            Gaussian, Inc.  All Rights Reserved.
  
 This is part of the Gaussian(R) 16 program.  It is based on
 the Gaussian(R) 09 system (copyright 2009, Gaussian, Inc.),
 the Gaussian(R) 03 system (copyright 2003, Gaussian, Inc.),
 the Gaussian(R) 98 system (copyright 1998, Gaussian, Inc.),
 the Gaussian(R) 94 system (copyright 1995, Gaussian, Inc.),
 the Gaussian 92(TM) system (copyright 1992, Gaussian, Inc.),
 the Gaussian 90(TM) system (copyright 1990, Gaussian, Inc.),
 the Gaussian 88(TM) system (copyright 1988, Gaussian, Inc.),
 the Gaussian 86(TM) system (copyright 1986, Carnegie Mellon
 University), and the Gaussian 82(TM) system (copyright 1983,
 Carnegie Mellon University). Gaussian is a federally registered
 trademark of Gaussian, Inc.
  
 This software contains proprietary and confidential information,
 including trade secrets, belonging to Gaussian, Inc.
  
 This software is provided under written license and may be
 used, copied, transmitted, or stored only in accord with that
 written license.
  
 The following legend is applicable only to US Government
 contracts under FAR:
  
                    RESTRICTED RIGHTS LEGEND
  
 Use, reproduction and disclosure by the US Government is
 subject to restrictions as set forth in subparagraphs (a)
 and (c) of the Commercial Computer Software - Restricted
 Rights clause in FAR 52.227-19.
  
 Gaussian, Inc.
 340 Quinnipiac St., Bldg. 40, Wallingford CT 06492
  
  
 ---------------------------------------------------------------
 Warning -- This program may not be used in any manner that
 competes with the business of Gaussian, Inc. or will provide
 assistance to any competitor of Gaussian, Inc.  The licensee
 of this program is prohibited from giving any competitor of
 Gaussian, Inc. access to this program.  By using this program,
 the user acknowledges that Gaussian, Inc. is engaged in the
 business of creating and licensing software in the field of
 computational chemistry and represents and warrants to the
 licensee that it is not a competitor of Gaussian, Inc. and that
 it will not use this program in any manner prohibited above.
 ---------------------------------------------------------------
  

 Cite this work as:
 Gaussian 16, Revision A.03,
 M. J. Frisch, G. W. Trucks, H. B. Schlegel, G. E. Scuseria, 
 M. A. Robb, J. R. Cheeseman, G. Scalmani, V. Barone, 
 G. A. Petersson, H. Nakatsuji, X. Li, M. Caricato, A. V. Marenich, 
 J. Bloino, B. G. Janesko, R. Gomperts, B. Mennucci, H. P. Hratchian, 
 J. V. Ortiz, A. F. Izmaylov, J. L. Sonnenberg, D. Williams-Young, 
 F. Ding, F. Lipparini, F. Egidi, J. Goings, B. Peng, A. Petrone, 
 T. Henderson, D. Ranasinghe, V. G. Zakrzewski, J. Gao, N. Rega, 
 G. Zheng, W. Liang, M. Hada, M. Ehara, K. Toyota, R. Fukuda, 
 J. Hasegawa, M. Ishida, T. Nakajima, Y. Honda, O. Kitao, H. Nakai, 
 T. Vreven, K. Throssell, J. A. Montgomery, Jr., J. E. Peralta, 
 F. Ogliaro, M. J. Bearpark, J. J. Heyd, E. N. Brothers, K. N. Kudin, 
 V. N. Staroverov, T. A. Keith, R. Kobayashi, J. Normand, 
 K. Raghavachari, A. P. Rendell, J. C. Burant, S. S. Iyengar, 
 J. Tomasi, M. Cossi, J. M. Millam, M. Klene, C. Adamo, R. Cammi, 
 J. W. Ochterski, R. L. Martin, K. Morokuma, O. Farkas, 
 J. B. Foresman, and D. J. Fox, Gaussian, Inc., Wallingford CT, 2016.
 
 ******************************************
 Gaussian 16:  ES64L-G16RevA.03 25-Dec-2016
                22-Sep-2023 
 ******************************************
 %nprocshared=4
 Will use up to    4 processors via shared memory.
 %mem=4GB
 ----------------------------------------------------------------------
 #p b3lyp/gen scrf=(cpcm,solvent=toluene) pop=hirshfeld empiricaldisper
 sion=gd3bj
 ----------------------------------------------------------------------
 1/38=1,172=1/1;
 2/12=2,17=6,18=5,40=1/2;
 3/5=7,11=2,25=1,30=1,70=2101,72=13,74=-5,124=41/1,2,3;
 4//1;
 5/5=2,38=5,53=13/2;
 6/7=2,8=2,9=2,10=2,28=1,79=1/1;
 99/5=1,9=1/99;
 Leave Link    1 at Fri Sep 22 16:36:03 2023, MaxMem=   536870912 cpu:               0.1 elap:               0.0
 (Enter /share/apps/gaussian/g16/l101.exe)
 ------------------------
 tmpdir/M3_conf_0_234.gjf
 ------------------------
 Symbolic Z-matrix:
 Charge =  0 Multiplicity = 1
 C                     0.        0.        0. 
 H                     1.0916    0.        0. 
 H                    -0.43902   0.       -0.9968 
 H                    -0.33288   0.88514   0.5613 
 H                    -0.34363  -0.87701   0.56736 
 
 ITRead=  0  0  0  0  0
 MicOpt= -1 -1 -1 -1 -1
 NAtoms=      5 NQM=        5 NQMF=       0 NMMI=      0 NMMIF=      0
                NMic=       0 NMicF=      0.
                    Isotopes and Nuclear Properties:
 (Nuclear quadrupole moments (NQMom) in fm**2, nuclear magnetic moments (NMagM)
  in nuclear magnetons)

  Atom         1           2           3           4           5
 IAtWgt=          12           1           1           1           1
 AtmWgt=  12.0000000   1.0078250   1.0078250   1.0078250   1.0078250
 NucSpn=           0           1           1           1           1
 AtZEff=  -0.0000000  -0.0000000  -0.0000000  -0.0000000  -0.0000000
 NQMom=    0.0000000   0.0000000   0.0000000   0.0000000   0.0000000
 NMagM=    0.0000000   2.7928460   2.7928460   2.7928460   2.7928460
 AtZNuc=   6.0000000   1.0000000   1.0000000   1.0000000   1.0000000
 Leave Link  101 at Fri Sep 22 16:36:03 2023, MaxMem=   536870912 cpu:               0.3 elap:               0.1
 (Enter /share/apps/gaussian/g16/l202.exe)
                          Input orientation:                          
 ---------------------------------------------------------------------
 Center     Atomic      Atomic             Coordinates (Angstroms)
 Number     Number       Type             X           Y           Z
 ---------------------------------------------------------------------
      1          6           0        0.000000    0.000000    0.000000
      2          1           0        1.091600    0.000000    0.000000
      3          1           0       -0.439020    0.000000   -0.996800
      4          1           0       -0.332880    0.885140    0.561300
      5          1           0       -0.343630   -0.877010    0.567360
 ---------------------------------------------------------------------
                    Distance matrix (angstroms):
                    1          2          3          4          5
     1  C    0.000000
     2  H    1.091600   0.000000
     3  H    1.089196   1.826584   0.000000
     4  H    1.099700   1.768523   1.795108   0.000000
     5  H    1.099602   1.775086   1.795785   1.762193   0.000000
 Stoichiometry    CH4
 Framework group  C1[X(CH4)]
 Deg. of freedom     9
 Full point group                 C1      NOp   1
 Largest Abelian subgroup         C1      NOp   1
 Largest concise Abelian subgroup C1      NOp   1
                         Standard orientation:                         
 ---------------------------------------------------------------------
 Center     Atomic      Atomic             Coordinates (Angstroms)
 Number     Number       Type             X           Y           Z
 ---------------------------------------------------------------------
      1          6           0        0.008382   -0.009514   -0.004415
      2          1           0       -0.709084   -0.764863   -0.330425
      3          1           0        1.047579   -0.322611   -0.095996
      4          1           0       -0.222281    0.239152    1.041673
      5          1           0       -0.166504    0.905406   -0.588762
 ---------------------------------------------------------------------
 Rotational constants (GHZ):         160.8654261         155.3288606         154.5333233
 Leave Link  202 at Fri Sep 22 16:36:03 2023, MaxMem=   536870912 cpu:               0.0 elap:               0.0
 (Enter /share/apps/gaussian/g16/l301.exe)
 General basis read from cards:  (5D, 7F)
 Centers:       2      3      4      5
 S 3 1.00
     Exponent=  1.2251800000D+01 Coefficients=  2.3337100000D-02
     Exponent=  1.8687100000D+00 Coefficients=  1.5915000000D-01
     Exponent=  4.1820800000D-01 Coefficients=  5.0000000000D-01
 S 1 1.00
     Exponent=  1.0610000000D-01 Coefficients=  1.0000000000D+00
 P 1 1.00
     Exponent=  1.0000000000D+00 Coefficients=  1.0000000000D+00
 ****
 Centers:       1
 S 5 1.00
     Exponent=  1.2432000000D+03 Coefficients=  6.0336600000D-03
     Exponent=  1.8714500000D+02 Coefficients=  4.4957600000D-02
     Exponent=  4.2512600000D+01 Coefficients=  1.9790100000D-01
     Exponent=  1.1739300000D+01 Coefficients=  5.0000000000D-01
     Exponent=  3.5054800000D+00 Coefficients=  4.8036400000D-01
 S 2 1.00
     Exponent=  5.3908900000D+00 Coefficients= -7.0398000000D-02
     Exponent=  4.9334100000D-01 Coefficients=  5.0000000000D-01
 S 1 1.00
     Exponent=  1.4974100000D-01 Coefficients=  1.0000000000D+00
 P 3 1.00
     Exponent=  9.1805600000D+00 Coefficients=  4.3170100000D-02
     Exponent=  1.9365800000D+00 Coefficients=  2.2499900000D-01
     Exponent=  5.2629600000D-01 Coefficients=  5.0000000000D-01
 P 1 1.00
     Exponent=  1.3631900000D-01 Coefficients=  1.0000000000D+00
 D 1 1.00
     Exponent=  8.0000000000D-01 Coefficients=  1.0000000000D+00
 ****
 Ernie: Thresh=  0.10000D-02 Tol=  0.10000D-05 Strict=F.
 There are    35 symmetry adapted cartesian basis functions of A   symmetry.
 There are    34 symmetry adapted basis functions of A   symmetry.
    34 basis functions,    54 primitive gaussians,    35 cartesian basis functions
     5 alpha electrons        5 beta electrons
       nuclear repulsion energy        13.3751603915 Hartrees.
 IExCor=  402 DFT=T Ex+Corr=B3LYP ExCW=0 ScaHFX=  0.200000
 ScaDFX=  0.800000  0.720000  1.000000  0.810000 ScalE2=  1.000000  1.000000
 IRadAn=      5 IRanWt=     -1 IRanGd=            0 ICorTp=0 IEmpDi=141
 NAtoms=    5 NActive=    5 NUniq=    5 SFac= 1.00D+00 NAtFMM=   60 NAOKFM=F Big=F
 Integral buffers will be    131072 words long.
 Raffenetti 2 integral format.
 Two-electron integral symmetry is turned on.
 R6Disp:  Grimme-D3(BJ) Dispersion energy=       -0.0019130800 Hartrees.
 Nuclear repulsion after empirical dispersion term =       13.3732473114 Hartrees.
 ------------------------------------------------------------------------------
 Polarizable Continuum Model (PCM)
 =================================
 Model                : C-PCM.
 Atomic radii         : UFF (Universal Force Field).
 Polarization charges : Total charges.
 Charge compensation  : None.
 Solution method      : On-the-fly selection.
 Cavity type          : Scaled VdW (van der Waals Surface) (Alpha=1.100).
 Cavity algorithm     : GePol (No added spheres)
                        Default sphere list used, NSphG=    5.
                        Lebedev-Laikov grids with approx.  5.0 points / Ang**2.
                        Smoothing algorithm: York/Karplus (Gamma=1.0000).
                        Polarization charges: spherical gaussians, with
                                              point-specific exponents (IZeta= 3).
                        Self-potential: point-specific (ISelfS= 7).
                        Self-field    : sphere-specific E.n sum rule (ISelfD= 2).
 Solvent              : Toluene, Eps=   2.374100 Eps(inf)=   2.238315
 ------------------------------------------------------------------------------
 Spheres list:
 ISph  on   Nord     Re0    Alpha      Xe            Ye            Ze
    1   C      1    1.9255  1.100      0.008382     -0.009514     -0.004415
    2   H      2    1.4430  1.100     -0.709084     -0.764863     -0.330425
    3   H      3    1.4430  1.100      1.047579     -0.322611     -0.095996
    4   H      4    1.4430  1.100     -0.222281      0.239152      1.041673
    5   H      5    1.4430  1.100     -0.166504      0.905406     -0.588762
 ------------------------------------------------------------------------------
 GePol: Number of generator spheres                  =       5
 GePol: Total number of spheres                      =       5
 GePol: Number of exposed spheres                    =       5 (100.00%)
 GePol: Number of points                             =     491
 GePol: Average weight of points                     =       0.14
 GePol: Minimum weight of points                     =   0.30D-08
 GePol: Maximum weight of points                     =    0.20577
 GePol: Number of points with low weight             =      25
 GePol: Fraction of low-weight points (<1% of avg)   =       5.09%
 GePol: Cavity surface area                          =     70.004 Ang**2
 GePol: Cavity volume                                =     51.615 Ang**3
 Leave Link  301 at Fri Sep 22 16:36:03 2023, MaxMem=   536870912 cpu:               0.4 elap:               0.1
 (Enter /share/apps/gaussian/g16/l302.exe)
 NPDir=0 NMtPBC=     1 NCelOv=     1 NCel=       1 NClECP=     1 NCelD=      1
         NCelK=      1 NCelE2=     1 NClLst=     1 CellRange=     0.0.
 One-electron integrals computed using PRISM.
 One-electron integral symmetry used in STVInt
 NBasis=    34 RedAO= T EigKep=  2.82D-02  NBF=    34
 NBsUse=    34 1.00D-06 EigRej= -1.00D+00 NBFU=    34
 Precomputing XC quadrature grid using
 IXCGrd= 4 IRadAn=           5 IRanWt=          -1 IRanGd=           0 AccXCQ= 0.00D+00.
 Generated NRdTot=       0 NPtTot=           0 NUsed=           0 NTot=          32
 NSgBfM=    35    35    35    35    35 MxSgAt=     5 MxSgA2=     5.
 Leave Link  302 at Fri Sep 22 16:36:04 2023, MaxMem=   536870912 cpu:               0.4 elap:               0.1
 (Enter /share/apps/gaussian/g16/l303.exe)
 DipDrv:  MaxL=1.
 Leave Link  303 at Fri Sep 22 16:36:04 2023, MaxMem=   536870912 cpu:               0.1 elap:               0.0
 (Enter /share/apps/gaussian/g16/l401.exe)
 ExpMin= 1.06D-01 ExpMax= 1.24D+03 ExpMxC= 1.87D+02 IAcc=3 IRadAn=         5 AccDes= 0.00D+00
 Harris functional with IExCor=  402 and IRadAn=       5 diagonalized for initial guess.
 HarFok:  IExCor=  402 AccDes= 0.00D+00 IRadAn=         5 IDoV= 1 UseB2=F ITyADJ=14
 ICtDFT=  3500011 ScaDFX=  1.000000  1.000000  1.000000  1.000000
 FoFCou: FMM=F IPFlag=           0 FMFlag=      100000 FMFlg1=           0
         NFxFlg=           0 DoJE=T BraDBF=F KetDBF=T FulRan=T
         wScrn=  0.000000 ICntrl=       500 IOpCl=  0 I1Cent=   200000004 NGrid=           0
         NMat0=    1 NMatS0=      1 NMatT0=    0 NMatD0=    1 NMtDS0=    0 NMtDT0=    0
 Petite list used in FoFCou.
 Harris En= -40.5523212978919    
 JPrj=0 DoOrth=F DoCkMO=F.
 Leave Link  401 at Fri Sep 22 16:36:04 2023, MaxMem=   536870912 cpu:               0.9 elap:               0.2
 (Enter /share/apps/gaussian/g16/l502.exe)
 Keep R1 ints in memory in canonical form, NReq=3628609.
 FoFCou: FMM=F IPFlag=           0 FMFlag=           0 FMFlg1=           0
         NFxFlg=           0 DoJE=F BraDBF=F KetDBF=F FulRan=T
         wScrn=  0.000000 ICntrl=       600 IOpCl=  0 I1Cent=           0 NGrid=           0
         NMat0=    1 NMatS0=    595 NMatT0=    0 NMatD0=    1 NMtDS0=    0 NMtDT0=    0
 Symmetry not used in FoFCou.
 Two-electron integral symmetry not used.
 Closed shell SCF:
 Using DIIS extrapolation, IDIIS=  1040.
 NGot=   536870912 LenX=   536690353 LenY=   536688687
 Requested convergence on RMS density matrix=1.00D-08 within 128 cycles.
 Requested convergence on MAX density matrix=1.00D-06.
 Requested convergence on             energy=1.00D-06.
 No special actions if energy rises.

 Cycle   1  Pass 1  IDiag  1:
 Inv3:  Mode=1 IEnd=      723243.
 Iteration    1 A*A^-1 deviation from unit magnitude is 3.11D-15 for    118.
 Iteration    1 A*A^-1 deviation from orthogonality  is 1.52D-15 for    366    200.
 Iteration    1 A^-1*A deviation from unit magnitude is 2.78D-15 for    457.
 Iteration    1 A^-1*A deviation from orthogonality  is 1.59D-15 for    351    103.
 E= -40.4253003157677    
 DIIS: error= 4.74D-02 at cycle   1 NSaved=   1.
 NSaved= 1 IEnMin= 1 EnMin= -40.4253003157677     IErMin= 1 ErrMin= 4.74D-02
 ErrMax= 4.74D-02  0.00D+00 EMaxC= 1.00D-01 BMatC= 7.87D-02 BMatP= 7.87D-02
 IDIUse=3 WtCom= 5.26D-01 WtEn= 4.74D-01
 Coeff-Com:  0.100D+01
 Coeff-En:   0.100D+01
 Coeff:      0.100D+01
 Gap=     0.357 Goal=   None    Shift=    0.000
 GapD=    0.357 DampG=1.000 DampE=0.500 DampFc=0.5000 IDamp=-1.
 Damping current iteration by 5.00D-01
 RMSDP=1.47D-02 MaxDP=1.51D-01              OVMax= 2.00D-01

 Cycle   2  Pass 1  IDiag  1:
 E= -40.4652483892395     Delta-E=       -0.039948073472 Rises=F Damp=T
 DIIS: error= 8.14D-03 at cycle   2 NSaved=   2.
 NSaved= 2 IEnMin= 2 EnMin= -40.4652483892395     IErMin= 2 ErrMin= 8.14D-03
 ErrMax= 8.14D-03  0.00D+00 EMaxC= 1.00D-01 BMatC= 1.24D-03 BMatP= 7.87D-02
 IDIUse=3 WtCom= 9.19D-01 WtEn= 8.14D-02
 Coeff-Com:  0.816D-01 0.918D+00
 Coeff-En:   0.134D+00 0.866D+00
 Coeff:      0.859D-01 0.914D+00
 Gap=     0.436 Goal=   None    Shift=    0.000
 RMSDP=1.37D-03 MaxDP=1.16D-02 DE=-3.99D-02 OVMax= 1.06D-01

 Cycle   3  Pass 1  IDiag  1:
 E= -40.5135775014597     Delta-E=       -0.048329112220 Rises=F Damp=F
 DIIS: error= 5.15D-04 at cycle   3 NSaved=   3.
 NSaved= 3 IEnMin= 3 EnMin= -40.5135775014597     IErMin= 3 ErrMin= 5.15D-04
 ErrMax= 5.15D-04  0.00D+00 EMaxC= 1.00D-01 BMatC= 9.69D-06 BMatP= 1.24D-03
 IDIUse=3 WtCom= 9.95D-01 WtEn= 5.15D-03
 Coeff-Com:  0.591D-02-0.489D-01 0.104D+01
 Coeff-En:   0.000D+00 0.000D+00 0.100D+01
 Coeff:      0.588D-02-0.486D-01 0.104D+01
 Gap=     0.444 Goal=   None    Shift=    0.000
 RMSDP=8.18D-05 MaxDP=8.45D-04 DE=-4.83D-02 OVMax= 1.02D-03

 Cycle   4  Pass 1  IDiag  1:
 E= -40.5135859577867     Delta-E=       -0.000008456327 Rises=F Damp=F
 DIIS: error= 8.71D-05 at cycle   4 NSaved=   4.
 NSaved= 4 IEnMin= 4 EnMin= -40.5135859577867     IErMin= 4 ErrMin= 8.71D-05
 ErrMax= 8.71D-05  0.00D+00 EMaxC= 1.00D-01 BMatC= 1.39D-07 BMatP= 9.69D-06
 IDIUse=1 WtCom= 1.00D+00 WtEn= 0.00D+00
 Coeff-Com:  0.180D-02-0.105D-01 0.224D+00 0.785D+00
 Coeff:      0.180D-02-0.105D-01 0.224D+00 0.785D+00
 Gap=     0.444 Goal=   None    Shift=    0.000
 RMSDP=1.09D-05 MaxDP=1.22D-04 DE=-8.46D-06 OVMax= 1.59D-04

 Cycle   5  Pass 1  IDiag  1:
 E= -40.5135861158001     Delta-E=       -0.000000158013 Rises=F Damp=F
 DIIS: error= 9.14D-06 at cycle   5 NSaved=   5.
 NSaved= 5 IEnMin= 5 EnMin= -40.5135861158001     IErMin= 5 ErrMin= 9.14D-06
 ErrMax= 9.14D-06  0.00D+00 EMaxC= 1.00D-01 BMatC= 2.12D-09 BMatP= 1.39D-07
 IDIUse=1 WtCom= 1.00D+00 WtEn= 0.00D+00
 Coeff-Com:  0.211D-03-0.359D-04 0.600D-02 0.970D-01 0.897D+00
 Coeff:      0.211D-03-0.359D-04 0.600D-02 0.970D-01 0.897D+00
 Gap=     0.444 Goal=   None    Shift=    0.000
 RMSDP=1.60D-06 MaxDP=1.38D-05 DE=-1.58D-07 OVMax= 2.02D-05

 Cycle   6  Pass 1  IDiag  1:
 E= -40.5135861183910     Delta-E=       -0.000000002591 Rises=F Damp=F
 DIIS: error= 8.03D-07 at cycle   6 NSaved=   6.
 NSaved= 6 IEnMin= 6 EnMin= -40.5135861183910     IErMin= 6 ErrMin= 8.03D-07
 ErrMax= 8.03D-07  0.00D+00 EMaxC= 1.00D-01 BMatC= 1.34D-11 BMatP= 2.12D-09
 IDIUse=1 WtCom= 1.00D+00 WtEn= 0.00D+00
 Coeff-Com: -0.116D-04 0.482D-04-0.122D-02-0.189D-02 0.630D-01 0.940D+00
 Coeff:     -0.116D-04 0.482D-04-0.122D-02-0.189D-02 0.630D-01 0.940D+00
 Gap=     0.444 Goal=   None    Shift=    0.000
 RMSDP=1.19D-07 MaxDP=1.18D-06 DE=-2.59D-09 OVMax= 1.73D-06

 Cycle   7  Pass 1  IDiag  1:
 E= -40.5135861184095     Delta-E=       -0.000000000019 Rises=F Damp=F
 DIIS: error= 2.11D-08 at cycle   7 NSaved=   7.
 NSaved= 7 IEnMin= 7 EnMin= -40.5135861184095     IErMin= 7 ErrMin= 2.11D-08
 ErrMax= 2.11D-08  0.00D+00 EMaxC= 1.00D-01 BMatC= 1.35D-14 BMatP= 1.34D-11
 IDIUse=1 WtCom= 1.00D+00 WtEn= 0.00D+00
 Coeff-Com: -0.502D-06 0.114D-05-0.644D-04 0.712D-04 0.282D-02 0.313D-01
 Coeff-Com:  0.966D+00
 Coeff:     -0.502D-06 0.114D-05-0.644D-04 0.712D-04 0.282D-02 0.313D-01
 Coeff:      0.966D+00
 Gap=     0.444 Goal=   None    Shift=    0.000
 RMSDP=5.01D-09 MaxDP=7.66D-08 DE=-1.85D-11 OVMax= 5.84D-08

 Error on total polarization charges =  0.00446
 SCF Done:  E(RB3LYP) =  -40.5135861184     A.U. after    7 cycles
            NFock=  7  Conv=0.50D-08     -V/T= 2.0090
 KE= 4.015211396974D+01 PE=-1.198373034052D+02 EE= 2.579835600565D+01
 Leave Link  502 at Fri Sep 22 16:36:05 2023, MaxMem=   536870912 cpu:               5.0 elap:               1.3
 (Enter /share/apps/gaussian/g16/l601.exe)
 Copying SCF densities to generalized density rwf, IOpCl= 0 IROHF=0.

 **********************************************************************

            Population analysis using the SCF density.

 **********************************************************************

 Orbital symmetries:
       Occupied  (A) (A) (A) (A) (A)
       Virtual   (A) (A) (A) (A) (A) (A) (A) (A) (A) (A) (A) (A)
                 (A) (A) (A) (A) (A) (A) (A) (A) (A) (A) (A) (A)
                 (A) (A) (A) (A) (A)
 The electronic state is 1-A.
 Alpha  occ. eigenvalues --  -10.16222  -0.69419  -0.40154  -0.39027  -0.38722
 Alpha virt. eigenvalues --    0.05714   0.12521   0.12569   0.12692   0.37151
 Alpha virt. eigenvalues --    0.37261   0.38589   0.63480   0.63754   0.64541
 Alpha virt. eigenvalues --    0.67961   0.96270   1.28662   1.29117   1.83679
 Alpha virt. eigenvalues --    1.85631   1.87114   1.88180   1.90302   1.90639
 Alpha virt. eigenvalues --    2.38353   2.41500   2.46292   2.74939   2.76509
 Alpha virt. eigenvalues --    2.93470   3.20020   3.20857   3.22170
          Condensed to atoms (all electrons):
               1          2          3          4          5
     1  C    4.735381   0.404372   0.405396   0.402177   0.402354
     2  H    0.404372   0.569855  -0.018213  -0.022499  -0.021962
     3  H    0.405396  -0.018213   0.561331  -0.020689  -0.020759
     4  H    0.402177  -0.022499  -0.020689   0.579892  -0.022699
     5  H    0.402354  -0.021962  -0.020759  -0.022699   0.578585
 Mulliken charges:
               1
     1  C   -0.349680
     2  H    0.088447
     3  H    0.092934
     4  H    0.083818
     5  H    0.084481
 Sum of Mulliken charges =   0.00000
 Mulliken charges with hydrogens summed into heavy atoms:
               1
     1  C    0.000000
 Electronic spatial extent (au):  <R**2>=             35.9648
 Charge=              0.0000 electrons
 Dipole moment (field-independent basis, Debye):
    X=             -0.0299    Y=              0.0311    Z=              0.0154  Tot=              0.0458
 Quadrupole moment (field-independent basis, Debye-Ang):
   XX=             -8.2820   YY=             -8.5052   ZZ=             -8.5572
   XY=             -0.0005   XZ=              0.0030   YZ=              0.0108
 Traceless Quadrupole moment (field-independent basis, Debye-Ang):
   XX=              0.1661   YY=             -0.0570   ZZ=             -0.1091
   XY=             -0.0005   XZ=              0.0030   YZ=              0.0108
 Octapole moment (field-independent basis, Debye-Ang**2):
  XXX=              0.4982  YYY=              0.2116  ZZZ=              0.5458  XYY=             -0.3102
  XXY=             -0.4582  XXZ=             -0.1502  XZZ=             -0.2467  YZZ=              0.3031
  YYZ=             -0.3653  XYZ=             -0.0733
 Hexadecapole moment (field-independent basis, Debye-Ang**3):
 XXXX=            -15.9279 YYYY=            -16.3845 ZZZZ=            -16.1578 XXXY=             -0.1040
 XXXZ=              0.0097 YYYX=              0.1628 YYYZ=             -0.2764 ZZZX=             -0.2067
 ZZZY=              0.1501 XXYY=             -5.3685 XXZZ=             -5.7116 YYZZ=             -5.4010
 XXYZ=              0.1796 YYXZ=              0.2125 ZZXY=             -0.0617
 N-N= 1.337324731142D+01 E-N=-1.198373031913D+02  KE= 4.015211396974D+01
 There are a total of      109428 grid points.
 ElSum from          density=        9.9999999417
 ElSum from atomic densities=        9.9999999336
 Hirshfeld populations at iteration   1 (CA, CB, DipXYZ):
               1          2          3          4          5
     1  C    3.061069   3.061069   0.005481  -0.006030  -0.002685
     2  H    0.484450   0.484450  -0.097845  -0.092535  -0.039453
     3  H    0.483471   0.483471   0.137283  -0.037110  -0.010282
     4  H    0.485574   0.485574  -0.032240   0.033006   0.128487
     5  H    0.485435   0.485435  -0.024975   0.114943  -0.069983
       Tot   5.000000   5.000000  -0.012296   0.012273   0.006083

 Dip from Atomic Chgs              0.000548  -0.000031  -0.000014
         Total Dipole             -0.011749   0.012242   0.006070

 Hirshfeld charges, spin densities, dipoles, and CM5 charges using IRadAn=      5:
              Q-H        S-H        Dx         Dy         Dz        Q-CM5   
     1  C   -0.122139   0.000000   0.005481  -0.006030  -0.002685  -0.310897
     2  H    0.031101   0.000000  -0.097845  -0.092535  -0.039453   0.078689
     3  H    0.033057   0.000000   0.137283  -0.037110  -0.010282   0.080929
     4  H    0.028851   0.000000  -0.032240   0.033006   0.128487   0.075495
     5  H    0.029129   0.000000  -0.024975   0.114943  -0.069983   0.075784
       Tot   0.000000   0.000000  -0.012296   0.012273   0.006083   0.000000
 Hirshfeld charges with hydrogens summed into heavy atoms:
              Q-H       Q-CM5   
     1  C    0.000000   0.000000
 
 EQQ= 0.000000000000E+00 EQD= 0.000000000000E+00 EDD=-0.100851257267E-02
 EQQ+QD+DD=-0.100851257267E-02
 
 No NMR shielding tensors so no spin-rotation constants.
 Leave Link  601 at Fri Sep 22 16:36:05 2023, MaxMem=   536870912 cpu:               0.6 elap:               0.2
 (Enter /share/apps/gaussian/g16/l9999.exe)
 1\1\GINC-NODE74\SP\RB3LYP\Gen\C1H4\YANZ\22-Sep-2023\0\\#p b3lyp/gen sc
 rf=(cpcm,solvent=toluene) pop=hirshfeld empiricaldispersion=gd3bj\\tmp
 dir/M3_conf_0_234.gjf\\0,1\C,0,0.,0.,0.\H,0,1.0916,0.,0.\H,0,-0.43902,
 0.,-0.9968\H,0,-0.33288,0.88514,0.5613\H,0,-0.34363,-0.87701,0.56736\\
 Version=ES64L-G16RevA.03\State=1-A\HF=-40.5135861\RMSD=5.007e-09\Dipol
 e=-0.0025617,0.0014358,0.0177794\Quadrupole=0.0296538,-0.0812097,0.051
 5559,0.008338,0.0821072,-0.0019606\PG=C01 [X(C1H4)]\\@


 ACTORS ARE SO FORTUNATE.  THEY CAN CHOOSE WHETHER
 THEY WILL APPEAR IN A TRAGEDY OR IN COMEDY,
 WHETHER THEY WILL SUFFER OF MAKE MERRY,
 LAUGH OR SHED TEARS.  BUT IN REAL LIFE IT IS DIFFERENT.
 MOST MEN AND WOMEN ARE FORCED TO PERFORM
 PARTS FOR WHICH THEY HAVE NO QUALIFICATIONS.
 THE WORLD IS A STAGE, BUT THE PLAY IS BADLY CAST.

                                   -- OSCAR WILDE
 Job cpu time:       0 days  0 hours  0 minutes  8.2 seconds.
 Elapsed time:       0 days  0 hours  0 minutes  2.2 seconds.
 File lengths (MBytes):  RWF=      6 Int=      0 D2E=      0 Chk=      1 Scr=      1
 Normal termination of Gaussian 16 at Fri Sep 22 16:36:05 2023.
