 Entering Gaussian System, Link 0=g16
 Initial command:
 /share/apps/gaussian/g16/l1.exe "/tmp/55557.mgr/Gau-213074.inp" -scrdir="/tmp/55557.mgr/"
 Entering Link 1 = /share/apps/gaussian/g16/l1.exe PID=    213075.
  
 Copyright (c) 1988,1990,1992,1993,1995,1998,2003,2009,2016,
            Gaussian, Inc.  All Rights Reserved.
  
 This is part of the Gaussian(R) 16 program.  It is based on
 the Gaussian(R) 09 system (copyright 2009, Gaussian, Inc.),
 the Gaussian(R) 03 system (copyright 2003, Gaussian, Inc.),
 the Gaussian(R) 98 system (copyright 1998, Gaussian, Inc.),
 the Gaussian(R) 94 system (copyright 1995, Gaussian, Inc.),
 the Gaussian 92(TM) system (copyright 1992, Gaussian, Inc.),
 the Gaussian 90(TM) system (copyright 1990, Gaussian, Inc.),
 the Gaussian 88(TM) system (copyright 1988, Gaussian, Inc.),
 the Gaussian 86(TM) system (copyright 1986, Carnegie Mellon
 University), and the Gaussian 82(TM) system (copyright 1983,
 Carnegie Mellon University). Gaussian is a federally registered
 trademark of Gaussian, Inc.
  
 This software contains proprietary and confidential information,
 including trade secrets, belonging to Gaussian, Inc.
  
 This software is provided under written license and may be
 used, copied, transmitted, or stored only in accord with that
 written license.
  
 The following legend is applicable only to US Government
 contracts under FAR:
  
                    RESTRICTED RIGHTS LEGEND
  
 Use, reproduction and disclosure by the US Government is
 subject to restrictions as set forth in subparagraphs (a)
 and (c) of the Commercial Computer Software - Restricted
 Rights clause in FAR 52.227-19.
  
 Gaussian, Inc.
 340 Quinnipiac St., Bldg. 40, Wallingford CT 06492
  
  
 ---------------------------------------------------------------
 Warning -- This program may not be used in any manner that
 competes with the business of Gaussian, Inc. or will provide
 assistance to any competitor of Gaussian, Inc.  The licensee
 of this program is prohibited from giving any competitor of
 Gaussian, Inc. access to this program.  By using this program,
 the user acknowledges that Gaussian, Inc. is engaged in the
 business of creating and licensing software in the field of
 computational chemistry and represents and warrants to the
 licensee that it is not a competitor of Gaussian, Inc. and that
 it will not use this program in any manner prohibited above.
 ---------------------------------------------------------------
  

 Cite this work as:
 Gaussian 16, Revision A.03,
 M. J. Frisch, G. W. Trucks, H. B. Schlegel, G. E. Scuseria, 
 M. A. Robb, J. R. Cheeseman, G. Scalmani, V. Barone, 
 G. A. Petersson, H. Nakatsuji, X. Li, M. Caricato, A. V. Marenich, 
 J. Bloino, B. G. Janesko, R. Gomperts, B. Mennucci, H. P. Hratchian, 
 J. V. Ortiz, A. F. Izmaylov, J. L. Sonnenberg, D. Williams-Young, 
 F. Ding, F. Lipparini, F. Egidi, J. Goings, B. Peng, A. Petrone, 
 T. Henderson, D. Ranasinghe, V. G. Zakrzewski, J. Gao, N. Rega, 
 G. Zheng, W. Liang, M. Hada, M. Ehara, K. Toyota, R. Fukuda, 
 J. Hasegawa, M. Ishida, T. Nakajima, Y. Honda, O. Kitao, H. Nakai, 
 T. Vreven, K. Throssell, J. A. Montgomery, Jr., J. E. Peralta, 
 F. Ogliaro, M. J. Bearpark, J. J. Heyd, E. N. Brothers, K. N. Kudin, 
 V. N. Staroverov, T. A. Keith, R. Kobayashi, J. Normand, 
 K. Raghavachari, A. P. Rendell, J. C. Burant, S. S. Iyengar, 
 J. Tomasi, M. Cossi, J. M. Millam, M. Klene, C. Adamo, R. Cammi, 
 J. W. Ochterski, R. L. Martin, K. Morokuma, O. Farkas, 
 J. B. Foresman, and D. J. Fox, Gaussian, Inc., Wallingford CT, 2016.
 
 ******************************************
 Gaussian 16:  ES64L-G16RevA.03 25-Dec-2016
                22-Sep-2023 
 ******************************************
 %nprocshared=4
 Will use up to    4 processors via shared memory.
 %mem=4GB
 ----------------------------------------------------------------------
 #p b3lyp/gen scrf=(cpcm,solvent=toluene) pop=hirshfeld empiricaldisper
 sion=gd3bj
 ----------------------------------------------------------------------
 1/38=1,172=1/1;
 2/12=2,17=6,18=5,40=1/2;
 3/5=7,11=2,25=1,30=1,70=2101,72=13,74=-5,124=41/1,2,3;
 4//1;
 5/5=2,38=5,53=13/2;
 6/7=2,8=2,9=2,10=2,28=1,79=1/1;
 99/5=1,9=1/99;
 Leave Link    1 at Fri Sep 22 16:32:45 2023, MaxMem=   536870912 cpu:               0.2 elap:               0.0
 (Enter /share/apps/gaussian/g16/l101.exe)
 -----------------------
 tmpdir/M3_conf_0_51.gjf
 -----------------------
 Symbolic Z-matrix:
 Charge =  0 Multiplicity = 1
 C                     0.        0.        0. 
 C                     1.5259    0.        0. 
 H                     1.92475   0.        1.023 
 H                    -0.37857   0.04786  -1.03788 
 H                    -0.36724  -0.8982    0.51378 
 H                    -0.37706   0.86592   0.56664 
 H                     1.87987  -0.92854  -0.46397 
 H                     1.96353   0.87309  -0.53797 
 
 ITRead=  0  0  0  0  0  0  0  0
 MicOpt= -1 -1 -1 -1 -1 -1 -1 -1
 NAtoms=      8 NQM=        8 NQMF=       0 NMMI=      0 NMMIF=      0
                NMic=       0 NMicF=      0.
                    Isotopes and Nuclear Properties:
 (Nuclear quadrupole moments (NQMom) in fm**2, nuclear magnetic moments (NMagM)
  in nuclear magnetons)

  Atom         1           2           3           4           5           6           7           8
 IAtWgt=          12          12           1           1           1           1           1           1
 AtmWgt=  12.0000000  12.0000000   1.0078250   1.0078250   1.0078250   1.0078250   1.0078250   1.0078250
 NucSpn=           0           0           1           1           1           1           1           1
 AtZEff=  -0.0000000  -0.0000000  -0.0000000  -0.0000000  -0.0000000  -0.0000000  -0.0000000  -0.0000000
 NQMom=    0.0000000   0.0000000   0.0000000   0.0000000   0.0000000   0.0000000   0.0000000   0.0000000
 NMagM=    0.0000000   0.0000000   2.7928460   2.7928460   2.7928460   2.7928460   2.7928460   2.7928460
 AtZNuc=   6.0000000   6.0000000   1.0000000   1.0000000   1.0000000   1.0000000   1.0000000   1.0000000
 Leave Link  101 at Fri Sep 22 16:32:45 2023, MaxMem=   536870912 cpu:               0.4 elap:               0.1
 (Enter /share/apps/gaussian/g16/l202.exe)
                          Input orientation:                          
 ---------------------------------------------------------------------
 Center     Atomic      Atomic             Coordinates (Angstroms)
 Number     Number       Type             X           Y           Z
 ---------------------------------------------------------------------
      1          6           0        0.000000    0.000000    0.000000
      2          6           0        1.525900    0.000000    0.000000
      3          1           0        1.924750    0.000000    1.023000
      4          1           0       -0.378570    0.047860   -1.037880
      5          1           0       -0.367240   -0.898200    0.513780
      6          1           0       -0.377060    0.865920    0.566640
      7          1           0        1.879870   -0.928540   -0.463970
      8          1           0        1.963530    0.873090   -0.537970
 ---------------------------------------------------------------------
                    Distance matrix (angstroms):
                    1          2          3          4          5
     1  C    0.000000
     2  C    1.525900   0.000000
     3  H    2.179723   1.098003   0.000000
     4  H    1.105803   2.169445   3.091084   0.000000
     5  H    1.097997   2.157478   2.513819   1.817363   0.000000
     6  H    1.101396   2.166138   2.501282   1.801030   1.764939
     7  H    2.147409   1.096699   1.753648   2.526516   2.450800
     8  H    2.215208   1.114997   1.788971   2.533051   3.110649
                    6          7          8
     6  H    0.000000
     7  H    3.062022   0.000000
     8  H    2.588161   1.805089   0.000000
 Stoichiometry    C2H6
 Framework group  C1[X(C2H6)]
 Deg. of freedom    18
 Full point group                 C1      NOp   1
 Largest Abelian subgroup         C1      NOp   1
 Largest concise Abelian subgroup C1      NOp   1
                         Standard orientation:                         
 ---------------------------------------------------------------------
 Center     Atomic      Atomic             Coordinates (Angstroms)
 Number     Number       Type             X           Y           Z
 ---------------------------------------------------------------------
      1          6           0       -0.766700    0.004445   -0.001923
      2          6           0        0.759196    0.003855    0.001062
      3          1           0        1.156504   -0.803490    0.630309
      4          1           0       -1.143768    0.852925   -0.602508
      5          1           0       -1.133541   -0.952606   -0.395724
      6          1           0       -1.145744    0.089456    1.028694
      7          1           0        1.115078   -0.200628   -1.015936
      8          1           0        1.196496    0.964540    0.360328
 ---------------------------------------------------------------------
 Rotational constants (GHZ):          78.3942511          20.1246499          20.0263291
 Leave Link  202 at Fri Sep 22 16:32:45 2023, MaxMem=   536870912 cpu:               0.1 elap:               0.0
 (Enter /share/apps/gaussian/g16/l301.exe)
 General basis read from cards:  (5D, 7F)
 Centers:       3      4      5      6      7      8
 S 3 1.00
     Exponent=  1.2251800000D+01 Coefficients=  2.3337100000D-02
     Exponent=  1.8687100000D+00 Coefficients=  1.5915000000D-01
     Exponent=  4.1820800000D-01 Coefficients=  5.0000000000D-01
 S 1 1.00
     Exponent=  1.0610000000D-01 Coefficients=  1.0000000000D+00
 P 1 1.00
     Exponent=  1.0000000000D+00 Coefficients=  1.0000000000D+00
 ****
 Centers:       1      2
 S 5 1.00
     Exponent=  1.2432000000D+03 Coefficients=  6.0336600000D-03
     Exponent=  1.8714500000D+02 Coefficients=  4.4957600000D-02
     Exponent=  4.2512600000D+01 Coefficients=  1.9790100000D-01
     Exponent=  1.1739300000D+01 Coefficients=  5.0000000000D-01
     Exponent=  3.5054800000D+00 Coefficients=  4.8036400000D-01
 S 2 1.00
     Exponent=  5.3908900000D+00 Coefficients= -7.0398000000D-02
     Exponent=  4.9334100000D-01 Coefficients=  5.0000000000D-01
 S 1 1.00
     Exponent=  1.4974100000D-01 Coefficients=  1.0000000000D+00
 P 3 1.00
     Exponent=  9.1805600000D+00 Coefficients=  4.3170100000D-02
     Exponent=  1.9365800000D+00 Coefficients=  2.2499900000D-01
     Exponent=  5.2629600000D-01 Coefficients=  5.0000000000D-01
 P 1 1.00
     Exponent=  1.3631900000D-01 Coefficients=  1.0000000000D+00
 D 1 1.00
     Exponent=  8.0000000000D-01 Coefficients=  1.0000000000D+00
 ****
 Ernie: Thresh=  0.10000D-02 Tol=  0.10000D-05 Strict=F.
 There are    60 symmetry adapted cartesian basis functions of A   symmetry.
 There are    58 symmetry adapted basis functions of A   symmetry.
    58 basis functions,    94 primitive gaussians,    60 cartesian basis functions
     9 alpha electrons        9 beta electrons
       nuclear repulsion energy        42.0847244166 Hartrees.
 IExCor=  402 DFT=T Ex+Corr=B3LYP ExCW=0 ScaHFX=  0.200000
 ScaDFX=  0.800000  0.720000  1.000000  0.810000 ScalE2=  1.000000  1.000000
 IRadAn=      5 IRanWt=     -1 IRanGd=            0 ICorTp=0 IEmpDi=141
 NAtoms=    8 NActive=    8 NUniq=    8 SFac= 1.00D+00 NAtFMM=   60 NAOKFM=F Big=F
 Integral buffers will be    131072 words long.
 Raffenetti 2 integral format.
 Two-electron integral symmetry is turned on.
 R6Disp:  Grimme-D3(BJ) Dispersion energy=       -0.0054189171 Hartrees.
 Nuclear repulsion after empirical dispersion term =       42.0793054995 Hartrees.
 ------------------------------------------------------------------------------
 Polarizable Continuum Model (PCM)
 =================================
 Model                : C-PCM.
 Atomic radii         : UFF (Universal Force Field).
 Polarization charges : Total charges.
 Charge compensation  : None.
 Solution method      : On-the-fly selection.
 Cavity type          : Scaled VdW (van der Waals Surface) (Alpha=1.100).
 Cavity algorithm     : GePol (No added spheres)
                        Default sphere list used, NSphG=    8.
                        Lebedev-Laikov grids with approx.  5.0 points / Ang**2.
                        Smoothing algorithm: York/Karplus (Gamma=1.0000).
                        Polarization charges: spherical gaussians, with
                                              point-specific exponents (IZeta= 3).
                        Self-potential: point-specific (ISelfS= 7).
                        Self-field    : sphere-specific E.n sum rule (ISelfD= 2).
 Solvent              : Toluene, Eps=   2.374100 Eps(inf)=   2.238315
 ------------------------------------------------------------------------------
 Spheres list:
 ISph  on   Nord     Re0    Alpha      Xe            Ye            Ze
    1   C      1    1.9255  1.100     -0.766700      0.004445     -0.001923
    2   C      2    1.9255  1.100      0.759196      0.003855      0.001062
    3   H      3    1.4430  1.100      1.156504     -0.803490      0.630309
    4   H      4    1.4430  1.100     -1.143768      0.852925     -0.602508
    5   H      5    1.4430  1.100     -1.133541     -0.952606     -0.395724
    6   H      6    1.4430  1.100     -1.145744      0.089456      1.028694
    7   H      7    1.4430  1.100      1.115078     -0.200628     -1.015936
    8   H      8    1.4430  1.100      1.196496      0.964540      0.360328
 ------------------------------------------------------------------------------
 GePol: Number of generator spheres                  =       8
 GePol: Total number of spheres                      =       8
 GePol: Number of exposed spheres                    =       8 (100.00%)
 GePol: Number of points                             =     717
 GePol: Average weight of points                     =       0.13
 GePol: Minimum weight of points                     =   0.74D-08
 GePol: Maximum weight of points                     =    0.20577
 GePol: Number of points with low weight             =      39
 GePol: Fraction of low-weight points (<1% of avg)   =       5.44%
 GePol: Cavity surface area                          =     96.629 Ang**2
 GePol: Cavity volume                                =     78.105 Ang**3
 Leave Link  301 at Fri Sep 22 16:32:45 2023, MaxMem=   536870912 cpu:               0.3 elap:               0.1
 (Enter /share/apps/gaussian/g16/l302.exe)
 NPDir=0 NMtPBC=     1 NCelOv=     1 NCel=       1 NClECP=     1 NCelD=      1
         NCelK=      1 NCelE2=     1 NClLst=     1 CellRange=     0.0.
 One-electron integrals computed using PRISM.
 One-electron integral symmetry used in STVInt
 NBasis=    58 RedAO= T EigKep=  8.84D-03  NBF=    58
 NBsUse=    58 1.00D-06 EigRej= -1.00D+00 NBFU=    58
 Precomputing XC quadrature grid using
 IXCGrd= 4 IRadAn=           5 IRanWt=          -1 IRanGd=           0 AccXCQ= 0.00D+00.
 Generated NRdTot=       0 NPtTot=           0 NUsed=           0 NTot=          32
 NSgBfM=    60    60    60    60    60 MxSgAt=     8 MxSgA2=     8.
 Leave Link  302 at Fri Sep 22 16:32:45 2023, MaxMem=   536870912 cpu:               0.5 elap:               0.1
 (Enter /share/apps/gaussian/g16/l303.exe)
 DipDrv:  MaxL=1.
 Leave Link  303 at Fri Sep 22 16:32:45 2023, MaxMem=   536870912 cpu:               0.1 elap:               0.0
 (Enter /share/apps/gaussian/g16/l401.exe)
 ExpMin= 1.06D-01 ExpMax= 1.24D+03 ExpMxC= 1.87D+02 IAcc=3 IRadAn=         5 AccDes= 0.00D+00
 Harris functional with IExCor=  402 and IRadAn=       5 diagonalized for initial guess.
 HarFok:  IExCor=  402 AccDes= 0.00D+00 IRadAn=         5 IDoV= 1 UseB2=F ITyADJ=14
 ICtDFT=  3500011 ScaDFX=  1.000000  1.000000  1.000000  1.000000
 FoFCou: FMM=F IPFlag=           0 FMFlag=      100000 FMFlg1=           0
         NFxFlg=           0 DoJE=T BraDBF=F KetDBF=T FulRan=T
         wScrn=  0.000000 ICntrl=       500 IOpCl=  0 I1Cent=   200000004 NGrid=           0
         NMat0=    1 NMatS0=      1 NMatT0=    0 NMatD0=    1 NMtDS0=    0 NMtDT0=    0
 Petite list used in FoFCou.
 Harris En= -79.8655186744821    
 JPrj=0 DoOrth=F DoCkMO=F.
 Leave Link  401 at Fri Sep 22 16:32:45 2023, MaxMem=   536870912 cpu:               1.5 elap:               0.4
 (Enter /share/apps/gaussian/g16/l502.exe)
 Keep R1 ints in memory in canonical form, NReq=5000644.
 FoFCou: FMM=F IPFlag=           0 FMFlag=           0 FMFlg1=           0
         NFxFlg=           0 DoJE=F BraDBF=F KetDBF=F FulRan=T
         wScrn=  0.000000 ICntrl=       600 IOpCl=  0 I1Cent=           0 NGrid=           0
         NMat0=    1 NMatS0=   1711 NMatT0=    0 NMatD0=    1 NMtDS0=    0 NMtDT0=    0
 Symmetry not used in FoFCou.
 Two-electron integral symmetry not used.
 Closed shell SCF:
 Using DIIS extrapolation, IDIIS=  1040.
 NGot=   536870912 LenX=   535397868 LenY=   535393827
 Requested convergence on RMS density matrix=1.00D-08 within 128 cycles.
 Requested convergence on MAX density matrix=1.00D-06.
 Requested convergence on             energy=1.00D-06.
 No special actions if energy rises.

 Cycle   1  Pass 1  IDiag  1:
 Inv3:  Mode=1 IEnd=     1542267.
 Iteration    1 A*A^-1 deviation from unit magnitude is 2.66D-15 for    685.
 Iteration    1 A*A^-1 deviation from orthogonality  is 1.83D-15 for    701    246.
 Iteration    1 A^-1*A deviation from unit magnitude is 2.89D-15 for    228.
 Iteration    1 A^-1*A deviation from orthogonality  is 1.35D-15 for    641    219.
 E= -79.6990070576115    
 DIIS: error= 4.22D-02 at cycle   1 NSaved=   1.
 NSaved= 1 IEnMin= 1 EnMin= -79.6990070576115     IErMin= 1 ErrMin= 4.22D-02
 ErrMax= 4.22D-02  0.00D+00 EMaxC= 1.00D-01 BMatC= 1.05D-01 BMatP= 1.05D-01
 IDIUse=3 WtCom= 5.78D-01 WtEn= 4.22D-01
 Coeff-Com:  0.100D+01
 Coeff-En:   0.100D+01
 Coeff:      0.100D+01
 Gap=     0.320 Goal=   None    Shift=    0.000
 GapD=    0.320 DampG=1.000 DampE=0.500 DampFc=0.5000 IDamp=-1.
 Damping current iteration by 5.00D-01
 RMSDP=1.12D-02 MaxDP=1.38D-01              OVMax= 1.91D-01

 Cycle   2  Pass 1  IDiag  1:
 E= -79.7509059641889     Delta-E=       -0.051898906577 Rises=F Damp=T
 DIIS: error= 9.68D-03 at cycle   2 NSaved=   2.
 NSaved= 2 IEnMin= 2 EnMin= -79.7509059641889     IErMin= 2 ErrMin= 9.68D-03
 ErrMax= 9.68D-03  0.00D+00 EMaxC= 1.00D-01 BMatC= 3.33D-03 BMatP= 1.05D-01
 IDIUse=3 WtCom= 9.03D-01 WtEn= 9.68D-02
 Coeff-Com:  0.108D+00 0.892D+00
 Coeff-En:   0.176D+00 0.824D+00
 Coeff:      0.114D+00 0.886D+00
 Gap=     0.415 Goal=   None    Shift=    0.000
 RMSDP=1.41D-03 MaxDP=1.16D-02 DE=-5.19D-02 OVMax= 1.05D-01

 Cycle   3  Pass 1  IDiag  1:
 E= -79.8212080294778     Delta-E=       -0.070302065289 Rises=F Damp=F
 DIIS: error= 1.86D-03 at cycle   3 NSaved=   3.
 NSaved= 3 IEnMin= 3 EnMin= -79.8212080294778     IErMin= 3 ErrMin= 1.86D-03
 ErrMax= 1.86D-03  0.00D+00 EMaxC= 1.00D-01 BMatC= 1.25D-04 BMatP= 3.33D-03
 IDIUse=3 WtCom= 9.81D-01 WtEn= 1.86D-02
 Coeff-Com:  0.153D-01 0.136D+00 0.849D+00
 Coeff-En:   0.000D+00 0.000D+00 0.100D+01
 Coeff:      0.150D-01 0.133D+00 0.852D+00
 Gap=     0.391 Goal=   None    Shift=    0.000
 RMSDP=1.88D-04 MaxDP=1.32D-03 DE=-7.03D-02 OVMax= 4.15D-03

 Cycle   4  Pass 1  IDiag  1:
 E= -79.8213175775023     Delta-E=       -0.000109548024 Rises=F Damp=F
 DIIS: error= 4.33D-04 at cycle   4 NSaved=   4.
 NSaved= 4 IEnMin= 4 EnMin= -79.8213175775023     IErMin= 4 ErrMin= 4.33D-04
 ErrMax= 4.33D-04  0.00D+00 EMaxC= 1.00D-01 BMatC= 4.70D-06 BMatP= 1.25D-04
 IDIUse=3 WtCom= 9.96D-01 WtEn= 4.33D-03
 Coeff-Com: -0.261D-03-0.934D-02 0.141D+00 0.869D+00
 Coeff-En:   0.000D+00 0.000D+00 0.000D+00 0.100D+01
 Coeff:     -0.260D-03-0.930D-02 0.140D+00 0.869D+00
 Gap=     0.391 Goal=   None    Shift=    0.000
 RMSDP=3.25D-05 MaxDP=3.34D-04 DE=-1.10D-04 OVMax= 8.03D-04

 Cycle   5  Pass 1  IDiag  1:
 E= -79.8213219853244     Delta-E=       -0.000004407822 Rises=F Damp=F
 DIIS: error= 4.04D-05 at cycle   5 NSaved=   5.
 NSaved= 5 IEnMin= 5 EnMin= -79.8213219853244     IErMin= 5 ErrMin= 4.04D-05
 ErrMax= 4.04D-05  0.00D+00 EMaxC= 1.00D-01 BMatC= 9.76D-08 BMatP= 4.70D-06
 IDIUse=1 WtCom= 1.00D+00 WtEn= 0.00D+00
 Coeff-Com: -0.230D-04-0.390D-02 0.520D-01 0.335D+00 0.617D+00
 Coeff:     -0.230D-04-0.390D-02 0.520D-01 0.335D+00 0.617D+00
 Gap=     0.391 Goal=   None    Shift=    0.000
 RMSDP=5.40D-06 MaxDP=1.06D-04 DE=-4.41D-06 OVMax= 1.31D-04

 Cycle   6  Pass 1  IDiag  1:
 E= -79.8213220708568     Delta-E=       -0.000000085532 Rises=F Damp=F
 DIIS: error= 1.51D-05 at cycle   6 NSaved=   6.
 NSaved= 6 IEnMin= 6 EnMin= -79.8213220708568     IErMin= 6 ErrMin= 1.51D-05
 ErrMax= 1.51D-05  0.00D+00 EMaxC= 1.00D-01 BMatC= 1.25D-08 BMatP= 9.76D-08
 IDIUse=1 WtCom= 1.00D+00 WtEn= 0.00D+00
 Coeff-Com:  0.887D-04 0.134D-06-0.284D-02-0.117D-01 0.257D+00 0.758D+00
 Coeff:      0.887D-04 0.134D-06-0.284D-02-0.117D-01 0.257D+00 0.758D+00
 Gap=     0.391 Goal=   None    Shift=    0.000
 RMSDP=1.54D-06 MaxDP=3.26D-05 DE=-8.55D-08 OVMax= 3.73D-05

 Cycle   7  Pass 1  IDiag  1:
 E= -79.8213220834065     Delta-E=       -0.000000012550 Rises=F Damp=F
 DIIS: error= 8.37D-07 at cycle   7 NSaved=   7.
 NSaved= 7 IEnMin= 7 EnMin= -79.8213220834065     IErMin= 7 ErrMin= 8.37D-07
 ErrMax= 8.37D-07  0.00D+00 EMaxC= 1.00D-01 BMatC= 4.01D-11 BMatP= 1.25D-08
 IDIUse=1 WtCom= 1.00D+00 WtEn= 0.00D+00
 Coeff-Com:  0.162D-04 0.278D-04-0.107D-02-0.526D-02 0.518D-01 0.169D+00
 Coeff-Com:  0.785D+00
 Coeff:      0.162D-04 0.278D-04-0.107D-02-0.526D-02 0.518D-01 0.169D+00
 Coeff:      0.785D+00
 Gap=     0.391 Goal=   None    Shift=    0.000
 RMSDP=1.39D-07 MaxDP=1.65D-06 DE=-1.25D-08 OVMax= 2.32D-06

 Cycle   8  Pass 1  IDiag  1:
 E= -79.8213220834514     Delta-E=       -0.000000000045 Rises=F Damp=F
 DIIS: error= 1.46D-07 at cycle   8 NSaved=   8.
 NSaved= 8 IEnMin= 8 EnMin= -79.8213220834514     IErMin= 8 ErrMin= 1.46D-07
 ErrMax= 1.46D-07  0.00D+00 EMaxC= 1.00D-01 BMatC= 1.25D-12 BMatP= 4.01D-11
 IDIUse=1 WtCom= 1.00D+00 WtEn= 0.00D+00
 Coeff-Com: -0.204D-05 0.271D-05-0.526D-04-0.302D-03-0.136D-02-0.132D-02
 Coeff-Com:  0.139D+00 0.864D+00
 Coeff:     -0.204D-05 0.271D-05-0.526D-04-0.302D-03-0.136D-02-0.132D-02
 Coeff:      0.139D+00 0.864D+00
 Gap=     0.391 Goal=   None    Shift=    0.000
 RMSDP=2.27D-08 MaxDP=2.08D-07 DE=-4.48D-11 OVMax= 3.60D-07

 Cycle   9  Pass 1  IDiag  1:
 E= -79.8213220834528     Delta-E=       -0.000000000001 Rises=F Damp=F
 DIIS: error= 7.92D-09 at cycle   9 NSaved=   9.
 NSaved= 9 IEnMin= 9 EnMin= -79.8213220834528     IErMin= 9 ErrMin= 7.92D-09
 ErrMax= 7.92D-09  0.00D+00 EMaxC= 1.00D-01 BMatC= 4.18D-15 BMatP= 1.25D-12
 IDIUse=1 WtCom= 1.00D+00 WtEn= 0.00D+00
 Coeff-Com: -0.363D-06 0.222D-06 0.255D-06-0.998D-05-0.581D-03-0.146D-02
 Coeff-Com:  0.130D-01 0.108D+00 0.881D+00
 Coeff:     -0.363D-06 0.222D-06 0.255D-06-0.998D-05-0.581D-03-0.146D-02
 Coeff:      0.130D-01 0.108D+00 0.881D+00
 Gap=     0.391 Goal=   None    Shift=    0.000
 RMSDP=1.42D-09 MaxDP=1.66D-08 DE=-1.42D-12 OVMax= 2.22D-08

 Error on total polarization charges =  0.00539
 SCF Done:  E(RB3LYP) =  -79.8213220835     A.U. after    9 cycles
            NFock=  9  Conv=0.14D-08     -V/T= 2.0081
 KE= 7.918062954052D+01 PE=-2.681075586579D+02 EE= 6.702630153436D+01
 Leave Link  502 at Fri Sep 22 16:32:49 2023, MaxMem=   536870912 cpu:              13.7 elap:               3.5
 (Enter /share/apps/gaussian/g16/l601.exe)
 Copying SCF densities to generalized density rwf, IOpCl= 0 IROHF=0.

 **********************************************************************

            Population analysis using the SCF density.

 **********************************************************************

 Orbital symmetries:
       Occupied  (A) (A) (A) (A) (A) (A) (A) (A) (A)
       Virtual   (A) (A) (A) (A) (A) (A) (A) (A) (A) (A) (A) (A)
                 (A) (A) (A) (A) (A) (A) (A) (A) (A) (A) (A) (A)
                 (A) (A) (A) (A) (A) (A) (A) (A) (A) (A) (A) (A)
                 (A) (A) (A) (A) (A) (A) (A) (A) (A) (A) (A) (A)
                 (A)
 The electronic state is 1-A.
 Alpha  occ. eigenvalues --  -10.16670 -10.16609  -0.75420  -0.61188  -0.43788
 Alpha  occ. eigenvalues --   -0.43545  -0.36709  -0.34579  -0.34154
 Alpha virt. eigenvalues --    0.04975   0.09243   0.10419   0.10633   0.13690
 Alpha virt. eigenvalues --    0.13828   0.21548   0.37178   0.39281   0.39445
 Alpha virt. eigenvalues --    0.45767   0.47605   0.58941   0.63936   0.64181
 Alpha virt. eigenvalues --    0.64565   0.64708   0.66055   0.69031   0.94052
 Alpha virt. eigenvalues --    1.22812   1.26353   1.26718   1.57489   1.59027
 Alpha virt. eigenvalues --    1.76309   1.85375   1.86432   1.88614   1.88865
 Alpha virt. eigenvalues --    1.91136   1.92264   2.08544   2.09009   2.10155
 Alpha virt. eigenvalues --    2.28025   2.30640   2.48349   2.59678   2.60840
 Alpha virt. eigenvalues --    2.62616   2.77215   2.78186   2.96656   3.06326
 Alpha virt. eigenvalues --    3.17684   3.18431   3.28602   3.30873
          Condensed to atoms (all electrons):
               1          2          3          4          5          6
     1  C    4.749779   0.405850  -0.031261   0.399362   0.399549   0.399343
     2  C    0.405850   4.765530   0.399198  -0.034565  -0.032419  -0.034895
     3  H   -0.031261   0.399198   0.609511   0.009741  -0.006308  -0.008566
     4  H    0.399362  -0.034565   0.009741   0.598563  -0.024140  -0.025987
     5  H    0.399549  -0.032419  -0.006308  -0.024140   0.604353  -0.028539
     6  H    0.399343  -0.034895  -0.008566  -0.025987  -0.028539   0.608659
     7  H   -0.035556   0.399362  -0.028758  -0.006592  -0.009000   0.010465
     8  H   -0.031134   0.398318  -0.027423  -0.007594   0.009377  -0.005977
               7          8
     1  C   -0.035556  -0.031134
     2  C    0.399362   0.398318
     3  H   -0.028758  -0.027423
     4  H   -0.006592  -0.007594
     5  H   -0.009000   0.009377
     6  H    0.010465  -0.005977
     7  H    0.611537  -0.025620
     8  H   -0.025620   0.599604
 Mulliken charges:
               1
     1  C   -0.255932
     2  C   -0.266379
     3  H    0.083865
     4  H    0.091212
     5  H    0.087127
     6  H    0.085498
     7  H    0.084161
     8  H    0.090450
 Sum of Mulliken charges =  -0.00000
 Mulliken charges with hydrogens summed into heavy atoms:
               1
     1  C    0.007904
     2  C   -0.007904
 Electronic spatial extent (au):  <R**2>=            110.2807
 Charge=             -0.0000 electrons
 Dipole moment (field-independent basis, Debye):
    X=              0.0033    Y=             -0.0494    Z=              0.0015  Tot=              0.0495
 Quadrupole moment (field-independent basis, Debye-Ang):
   XX=            -16.0315   YY=            -14.9070   ZZ=            -15.0842
   XY=              0.0212   XZ=              0.0329   YZ=             -0.0044
 Traceless Quadrupole moment (field-independent basis, Debye-Ang):
   XX=             -0.6906   YY=              0.4339   ZZ=              0.2567
   XY=              0.0212   XZ=              0.0329   YZ=             -0.0044
 Octapole moment (field-independent basis, Debye-Ang**2):
  XXX=              0.1675  YYY=             -0.0426  ZZZ=              0.0344  XYY=             -0.0331
  XXY=             -0.0351  XXZ=              0.1319  XZZ=             -0.0433  YZZ=             -0.1185
  YYZ=             -0.0813  XYZ=              0.1412
 Hexadecapole moment (field-independent basis, Debye-Ang**3):
 XXXX=            -96.9866 YYYY=            -30.7284 ZZZZ=            -30.5366 XXXY=              0.1077
 XXXZ=              0.1656 YYYX=              0.4822 YYYZ=             -0.0345 ZZZX=             -1.0752
 ZZZY=              0.0101 XXYY=            -20.0747 XXZZ=            -20.3959 YYZZ=            -10.2348
 XXYZ=             -0.0015 YYXZ=              1.1263 ZZXY=             -0.4715
 N-N= 4.207930549954D+01 E-N=-2.681075587272D+02  KE= 7.918062954052D+01
 There are a total of      177360 grid points.
 ElSum from          density=       17.9999999512
 ElSum from atomic densities=       18.0000001280
 Hirshfeld populations at iteration   1 (CA, CB, DipXYZ):
               1          2          3          4          5
     1  C    3.038414   3.038414   0.035108  -0.000091  -0.004852
     2  C    3.038767   3.038767  -0.040600   0.004682   0.005076
     3  H    0.487716   0.487716   0.042506  -0.100535   0.075001
     4  H    0.486189   0.486189  -0.036036   0.106755  -0.073506
     5  H    0.486285   0.486285  -0.035984  -0.121894  -0.044944
     6  H    0.487808   0.487808  -0.037547   0.006498   0.126473
     7  H    0.488068   0.488068   0.034006  -0.029978  -0.124542
     8  H    0.486753   0.486753   0.047149   0.115148   0.044834
       Tot   9.000000   9.000000   0.008603  -0.019414   0.003540

 Dip from Atomic Chgs             -0.007292  -0.000002  -0.002948
         Total Dipole              0.001311  -0.019416   0.000592

 Hirshfeld charges, spin densities, dipoles, and CM5 charges using IRadAn=      5:
              Q-H        S-H        Dx         Dy         Dz        Q-CM5   
     1  C   -0.076827   0.000000   0.035108  -0.000091  -0.004852  -0.225729
     2  C   -0.077533   0.000000  -0.040600   0.004682   0.005076  -0.226323
     3  H    0.024567   0.000000   0.042506  -0.100535   0.075001   0.074631
     4  H    0.027621   0.000000  -0.036036   0.106755  -0.073506   0.076873
     5  H    0.027429   0.000000  -0.035984  -0.121894  -0.044944   0.077676
     6  H    0.024384   0.000000  -0.037547   0.006498   0.126473   0.074166
     7  H    0.023864   0.000000   0.034006  -0.029978  -0.124542   0.074347
     8  H    0.026495   0.000000   0.047149   0.115148   0.044834   0.074359
       Tot   0.000000   0.000000   0.008603  -0.019414   0.003540   0.000000
 Hirshfeld charges with hydrogens summed into heavy atoms:
              Q-H       Q-CM5   
     1  C    0.002607   0.002986
     2  C   -0.002607  -0.002986
 
 EQQ= 0.000000000000E+00 EQD= 0.000000000000E+00 EDD=-0.184111979187E-02
 EQQ+QD+DD=-0.184111979187E-02
 
 No NMR shielding tensors so no spin-rotation constants.
 Leave Link  601 at Fri Sep 22 16:32:49 2023, MaxMem=   536870912 cpu:               1.2 elap:               0.3
 (Enter /share/apps/gaussian/g16/l9999.exe)
 1\1\GINC-NODE74\SP\RB3LYP\Gen\C2H6\YANZ\22-Sep-2023\0\\#p b3lyp/gen sc
 rf=(cpcm,solvent=toluene) pop=hirshfeld empiricaldispersion=gd3bj\\tmp
 dir/M3_conf_0_51.gjf\\0,1\C,0,0.,0.,0.\C,0,1.5259,0.,0.\H,0,1.92475,0.
 ,1.023\H,0,-0.37857,0.04786,-1.03788\H,0,-0.36724,-0.8982,0.51378\H,0,
 -0.37706,0.86592,0.56664\H,0,1.87987,-0.92854,-0.46397\H,0,1.96353,0.8
 7309,-0.53797\\Version=ES64L-G16RevA.03\State=1-A\HF=-79.8213221\RMSD=
 1.417e-09\Dipole=0.0013198,-0.0114623,0.0156823\Quadrupole=-0.5133563,
 0.2373159,0.2760404,0.0298601,0.0037005,-0.0631213\PG=C01 [X(C2H6)]\\@


 THE MEEK SHALL INHERIT THE EARTH.
 (THE REST OF US WILL ESCAPE TO THE STARS)
 Job cpu time:       0 days  0 hours  0 minutes 18.1 seconds.
 Elapsed time:       0 days  0 hours  0 minutes  4.7 seconds.
 File lengths (MBytes):  RWF=     11 Int=      0 D2E=      0 Chk=      2 Scr=      1
 Normal termination of Gaussian 16 at Fri Sep 22 16:32:49 2023.
