 Entering Gaussian System, Link 0=g16
 Initial command:
 /share/apps/gaussian/g16/l1.exe "/tmp/55557.mgr/Gau-213092.inp" -scrdir="/tmp/55557.mgr/"
 Entering Link 1 = /share/apps/gaussian/g16/l1.exe PID=    213096.
  
 Copyright (c) 1988,1990,1992,1993,1995,1998,2003,2009,2016,
            Gaussian, Inc.  All Rights Reserved.
  
 This is part of the Gaussian(R) 16 program.  It is based on
 the Gaussian(R) 09 system (copyright 2009, Gaussian, Inc.),
 the Gaussian(R) 03 system (copyright 2003, Gaussian, Inc.),
 the Gaussian(R) 98 system (copyright 1998, Gaussian, Inc.),
 the Gaussian(R) 94 system (copyright 1995, Gaussian, Inc.),
 the Gaussian 92(TM) system (copyright 1992, Gaussian, Inc.),
 the Gaussian 90(TM) system (copyright 1990, Gaussian, Inc.),
 the Gaussian 88(TM) system (copyright 1988, Gaussian, Inc.),
 the Gaussian 86(TM) system (copyright 1986, Carnegie Mellon
 University), and the Gaussian 82(TM) system (copyright 1983,
 Carnegie Mellon University). Gaussian is a federally registered
 trademark of Gaussian, Inc.
  
 This software contains proprietary and confidential information,
 including trade secrets, belonging to Gaussian, Inc.
  
 This software is provided under written license and may be
 used, copied, transmitted, or stored only in accord with that
 written license.
  
 The following legend is applicable only to US Government
 contracts under FAR:
  
                    RESTRICTED RIGHTS LEGEND
  
 Use, reproduction and disclosure by the US Government is
 subject to restrictions as set forth in subparagraphs (a)
 and (c) of the Commercial Computer Software - Restricted
 Rights clause in FAR 52.227-19.
  
 Gaussian, Inc.
 340 Quinnipiac St., Bldg. 40, Wallingford CT 06492
  
  
 ---------------------------------------------------------------
 Warning -- This program may not be used in any manner that
 competes with the business of Gaussian, Inc. or will provide
 assistance to any competitor of Gaussian, Inc.  The licensee
 of this program is prohibited from giving any competitor of
 Gaussian, Inc. access to this program.  By using this program,
 the user acknowledges that Gaussian, Inc. is engaged in the
 business of creating and licensing software in the field of
 computational chemistry and represents and warrants to the
 licensee that it is not a competitor of Gaussian, Inc. and that
 it will not use this program in any manner prohibited above.
 ---------------------------------------------------------------
  

 Cite this work as:
 Gaussian 16, Revision A.03,
 M. J. Frisch, G. W. Trucks, H. B. Schlegel, G. E. Scuseria, 
 M. A. Robb, J. R. Cheeseman, G. Scalmani, V. Barone, 
 G. A. Petersson, H. Nakatsuji, X. Li, M. Caricato, A. V. Marenich, 
 J. Bloino, B. G. Janesko, R. Gomperts, B. Mennucci, H. P. Hratchian, 
 J. V. Ortiz, A. F. Izmaylov, J. L. Sonnenberg, D. Williams-Young, 
 F. Ding, F. Lipparini, F. Egidi, J. Goings, B. Peng, A. Petrone, 
 T. Henderson, D. Ranasinghe, V. G. Zakrzewski, J. Gao, N. Rega, 
 G. Zheng, W. Liang, M. Hada, M. Ehara, K. Toyota, R. Fukuda, 
 J. Hasegawa, M. Ishida, T. Nakajima, Y. Honda, O. Kitao, H. Nakai, 
 T. Vreven, K. Throssell, J. A. Montgomery, Jr., J. E. Peralta, 
 F. Ogliaro, M. J. Bearpark, J. J. Heyd, E. N. Brothers, K. N. Kudin, 
 V. N. Staroverov, T. A. Keith, R. Kobayashi, J. Normand, 
 K. Raghavachari, A. P. Rendell, J. C. Burant, S. S. Iyengar, 
 J. Tomasi, M. Cossi, J. M. Millam, M. Klene, C. Adamo, R. Cammi, 
 J. W. Ochterski, R. L. Martin, K. Morokuma, O. Farkas, 
 J. B. Foresman, and D. J. Fox, Gaussian, Inc., Wallingford CT, 2016.
 
 ******************************************
 Gaussian 16:  ES64L-G16RevA.03 25-Dec-2016
                22-Sep-2023 
 ******************************************
 %nprocshared=4
 Will use up to    4 processors via shared memory.
 %mem=4GB
 ----------------------------------------------------------------------
 #p b3lyp/gen scrf=(cpcm,solvent=toluene) pop=hirshfeld empiricaldisper
 sion=gd3bj
 ----------------------------------------------------------------------
 1/38=1,172=1/1;
 2/12=2,17=6,18=5,40=1/2;
 3/5=7,11=2,25=1,30=1,70=2101,72=13,74=-5,124=41/1,2,3;
 4//1;
 5/5=2,38=5,53=13/2;
 6/7=2,8=2,9=2,10=2,28=1,79=1/1;
 99/5=1,9=1/99;
 Leave Link    1 at Fri Sep 22 16:32:45 2023, MaxMem=   536870912 cpu:               0.2 elap:               0.0
 (Enter /share/apps/gaussian/g16/l101.exe)
 -----------------------
 tmpdir/M3_conf_0_37.gjf
 -----------------------
 Symbolic Z-matrix:
 Charge =  0 Multiplicity = 1
 H                     0.        0.        0. 
 C                     1.0902    0.        0. 
 C                     1.61257   0.        1.45412 
 H                     1.43469  -0.94324  -0.54743 
 H                     1.46628   0.87555  -0.58127 
 H                     1.59453   0.9982    1.9506 
 H                     1.08228  -0.76455   2.14432 
 H                     2.65436  -0.33005   1.3936 
 
 ITRead=  0  0  0  0  0  0  0  0
 MicOpt= -1 -1 -1 -1 -1 -1 -1 -1
 NAtoms=      8 NQM=        8 NQMF=       0 NMMI=      0 NMMIF=      0
                NMic=       0 NMicF=      0.
                    Isotopes and Nuclear Properties:
 (Nuclear quadrupole moments (NQMom) in fm**2, nuclear magnetic moments (NMagM)
  in nuclear magnetons)

  Atom         1           2           3           4           5           6           7           8
 IAtWgt=           1          12          12           1           1           1           1           1
 AtmWgt=   1.0078250  12.0000000  12.0000000   1.0078250   1.0078250   1.0078250   1.0078250   1.0078250
 NucSpn=           1           0           0           1           1           1           1           1
 AtZEff=  -0.0000000  -0.0000000  -0.0000000  -0.0000000  -0.0000000  -0.0000000  -0.0000000  -0.0000000
 NQMom=    0.0000000   0.0000000   0.0000000   0.0000000   0.0000000   0.0000000   0.0000000   0.0000000
 NMagM=    2.7928460   0.0000000   0.0000000   2.7928460   2.7928460   2.7928460   2.7928460   2.7928460
 AtZNuc=   1.0000000   6.0000000   6.0000000   1.0000000   1.0000000   1.0000000   1.0000000   1.0000000
 Leave Link  101 at Fri Sep 22 16:32:45 2023, MaxMem=   536870912 cpu:               0.3 elap:               0.1
 (Enter /share/apps/gaussian/g16/l202.exe)
                          Input orientation:                          
 ---------------------------------------------------------------------
 Center     Atomic      Atomic             Coordinates (Angstroms)
 Number     Number       Type             X           Y           Z
 ---------------------------------------------------------------------
      1          1           0        0.000000    0.000000    0.000000
      2          6           0        1.090200    0.000000    0.000000
      3          6           0        1.612570    0.000000    1.454120
      4          1           0        1.434690   -0.943240   -0.547430
      5          1           0        1.466280    0.875550   -0.581270
      6          1           0        1.594530    0.998200    1.950600
      7          1           0        1.082280   -0.764550    2.144320
      8          1           0        2.654360   -0.330050    1.393600
 ---------------------------------------------------------------------
                    Distance matrix (angstroms):
                    1          2          3          4          5
     1  H    0.000000
     2  C    1.090200   0.000000
     3  C    2.171370   1.545100   0.000000
     4  H    1.802142   1.143702   2.219808   0.000000
     5  H    1.804007   1.116198   2.220541   1.819379   0.000000
     6  H    2.709939   2.248464   1.114998   3.167790   2.538081
     7  H    2.520709   2.276556   1.158499   2.720596   3.204095
     8  H    3.016070   2.120766   1.094496   2.373014   2.600984
                    6          7          8
     6  H    0.000000
     7  H    1.845864   0.000000
     8  H    1.788222   1.795496   0.000000
 Stoichiometry    C2H6
 Framework group  C1[X(C2H6)]
 Deg. of freedom    18
 Full point group                 C1      NOp   1
 Largest Abelian subgroup         C1      NOp   1
 Largest concise Abelian subgroup C1      NOp   1
                         Standard orientation:                         
 ---------------------------------------------------------------------
 Center     Atomic      Atomic             Coordinates (Angstroms)
 Number     Number       Type             X           Y           Z
 ---------------------------------------------------------------------
      1          1           0        1.130469   -0.270045   -1.011184
      2          6           0        0.774611    0.003858   -0.017766
      3          6           0       -0.770371    0.010239    0.000299
      4          1           0        1.178782   -0.771972    0.718975
      5          1           0        1.202053    0.992381    0.275516
      6          1           0       -1.232892    0.925449   -0.437520
      7          1           0       -1.250342   -0.919365   -0.497279
      8          1           0       -1.053511   -0.041028    1.056294
 ---------------------------------------------------------------------
 Rotational constants (GHZ):          76.7801613          19.5197570          19.3799223
 Leave Link  202 at Fri Sep 22 16:32:45 2023, MaxMem=   536870912 cpu:               0.1 elap:               0.0
 (Enter /share/apps/gaussian/g16/l301.exe)
 General basis read from cards:  (5D, 7F)
 Centers:       1      4      5      6      7      8
 S 3 1.00
     Exponent=  1.2251800000D+01 Coefficients=  2.3337100000D-02
     Exponent=  1.8687100000D+00 Coefficients=  1.5915000000D-01
     Exponent=  4.1820800000D-01 Coefficients=  5.0000000000D-01
 S 1 1.00
     Exponent=  1.0610000000D-01 Coefficients=  1.0000000000D+00
 P 1 1.00
     Exponent=  1.0000000000D+00 Coefficients=  1.0000000000D+00
 ****
 Centers:       2      3
 S 5 1.00
     Exponent=  1.2432000000D+03 Coefficients=  6.0336600000D-03
     Exponent=  1.8714500000D+02 Coefficients=  4.4957600000D-02
     Exponent=  4.2512600000D+01 Coefficients=  1.9790100000D-01
     Exponent=  1.1739300000D+01 Coefficients=  5.0000000000D-01
     Exponent=  3.5054800000D+00 Coefficients=  4.8036400000D-01
 S 2 1.00
     Exponent=  5.3908900000D+00 Coefficients= -7.0398000000D-02
     Exponent=  4.9334100000D-01 Coefficients=  5.0000000000D-01
 S 1 1.00
     Exponent=  1.4974100000D-01 Coefficients=  1.0000000000D+00
 P 3 1.00
     Exponent=  9.1805600000D+00 Coefficients=  4.3170100000D-02
     Exponent=  1.9365800000D+00 Coefficients=  2.2499900000D-01
     Exponent=  5.2629600000D-01 Coefficients=  5.0000000000D-01
 P 1 1.00
     Exponent=  1.3631900000D-01 Coefficients=  1.0000000000D+00
 D 1 1.00
     Exponent=  8.0000000000D-01 Coefficients=  1.0000000000D+00
 ****
 Ernie: Thresh=  0.10000D-02 Tol=  0.10000D-05 Strict=F.
 There are    60 symmetry adapted cartesian basis functions of A   symmetry.
 There are    58 symmetry adapted basis functions of A   symmetry.
    58 basis functions,    94 primitive gaussians,    60 cartesian basis functions
     9 alpha electrons        9 beta electrons
       nuclear repulsion energy        41.4755898010 Hartrees.
 IExCor=  402 DFT=T Ex+Corr=B3LYP ExCW=0 ScaHFX=  0.200000
 ScaDFX=  0.800000  0.720000  1.000000  0.810000 ScalE2=  1.000000  1.000000
 IRadAn=      5 IRanWt=     -1 IRanGd=            0 ICorTp=0 IEmpDi=141
 NAtoms=    8 NActive=    8 NUniq=    8 SFac= 1.00D+00 NAtFMM=   60 NAOKFM=F Big=F
 Integral buffers will be    131072 words long.
 Raffenetti 2 integral format.
 Two-electron integral symmetry is turned on.
 R6Disp:  Grimme-D3(BJ) Dispersion energy=       -0.0053766614 Hartrees.
 Nuclear repulsion after empirical dispersion term =       41.4702131395 Hartrees.
 ------------------------------------------------------------------------------
 Polarizable Continuum Model (PCM)
 =================================
 Model                : C-PCM.
 Atomic radii         : UFF (Universal Force Field).
 Polarization charges : Total charges.
 Charge compensation  : None.
 Solution method      : On-the-fly selection.
 Cavity type          : Scaled VdW (van der Waals Surface) (Alpha=1.100).
 Cavity algorithm     : GePol (No added spheres)
                        Default sphere list used, NSphG=    8.
                        Lebedev-Laikov grids with approx.  5.0 points / Ang**2.
                        Smoothing algorithm: York/Karplus (Gamma=1.0000).
                        Polarization charges: spherical gaussians, with
                                              point-specific exponents (IZeta= 3).
                        Self-potential: point-specific (ISelfS= 7).
                        Self-field    : sphere-specific E.n sum rule (ISelfD= 2).
 Solvent              : Toluene, Eps=   2.374100 Eps(inf)=   2.238315
 ------------------------------------------------------------------------------
 Spheres list:
 ISph  on   Nord     Re0    Alpha      Xe            Ye            Ze
    1   H      1    1.4430  1.100      1.130469     -0.270045     -1.011184
    2   C      2    1.9255  1.100      0.774611      0.003858     -0.017766
    3   C      3    1.9255  1.100     -0.770371      0.010239      0.000299
    4   H      4    1.4430  1.100      1.178782     -0.771972      0.718975
    5   H      5    1.4430  1.100      1.202053      0.992381      0.275516
    6   H      6    1.4430  1.100     -1.232892      0.925449     -0.437520
    7   H      7    1.4430  1.100     -1.250342     -0.919365     -0.497279
    8   H      8    1.4430  1.100     -1.053511     -0.041028      1.056294
 ------------------------------------------------------------------------------
 GePol: Number of generator spheres                  =       8
 GePol: Total number of spheres                      =       8
 GePol: Number of exposed spheres                    =       8 (100.00%)
 GePol: Number of points                             =     714
 GePol: Average weight of points                     =       0.14
 GePol: Minimum weight of points                     =   0.29D-07
 GePol: Maximum weight of points                     =    0.20577
 GePol: Number of points with low weight             =      42
 GePol: Fraction of low-weight points (<1% of avg)   =       5.88%
 GePol: Cavity surface area                          =     97.962 Ang**2
 GePol: Cavity volume                                =     79.271 Ang**3
 Leave Link  301 at Fri Sep 22 16:32:45 2023, MaxMem=   536870912 cpu:               0.4 elap:               0.1
 (Enter /share/apps/gaussian/g16/l302.exe)
 NPDir=0 NMtPBC=     1 NCelOv=     1 NCel=       1 NClECP=     1 NCelD=      1
         NCelK=      1 NCelE2=     1 NClLst=     1 CellRange=     0.0.
 One-electron integrals computed using PRISM.
 One-electron integral symmetry used in STVInt
 NBasis=    58 RedAO= T EigKep=  9.38D-03  NBF=    58
 NBsUse=    58 1.00D-06 EigRej= -1.00D+00 NBFU=    58
 Precomputing XC quadrature grid using
 IXCGrd= 4 IRadAn=           5 IRanWt=          -1 IRanGd=           0 AccXCQ= 0.00D+00.
 Generated NRdTot=       0 NPtTot=           0 NUsed=           0 NTot=          32
 NSgBfM=    60    60    60    60    60 MxSgAt=     8 MxSgA2=     8.
 Leave Link  302 at Fri Sep 22 16:32:45 2023, MaxMem=   536870912 cpu:               0.5 elap:               0.1
 (Enter /share/apps/gaussian/g16/l303.exe)
 DipDrv:  MaxL=1.
 Leave Link  303 at Fri Sep 22 16:32:45 2023, MaxMem=   536870912 cpu:               0.1 elap:               0.0
 (Enter /share/apps/gaussian/g16/l401.exe)
 ExpMin= 1.06D-01 ExpMax= 1.24D+03 ExpMxC= 1.87D+02 IAcc=3 IRadAn=         5 AccDes= 0.00D+00
 Harris functional with IExCor=  402 and IRadAn=       5 diagonalized for initial guess.
 HarFok:  IExCor=  402 AccDes= 0.00D+00 IRadAn=         5 IDoV= 1 UseB2=F ITyADJ=14
 ICtDFT=  3500011 ScaDFX=  1.000000  1.000000  1.000000  1.000000
 FoFCou: FMM=F IPFlag=           0 FMFlag=      100000 FMFlg1=           0
         NFxFlg=           0 DoJE=T BraDBF=F KetDBF=T FulRan=T
         wScrn=  0.000000 ICntrl=       500 IOpCl=  0 I1Cent=   200000004 NGrid=           0
         NMat0=    1 NMatS0=      1 NMatT0=    0 NMatD0=    1 NMtDS0=    0 NMtDT0=    0
 Petite list used in FoFCou.
 Harris En= -79.8525411250504    
 JPrj=0 DoOrth=F DoCkMO=F.
 Leave Link  401 at Fri Sep 22 16:32:46 2023, MaxMem=   536870912 cpu:               1.5 elap:               0.4
 (Enter /share/apps/gaussian/g16/l502.exe)
 Keep R1 ints in memory in canonical form, NReq=5000644.
 FoFCou: FMM=F IPFlag=           0 FMFlag=           0 FMFlg1=           0
         NFxFlg=           0 DoJE=F BraDBF=F KetDBF=F FulRan=T
         wScrn=  0.000000 ICntrl=       600 IOpCl=  0 I1Cent=           0 NGrid=           0
         NMat0=    1 NMatS0=   1711 NMatT0=    0 NMatD0=    1 NMtDS0=    0 NMtDT0=    0
 Symmetry not used in FoFCou.
 Two-electron integral symmetry not used.
 Closed shell SCF:
 Using DIIS extrapolation, IDIIS=  1040.
 NGot=   536870912 LenX=   535397868 LenY=   535393827
 Requested convergence on RMS density matrix=1.00D-08 within 128 cycles.
 Requested convergence on MAX density matrix=1.00D-06.
 Requested convergence on             energy=1.00D-06.
 No special actions if energy rises.

 Cycle   1  Pass 1  IDiag  1:
 Inv3:  Mode=1 IEnd=     1529388.
 Iteration    1 A*A^-1 deviation from unit magnitude is 4.44D-15 for    708.
 Iteration    1 A*A^-1 deviation from orthogonality  is 1.40D-15 for    703      3.
 Iteration    1 A^-1*A deviation from unit magnitude is 4.44D-15 for    708.
 Iteration    1 A^-1*A deviation from orthogonality  is 1.26D-15 for    710    181.
 E= -79.7024977353125    
 DIIS: error= 3.73D-02 at cycle   1 NSaved=   1.
 NSaved= 1 IEnMin= 1 EnMin= -79.7024977353125     IErMin= 1 ErrMin= 3.73D-02
 ErrMax= 3.73D-02  0.00D+00 EMaxC= 1.00D-01 BMatC= 9.66D-02 BMatP= 9.66D-02
 IDIUse=3 WtCom= 6.27D-01 WtEn= 3.73D-01
 Coeff-Com:  0.100D+01
 Coeff-En:   0.100D+01
 Coeff:      0.100D+01
 Gap=     0.326 Goal=   None    Shift=    0.000
 GapD=    0.326 DampG=1.000 DampE=0.500 DampFc=0.5000 IDamp=-1.
 Damping current iteration by 5.00D-01
 RMSDP=1.09D-02 MaxDP=1.35D-01              OVMax= 1.88D-01

 Cycle   2  Pass 1  IDiag  1:
 E= -79.7501333577423     Delta-E=       -0.047635622430 Rises=F Damp=T
 DIIS: error= 1.04D-02 at cycle   2 NSaved=   2.
 NSaved= 2 IEnMin= 2 EnMin= -79.7501333577423     IErMin= 2 ErrMin= 1.04D-02
 ErrMax= 1.04D-02  0.00D+00 EMaxC= 1.00D-01 BMatC= 3.45D-03 BMatP= 9.66D-02
 IDIUse=3 WtCom= 8.96D-01 WtEn= 1.04D-01
 Coeff-Com:  0.116D+00 0.884D+00
 Coeff-En:   0.187D+00 0.813D+00
 Coeff:      0.123D+00 0.877D+00
 Gap=     0.408 Goal=   None    Shift=    0.000
 RMSDP=1.37D-03 MaxDP=1.13D-02 DE=-4.76D-02 OVMax= 1.01D-01

 Cycle   3  Pass 1  IDiag  1:
 E= -79.8162042715290     Delta-E=       -0.066070913787 Rises=F Damp=F
 DIIS: error= 1.80D-03 at cycle   3 NSaved=   3.
 NSaved= 3 IEnMin= 3 EnMin= -79.8162042715290     IErMin= 3 ErrMin= 1.80D-03
 ErrMax= 1.80D-03  0.00D+00 EMaxC= 1.00D-01 BMatC= 1.23D-04 BMatP= 3.45D-03
 IDIUse=3 WtCom= 9.82D-01 WtEn= 1.80D-02
 Coeff-Com:  0.176D-01 0.133D+00 0.849D+00
 Coeff-En:   0.000D+00 0.000D+00 0.100D+01
 Coeff:      0.173D-01 0.131D+00 0.852D+00
 Gap=     0.387 Goal=   None    Shift=    0.000
 RMSDP=1.89D-04 MaxDP=1.35D-03 DE=-6.61D-02 OVMax= 4.01D-03

 Cycle   4  Pass 1  IDiag  1:
 E= -79.8163138855165     Delta-E=       -0.000109613988 Rises=F Damp=F
 DIIS: error= 4.42D-04 at cycle   4 NSaved=   4.
 NSaved= 4 IEnMin= 4 EnMin= -79.8163138855165     IErMin= 4 ErrMin= 4.42D-04
 ErrMax= 4.42D-04  0.00D+00 EMaxC= 1.00D-01 BMatC= 4.97D-06 BMatP= 1.23D-04
 IDIUse=3 WtCom= 9.96D-01 WtEn= 4.42D-03
 Coeff-Com:  0.212D-03-0.860D-02 0.144D+00 0.864D+00
 Coeff-En:   0.000D+00 0.000D+00 0.000D+00 0.100D+01
 Coeff:      0.211D-03-0.856D-02 0.143D+00 0.865D+00
 Gap=     0.387 Goal=   None    Shift=    0.000
 RMSDP=3.50D-05 MaxDP=3.97D-04 DE=-1.10D-04 OVMax= 8.44D-04

 Cycle   5  Pass 1  IDiag  1:
 E= -79.8163183279019     Delta-E=       -0.000004442385 Rises=F Damp=F
 DIIS: error= 8.21D-05 at cycle   5 NSaved=   5.
 NSaved= 5 IEnMin= 5 EnMin= -79.8163183279019     IErMin= 5 ErrMin= 8.21D-05
 ErrMax= 8.21D-05  0.00D+00 EMaxC= 1.00D-01 BMatC= 3.60D-07 BMatP= 4.97D-06
 IDIUse=1 WtCom= 1.00D+00 WtEn= 0.00D+00
 Coeff-Com:  0.109D-03-0.493D-02 0.671D-01 0.429D+00 0.509D+00
 Coeff:      0.109D-03-0.493D-02 0.671D-01 0.429D+00 0.509D+00
 Gap=     0.387 Goal=   None    Shift=    0.000
 RMSDP=8.71D-06 MaxDP=1.62D-04 DE=-4.44D-06 OVMax= 2.09D-04

 Cycle   6  Pass 1  IDiag  1:
 E= -79.8163186825268     Delta-E=       -0.000000354625 Rises=F Damp=F
 DIIS: error= 1.04D-05 at cycle   6 NSaved=   6.
 NSaved= 6 IEnMin= 6 EnMin= -79.8163186825268     IErMin= 6 ErrMin= 1.04D-05
 ErrMax= 1.04D-05  0.00D+00 EMaxC= 1.00D-01 BMatC= 7.14D-09 BMatP= 3.60D-07
 IDIUse=1 WtCom= 1.00D+00 WtEn= 0.00D+00
 Coeff-Com:  0.765D-04-0.894D-04-0.233D-02-0.802D-02 0.109D+00 0.901D+00
 Coeff:      0.765D-04-0.894D-04-0.233D-02-0.802D-02 0.109D+00 0.901D+00
 Gap=     0.387 Goal=   None    Shift=    0.000
 RMSDP=1.25D-06 MaxDP=2.65D-05 DE=-3.55D-07 OVMax= 2.91D-05

 Cycle   7  Pass 1  IDiag  1:
 E= -79.8163186899085     Delta-E=       -0.000000007382 Rises=F Damp=F
 DIIS: error= 5.65D-07 at cycle   7 NSaved=   7.
 NSaved= 7 IEnMin= 7 EnMin= -79.8163186899085     IErMin= 7 ErrMin= 5.65D-07
 ErrMax= 5.65D-07  0.00D+00 EMaxC= 1.00D-01 BMatC= 2.32D-11 BMatP= 7.14D-09
 IDIUse=1 WtCom= 1.00D+00 WtEn= 0.00D+00
 Coeff-Com:  0.103D-04 0.227D-04-0.901D-03-0.456D-02 0.137D-01 0.147D+00
 Coeff-Com:  0.845D+00
 Coeff:      0.103D-04 0.227D-04-0.901D-03-0.456D-02 0.137D-01 0.147D+00
 Coeff:      0.845D+00
 Gap=     0.387 Goal=   None    Shift=    0.000
 RMSDP=9.98D-08 MaxDP=1.79D-06 DE=-7.38D-09 OVMax= 1.79D-06

 Cycle   8  Pass 1  IDiag  1:
 E= -79.8163186899343     Delta-E=       -0.000000000026 Rises=F Damp=F
 DIIS: error= 7.56D-08 at cycle   8 NSaved=   8.
 NSaved= 8 IEnMin= 8 EnMin= -79.8163186899343     IErMin= 8 ErrMin= 7.56D-08
 ErrMax= 7.56D-08  0.00D+00 EMaxC= 1.00D-01 BMatC= 3.87D-13 BMatP= 2.32D-11
 IDIUse=1 WtCom= 1.00D+00 WtEn= 0.00D+00
 Coeff-Com: -0.148D-05 0.252D-05-0.255D-04-0.176D-03-0.100D-02-0.569D-02
 Coeff-Com:  0.843D-01 0.923D+00
 Coeff:     -0.148D-05 0.252D-05-0.255D-04-0.176D-03-0.100D-02-0.569D-02
 Coeff:      0.843D-01 0.923D+00
 Gap=     0.387 Goal=   None    Shift=    0.000
 RMSDP=1.54D-08 MaxDP=2.11D-07 DE=-2.58D-11 OVMax= 2.57D-07

 Cycle   9  Pass 1  IDiag  1:
 E= -79.8163186899356     Delta-E=       -0.000000000001 Rises=F Damp=F
 DIIS: error= 1.12D-08 at cycle   9 NSaved=   9.
 NSaved= 9 IEnMin= 9 EnMin= -79.8163186899356     IErMin= 9 ErrMin= 1.12D-08
 ErrMax= 1.12D-08  0.00D+00 EMaxC= 1.00D-01 BMatC= 7.31D-15 BMatP= 3.87D-13
 IDIUse=1 WtCom= 1.00D+00 WtEn= 0.00D+00
 Coeff-Com: -0.410D-06 0.389D-06 0.128D-05-0.785D-05-0.338D-03-0.247D-02
 Coeff-Com:  0.119D-01 0.205D+00 0.786D+00
 Coeff:     -0.410D-06 0.389D-06 0.128D-05-0.785D-05-0.338D-03-0.247D-02
 Coeff:      0.119D-01 0.205D+00 0.786D+00
 Gap=     0.387 Goal=   None    Shift=    0.000
 RMSDP=1.92D-09 MaxDP=2.03D-08 DE=-1.35D-12 OVMax= 3.32D-08

 Error on total polarization charges =  0.00549
 SCF Done:  E(RB3LYP) =  -79.8163186899     A.U. after    9 cycles
            NFock=  9  Conv=0.19D-08     -V/T= 2.0099
 KE= 7.903030068639D+01 PE=-2.667722502449D+02 EE= 6.645541772909D+01
 Leave Link  502 at Fri Sep 22 16:32:49 2023, MaxMem=   536870912 cpu:              13.6 elap:               3.4
 (Enter /share/apps/gaussian/g16/l601.exe)
 Copying SCF densities to generalized density rwf, IOpCl= 0 IROHF=0.

 **********************************************************************

            Population analysis using the SCF density.

 **********************************************************************

 Orbital symmetries:
       Occupied  (A) (A) (A) (A) (A) (A) (A) (A) (A)
       Virtual   (A) (A) (A) (A) (A) (A) (A) (A) (A) (A) (A) (A)
                 (A) (A) (A) (A) (A) (A) (A) (A) (A) (A) (A) (A)
                 (A) (A) (A) (A) (A) (A) (A) (A) (A) (A) (A) (A)
                 (A) (A) (A) (A) (A) (A) (A) (A) (A) (A) (A) (A)
                 (A)
 The electronic state is 1-A.
 Alpha  occ. eigenvalues --  -10.17392 -10.17321  -0.74791  -0.60995  -0.43379
 Alpha  occ. eigenvalues --   -0.42931  -0.36850  -0.34225  -0.33960
 Alpha virt. eigenvalues --    0.04762   0.08500   0.09651   0.10205   0.13988
 Alpha virt. eigenvalues --    0.14198   0.20972   0.37626   0.37751   0.39127
 Alpha virt. eigenvalues --    0.46040   0.50504   0.57494   0.61468   0.61970
 Alpha virt. eigenvalues --    0.63589   0.64027   0.65962   0.67680   0.93327
 Alpha virt. eigenvalues --    1.20947   1.27134   1.27505   1.55790   1.59334
 Alpha virt. eigenvalues --    1.74122   1.84279   1.85362   1.86367   1.87079
 Alpha virt. eigenvalues --    1.90527   1.92456   2.05553   2.06451   2.10858
 Alpha virt. eigenvalues --    2.24639   2.29768   2.46412   2.54764   2.58631
 Alpha virt. eigenvalues --    2.59599   2.71881   2.76554   2.90712   3.00963
 Alpha virt. eigenvalues --    3.15471   3.16906   3.22434   3.29462
          Condensed to atoms (all electrons):
               1          2          3          4          5          6
     1  H    0.601427   0.400529  -0.037649  -0.027034  -0.024754  -0.002377
     2  C    0.400529   4.783823   0.391709   0.395645   0.396521  -0.029684
     3  C   -0.037649   0.391709   4.798950  -0.032190  -0.030085   0.397874
     4  H   -0.027034   0.395645  -0.032190   0.606839  -0.027042   0.008112
     5  H   -0.024754   0.396521  -0.030085  -0.027042   0.595413  -0.009134
     6  H   -0.002377  -0.029684   0.397874   0.008112  -0.009134   0.592238
     7  H   -0.010027  -0.029397   0.392697  -0.002663   0.007793  -0.026394
     8  H    0.010415  -0.040174   0.398587  -0.012744  -0.003026  -0.026004
               7          8
     1  H   -0.010027   0.010415
     2  C   -0.029397  -0.040174
     3  C    0.392697   0.398587
     4  H   -0.002663  -0.012744
     5  H    0.007793  -0.003026
     6  H   -0.026394  -0.026004
     7  H    0.602490  -0.028119
     8  H   -0.028119   0.616048
 Mulliken charges:
               1
     1  H    0.089470
     2  C   -0.268971
     3  C   -0.279893
     4  H    0.091077
     5  H    0.094313
     6  H    0.095369
     7  H    0.093619
     8  H    0.085016
 Sum of Mulliken charges =  -0.00000
 Mulliken charges with hydrogens summed into heavy atoms:
               1
     2  C    0.005889
     3  C   -0.005889
 Electronic spatial extent (au):  <R**2>=            112.9030
 Charge=             -0.0000 electrons
 Dipole moment (field-independent basis, Debye):
    X=              0.0103    Y=              0.0216    Z=              0.0487  Tot=              0.0542
 Quadrupole moment (field-independent basis, Debye-Ang):
   XX=            -15.9552   YY=            -15.0494   ZZ=            -15.2020
   XY=              0.0270   XZ=              0.1450   YZ=              0.0021
 Traceless Quadrupole moment (field-independent basis, Debye-Ang):
   XX=             -0.5530   YY=              0.3528   ZZ=              0.2002
   XY=              0.0270   XZ=              0.1450   YZ=              0.0021
 Octapole moment (field-independent basis, Debye-Ang**2):
  XXX=             -0.0561  YYY=              0.5095  ZZZ=              0.2320  XYY=             -0.0799
  XXY=              0.1251  XXZ=             -0.1247  XZZ=              0.1860  YZZ=             -0.3774
  YYZ=             -0.0764  XYZ=              0.0656
 Hexadecapole moment (field-independent basis, Debye-Ang**3):
 XXXX=            -99.9652 YYYY=            -31.8486 ZZZZ=            -30.8989 XXXY=              0.0822
 XXXZ=              0.5830 YYYX=              0.3752 YYYZ=              0.0211 ZZZX=             -1.1082
 ZZZY=             -0.0158 XXYY=            -20.4328 XXZZ=            -21.1426 YYZZ=            -10.5061
 XXYZ=              0.0263 YYXZ=              1.1532 ZZXY=             -0.4003
 N-N= 4.147021313953D+01 E-N=-2.667722502574D+02  KE= 7.903030068639D+01
 There are a total of      177360 grid points.
 ElSum from          density=       18.0000000653
 ElSum from atomic densities=       17.9999999400
 Hirshfeld populations at iteration   1 (CA, CB, DipXYZ):
               1          2          3          4          5
     1  H    0.488788   0.488788   0.035848  -0.036638  -0.125337
     2  C    3.037438   3.037438  -0.039770   0.007387   0.004933
     3  C    3.037680   3.037680   0.043941   0.005204  -0.016914
     4  H    0.486825   0.486825   0.040611  -0.088755   0.085876
     5  H    0.486035   0.486035   0.047223   0.120859   0.036853
     6  H    0.486678   0.486678  -0.053485   0.113727  -0.050291
     7  H    0.486968   0.486968  -0.052217  -0.105607  -0.052493
     8  H    0.489588   0.489588  -0.023134  -0.007882   0.131523
       Tot   9.000000   9.000000  -0.000982   0.008293   0.014150

 Dip from Atomic Chgs              0.005033   0.000188   0.005010
         Total Dipole              0.004051   0.008481   0.019160

 Hirshfeld charges, spin densities, dipoles, and CM5 charges using IRadAn=      5:
              Q-H        S-H        Dx         Dy         Dz        Q-CM5   
     1  H    0.022424   0.000000   0.035848  -0.036638  -0.125337   0.073468
     2  C   -0.074876   0.000000  -0.039770   0.007387   0.004933  -0.218226
     3  C   -0.075360   0.000000   0.043941   0.005204  -0.016914  -0.216973
     4  H    0.026351   0.000000   0.040611  -0.088755   0.085876   0.071103
     5  H    0.027930   0.000000   0.047223   0.120859   0.036853   0.075622
     6  H    0.026644   0.000000  -0.053485   0.113727  -0.050291   0.074275
     7  H    0.026065   0.000000  -0.052217  -0.105607  -0.052493   0.068931
     8  H    0.020824   0.000000  -0.023134  -0.007882   0.131523   0.071802
       Tot  -0.000000   0.000000  -0.000982   0.008293   0.014150  -0.000000
 Hirshfeld charges with hydrogens summed into heavy atoms:
              Q-H       Q-CM5   
     2  C    0.001828   0.001966
     3  C   -0.001828  -0.001966
 
 EQQ= 0.000000000000E+00 EQD= 0.000000000000E+00 EDD=-0.194486416093E-02
 EQQ+QD+DD=-0.194486416093E-02
 
 No NMR shielding tensors so no spin-rotation constants.
 Leave Link  601 at Fri Sep 22 16:32:50 2023, MaxMem=   536870912 cpu:               1.2 elap:               0.3
 (Enter /share/apps/gaussian/g16/l9999.exe)
 1\1\GINC-NODE74\SP\RB3LYP\Gen\C2H6\YANZ\22-Sep-2023\0\\#p b3lyp/gen sc
 rf=(cpcm,solvent=toluene) pop=hirshfeld empiricaldispersion=gd3bj\\tmp
 dir/M3_conf_0_37.gjf\\0,1\H,0,0.,0.,0.\C,0,1.0902,0.,0.\C,0,1.61257,0.
 ,1.45412\H,0,1.43469,-0.94324,-0.54743\H,0,1.46628,0.87555,-0.58127\H,
 0,1.59453,0.9982,1.9506\H,0,1.08228,-0.76455,2.14432\H,0,2.65436,-0.33
 005,1.3936\\Version=ES64L-G16RevA.03\State=1-A\HF=-79.8163187\RMSD=1.9
 15e-09\Dipole=0.0182679,0.0030928,-0.0105917\Quadrupole=0.0296483,0.25
 34502,-0.2830984,0.0320266,-0.26143,-0.0006776\PG=C01 [X(C2H6)]\\@


 ... UNTIL SCIENCE IS MIXED WITH EMOTION AND APPEALS TO THE HEART AND
 IMAGINATION , IT IS LIKE DEAD INORGANIC MATTER; AND WHEN IT IS SO MIXED
 AND SO TRANSFORMED IT IS LITERATURE.

                                  -- JOHN BURROUGHS
 Job cpu time:       0 days  0 hours  0 minutes 18.1 seconds.
 Elapsed time:       0 days  0 hours  0 minutes  4.7 seconds.
 File lengths (MBytes):  RWF=     11 Int=      0 D2E=      0 Chk=      2 Scr=      1
 Normal termination of Gaussian 16 at Fri Sep 22 16:32:50 2023.
