 Entering Gaussian System, Link 0=g16
 Initial command:
 /share/apps/gaussian/g16/l1.exe "/tmp/55557.mgr/Gau-214567.inp" -scrdir="/tmp/55557.mgr/"
 Entering Link 1 = /share/apps/gaussian/g16/l1.exe PID=    214568.
  
 Copyright (c) 1988,1990,1992,1993,1995,1998,2003,2009,2016,
            Gaussian, Inc.  All Rights Reserved.
  
 This is part of the Gaussian(R) 16 program.  It is based on
 the Gaussian(R) 09 system (copyright 2009, Gaussian, Inc.),
 the Gaussian(R) 03 system (copyright 2003, Gaussian, Inc.),
 the Gaussian(R) 98 system (copyright 1998, Gaussian, Inc.),
 the Gaussian(R) 94 system (copyright 1995, Gaussian, Inc.),
 the Gaussian 92(TM) system (copyright 1992, Gaussian, Inc.),
 the Gaussian 90(TM) system (copyright 1990, Gaussian, Inc.),
 the Gaussian 88(TM) system (copyright 1988, Gaussian, Inc.),
 the Gaussian 86(TM) system (copyright 1986, Carnegie Mellon
 University), and the Gaussian 82(TM) system (copyright 1983,
 Carnegie Mellon University). Gaussian is a federally registered
 trademark of Gaussian, Inc.
  
 This software contains proprietary and confidential information,
 including trade secrets, belonging to Gaussian, Inc.
  
 This software is provided under written license and may be
 used, copied, transmitted, or stored only in accord with that
 written license.
  
 The following legend is applicable only to US Government
 contracts under FAR:
  
                    RESTRICTED RIGHTS LEGEND
  
 Use, reproduction and disclosure by the US Government is
 subject to restrictions as set forth in subparagraphs (a)
 and (c) of the Commercial Computer Software - Restricted
 Rights clause in FAR 52.227-19.
  
 Gaussian, Inc.
 340 Quinnipiac St., Bldg. 40, Wallingford CT 06492
  
  
 ---------------------------------------------------------------
 Warning -- This program may not be used in any manner that
 competes with the business of Gaussian, Inc. or will provide
 assistance to any competitor of Gaussian, Inc.  The licensee
 of this program is prohibited from giving any competitor of
 Gaussian, Inc. access to this program.  By using this program,
 the user acknowledges that Gaussian, Inc. is engaged in the
 business of creating and licensing software in the field of
 computational chemistry and represents and warrants to the
 licensee that it is not a competitor of Gaussian, Inc. and that
 it will not use this program in any manner prohibited above.
 ---------------------------------------------------------------
  

 Cite this work as:
 Gaussian 16, Revision A.03,
 M. J. Frisch, G. W. Trucks, H. B. Schlegel, G. E. Scuseria, 
 M. A. Robb, J. R. Cheeseman, G. Scalmani, V. Barone, 
 G. A. Petersson, H. Nakatsuji, X. Li, M. Caricato, A. V. Marenich, 
 J. Bloino, B. G. Janesko, R. Gomperts, B. Mennucci, H. P. Hratchian, 
 J. V. Ortiz, A. F. Izmaylov, J. L. Sonnenberg, D. Williams-Young, 
 F. Ding, F. Lipparini, F. Egidi, J. Goings, B. Peng, A. Petrone, 
 T. Henderson, D. Ranasinghe, V. G. Zakrzewski, J. Gao, N. Rega, 
 G. Zheng, W. Liang, M. Hada, M. Ehara, K. Toyota, R. Fukuda, 
 J. Hasegawa, M. Ishida, T. Nakajima, Y. Honda, O. Kitao, H. Nakai, 
 T. Vreven, K. Throssell, J. A. Montgomery, Jr., J. E. Peralta, 
 F. Ogliaro, M. J. Bearpark, J. J. Heyd, E. N. Brothers, K. N. Kudin, 
 V. N. Staroverov, T. A. Keith, R. Kobayashi, J. Normand, 
 K. Raghavachari, A. P. Rendell, J. C. Burant, S. S. Iyengar, 
 J. Tomasi, M. Cossi, J. M. Millam, M. Klene, C. Adamo, R. Cammi, 
 J. W. Ochterski, R. L. Martin, K. Morokuma, O. Farkas, 
 J. B. Foresman, and D. J. Fox, Gaussian, Inc., Wallingford CT, 2016.
 
 ******************************************
 Gaussian 16:  ES64L-G16RevA.03 25-Dec-2016
                22-Sep-2023 
 ******************************************
 %nprocshared=4
 Will use up to    4 processors via shared memory.
 %mem=4GB
 ----------------------------------------------------------------------
 #p b3lyp/gen scrf=(cpcm,solvent=toluene) pop=hirshfeld empiricaldisper
 sion=gd3bj
 ----------------------------------------------------------------------
 1/38=1,172=1/1;
 2/12=2,17=6,18=5,40=1/2;
 3/5=7,11=2,25=1,30=1,70=2101,72=13,74=-5,124=41/1,2,3;
 4//1;
 5/5=2,38=5,53=13/2;
 6/7=2,8=2,9=2,10=2,28=1,79=1/1;
 99/5=1,9=1/99;
 Leave Link    1 at Fri Sep 22 16:33:24 2023, MaxMem=   536870912 cpu:               0.1 elap:               0.0
 (Enter /share/apps/gaussian/g16/l101.exe)
 -----------------------
 tmpdir/M3_conf_0_70.gjf
 -----------------------
 Symbolic Z-matrix:
 Charge =  0 Multiplicity = 1
 C                     0.        0.        0. 
 C                     1.5259    0.        0. 
 H                     1.90513   0.        1.03405 
 H                    -0.39885   0.85601   0.56016 
 H                    -0.35397   0.12039  -1.031 
 H                    -0.43763  -0.92823   0.436 
 H                     1.90447  -0.89466  -0.52826 
 H                     1.89314   0.92182  -0.47009 
 
 ITRead=  0  0  0  0  0  0  0  0
 MicOpt= -1 -1 -1 -1 -1 -1 -1 -1
 NAtoms=      8 NQM=        8 NQMF=       0 NMMI=      0 NMMIF=      0
                NMic=       0 NMicF=      0.
                    Isotopes and Nuclear Properties:
 (Nuclear quadrupole moments (NQMom) in fm**2, nuclear magnetic moments (NMagM)
  in nuclear magnetons)

  Atom         1           2           3           4           5           6           7           8
 IAtWgt=          12          12           1           1           1           1           1           1
 AtmWgt=  12.0000000  12.0000000   1.0078250   1.0078250   1.0078250   1.0078250   1.0078250   1.0078250
 NucSpn=           0           0           1           1           1           1           1           1
 AtZEff=  -0.0000000  -0.0000000  -0.0000000  -0.0000000  -0.0000000  -0.0000000  -0.0000000  -0.0000000
 NQMom=    0.0000000   0.0000000   0.0000000   0.0000000   0.0000000   0.0000000   0.0000000   0.0000000
 NMagM=    0.0000000   0.0000000   2.7928460   2.7928460   2.7928460   2.7928460   2.7928460   2.7928460
 AtZNuc=   6.0000000   6.0000000   1.0000000   1.0000000   1.0000000   1.0000000   1.0000000   1.0000000
 Leave Link  101 at Fri Sep 22 16:33:24 2023, MaxMem=   536870912 cpu:               0.3 elap:               0.1
 (Enter /share/apps/gaussian/g16/l202.exe)
                          Input orientation:                          
 ---------------------------------------------------------------------
 Center     Atomic      Atomic             Coordinates (Angstroms)
 Number     Number       Type             X           Y           Z
 ---------------------------------------------------------------------
      1          6           0        0.000000    0.000000    0.000000
      2          6           0        1.525900    0.000000    0.000000
      3          1           0        1.905130    0.000000    1.034050
      4          1           0       -0.398850    0.856010    0.560160
      5          1           0       -0.353970    0.120390   -1.031000
      6          1           0       -0.437630   -0.928230    0.436000
      7          1           0        1.904470   -0.894660   -0.528260
      8          1           0        1.893140    0.921820   -0.470090
 ---------------------------------------------------------------------
                    Distance matrix (angstroms):
                    1          2          3          4          5
     1  C    0.000000
     2  C    1.525900   0.000000
     3  H    2.167667   1.101397   0.000000
     4  H    1.098004   2.179724   2.503128   0.000000
     5  H    1.096699   2.147409   3.063080   1.753551   0.000000
     6  H    1.115001   2.215210   2.589942   1.788975   1.805185
     7  H    2.169443   1.105799   1.800341   3.091082   2.526584
     8  H    2.157479   1.097999   1.764181   2.513755   2.450799
                    6          7          8
     6  H    0.000000
     7  H    2.533053   0.000000
     8  H    3.110655   1.817446   0.000000
 Stoichiometry    C2H6
 Framework group  C1[X(C2H6)]
 Deg. of freedom    18
 Full point group                 C1      NOp   1
 Largest Abelian subgroup         C1      NOp   1
 Largest concise Abelian subgroup C1      NOp   1
                         Standard orientation:                         
 ---------------------------------------------------------------------
 Center     Atomic      Atomic             Coordinates (Angstroms)
 Number     Number       Type             X           Y           Z
 ---------------------------------------------------------------------
      1          6           0        0.759317    0.003887    0.001192
      2          6           0       -0.766580    0.004450   -0.001983
      3          1           0       -1.147922    0.088663    1.027853
      4          1           0        1.156562   -0.803892    0.629923
      5          1           0        1.115328   -0.200060   -1.015868
      6          1           0        1.196553    0.964332    0.361189
      7          1           0       -1.143590    0.853337   -0.602020
      8          1           0       -1.133353   -0.952404   -0.396332
 ---------------------------------------------------------------------
 Rotational constants (GHZ):          78.4143337          20.1221216          20.0222012
 Leave Link  202 at Fri Sep 22 16:33:24 2023, MaxMem=   536870912 cpu:               0.0 elap:               0.0
 (Enter /share/apps/gaussian/g16/l301.exe)
 General basis read from cards:  (5D, 7F)
 Centers:       3      4      5      6      7      8
 S 3 1.00
     Exponent=  1.2251800000D+01 Coefficients=  2.3337100000D-02
     Exponent=  1.8687100000D+00 Coefficients=  1.5915000000D-01
     Exponent=  4.1820800000D-01 Coefficients=  5.0000000000D-01
 S 1 1.00
     Exponent=  1.0610000000D-01 Coefficients=  1.0000000000D+00
 P 1 1.00
     Exponent=  1.0000000000D+00 Coefficients=  1.0000000000D+00
 ****
 Centers:       1      2
 S 5 1.00
     Exponent=  1.2432000000D+03 Coefficients=  6.0336600000D-03
     Exponent=  1.8714500000D+02 Coefficients=  4.4957600000D-02
     Exponent=  4.2512600000D+01 Coefficients=  1.9790100000D-01
     Exponent=  1.1739300000D+01 Coefficients=  5.0000000000D-01
     Exponent=  3.5054800000D+00 Coefficients=  4.8036400000D-01
 S 2 1.00
     Exponent=  5.3908900000D+00 Coefficients= -7.0398000000D-02
     Exponent=  4.9334100000D-01 Coefficients=  5.0000000000D-01
 S 1 1.00
     Exponent=  1.4974100000D-01 Coefficients=  1.0000000000D+00
 P 3 1.00
     Exponent=  9.1805600000D+00 Coefficients=  4.3170100000D-02
     Exponent=  1.9365800000D+00 Coefficients=  2.2499900000D-01
     Exponent=  5.2629600000D-01 Coefficients=  5.0000000000D-01
 P 1 1.00
     Exponent=  1.3631900000D-01 Coefficients=  1.0000000000D+00
 D 1 1.00
     Exponent=  8.0000000000D-01 Coefficients=  1.0000000000D+00
 ****
 Ernie: Thresh=  0.10000D-02 Tol=  0.10000D-05 Strict=F.
 There are    60 symmetry adapted cartesian basis functions of A   symmetry.
 There are    58 symmetry adapted basis functions of A   symmetry.
    58 basis functions,    94 primitive gaussians,    60 cartesian basis functions
     9 alpha electrons        9 beta electrons
       nuclear repulsion energy        42.0835520535 Hartrees.
 IExCor=  402 DFT=T Ex+Corr=B3LYP ExCW=0 ScaHFX=  0.200000
 ScaDFX=  0.800000  0.720000  1.000000  0.810000 ScalE2=  1.000000  1.000000
 IRadAn=      5 IRanWt=     -1 IRanGd=            0 ICorTp=0 IEmpDi=141
 NAtoms=    8 NActive=    8 NUniq=    8 SFac= 1.00D+00 NAtFMM=   60 NAOKFM=F Big=F
 Integral buffers will be    131072 words long.
 Raffenetti 2 integral format.
 Two-electron integral symmetry is turned on.
 R6Disp:  Grimme-D3(BJ) Dispersion energy=       -0.0054185598 Hartrees.
 Nuclear repulsion after empirical dispersion term =       42.0781334936 Hartrees.
 ------------------------------------------------------------------------------
 Polarizable Continuum Model (PCM)
 =================================
 Model                : C-PCM.
 Atomic radii         : UFF (Universal Force Field).
 Polarization charges : Total charges.
 Charge compensation  : None.
 Solution method      : On-the-fly selection.
 Cavity type          : Scaled VdW (van der Waals Surface) (Alpha=1.100).
 Cavity algorithm     : GePol (No added spheres)
                        Default sphere list used, NSphG=    8.
                        Lebedev-Laikov grids with approx.  5.0 points / Ang**2.
                        Smoothing algorithm: York/Karplus (Gamma=1.0000).
                        Polarization charges: spherical gaussians, with
                                              point-specific exponents (IZeta= 3).
                        Self-potential: point-specific (ISelfS= 7).
                        Self-field    : sphere-specific E.n sum rule (ISelfD= 2).
 Solvent              : Toluene, Eps=   2.374100 Eps(inf)=   2.238315
 ------------------------------------------------------------------------------
 Spheres list:
 ISph  on   Nord     Re0    Alpha      Xe            Ye            Ze
    1   C      1    1.9255  1.100      0.759317      0.003887      0.001192
    2   C      2    1.9255  1.100     -0.766580      0.004450     -0.001983
    3   H      3    1.4430  1.100     -1.147922      0.088663      1.027853
    4   H      4    1.4430  1.100      1.156562     -0.803892      0.629923
    5   H      5    1.4430  1.100      1.115328     -0.200060     -1.015868
    6   H      6    1.4430  1.100      1.196553      0.964332      0.361189
    7   H      7    1.4430  1.100     -1.143590      0.853337     -0.602020
    8   H      8    1.4430  1.100     -1.133353     -0.952404     -0.396332
 ------------------------------------------------------------------------------
 GePol: Number of generator spheres                  =       8
 GePol: Total number of spheres                      =       8
 GePol: Number of exposed spheres                    =       8 (100.00%)
 GePol: Number of points                             =     717
 GePol: Average weight of points                     =       0.13
 GePol: Minimum weight of points                     =   0.23D-07
 GePol: Maximum weight of points                     =    0.20577
 GePol: Number of points with low weight             =      39
 GePol: Fraction of low-weight points (<1% of avg)   =       5.44%
 GePol: Cavity surface area                          =     96.631 Ang**2
 GePol: Cavity volume                                =     78.105 Ang**3
 Leave Link  301 at Fri Sep 22 16:33:24 2023, MaxMem=   536870912 cpu:               0.4 elap:               0.1
 (Enter /share/apps/gaussian/g16/l302.exe)
 NPDir=0 NMtPBC=     1 NCelOv=     1 NCel=       1 NClECP=     1 NCelD=      1
         NCelK=      1 NCelE2=     1 NClLst=     1 CellRange=     0.0.
 One-electron integrals computed using PRISM.
 One-electron integral symmetry used in STVInt
 NBasis=    58 RedAO= T EigKep=  8.85D-03  NBF=    58
 NBsUse=    58 1.00D-06 EigRej= -1.00D+00 NBFU=    58
 Precomputing XC quadrature grid using
 IXCGrd= 4 IRadAn=           5 IRanWt=          -1 IRanGd=           0 AccXCQ= 0.00D+00.
 Generated NRdTot=       0 NPtTot=           0 NUsed=           0 NTot=          32
 NSgBfM=    60    60    60    60    60 MxSgAt=     8 MxSgA2=     8.
 Leave Link  302 at Fri Sep 22 16:33:24 2023, MaxMem=   536870912 cpu:               0.4 elap:               0.1
 (Enter /share/apps/gaussian/g16/l303.exe)
 DipDrv:  MaxL=1.
 Leave Link  303 at Fri Sep 22 16:33:24 2023, MaxMem=   536870912 cpu:               0.1 elap:               0.0
 (Enter /share/apps/gaussian/g16/l401.exe)
 ExpMin= 1.06D-01 ExpMax= 1.24D+03 ExpMxC= 1.87D+02 IAcc=3 IRadAn=         5 AccDes= 0.00D+00
 Harris functional with IExCor=  402 and IRadAn=       5 diagonalized for initial guess.
 HarFok:  IExCor=  402 AccDes= 0.00D+00 IRadAn=         5 IDoV= 1 UseB2=F ITyADJ=14
 ICtDFT=  3500011 ScaDFX=  1.000000  1.000000  1.000000  1.000000
 FoFCou: FMM=F IPFlag=           0 FMFlag=      100000 FMFlg1=           0
         NFxFlg=           0 DoJE=T BraDBF=F KetDBF=T FulRan=T
         wScrn=  0.000000 ICntrl=       500 IOpCl=  0 I1Cent=   200000004 NGrid=           0
         NMat0=    1 NMatS0=      1 NMatT0=    0 NMatD0=    1 NMtDS0=    0 NMtDT0=    0
 Petite list used in FoFCou.
 Harris En= -79.8655256797834    
 JPrj=0 DoOrth=F DoCkMO=F.
 Leave Link  401 at Fri Sep 22 16:33:25 2023, MaxMem=   536870912 cpu:               1.4 elap:               0.4
 (Enter /share/apps/gaussian/g16/l502.exe)
 Keep R1 ints in memory in canonical form, NReq=5000644.
 FoFCou: FMM=F IPFlag=           0 FMFlag=           0 FMFlg1=           0
         NFxFlg=           0 DoJE=F BraDBF=F KetDBF=F FulRan=T
         wScrn=  0.000000 ICntrl=       600 IOpCl=  0 I1Cent=           0 NGrid=           0
         NMat0=    1 NMatS0=   1711 NMatT0=    0 NMatD0=    1 NMtDS0=    0 NMtDT0=    0
 Symmetry not used in FoFCou.
 Two-electron integral symmetry not used.
 Closed shell SCF:
 Using DIIS extrapolation, IDIIS=  1040.
 NGot=   536870912 LenX=   535397868 LenY=   535393827
 Requested convergence on RMS density matrix=1.00D-08 within 128 cycles.
 Requested convergence on MAX density matrix=1.00D-06.
 Requested convergence on             energy=1.00D-06.
 No special actions if energy rises.

 Cycle   1  Pass 1  IDiag  1:
 Inv3:  Mode=1 IEnd=     1542267.
 Iteration    1 A*A^-1 deviation from unit magnitude is 2.89D-15 for    689.
 Iteration    1 A*A^-1 deviation from orthogonality  is 1.18D-15 for    710    530.
 Iteration    1 A^-1*A deviation from unit magnitude is 2.89D-15 for    689.
 Iteration    1 A^-1*A deviation from orthogonality  is 1.76D-15 for    709    238.
 E= -79.6990299372202    
 DIIS: error= 4.22D-02 at cycle   1 NSaved=   1.
 NSaved= 1 IEnMin= 1 EnMin= -79.6990299372202     IErMin= 1 ErrMin= 4.22D-02
 ErrMax= 4.22D-02  0.00D+00 EMaxC= 1.00D-01 BMatC= 1.05D-01 BMatP= 1.05D-01
 IDIUse=3 WtCom= 5.78D-01 WtEn= 4.22D-01
 Coeff-Com:  0.100D+01
 Coeff-En:   0.100D+01
 Coeff:      0.100D+01
 Gap=     0.320 Goal=   None    Shift=    0.000
 GapD=    0.320 DampG=1.000 DampE=0.500 DampFc=0.5000 IDamp=-1.
 Damping current iteration by 5.00D-01
 RMSDP=1.12D-02 MaxDP=1.38D-01              OVMax= 1.91D-01

 Cycle   2  Pass 1  IDiag  1:
 E= -79.7509233683229     Delta-E=       -0.051893431103 Rises=F Damp=T
 DIIS: error= 9.73D-03 at cycle   2 NSaved=   2.
 NSaved= 2 IEnMin= 2 EnMin= -79.7509233683229     IErMin= 2 ErrMin= 9.73D-03
 ErrMax= 9.73D-03  0.00D+00 EMaxC= 1.00D-01 BMatC= 3.33D-03 BMatP= 1.05D-01
 IDIUse=3 WtCom= 9.03D-01 WtEn= 9.73D-02
 Coeff-Com:  0.108D+00 0.892D+00
 Coeff-En:   0.176D+00 0.824D+00
 Coeff:      0.115D+00 0.885D+00
 Gap=     0.415 Goal=   None    Shift=    0.000
 RMSDP=1.41D-03 MaxDP=1.16D-02 DE=-5.19D-02 OVMax= 1.05D-01

 Cycle   3  Pass 1  IDiag  1:
 E= -79.8212182129205     Delta-E=       -0.070294844598 Rises=F Damp=F
 DIIS: error= 1.87D-03 at cycle   3 NSaved=   3.
 NSaved= 3 IEnMin= 3 EnMin= -79.8212182129205     IErMin= 3 ErrMin= 1.87D-03
 ErrMax= 1.87D-03  0.00D+00 EMaxC= 1.00D-01 BMatC= 1.25D-04 BMatP= 3.33D-03
 IDIUse=3 WtCom= 9.81D-01 WtEn= 1.87D-02
 Coeff-Com:  0.153D-01 0.136D+00 0.849D+00
 Coeff-En:   0.000D+00 0.000D+00 0.100D+01
 Coeff:      0.151D-01 0.133D+00 0.852D+00
 Gap=     0.391 Goal=   None    Shift=    0.000
 RMSDP=1.89D-04 MaxDP=1.32D-03 DE=-7.03D-02 OVMax= 4.15D-03

 Cycle   4  Pass 1  IDiag  1:
 E= -79.8213279412128     Delta-E=       -0.000109728292 Rises=F Damp=F
 DIIS: error= 4.35D-04 at cycle   4 NSaved=   4.
 NSaved= 4 IEnMin= 4 EnMin= -79.8213279412128     IErMin= 4 ErrMin= 4.35D-04
 ErrMax= 4.35D-04  0.00D+00 EMaxC= 1.00D-01 BMatC= 4.70D-06 BMatP= 1.25D-04
 IDIUse=3 WtCom= 9.96D-01 WtEn= 4.35D-03
 Coeff-Com: -0.257D-03-0.936D-02 0.140D+00 0.869D+00
 Coeff-En:   0.000D+00 0.000D+00 0.000D+00 0.100D+01
 Coeff:     -0.256D-03-0.932D-02 0.140D+00 0.870D+00
 Gap=     0.391 Goal=   None    Shift=    0.000
 RMSDP=3.25D-05 MaxDP=3.33D-04 DE=-1.10D-04 OVMax= 8.02D-04

 Cycle   5  Pass 1  IDiag  1:
 E= -79.8213323468709     Delta-E=       -0.000004405658 Rises=F Damp=F
 DIIS: error= 3.97D-05 at cycle   5 NSaved=   5.
 NSaved= 5 IEnMin= 5 EnMin= -79.8213323468709     IErMin= 5 ErrMin= 3.97D-05
 ErrMax= 3.97D-05  0.00D+00 EMaxC= 1.00D-01 BMatC= 9.40D-08 BMatP= 4.70D-06
 IDIUse=1 WtCom= 1.00D+00 WtEn= 0.00D+00
 Coeff-Com: -0.187D-04-0.386D-02 0.514D-01 0.331D+00 0.621D+00
 Coeff:     -0.187D-04-0.386D-02 0.514D-01 0.331D+00 0.621D+00
 Gap=     0.391 Goal=   None    Shift=    0.000
 RMSDP=5.33D-06 MaxDP=1.04D-04 DE=-4.41D-06 OVMax= 1.29D-04

 Cycle   6  Pass 1  IDiag  1:
 E= -79.8213324287005     Delta-E=       -0.000000081830 Rises=F Damp=F
 DIIS: error= 1.53D-05 at cycle   6 NSaved=   6.
 NSaved= 6 IEnMin= 6 EnMin= -79.8213324287005     IErMin= 6 ErrMin= 1.53D-05
 ErrMax= 1.53D-05  0.00D+00 EMaxC= 1.00D-01 BMatC= 1.27D-08 BMatP= 9.40D-08
 IDIUse=1 WtCom= 1.00D+00 WtEn= 0.00D+00
 Coeff-Com:  0.887D-04-0.790D-07-0.283D-02-0.117D-01 0.262D+00 0.752D+00
 Coeff:      0.887D-04-0.790D-07-0.283D-02-0.117D-01 0.262D+00 0.752D+00
 Gap=     0.391 Goal=   None    Shift=    0.000
 RMSDP=1.55D-06 MaxDP=3.27D-05 DE=-8.18D-08 OVMax= 3.75D-05

 Cycle   7  Pass 1  IDiag  1:
 E= -79.8213324414035     Delta-E=       -0.000000012703 Rises=F Damp=F
 DIIS: error= 8.40D-07 at cycle   7 NSaved=   7.
 NSaved= 7 IEnMin= 7 EnMin= -79.8213324414035     IErMin= 7 ErrMin= 8.40D-07
 ErrMax= 8.40D-07  0.00D+00 EMaxC= 1.00D-01 BMatC= 4.09D-11 BMatP= 1.27D-08
 IDIUse=1 WtCom= 1.00D+00 WtEn= 0.00D+00
 Coeff-Com:  0.163D-04 0.280D-04-0.107D-02-0.529D-02 0.533D-01 0.170D+00
 Coeff-Com:  0.783D+00
 Coeff:      0.163D-04 0.280D-04-0.107D-02-0.529D-02 0.533D-01 0.170D+00
 Coeff:      0.783D+00
 Gap=     0.391 Goal=   None    Shift=    0.000
 RMSDP=1.40D-07 MaxDP=1.66D-06 DE=-1.27D-08 OVMax= 2.33D-06

 Cycle   8  Pass 1  IDiag  1:
 E= -79.8213324414500     Delta-E=       -0.000000000046 Rises=F Damp=F
 DIIS: error= 1.45D-07 at cycle   8 NSaved=   8.
 NSaved= 8 IEnMin= 8 EnMin= -79.8213324414500     IErMin= 8 ErrMin= 1.45D-07
 ErrMax= 1.45D-07  0.00D+00 EMaxC= 1.00D-01 BMatC= 1.25D-12 BMatP= 4.09D-11
 IDIUse=1 WtCom= 1.00D+00 WtEn= 0.00D+00
 Coeff-Com: -0.205D-05 0.269D-05-0.521D-04-0.300D-03-0.139D-02-0.134D-02
 Coeff-Com:  0.138D+00 0.865D+00
 Coeff:     -0.205D-05 0.269D-05-0.521D-04-0.300D-03-0.139D-02-0.134D-02
 Coeff:      0.138D+00 0.865D+00
 Gap=     0.391 Goal=   None    Shift=    0.000
 RMSDP=2.27D-08 MaxDP=2.07D-07 DE=-4.65D-11 OVMax= 3.59D-07

 Cycle   9  Pass 1  IDiag  1:
 E= -79.8213324414516     Delta-E=       -0.000000000002 Rises=F Damp=F
 DIIS: error= 7.79D-09 at cycle   9 NSaved=   9.
 NSaved= 9 IEnMin= 9 EnMin= -79.8213324414516     IErMin= 9 ErrMin= 7.79D-09
 ErrMax= 7.79D-09  0.00D+00 EMaxC= 1.00D-01 BMatC= 4.05D-15 BMatP= 1.25D-12
 IDIUse=1 WtCom= 1.00D+00 WtEn= 0.00D+00
 Coeff-Com: -0.357D-06 0.217D-06 0.312D-06-0.962D-05-0.587D-03-0.144D-02
 Coeff-Com:  0.126D-01 0.106D+00 0.883D+00
 Coeff:     -0.357D-06 0.217D-06 0.312D-06-0.962D-05-0.587D-03-0.144D-02
 Coeff:      0.126D-01 0.106D+00 0.883D+00
 Gap=     0.391 Goal=   None    Shift=    0.000
 RMSDP=1.40D-09 MaxDP=1.66D-08 DE=-1.59D-12 OVMax= 2.21D-08

 Error on total polarization charges =  0.00539
 SCF Done:  E(RB3LYP) =  -79.8213324415     A.U. after    9 cycles
            NFock=  9  Conv=0.14D-08     -V/T= 2.0081
 KE= 7.918050637143D+01 PE=-2.681050836209D+02 EE= 6.702511131436D+01
 Leave Link  502 at Fri Sep 22 16:33:28 2023, MaxMem=   536870912 cpu:              13.8 elap:               3.5
 (Enter /share/apps/gaussian/g16/l601.exe)
 Copying SCF densities to generalized density rwf, IOpCl= 0 IROHF=0.

 **********************************************************************

            Population analysis using the SCF density.

 **********************************************************************

 Orbital symmetries:
       Occupied  (A) (A) (A) (A) (A) (A) (A) (A) (A)
       Virtual   (A) (A) (A) (A) (A) (A) (A) (A) (A) (A) (A) (A)
                 (A) (A) (A) (A) (A) (A) (A) (A) (A) (A) (A) (A)
                 (A) (A) (A) (A) (A) (A) (A) (A) (A) (A) (A) (A)
                 (A) (A) (A) (A) (A) (A) (A) (A) (A) (A) (A) (A)
                 (A)
 The electronic state is 1-A.
 Alpha  occ. eigenvalues --  -10.16670 -10.16611  -0.75418  -0.61194  -0.43789
 Alpha  occ. eigenvalues --   -0.43536  -0.36716  -0.34580  -0.34152
 Alpha virt. eigenvalues --    0.04977   0.09240   0.10419   0.10633   0.13692
 Alpha virt. eigenvalues --    0.13828   0.21552   0.37179   0.39260   0.39445
 Alpha virt. eigenvalues --    0.45790   0.47605   0.58939   0.63935   0.64180
 Alpha virt. eigenvalues --    0.64562   0.64705   0.66061   0.69031   0.94047
 Alpha virt. eigenvalues --    1.22816   1.26369   1.26704   1.57484   1.59007
 Alpha virt. eigenvalues --    1.76287   1.85374   1.86429   1.88660   1.88874
 Alpha virt. eigenvalues --    1.91177   1.92255   2.08543   2.08999   2.10128
 Alpha virt. eigenvalues --    2.28017   2.30601   2.48390   2.59708   2.60852
 Alpha virt. eigenvalues --    2.62612   2.77230   2.78138   2.96640   3.06304
 Alpha virt. eigenvalues --    3.17726   3.18443   3.28598   3.30875
          Condensed to atoms (all electrons):
               1          2          3          4          5          6
     1  C    4.765232   0.405851  -0.034738   0.399190   0.399381   0.398320
     2  C    0.405851   4.749923   0.399353  -0.031284  -0.035519  -0.031160
     3  H   -0.034738   0.399353   0.608657  -0.008550   0.010442  -0.005966
     4  H    0.399190  -0.031284  -0.008550   0.609507  -0.028763  -0.027411
     5  H    0.399381  -0.035519   0.010442  -0.028763   0.611464  -0.025612
     6  H    0.398320  -0.031160  -0.005966  -0.027411  -0.025612   0.599567
     7  H   -0.034580   0.399356  -0.026052   0.009742  -0.006599  -0.007587
     8  H   -0.032431   0.399533  -0.028611  -0.006302  -0.009006   0.009377
               7          8
     1  C   -0.034580  -0.032431
     2  C    0.399356   0.399533
     3  H   -0.026052  -0.028611
     4  H    0.009742  -0.006302
     5  H   -0.006599  -0.009006
     6  H   -0.007587   0.009377
     7  H    0.598645  -0.024098
     8  H   -0.024098   0.604456
 Mulliken charges:
               1
     1  C   -0.266224
     2  C   -0.256052
     3  H    0.085464
     4  H    0.083871
     5  H    0.084213
     6  H    0.090473
     7  H    0.091173
     8  H    0.087082
 Sum of Mulliken charges =   0.00000
 Mulliken charges with hydrogens summed into heavy atoms:
               1
     1  C   -0.007667
     2  C    0.007667
 Electronic spatial extent (au):  <R**2>=            110.2910
 Charge=              0.0000 electrons
 Dipole moment (field-independent basis, Debye):
    X=              0.0031    Y=             -0.0495    Z=              0.0015  Tot=              0.0496
 Quadrupole moment (field-independent basis, Debye-Ang):
   XX=            -16.0269   YY=            -14.9070   ZZ=            -15.0868
   XY=              0.0208   XZ=              0.0295   YZ=             -0.0043
 Traceless Quadrupole moment (field-independent basis, Debye-Ang):
   XX=             -0.6867   YY=              0.4332   ZZ=              0.2534
   XY=              0.0208   XZ=              0.0295   YZ=             -0.0043
 Octapole moment (field-independent basis, Debye-Ang**2):
  XXX=              0.1615  YYY=             -0.0424  ZZZ=              0.0320  XYY=             -0.0328
  XXY=             -0.0352  XXZ=              0.1365  XZZ=             -0.0415  YZZ=             -0.1191
  YYZ=             -0.0804  XYZ=              0.1419
 Hexadecapole moment (field-independent basis, Debye-Ang**3):
 XXXX=            -96.9900 YYYY=            -30.7294 ZZZZ=            -30.5364 XXXY=              0.1061
 XXXZ=              0.1519 YYYX=              0.4794 YYYZ=             -0.0342 ZZZX=             -1.0804
 ZZZY=              0.0099 XXYY=            -20.0778 XXZZ=            -20.3948 YYZZ=            -10.2343
 XXYZ=             -0.0006 YYXZ=              1.1256 ZZXY=             -0.4695
 N-N= 4.207813349362D+01 E-N=-2.681050836937D+02  KE= 7.918050637143D+01
 There are a total of      177360 grid points.
 ElSum from          density=       17.9999999519
 ElSum from atomic densities=       18.0000001283
 Hirshfeld populations at iteration   1 (CA, CB, DipXYZ):
               1          2          3          4          5
     1  C    3.038754   3.038754  -0.040580   0.004682   0.004995
     2  C    3.038415   3.038415   0.035251  -0.000067  -0.004684
     3  H    0.487816   0.487816  -0.038049   0.006382   0.126291
     4  H    0.487718   0.487718   0.042513  -0.100594   0.074911
     5  H    0.488040   0.488040   0.034074  -0.029934  -0.124571
     6  H    0.486750   0.486750   0.047149   0.115121   0.044919
     7  H    0.486206   0.486206  -0.036061   0.106828  -0.073336
     8  H    0.486301   0.486301  -0.036010  -0.121871  -0.044903
       Tot   9.000000   9.000000   0.008286  -0.019454   0.003621

 Dip from Atomic Chgs             -0.007059  -0.000023  -0.003051
         Total Dipole              0.001228  -0.019477   0.000571

 Hirshfeld charges, spin densities, dipoles, and CM5 charges using IRadAn=      5:
              Q-H        S-H        Dx         Dy         Dz        Q-CM5   
     1  C   -0.077508   0.000000  -0.040580   0.004682   0.004995  -0.226285
     2  C   -0.076829   0.000000   0.035251  -0.000067  -0.004684  -0.225732
     3  H    0.024368   0.000000  -0.038049   0.006382   0.126291   0.074138
     4  H    0.024564   0.000000   0.042513  -0.100594   0.074911   0.074628
     5  H    0.023919   0.000000   0.034074  -0.029934  -0.124571   0.074402
     6  H    0.026500   0.000000   0.047149   0.115121   0.044919   0.074364
     7  H    0.027588   0.000000  -0.036061   0.106828  -0.073336   0.076840
     8  H    0.027398   0.000000  -0.036010  -0.121871  -0.044903   0.077645
       Tot   0.000000   0.000000   0.008286  -0.019454   0.003621   0.000000
 Hirshfeld charges with hydrogens summed into heavy atoms:
              Q-H       Q-CM5   
     1  C   -0.002525  -0.002891
     2  C    0.002525   0.002891
 
 EQQ= 0.000000000000E+00 EQD= 0.000000000000E+00 EDD=-0.184376600178E-02
 EQQ+QD+DD=-0.184376600178E-02
 
 No NMR shielding tensors so no spin-rotation constants.
 Leave Link  601 at Fri Sep 22 16:33:29 2023, MaxMem=   536870912 cpu:               1.2 elap:               0.3
 (Enter /share/apps/gaussian/g16/l9999.exe)
 1\1\GINC-NODE74\SP\RB3LYP\Gen\C2H6\YANZ\22-Sep-2023\0\\#p b3lyp/gen sc
 rf=(cpcm,solvent=toluene) pop=hirshfeld empiricaldispersion=gd3bj\\tmp
 dir/M3_conf_0_70.gjf\\0,1\C,0,0.,0.,0.\C,0,1.5259,0.,0.\H,0,1.90513,0.
 ,1.03405\H,0,-0.39885,0.85601,0.56016\H,0,-0.35397,0.12039,-1.031\H,0,
 -0.43763,-0.92823,0.436\H,0,1.90447,-0.89466,-0.52826\H,0,1.89314,0.92
 182,-0.47009\\Version=ES64L-G16RevA.03\State=1-A\HF=-79.8213324\RMSD=1
 .399e-09\Dipole=-0.0012363,0.0194579,-0.0010173\Quadrupole=-0.5104344,
 0.3217542,0.1886802,0.0131808,-0.0245634,-0.0076483\PG=C01 [X(C2H6)]\\
 @


 KNOWLEDGE IS OF TWO KINDS:  WE KNOW A SUBJECT OURSELVES OR WE KNOW 
 WHERE WE CAN FIND INFORMATION UPON IT.

                                    -- SAMUEL JOHNSON
 Job cpu time:       0 days  0 hours  0 minutes 18.1 seconds.
 Elapsed time:       0 days  0 hours  0 minutes  4.7 seconds.
 File lengths (MBytes):  RWF=     11 Int=      0 D2E=      0 Chk=      2 Scr=      1
 Normal termination of Gaussian 16 at Fri Sep 22 16:33:29 2023.
