 Entering Gaussian System, Link 0=g16
 Initial command:
 /share/apps/gaussian/g16/l1.exe "/tmp/55557.mgr/Gau-217855.inp" -scrdir="/tmp/55557.mgr/"
 Entering Link 1 = /share/apps/gaussian/g16/l1.exe PID=    217856.
  
 Copyright (c) 1988,1990,1992,1993,1995,1998,2003,2009,2016,
            Gaussian, Inc.  All Rights Reserved.
  
 This is part of the Gaussian(R) 16 program.  It is based on
 the Gaussian(R) 09 system (copyright 2009, Gaussian, Inc.),
 the Gaussian(R) 03 system (copyright 2003, Gaussian, Inc.),
 the Gaussian(R) 98 system (copyright 1998, Gaussian, Inc.),
 the Gaussian(R) 94 system (copyright 1995, Gaussian, Inc.),
 the Gaussian 92(TM) system (copyright 1992, Gaussian, Inc.),
 the Gaussian 90(TM) system (copyright 1990, Gaussian, Inc.),
 the Gaussian 88(TM) system (copyright 1988, Gaussian, Inc.),
 the Gaussian 86(TM) system (copyright 1986, Carnegie Mellon
 University), and the Gaussian 82(TM) system (copyright 1983,
 Carnegie Mellon University). Gaussian is a federally registered
 trademark of Gaussian, Inc.
  
 This software contains proprietary and confidential information,
 including trade secrets, belonging to Gaussian, Inc.
  
 This software is provided under written license and may be
 used, copied, transmitted, or stored only in accord with that
 written license.
  
 The following legend is applicable only to US Government
 contracts under FAR:
  
                    RESTRICTED RIGHTS LEGEND
  
 Use, reproduction and disclosure by the US Government is
 subject to restrictions as set forth in subparagraphs (a)
 and (c) of the Commercial Computer Software - Restricted
 Rights clause in FAR 52.227-19.
  
 Gaussian, Inc.
 340 Quinnipiac St., Bldg. 40, Wallingford CT 06492
  
  
 ---------------------------------------------------------------
 Warning -- This program may not be used in any manner that
 competes with the business of Gaussian, Inc. or will provide
 assistance to any competitor of Gaussian, Inc.  The licensee
 of this program is prohibited from giving any competitor of
 Gaussian, Inc. access to this program.  By using this program,
 the user acknowledges that Gaussian, Inc. is engaged in the
 business of creating and licensing software in the field of
 computational chemistry and represents and warrants to the
 licensee that it is not a competitor of Gaussian, Inc. and that
 it will not use this program in any manner prohibited above.
 ---------------------------------------------------------------
  

 Cite this work as:
 Gaussian 16, Revision A.03,
 M. J. Frisch, G. W. Trucks, H. B. Schlegel, G. E. Scuseria, 
 M. A. Robb, J. R. Cheeseman, G. Scalmani, V. Barone, 
 G. A. Petersson, H. Nakatsuji, X. Li, M. Caricato, A. V. Marenich, 
 J. Bloino, B. G. Janesko, R. Gomperts, B. Mennucci, H. P. Hratchian, 
 J. V. Ortiz, A. F. Izmaylov, J. L. Sonnenberg, D. Williams-Young, 
 F. Ding, F. Lipparini, F. Egidi, J. Goings, B. Peng, A. Petrone, 
 T. Henderson, D. Ranasinghe, V. G. Zakrzewski, J. Gao, N. Rega, 
 G. Zheng, W. Liang, M. Hada, M. Ehara, K. Toyota, R. Fukuda, 
 J. Hasegawa, M. Ishida, T. Nakajima, Y. Honda, O. Kitao, H. Nakai, 
 T. Vreven, K. Throssell, J. A. Montgomery, Jr., J. E. Peralta, 
 F. Ogliaro, M. J. Bearpark, J. J. Heyd, E. N. Brothers, K. N. Kudin, 
 V. N. Staroverov, T. A. Keith, R. Kobayashi, J. Normand, 
 K. Raghavachari, A. P. Rendell, J. C. Burant, S. S. Iyengar, 
 J. Tomasi, M. Cossi, J. M. Millam, M. Klene, C. Adamo, R. Cammi, 
 J. W. Ochterski, R. L. Martin, K. Morokuma, O. Farkas, 
 J. B. Foresman, and D. J. Fox, Gaussian, Inc., Wallingford CT, 2016.
 
 ******************************************
 Gaussian 16:  ES64L-G16RevA.03 25-Dec-2016
                22-Sep-2023 
 ******************************************
 %nprocshared=4
 Will use up to    4 processors via shared memory.
 %mem=4GB
 ----------------------------------------------------------------------
 #p b3lyp/gen scrf=(cpcm,solvent=toluene) pop=hirshfeld empiricaldisper
 sion=gd3bj
 ----------------------------------------------------------------------
 1/38=1,172=1/1;
 2/12=2,17=6,18=5,40=1/2;
 3/5=7,11=2,25=1,30=1,70=2101,72=13,74=-5,124=41/1,2,3;
 4//1;
 5/5=2,38=5,53=13/2;
 6/7=2,8=2,9=2,10=2,28=1,79=1/1;
 99/5=1,9=1/99;
 Leave Link    1 at Fri Sep 22 16:35:16 2023, MaxMem=   536870912 cpu:               0.2 elap:               0.1
 (Enter /share/apps/gaussian/g16/l101.exe)
 ------------------------
 tmpdir/M3_conf_0_175.gjf
 ------------------------
 Symbolic Z-matrix:
 Charge =  0 Multiplicity = 1
 C                     0.        0.        0. 
 C                     1.4629    0.        0. 
 C                    -0.86896   0.       -1.09283 
 C                    -0.7941    0.1308    1.17537 
 N                    -2.15433   0.1445   -0.60301 
 C                    -2.10974   0.23296   0.79475 
 H                    -0.42139   0.166     2.19214 
 H                     1.88949   0.19411  -1.00422 
 O                     2.15311  -0.17326   0.99379 
 H                    -0.61129  -0.20037  -2.10973 
 H                    -2.95748   0.4025   -1.19749 
 H                    -2.96757   0.32938   1.44543 
 
 ITRead=  0  0  0  0  0  0  0  0  0  0  0  0
 MicOpt= -1 -1 -1 -1 -1 -1 -1 -1 -1 -1 -1 -1
 NAtoms=     12 NQM=       12 NQMF=       0 NMMI=      0 NMMIF=      0
                NMic=       0 NMicF=      0.
                    Isotopes and Nuclear Properties:
 (Nuclear quadrupole moments (NQMom) in fm**2, nuclear magnetic moments (NMagM)
  in nuclear magnetons)

  Atom         1           2           3           4           5           6           7           8           9          10
 IAtWgt=          12          12          12          12          14          12           1           1          16           1
 AtmWgt=  12.0000000  12.0000000  12.0000000  12.0000000  14.0030740  12.0000000   1.0078250   1.0078250  15.9949146   1.0078250
 NucSpn=           0           0           0           0           2           0           1           1           0           1
 AtZEff=  -0.0000000  -0.0000000  -0.0000000  -0.0000000  -0.0000000  -0.0000000  -0.0000000  -0.0000000  -0.0000000  -0.0000000
 NQMom=    0.0000000   0.0000000   0.0000000   0.0000000   2.0440000   0.0000000   0.0000000   0.0000000   0.0000000   0.0000000
 NMagM=    0.0000000   0.0000000   0.0000000   0.0000000   0.4037610   0.0000000   2.7928460   2.7928460   0.0000000   2.7928460
 AtZNuc=   6.0000000   6.0000000   6.0000000   6.0000000   7.0000000   6.0000000   1.0000000   1.0000000   8.0000000   1.0000000

  Atom        11          12
 IAtWgt=           1           1
 AtmWgt=   1.0078250   1.0078250
 NucSpn=           1           1
 AtZEff=  -0.0000000  -0.0000000
 NQMom=    0.0000000   0.0000000
 NMagM=    2.7928460   2.7928460
 AtZNuc=   1.0000000   1.0000000
 Leave Link  101 at Fri Sep 22 16:35:16 2023, MaxMem=   536870912 cpu:               0.4 elap:               0.1
 (Enter /share/apps/gaussian/g16/l202.exe)
                          Input orientation:                          
 ---------------------------------------------------------------------
 Center     Atomic      Atomic             Coordinates (Angstroms)
 Number     Number       Type             X           Y           Z
 ---------------------------------------------------------------------
      1          6           0        0.000000    0.000000    0.000000
      2          6           0        1.462900    0.000000    0.000000
      3          6           0       -0.868960    0.000000   -1.092830
      4          6           0       -0.794100    0.130800    1.175370
      5          7           0       -2.154330    0.144500   -0.603010
      6          6           0       -2.109740    0.232960    0.794750
      7          1           0       -0.421390    0.166000    2.192140
      8          1           0        1.889490    0.194110   -1.004220
      9          8           0        2.153110   -0.173260    0.993790
     10          1           0       -0.611290   -0.200370   -2.109730
     11          1           0       -2.957480    0.402500   -1.197490
     12          1           0       -2.967570    0.329380    1.445430
 ---------------------------------------------------------------------
                    Distance matrix (angstroms):
                    1          2          3          4          5
     1  C    0.000000
     2  C    1.462900   0.000000
     3  C    1.396198   2.575238   0.000000
     4  C    1.424499   2.548068   2.273201   0.000000
     5  N    2.241794   3.669994   1.383105   2.238984   0.000000
     6  C    2.266473   3.667377   2.270851   1.373396   1.401266
     7  H    2.238438   2.895442   3.319473   1.083500   3.288831
     8  H    2.148560   1.108204   2.766691   3.457785   4.063977
     9  O    2.377713   1.222304   3.676535   2.968412   4.604865
    10  H    2.205626   2.965362   1.068002   3.306807   2.184059
    11  H    3.216003   4.597363   2.129525   3.222499   1.031998
    12  H    3.317263   4.671919   3.309897   2.199168   2.211707
                    6          7          8          9         10
     6  C    0.000000
     7  H    2.192649   0.000000
     8  H    4.385390   3.944322   0.000000
     9  O    4.286785   2.859928   2.048536   0.000000
    10  H    3.296837   4.321617   2.762547   4.156258   0.000000
    11  H    2.171734   4.239962   4.855296   5.590290   2.588482
    12  H    1.080997   2.658440   5.441518   5.165074   4.297889
                   11         12
    11  H    0.000000
    12  H    2.643951   0.000000
 Stoichiometry    C5H5NO
 Framework group  C1[X(C5H5NO)]
 Deg. of freedom    30
 Full point group                 C1      NOp   1
 Largest Abelian subgroup         C1      NOp   1
 Largest concise Abelian subgroup C1      NOp   1
                         Standard orientation:                         
 ---------------------------------------------------------------------
 Center     Atomic      Atomic             Coordinates (Angstroms)
 Number     Number       Type             X           Y           Z
 ---------------------------------------------------------------------
      1          6           0       -0.304682   -0.223451   -0.022472
      2          6           0       -1.741941   -0.472419    0.088795
      3          6           0        0.738323   -1.151204   -0.050467
      4          6           0        0.280942    1.074779    0.006496
      5          7           0        1.926287   -0.443482   -0.021314
      6          6           0        1.646486    0.928897    0.021500
      7          1           0       -0.258911    2.013794    0.034474
      8          1           0       -1.973744   -1.524238    0.349678
      9          8           0       -2.604118    0.380056   -0.066006
     10          1           0        0.647483   -2.205463   -0.195086
     11          1           0        2.836106   -0.879689    0.195419
     12          1           0        2.383230    1.719907    0.029653
 ---------------------------------------------------------------------
 Rotational constants (GHZ):           7.9060258           1.9700277           1.5811334
 Leave Link  202 at Fri Sep 22 16:35:16 2023, MaxMem=   536870912 cpu:               0.1 elap:               0.1
 (Enter /share/apps/gaussian/g16/l301.exe)
 General basis read from cards:  (5D, 7F)
 Centers:       7      8     10     11     12
 S 3 1.00
     Exponent=  1.2251800000D+01 Coefficients=  2.3337100000D-02
     Exponent=  1.8687100000D+00 Coefficients=  1.5915000000D-01
     Exponent=  4.1820800000D-01 Coefficients=  5.0000000000D-01
 S 1 1.00
     Exponent=  1.0610000000D-01 Coefficients=  1.0000000000D+00
 P 1 1.00
     Exponent=  1.0000000000D+00 Coefficients=  1.0000000000D+00
 ****
 Centers:       1      2      3      4      6
 S 5 1.00
     Exponent=  1.2432000000D+03 Coefficients=  6.0336600000D-03
     Exponent=  1.8714500000D+02 Coefficients=  4.4957600000D-02
     Exponent=  4.2512600000D+01 Coefficients=  1.9790100000D-01
     Exponent=  1.1739300000D+01 Coefficients=  5.0000000000D-01
     Exponent=  3.5054800000D+00 Coefficients=  4.8036400000D-01
 S 2 1.00
     Exponent=  5.3908900000D+00 Coefficients= -7.0398000000D-02
     Exponent=  4.9334100000D-01 Coefficients=  5.0000000000D-01
 S 1 1.00
     Exponent=  1.4974100000D-01 Coefficients=  1.0000000000D+00
 P 3 1.00
     Exponent=  9.1805600000D+00 Coefficients=  4.3170100000D-02
     Exponent=  1.9365800000D+00 Coefficients=  2.2499900000D-01
     Exponent=  5.2629600000D-01 Coefficients=  5.0000000000D-01
 P 1 1.00
     Exponent=  1.3631900000D-01 Coefficients=  1.0000000000D+00
 D 1 1.00
     Exponent=  8.0000000000D-01 Coefficients=  1.0000000000D+00
 ****
 Centers:       5
 S 5 1.00
     Exponent=  1.7263200000D+03 Coefficients=  5.9307700000D-03
     Exponent=  2.5982700000D+02 Coefficients=  4.4253900000D-02
     Exponent=  5.9033500000D+01 Coefficients=  1.9609600000D-01
     Exponent=  1.6350900000D+01 Coefficients=  5.0000000000D-01
     Exponent=  4.9108400000D+00 Coefficients=  4.8298700000D-01
 S 2 1.00
     Exponent=  7.7589400000D+00 Coefficients= -7.0335600000D-02
     Exponent=  7.0557300000D-01 Coefficients=  5.0000000000D-01
 S 1 1.00
     Exponent=  2.0928600000D-01 Coefficients=  1.0000000000D+00
 P 3 1.00
     Exponent=  1.3184400000D+01 Coefficients=  4.4074700000D-02
     Exponent=  2.8186000000D+00 Coefficients=  2.3047800000D-01
     Exponent=  7.6557100000D-01 Coefficients=  5.0000000000D-01
 P 1 1.00
     Exponent=  1.9594900000D-01 Coefficients=  1.0000000000D+00
 D 1 1.00
     Exponent=  9.0000000000D-01 Coefficients=  1.0000000000D+00
 ****
 Centers:       9
 S 5 1.00
     Exponent=  2.2886400000D+03 Coefficients=  5.8546800000D-03
     Exponent=  3.4441600000D+02 Coefficients=  4.3733300000D-02
     Exponent=  7.8253800000D+01 Coefficients=  1.9479600000D-01
     Exponent=  2.1719500000D+01 Coefficients=  5.0000000000D-01
     Exponent=  6.5590700000D+00 Coefficients=  4.8461400000D-01
 S 2 1.00
     Exponent=  1.0465600000D+01 Coefficients= -7.1334300000D-02
     Exponent=  9.6435100000D-01 Coefficients=  5.0000000000D-01
 S 1 1.00
     Exponent=  2.8512700000D-01 Coefficients=  1.0000000000D+00
 P 3 1.00
     Exponent=  1.7059000000D+01 Coefficients=  4.7443900000D-02
     Exponent=  3.6899900000D+00 Coefficients=  2.4268900000D-01
     Exponent=  9.9299600000D-01 Coefficients=  5.0000000000D-01
 P 1 1.00
     Exponent=  2.4492400000D-01 Coefficients=  1.0000000000D+00
 D 1 1.00
     Exponent=  1.0000000000D+00 Coefficients=  1.0000000000D+00
 ****
 Ernie: Thresh=  0.10000D-02 Tol=  0.10000D-05 Strict=F.
 There are   130 symmetry adapted cartesian basis functions of A   symmetry.
 There are   123 symmetry adapted basis functions of A   symmetry.
   123 basis functions,   217 primitive gaussians,   130 cartesian basis functions
    25 alpha electrons       25 beta electrons
       nuclear repulsion energy       267.8997041108 Hartrees.
 IExCor=  402 DFT=T Ex+Corr=B3LYP ExCW=0 ScaHFX=  0.200000
 ScaDFX=  0.800000  0.720000  1.000000  0.810000 ScalE2=  1.000000  1.000000
 IRadAn=      5 IRanWt=     -1 IRanGd=            0 ICorTp=0 IEmpDi=141
 NAtoms=   12 NActive=   12 NUniq=   12 SFac= 1.00D+00 NAtFMM=   60 NAOKFM=F Big=F
 Integral buffers will be    131072 words long.
 Raffenetti 2 integral format.
 Two-electron integral symmetry is turned on.
 R6Disp:  Grimme-D3(BJ) Dispersion energy=       -0.0182114907 Hartrees.
 Nuclear repulsion after empirical dispersion term =      267.8814926201 Hartrees.
 ------------------------------------------------------------------------------
 Polarizable Continuum Model (PCM)
 =================================
 Model                : C-PCM.
 Atomic radii         : UFF (Universal Force Field).
 Polarization charges : Total charges.
 Charge compensation  : None.
 Solution method      : On-the-fly selection.
 Cavity type          : Scaled VdW (van der Waals Surface) (Alpha=1.100).
 Cavity algorithm     : GePol (No added spheres)
                        Default sphere list used, NSphG=   12.
                        Lebedev-Laikov grids with approx.  5.0 points / Ang**2.
                        Smoothing algorithm: York/Karplus (Gamma=1.0000).
                        Polarization charges: spherical gaussians, with
                                              point-specific exponents (IZeta= 3).
                        Self-potential: point-specific (ISelfS= 7).
                        Self-field    : sphere-specific E.n sum rule (ISelfD= 2).
 Solvent              : Toluene, Eps=   2.374100 Eps(inf)=   2.238315
 ------------------------------------------------------------------------------
 Spheres list:
 ISph  on   Nord     Re0    Alpha      Xe            Ye            Ze
    1   C      1    1.9255  1.100     -0.304682     -0.223451     -0.022472
    2   C      2    1.9255  1.100     -1.741941     -0.472419      0.088795
    3   C      3    1.9255  1.100      0.738323     -1.151204     -0.050467
    4   C      4    1.9255  1.100      0.280942      1.074779      0.006496
    5   N      5    1.8300  1.100      1.926287     -0.443482     -0.021314
    6   C      6    1.9255  1.100      1.646486      0.928897      0.021500
    7   H      7    1.4430  1.100     -0.258911      2.013794      0.034474
    8   H      8    1.4430  1.100     -1.973744     -1.524238      0.349678
    9   O      9    1.7500  1.100     -2.604118      0.380056     -0.066006
   10   H     10    1.4430  1.100      0.647483     -2.205463     -0.195086
   11   H     11    1.4430  1.100      2.836106     -0.879689      0.195419
   12   H     12    1.4430  1.100      2.383230      1.719907      0.029653
 ------------------------------------------------------------------------------
 GePol: Number of generator spheres                  =      12
 GePol: Total number of spheres                      =      12
 GePol: Number of exposed spheres                    =      12 (100.00%)
 GePol: Number of points                             =    1138
 GePol: Average weight of points                     =       0.13
 GePol: Minimum weight of points                     =   0.45D-08
 GePol: Maximum weight of points                     =    0.20577
 GePol: Number of points with low weight             =      41
 GePol: Fraction of low-weight points (<1% of avg)   =       3.60%
 GePol: Cavity surface area                          =    152.827 Ang**2
 GePol: Cavity volume                                =    142.848 Ang**3
 Leave Link  301 at Fri Sep 22 16:35:16 2023, MaxMem=   536870912 cpu:               0.4 elap:               0.1
 (Enter /share/apps/gaussian/g16/l302.exe)
 NPDir=0 NMtPBC=     1 NCelOv=     1 NCel=       1 NClECP=     1 NCelD=      1
         NCelK=      1 NCelE2=     1 NClLst=     1 CellRange=     0.0.
 One-electron integrals computed using PRISM.
 One-electron integral symmetry used in STVInt
 NBasis=   123 RedAO= T EigKep=  8.14D-04  NBF=   123
 NBsUse=   123 1.00D-06 EigRej= -1.00D+00 NBFU=   123
 Precomputing XC quadrature grid using
 IXCGrd= 4 IRadAn=           5 IRanWt=          -1 IRanGd=           0 AccXCQ= 0.00D+00.
 Generated NRdTot=       0 NPtTot=           0 NUsed=           0 NTot=          32
 NSgBfM=   130   130   130   130   130 MxSgAt=    12 MxSgA2=    12.
 Leave Link  302 at Fri Sep 22 16:35:16 2023, MaxMem=   536870912 cpu:               0.6 elap:               0.2
 (Enter /share/apps/gaussian/g16/l303.exe)
 DipDrv:  MaxL=1.
 Leave Link  303 at Fri Sep 22 16:35:17 2023, MaxMem=   536870912 cpu:               0.1 elap:               0.0
 (Enter /share/apps/gaussian/g16/l401.exe)
 ExpMin= 1.06D-01 ExpMax= 2.29D+03 ExpMxC= 3.44D+02 IAcc=3 IRadAn=         5 AccDes= 0.00D+00
 Harris functional with IExCor=  402 and IRadAn=       5 diagonalized for initial guess.
 HarFok:  IExCor=  402 AccDes= 0.00D+00 IRadAn=         5 IDoV= 1 UseB2=F ITyADJ=14
 ICtDFT=  3500011 ScaDFX=  1.000000  1.000000  1.000000  1.000000
 FoFCou: FMM=F IPFlag=           0 FMFlag=      100000 FMFlg1=           0
         NFxFlg=           0 DoJE=T BraDBF=F KetDBF=T FulRan=T
         wScrn=  0.000000 ICntrl=       500 IOpCl=  0 I1Cent=   200000004 NGrid=           0
         NMat0=    1 NMatS0=      1 NMatT0=    0 NMatD0=    1 NMtDS0=    0 NMtDT0=    0
 Petite list used in FoFCou.
 Harris En= -323.462512648854    
 JPrj=0 DoOrth=F DoCkMO=F.
 Leave Link  401 at Fri Sep 22 16:35:17 2023, MaxMem=   536870912 cpu:               3.6 elap:               0.9
 (Enter /share/apps/gaussian/g16/l502.exe)
 Keep R1 ints in memory in canonical form, NReq=32901157.
 FoFCou: FMM=F IPFlag=           0 FMFlag=           0 FMFlg1=           0
         NFxFlg=           0 DoJE=F BraDBF=F KetDBF=F FulRan=T
         wScrn=  0.000000 ICntrl=       600 IOpCl=  0 I1Cent=           0 NGrid=           0
         NMat0=    1 NMatS0=   7626 NMatT0=    0 NMatD0=    1 NMtDS0=    0 NMtDT0=    0
 Symmetry not used in FoFCou.
 Two-electron integral symmetry not used.
 Closed shell SCF:
 Using DIIS extrapolation, IDIIS=  1040.
 NGot=   536870912 LenX=   507753101 LenY=   507735760
 Requested convergence on RMS density matrix=1.00D-08 within 128 cycles.
 Requested convergence on MAX density matrix=1.00D-06.
 Requested convergence on             energy=1.00D-06.
 No special actions if energy rises.

 Cycle   1  Pass 1  IDiag  1:
 Inv3:  Mode=1 IEnd=     3885132.
 Iteration    1 A*A^-1 deviation from unit magnitude is 5.66D-15 for   1132.
 Iteration    1 A*A^-1 deviation from orthogonality  is 2.42D-15 for   1133    963.
 Iteration    1 A^-1*A deviation from unit magnitude is 5.66D-15 for   1132.
 Iteration    1 A^-1*A deviation from orthogonality  is 1.18D-15 for   1112   1071.
 E= -323.306274152461    
 DIIS: error= 3.47D-02 at cycle   1 NSaved=   1.
 NSaved= 1 IEnMin= 1 EnMin= -323.306274152461     IErMin= 1 ErrMin= 3.47D-02
 ErrMax= 3.47D-02  0.00D+00 EMaxC= 1.00D-01 BMatC= 1.54D-01 BMatP= 1.54D-01
 IDIUse=3 WtCom= 6.53D-01 WtEn= 3.47D-01
 Coeff-Com:  0.100D+01
 Coeff-En:   0.100D+01
 Coeff:      0.100D+01
 Gap=     0.179 Goal=   None    Shift=    0.000
 GapD=    0.179 DampG=1.000 DampE=0.500 DampFc=0.5000 IDamp=-1.
 Damping current iteration by 5.00D-01
 RMSDP=1.02D-02 MaxDP=2.39D-01              OVMax= 2.65D-01

 Cycle   2  Pass 1  IDiag  1:
 E= -323.353133193795     Delta-E=       -0.046859041334 Rises=F Damp=T
 DIIS: error= 1.33D-02 at cycle   2 NSaved=   2.
 NSaved= 2 IEnMin= 2 EnMin= -323.353133193795     IErMin= 2 ErrMin= 1.33D-02
 ErrMax= 1.33D-02  0.00D+00 EMaxC= 1.00D-01 BMatC= 2.36D-02 BMatP= 1.54D-01
 IDIUse=3 WtCom= 8.67D-01 WtEn= 1.33D-01
 Coeff-Com:  0.221D+00 0.779D+00
 Coeff-En:   0.320D+00 0.680D+00
 Coeff:      0.234D+00 0.766D+00
 Gap=     0.247 Goal=   None    Shift=    0.000
 RMSDP=2.98D-03 MaxDP=6.99D-02 DE=-4.69D-02 OVMax= 1.62D-01

 Cycle   3  Pass 1  IDiag  1:
 E= -323.448061412445     Delta-E=       -0.094928218651 Rises=F Damp=F
 DIIS: error= 1.16D-02 at cycle   3 NSaved=   3.
 NSaved= 3 IEnMin= 3 EnMin= -323.448061412445     IErMin= 3 ErrMin= 1.16D-02
 ErrMax= 1.16D-02  0.00D+00 EMaxC= 1.00D-01 BMatC= 1.72D-02 BMatP= 2.36D-02
 IDIUse=3 WtCom= 8.84D-01 WtEn= 1.16D-01
 Coeff-Com:  0.690D-01 0.458D+00 0.473D+00
 Coeff-En:   0.000D+00 0.000D+00 0.100D+01
 Coeff:      0.610D-01 0.405D+00 0.534D+00
 Gap=     0.196 Goal=   None    Shift=    0.000
 RMSDP=1.51D-03 MaxDP=3.97D-02 DE=-9.49D-02 OVMax= 4.72D-02

 Cycle   4  Pass 1  IDiag  1:
 E= -323.461155203592     Delta-E=       -0.013093791147 Rises=F Damp=F
 DIIS: error= 4.78D-03 at cycle   4 NSaved=   4.
 NSaved= 4 IEnMin= 4 EnMin= -323.461155203592     IErMin= 4 ErrMin= 4.78D-03
 ErrMax= 4.78D-03  0.00D+00 EMaxC= 1.00D-01 BMatC= 3.27D-03 BMatP= 1.72D-02
 IDIUse=3 WtCom= 9.52D-01 WtEn= 4.78D-02
 Coeff-Com:  0.182D-01 0.108D+00 0.318D+00 0.556D+00
 Coeff-En:   0.000D+00 0.000D+00 0.170D+00 0.830D+00
 Coeff:      0.173D-01 0.103D+00 0.311D+00 0.569D+00
 Gap=     0.192 Goal=   None    Shift=    0.000
 RMSDP=6.02D-04 MaxDP=1.75D-02 DE=-1.31D-02 OVMax= 1.64D-02

 Cycle   5  Pass 1  IDiag  1:
 E= -323.463783452610     Delta-E=       -0.002628249018 Rises=F Damp=F
 DIIS: error= 8.46D-04 at cycle   5 NSaved=   5.
 NSaved= 5 IEnMin= 5 EnMin= -323.463783452610     IErMin= 5 ErrMin= 8.46D-04
 ErrMax= 8.46D-04  0.00D+00 EMaxC= 1.00D-01 BMatC= 1.83D-04 BMatP= 3.27D-03
 IDIUse=3 WtCom= 9.92D-01 WtEn= 8.46D-03
 Coeff-Com:  0.357D-02 0.185D-01 0.133D+00 0.315D+00 0.530D+00
 Coeff-En:   0.000D+00 0.000D+00 0.000D+00 0.000D+00 0.100D+01
 Coeff:      0.354D-02 0.183D-01 0.132D+00 0.313D+00 0.534D+00
 Gap=     0.191 Goal=   None    Shift=    0.000
 RMSDP=1.41D-04 MaxDP=2.92D-03 DE=-2.63D-03 OVMax= 5.79D-03

 Cycle   6  Pass 1  IDiag  1:
 E= -323.463934835500     Delta-E=       -0.000151382890 Rises=F Damp=F
 DIIS: error= 3.90D-04 at cycle   6 NSaved=   6.
 NSaved= 6 IEnMin= 6 EnMin= -323.463934835500     IErMin= 6 ErrMin= 3.90D-04
 ErrMax= 3.90D-04  0.00D+00 EMaxC= 1.00D-01 BMatC= 2.50D-05 BMatP= 1.83D-04
 IDIUse=3 WtCom= 9.96D-01 WtEn= 3.90D-03
 Coeff-Com:  0.411D-03-0.105D-02 0.389D-01 0.108D+00 0.314D+00 0.540D+00
 Coeff-En:   0.000D+00 0.000D+00 0.000D+00 0.000D+00 0.106D+00 0.894D+00
 Coeff:      0.410D-03-0.105D-02 0.388D-01 0.107D+00 0.313D+00 0.541D+00
 Gap=     0.192 Goal=   None    Shift=    0.000
 RMSDP=4.43D-05 MaxDP=1.16D-03 DE=-1.51D-04 OVMax= 1.98D-03

 Cycle   7  Pass 1  IDiag  1:
 E= -323.463957140625     Delta-E=       -0.000022305126 Rises=F Damp=F
 DIIS: error= 1.12D-04 at cycle   7 NSaved=   7.
 NSaved= 7 IEnMin= 7 EnMin= -323.463957140625     IErMin= 7 ErrMin= 1.12D-04
 ErrMax= 1.12D-04  0.00D+00 EMaxC= 1.00D-01 BMatC= 2.10D-06 BMatP= 2.50D-05
 IDIUse=3 WtCom= 9.99D-01 WtEn= 1.12D-03
 EnCoef did     1 forward-backward iterations
 Coeff-Com: -0.971D-04-0.270D-02 0.106D-01 0.327D-01 0.132D+00 0.309D+00
 Coeff-Com:  0.519D+00
 Coeff-En:   0.000D+00 0.000D+00 0.000D+00 0.000D+00 0.000D+00 0.403D-03
 Coeff-En:   0.100D+01
 Coeff:     -0.970D-04-0.270D-02 0.105D-01 0.327D-01 0.132D+00 0.309D+00
 Coeff:      0.519D+00
 Gap=     0.192 Goal=   None    Shift=    0.000
 RMSDP=1.22D-05 MaxDP=3.31D-04 DE=-2.23D-05 OVMax= 4.89D-04

 Cycle   8  Pass 1  IDiag  1:
 E= -323.463959117519     Delta-E=       -0.000001976894 Rises=F Damp=F
 DIIS: error= 1.35D-05 at cycle   8 NSaved=   8.
 NSaved= 8 IEnMin= 8 EnMin= -323.463959117519     IErMin= 8 ErrMin= 1.35D-05
 ErrMax= 1.35D-05  0.00D+00 EMaxC= 1.00D-01 BMatC= 4.54D-08 BMatP= 2.10D-06
 IDIUse=1 WtCom= 1.00D+00 WtEn= 0.00D+00
 Coeff-Com:  0.312D-04-0.102D-02 0.213D-02 0.650D-02 0.335D-01 0.898D-01
 Coeff-Com:  0.188D+00 0.681D+00
 Coeff:      0.312D-04-0.102D-02 0.213D-02 0.650D-02 0.335D-01 0.898D-01
 Coeff:      0.188D+00 0.681D+00
 Gap=     0.192 Goal=   None    Shift=    0.000
 RMSDP=2.36D-06 MaxDP=6.43D-05 DE=-1.98D-06 OVMax= 7.77D-05

 Cycle   9  Pass 1  IDiag  1:
 E= -323.463959146734     Delta-E=       -0.000000029215 Rises=F Damp=F
 DIIS: error= 8.06D-06 at cycle   9 NSaved=   9.
 NSaved= 9 IEnMin= 9 EnMin= -323.463959146734     IErMin= 9 ErrMin= 8.06D-06
 ErrMax= 8.06D-06  0.00D+00 EMaxC= 1.00D-01 BMatC= 1.28D-08 BMatP= 4.54D-08
 IDIUse=1 WtCom= 1.00D+00 WtEn= 0.00D+00
 Coeff-Com:  0.437D-04-0.249D-03-0.128D-03-0.651D-03 0.138D-02 0.944D-02
 Coeff-Com:  0.331D-01 0.382D+00 0.575D+00
 Coeff:      0.437D-04-0.249D-03-0.128D-03-0.651D-03 0.138D-02 0.944D-02
 Coeff:      0.331D-01 0.382D+00 0.575D+00
 Gap=     0.192 Goal=   None    Shift=    0.000
 RMSDP=8.09D-07 MaxDP=2.93D-05 DE=-2.92D-08 OVMax= 4.59D-05

 Cycle  10  Pass 1  IDiag  1:
 E= -323.463959158394     Delta-E=       -0.000000011659 Rises=F Damp=F
 DIIS: error= 1.00D-06 at cycle  10 NSaved=  10.
 NSaved=10 IEnMin=10 EnMin= -323.463959158394     IErMin=10 ErrMin= 1.00D-06
 ErrMax= 1.00D-06  0.00D+00 EMaxC= 1.00D-01 BMatC= 2.12D-10 BMatP= 1.28D-08
 IDIUse=1 WtCom= 1.00D+00 WtEn= 0.00D+00
 Coeff-Com:  0.111D-04 0.674D-05-0.123D-03-0.532D-03-0.166D-02-0.288D-02
 Coeff-Com: -0.625D-02 0.282D-01 0.124D+00 0.859D+00
 Coeff:      0.111D-04 0.674D-05-0.123D-03-0.532D-03-0.166D-02-0.288D-02
 Coeff:     -0.625D-02 0.282D-01 0.124D+00 0.859D+00
 Gap=     0.192 Goal=   None    Shift=    0.000
 RMSDP=2.61D-07 MaxDP=6.79D-06 DE=-1.17D-08 OVMax= 5.92D-06

 Cycle  11  Pass 1  IDiag  1:
 E= -323.463959158599     Delta-E=       -0.000000000205 Rises=F Damp=F
 DIIS: error= 3.31D-07 at cycle  11 NSaved=  11.
 NSaved=11 IEnMin=11 EnMin= -323.463959158599     IErMin=11 ErrMin= 3.31D-07
 ErrMax= 3.31D-07  0.00D+00 EMaxC= 1.00D-01 BMatC= 2.47D-11 BMatP= 2.12D-10
 IDIUse=1 WtCom= 1.00D+00 WtEn= 0.00D+00
 Coeff-Com:  0.489D-05 0.938D-05-0.618D-04-0.275D-03-0.936D-03-0.177D-02
 Coeff-Com: -0.424D-02 0.446D-02 0.522D-01 0.456D+00 0.494D+00
 Coeff:      0.489D-05 0.938D-05-0.618D-04-0.275D-03-0.936D-03-0.177D-02
 Coeff:     -0.424D-02 0.446D-02 0.522D-01 0.456D+00 0.494D+00
 Gap=     0.192 Goal=   None    Shift=    0.000
 RMSDP=5.39D-08 MaxDP=1.49D-06 DE=-2.05D-10 OVMax= 2.69D-06

 Cycle  12  Pass 1  IDiag  1:
 E= -323.463959158624     Delta-E=       -0.000000000025 Rises=F Damp=F
 DIIS: error= 1.07D-07 at cycle  12 NSaved=  12.
 NSaved=12 IEnMin=12 EnMin= -323.463959158624     IErMin=12 ErrMin= 1.07D-07
 ErrMax= 1.07D-07  0.00D+00 EMaxC= 1.00D-01 BMatC= 2.00D-12 BMatP= 2.47D-11
 IDIUse=1 WtCom= 1.00D+00 WtEn= 0.00D+00
 Coeff-Com:  0.146D-06 0.262D-05-0.254D-05-0.230D-04-0.101D-03-0.207D-03
 Coeff-Com: -0.645D-03-0.383D-02-0.164D-04 0.372D-01 0.222D+00 0.746D+00
 Coeff:      0.146D-06 0.262D-05-0.254D-05-0.230D-04-0.101D-03-0.207D-03
 Coeff:     -0.645D-03-0.383D-02-0.164D-04 0.372D-01 0.222D+00 0.746D+00
 Gap=     0.192 Goal=   None    Shift=    0.000
 RMSDP=1.62D-08 MaxDP=4.97D-07 DE=-2.48D-11 OVMax= 1.02D-06

 Cycle  13  Pass 1  IDiag  1:
 E= -323.463959158629     Delta-E=       -0.000000000005 Rises=F Damp=F
 DIIS: error= 2.81D-08 at cycle  13 NSaved=  13.
 NSaved=13 IEnMin=13 EnMin= -323.463959158629     IErMin=13 ErrMin= 2.81D-08
 ErrMax= 2.81D-08  0.00D+00 EMaxC= 1.00D-01 BMatC= 1.95D-13 BMatP= 2.00D-12
 IDIUse=1 WtCom= 1.00D+00 WtEn= 0.00D+00
 Coeff-Com: -0.890D-07 0.107D-05 0.143D-05-0.122D-05-0.166D-04-0.383D-04
 Coeff-Com: -0.171D-03-0.234D-02-0.224D-02 0.304D-03 0.952D-01 0.401D+00
 Coeff-Com:  0.508D+00
 Coeff:     -0.890D-07 0.107D-05 0.143D-05-0.122D-05-0.166D-04-0.383D-04
 Coeff:     -0.171D-03-0.234D-02-0.224D-02 0.304D-03 0.952D-01 0.401D+00
 Coeff:      0.508D+00
 Gap=     0.192 Goal=   None    Shift=    0.000
 RMSDP=3.99D-09 MaxDP=1.06D-07 DE=-5.00D-12 OVMax= 1.45D-07

 Error on total polarization charges =  0.00554
 SCF Done:  E(RB3LYP) =  -323.463959159     A.U. after   13 cycles
            NFock= 13  Conv=0.40D-08     -V/T= 2.0051
 KE= 3.218359752789D+02 PE=-1.290192906304D+03 EE= 3.770114792463D+02
 Leave Link  502 at Fri Sep 22 16:35:35 2023, MaxMem=   536870912 cpu:              68.7 elap:              17.6
 (Enter /share/apps/gaussian/g16/l601.exe)
 Copying SCF densities to generalized density rwf, IOpCl= 0 IROHF=0.

 **********************************************************************

            Population analysis using the SCF density.

 **********************************************************************

 Orbital symmetries:
       Occupied  (A) (A) (A) (A) (A) (A) (A) (A) (A) (A) (A) (A)
                 (A) (A) (A) (A) (A) (A) (A) (A) (A) (A) (A) (A)
                 (A)
       Virtual   (A) (A) (A) (A) (A) (A) (A) (A) (A) (A) (A) (A)
                 (A) (A) (A) (A) (A) (A) (A) (A) (A) (A) (A) (A)
                 (A) (A) (A) (A) (A) (A) (A) (A) (A) (A) (A) (A)
                 (A) (A) (A) (A) (A) (A) (A) (A) (A) (A) (A) (A)
                 (A) (A) (A) (A) (A) (A) (A) (A) (A) (A) (A) (A)
                 (A) (A) (A) (A) (A) (A) (A) (A) (A) (A) (A) (A)
                 (A) (A) (A) (A) (A) (A) (A) (A) (A) (A) (A) (A)
                 (A) (A) (A) (A) (A) (A) (A) (A) (A) (A) (A) (A)
                 (A) (A)
 The electronic state is 1-A.
 Alpha  occ. eigenvalues --  -19.11435 -14.38758 -10.26424 -10.22711 -10.21656
 Alpha  occ. eigenvalues --  -10.17995 -10.17632  -1.04246  -0.99384  -0.80329
 Alpha  occ. eigenvalues --   -0.74976  -0.65819  -0.60228  -0.57258  -0.53524
 Alpha  occ. eigenvalues --   -0.47962  -0.45183  -0.43975  -0.43000  -0.41719
 Alpha  occ. eigenvalues --   -0.39628  -0.38055  -0.27035  -0.26044  -0.24203
 Alpha virt. eigenvalues --   -0.05047   0.00967   0.03723   0.06840   0.08048
 Alpha virt. eigenvalues --    0.08901   0.10576   0.11775   0.18450   0.19161
 Alpha virt. eigenvalues --    0.22156   0.25166   0.29340   0.31356   0.34497
 Alpha virt. eigenvalues --    0.39745   0.41032   0.44563   0.46069   0.46731
 Alpha virt. eigenvalues --    0.47615   0.47924   0.50476   0.51652   0.52993
 Alpha virt. eigenvalues --    0.59459   0.60984   0.62328   0.64148   0.66193
 Alpha virt. eigenvalues --    0.67876   0.69518   0.70951   0.71130   0.79856
 Alpha virt. eigenvalues --    0.85053   0.88084   0.91121   0.92195   0.94349
 Alpha virt. eigenvalues --    0.98778   1.05352   1.09114   1.09491   1.11008
 Alpha virt. eigenvalues --    1.21198   1.30179   1.33143   1.34855   1.37995
 Alpha virt. eigenvalues --    1.39888   1.44515   1.48849   1.67006   1.71196
 Alpha virt. eigenvalues --    1.75574   1.77037   1.78870   1.81333   1.83152
 Alpha virt. eigenvalues --    1.86419   1.88998   1.89740   1.95034   1.98151
 Alpha virt. eigenvalues --    2.02863   2.06383   2.10089   2.12983   2.14293
 Alpha virt. eigenvalues --    2.16238   2.19561   2.25210   2.26342   2.29748
 Alpha virt. eigenvalues --    2.32314   2.34413   2.38440   2.41407   2.44123
 Alpha virt. eigenvalues --    2.49338   2.54172   2.59190   2.63691   2.66617
 Alpha virt. eigenvalues --    2.75486   2.76019   2.84469   2.85189   2.91557
 Alpha virt. eigenvalues --    2.97454   3.05847   3.11924   3.16310   3.26396
 Alpha virt. eigenvalues --    3.38213   3.58611   3.69795
          Condensed to atoms (all electrons):
               1          2          3          4          5          6
     1  C    5.859193   0.209899   0.426180   0.375920  -0.080251  -0.084226
     2  C    0.209899   4.461133  -0.060300  -0.056171   0.003902   0.012925
     3  C    0.426180  -0.060300   4.897208  -0.130548   0.392207  -0.163059
     4  C    0.375920  -0.056171  -0.130548   4.979175  -0.070616   0.540874
     5  N   -0.080251   0.003902   0.392207  -0.070616   6.483206   0.357196
     6  C   -0.084226   0.012925  -0.163059   0.540874   0.357196   4.832235
     7  H   -0.055500  -0.014809   0.016300   0.437592   0.004227  -0.046052
     8  H   -0.153117   0.439867  -0.005979   0.015911  -0.000059  -0.000730
     9  O   -0.112752   0.649646   0.004215   0.009437  -0.000064   0.000482
    10  H   -0.041079  -0.006669   0.425780   0.008038  -0.031867   0.002600
    11  H    0.008147   0.000084  -0.024001   0.007747   0.367036  -0.025948
    12  H    0.006782  -0.000255   0.005435  -0.035745  -0.034629   0.414354
               7          8          9         10         11         12
     1  C   -0.055500  -0.153117  -0.112752  -0.041079   0.008147   0.006782
     2  C   -0.014809   0.439867   0.649646  -0.006669   0.000084  -0.000255
     3  C    0.016300  -0.005979   0.004215   0.425780  -0.024001   0.005435
     4  C    0.437592   0.015911   0.009437   0.008038   0.007747  -0.035745
     5  N    0.004227  -0.000059  -0.000064  -0.031867   0.367036  -0.034629
     6  C   -0.046052  -0.000730   0.000482   0.002600  -0.025948   0.414354
     7  H    0.604701   0.001050   0.010276   0.000054  -0.000119  -0.005259
     8  H    0.001050   0.713372  -0.054812   0.001696   0.000097   0.000004
     9  O    0.010276  -0.054812   7.878693   0.000065   0.000010  -0.000008
    10  H    0.000054   0.001696   0.000065   0.561724  -0.004256  -0.000132
    11  H   -0.000119   0.000097   0.000010  -0.004256   0.462963  -0.004297
    12  H   -0.005259   0.000004  -0.000008  -0.000132  -0.004297   0.560951
 Mulliken charges:
               1
     1  C   -0.359197
     2  C    0.360748
     3  C    0.216563
     4  C   -0.081614
     5  N   -0.390288
     6  C    0.159350
     7  H    0.047538
     8  H    0.042701
     9  O   -0.385185
    10  H    0.084046
    11  H    0.212538
    12  H    0.092801
 Sum of Mulliken charges =  -0.00000
 Mulliken charges with hydrogens summed into heavy atoms:
               1
     1  C   -0.359197
     2  C    0.403448
     3  C    0.300609
     4  C   -0.034076
     5  N   -0.177750
     6  C    0.252150
     9  O   -0.385185
 Electronic spatial extent (au):  <R**2>=            719.7332
 Charge=              0.0000 electrons
 Dipole moment (field-independent basis, Debye):
    X=              5.7598    Y=             -2.4812    Z=              0.5991  Tot=              6.3001
 Quadrupole moment (field-independent basis, Debye-Ang):
   XX=            -41.1907   YY=            -34.8069   ZZ=            -43.7446
   XY=              1.8448   XZ=              0.2530   YZ=              0.0926
 Traceless Quadrupole moment (field-independent basis, Debye-Ang):
   XX=             -1.2766   YY=              5.1072   ZZ=             -3.8305
   XY=              1.8448   XZ=              0.2530   YZ=              0.0926
 Octapole moment (field-independent basis, Debye-Ang**2):
  XXX=             59.7970  YYY=             -3.4937  ZZZ=              0.1626  XYY=              5.0989
  XXY=            -13.3392  XXZ=              4.8229  XZZ=             -4.4540  YZZ=             -1.0386
  YYZ=             -0.1882  XYZ=             -0.7088
 Hexadecapole moment (field-independent basis, Debye-Ang**3):
 XXXX=           -661.7764 YYYY=           -198.9186 ZZZZ=            -49.6303 XXXY=              0.4671
 XXXZ=              7.5275 YYYX=             -5.5019 YYYZ=              2.0114 ZZZX=              1.1100
 ZZZY=             -0.2468 XXYY=           -128.7566 XXZZ=           -120.7995 YYZZ=            -50.2633
 XXYZ=             -2.5829 YYXZ=             -0.0732 ZZXY=             -3.2400
 N-N= 2.678814926201D+02 E-N=-1.290192907523D+03  KE= 3.218359752789D+02
 There are a total of      267652 grid points.
 ElSum from          density=       50.0000002202
 ElSum from atomic densities=       49.9999990378
 Hirshfeld populations at iteration   1 (CA, CB, DipXYZ):
               1          2          3          4          5
     1  C    3.031000   3.031000  -0.070050  -0.015511   0.002024
     2  C    2.940838   2.940838   0.013257  -0.038690   0.012655
     3  C    3.000342   3.000342   0.074620  -0.064560  -0.007184
     4  C    3.038665   3.038665  -0.057650   0.059050  -0.000139
     5  N    3.515632   3.515632   0.041050  -0.012913   0.033440
     6  C    3.009360   3.009360   0.110849  -0.022428   0.002923
     7  H    0.476489   0.476489  -0.066526   0.144016   0.005450
     8  H    0.483356   0.483356  -0.022915  -0.119671   0.027952
     9  O    4.141055   4.141055   0.131461  -0.098345   0.017258
    10  H    0.469802   0.469802  -0.018052  -0.165841  -0.024632
    11  H    0.422338   0.422338   0.182088  -0.087637   0.044878
    12  H    0.471122   0.471122   0.108233   0.129788   0.000413
       Tot  25.000000  25.000000   0.426364  -0.292744   0.115041

 Dip from Atomic Chgs              1.839716  -0.683434   0.120681
         Total Dipole              2.266079  -0.976178   0.235722

 Hirshfeld charges, spin densities, dipoles, and CM5 charges using IRadAn=      5:
              Q-H        S-H        Dx         Dy         Dz        Q-CM5   
     1  C   -0.062001   0.000000  -0.070050  -0.015511   0.002024  -0.061667
     2  C    0.118323   0.000000   0.013257  -0.038690   0.012655   0.107292
     3  C   -0.000685   0.000000   0.074620  -0.064560  -0.007184   0.011405
     4  C   -0.077330   0.000000  -0.057650   0.059050  -0.000139  -0.120969
     5  N   -0.031264   0.000000   0.041050  -0.012913   0.033440  -0.373216
     6  C   -0.018721   0.000000   0.110849  -0.022428   0.002923  -0.009887
     7  H    0.047022   0.000000  -0.066526   0.144016   0.005450   0.104397
     8  H    0.033289   0.000000  -0.022915  -0.119671   0.027952   0.094753
     9  O   -0.282110   0.000000   0.131461  -0.098345   0.017258  -0.333030
    10  H    0.060396   0.000000  -0.018052  -0.165841  -0.024632   0.124846
    11  H    0.155324   0.000000   0.182088  -0.087637   0.044878   0.336603
    12  H    0.057757   0.000000   0.108233   0.129788   0.000413   0.119473
       Tot  -0.000000   0.000000   0.426364  -0.292744   0.115041  -0.000000
 Hirshfeld charges with hydrogens summed into heavy atoms:
              Q-H       Q-CM5   
     1  C   -0.062001  -0.061667
     2  C    0.151612   0.202045
     3  C    0.059711   0.136251
     4  C   -0.030308  -0.016571
     5  N    0.124059  -0.036613
     6  C    0.039036   0.109585
     9  O   -0.282110  -0.333030
 
 EQQ= 0.000000000000E+00 EQD= 0.000000000000E+00 EDD= 0.644338284729E-02
 EQQ+QD+DD= 0.644338284729E-02
 
 No NMR shielding tensors so no spin-rotation constants.
 Leave Link  601 at Fri Sep 22 16:35:36 2023, MaxMem=   536870912 cpu:               3.2 elap:               0.9
 (Enter /share/apps/gaussian/g16/l9999.exe)
 1\1\GINC-NODE74\SP\RB3LYP\Gen\C5H5N1O1\YANZ\22-Sep-2023\0\\#p b3lyp/ge
 n scrf=(cpcm,solvent=toluene) pop=hirshfeld empiricaldispersion=gd3bj\
 \tmpdir/M3_conf_0_175.gjf\\0,1\C,0,0.,0.,0.\C,0,1.4629,0.,0.\C,0,-0.86
 896,0.,-1.09283\C,0,-0.7941,0.1308,1.17537\N,0,-2.15433,0.1445,-0.6030
 1\C,0,-2.10974,0.23296,0.79475\H,0,-0.42139,0.166,2.19214\H,0,1.88949,
 0.19411,-1.00422\O,0,2.15311,-0.17326,0.99379\H,0,-0.61129,-0.20037,-2
 .10973\H,0,-2.95748,0.4025,-1.19749\H,0,-2.96757,0.32938,1.44543\\Vers
 ion=ES64L-G16RevA.03\State=1-A\HF=-323.4639592\RMSD=3.990e-09\Dipole=-
 2.0423065,0.3447993,-1.3615346\Quadrupole=-0.3938889,-2.7826338,3.1765
 228,-0.4568084,-2.0663898,0.4037573\PG=C01 [X(C5H5N1O1)]\\@


 Until you make peace with who you are,
 you'll never be content with what you have.
                           -- Doris Mortman
 Job cpu time:       0 days  0 hours  1 minutes 17.6 seconds.
 Elapsed time:       0 days  0 hours  0 minutes 20.0 seconds.
 File lengths (MBytes):  RWF=     22 Int=      0 D2E=      0 Chk=      2 Scr=      1
 Normal termination of Gaussian 16 at Fri Sep 22 16:35:36 2023.
