 Entering Gaussian System, Link 0=g16
 Initial command:
 /share/apps/gaussian/g16/l1.exe "/tmp/55557.mgr/Gau-212787.inp" -scrdir="/tmp/55557.mgr/"
 Entering Link 1 = /share/apps/gaussian/g16/l1.exe PID=    212791.
  
 Copyright (c) 1988,1990,1992,1993,1995,1998,2003,2009,2016,
            Gaussian, Inc.  All Rights Reserved.
  
 This is part of the Gaussian(R) 16 program.  It is based on
 the Gaussian(R) 09 system (copyright 2009, Gaussian, Inc.),
 the Gaussian(R) 03 system (copyright 2003, Gaussian, Inc.),
 the Gaussian(R) 98 system (copyright 1998, Gaussian, Inc.),
 the Gaussian(R) 94 system (copyright 1995, Gaussian, Inc.),
 the Gaussian 92(TM) system (copyright 1992, Gaussian, Inc.),
 the Gaussian 90(TM) system (copyright 1990, Gaussian, Inc.),
 the Gaussian 88(TM) system (copyright 1988, Gaussian, Inc.),
 the Gaussian 86(TM) system (copyright 1986, Carnegie Mellon
 University), and the Gaussian 82(TM) system (copyright 1983,
 Carnegie Mellon University). Gaussian is a federally registered
 trademark of Gaussian, Inc.
  
 This software contains proprietary and confidential information,
 including trade secrets, belonging to Gaussian, Inc.
  
 This software is provided under written license and may be
 used, copied, transmitted, or stored only in accord with that
 written license.
  
 The following legend is applicable only to US Government
 contracts under FAR:
  
                    RESTRICTED RIGHTS LEGEND
  
 Use, reproduction and disclosure by the US Government is
 subject to restrictions as set forth in subparagraphs (a)
 and (c) of the Commercial Computer Software - Restricted
 Rights clause in FAR 52.227-19.
  
 Gaussian, Inc.
 340 Quinnipiac St., Bldg. 40, Wallingford CT 06492
  
  
 ---------------------------------------------------------------
 Warning -- This program may not be used in any manner that
 competes with the business of Gaussian, Inc. or will provide
 assistance to any competitor of Gaussian, Inc.  The licensee
 of this program is prohibited from giving any competitor of
 Gaussian, Inc. access to this program.  By using this program,
 the user acknowledges that Gaussian, Inc. is engaged in the
 business of creating and licensing software in the field of
 computational chemistry and represents and warrants to the
 licensee that it is not a competitor of Gaussian, Inc. and that
 it will not use this program in any manner prohibited above.
 ---------------------------------------------------------------
  

 Cite this work as:
 Gaussian 16, Revision A.03,
 M. J. Frisch, G. W. Trucks, H. B. Schlegel, G. E. Scuseria, 
 M. A. Robb, J. R. Cheeseman, G. Scalmani, V. Barone, 
 G. A. Petersson, H. Nakatsuji, X. Li, M. Caricato, A. V. Marenich, 
 J. Bloino, B. G. Janesko, R. Gomperts, B. Mennucci, H. P. Hratchian, 
 J. V. Ortiz, A. F. Izmaylov, J. L. Sonnenberg, D. Williams-Young, 
 F. Ding, F. Lipparini, F. Egidi, J. Goings, B. Peng, A. Petrone, 
 T. Henderson, D. Ranasinghe, V. G. Zakrzewski, J. Gao, N. Rega, 
 G. Zheng, W. Liang, M. Hada, M. Ehara, K. Toyota, R. Fukuda, 
 J. Hasegawa, M. Ishida, T. Nakajima, Y. Honda, O. Kitao, H. Nakai, 
 T. Vreven, K. Throssell, J. A. Montgomery, Jr., J. E. Peralta, 
 F. Ogliaro, M. J. Bearpark, J. J. Heyd, E. N. Brothers, K. N. Kudin, 
 V. N. Staroverov, T. A. Keith, R. Kobayashi, J. Normand, 
 K. Raghavachari, A. P. Rendell, J. C. Burant, S. S. Iyengar, 
 J. Tomasi, M. Cossi, J. M. Millam, M. Klene, C. Adamo, R. Cammi, 
 J. W. Ochterski, R. L. Martin, K. Morokuma, O. Farkas, 
 J. B. Foresman, and D. J. Fox, Gaussian, Inc., Wallingford CT, 2016.
 
 ******************************************
 Gaussian 16:  ES64L-G16RevA.03 25-Dec-2016
                22-Sep-2023 
 ******************************************
 %nprocshared=4
 Will use up to    4 processors via shared memory.
 %mem=4GB
 ----------------------------------------------------------------------
 #p b3lyp/gen scrf=(cpcm,solvent=toluene) pop=hirshfeld empiricaldisper
 sion=gd3bj
 ----------------------------------------------------------------------
 1/38=1,172=1/1;
 2/12=2,17=6,18=5,40=1/2;
 3/5=7,11=2,25=1,30=1,70=2101,72=13,74=-5,124=41/1,2,3;
 4//1;
 5/5=2,38=5,53=13/2;
 6/7=2,8=2,9=2,10=2,28=1,79=1/1;
 99/5=1,9=1/99;
 Leave Link    1 at Fri Sep 22 16:32:36 2023, MaxMem=   536870912 cpu:               0.1 elap:               0.0
 (Enter /share/apps/gaussian/g16/l101.exe)
 -----------------------
 tmpdir/M3_conf_0_36.gjf
 -----------------------
 Symbolic Z-matrix:
 Charge =  0 Multiplicity = 1
 C                     0.        0.        0. 
 C                     1.5419    0.        0. 
 C                     2.11495   0.        1.4349 
 H                    -0.4499   -0.75423   0.66964 
 H                    -0.34376   0.99862   0.3097 
 H                    -0.33386  -0.13284  -1.03701 
 H                     1.88086   0.94078  -0.55505 
 H                     1.90922  -0.86105  -0.55875 
 H                     1.59581  -0.69157   2.13879 
 H                     3.25348  -0.20782   1.48661 
 H                     1.98452   1.02177   1.80492 
 
 ITRead=  0  0  0  0  0  0  0  0  0  0  0
 MicOpt= -1 -1 -1 -1 -1 -1 -1 -1 -1 -1 -1
 NAtoms=     11 NQM=       11 NQMF=       0 NMMI=      0 NMMIF=      0
                NMic=       0 NMicF=      0.
                    Isotopes and Nuclear Properties:
 (Nuclear quadrupole moments (NQMom) in fm**2, nuclear magnetic moments (NMagM)
  in nuclear magnetons)

  Atom         1           2           3           4           5           6           7           8           9          10
 IAtWgt=          12          12          12           1           1           1           1           1           1           1
 AtmWgt=  12.0000000  12.0000000  12.0000000   1.0078250   1.0078250   1.0078250   1.0078250   1.0078250   1.0078250   1.0078250
 NucSpn=           0           0           0           1           1           1           1           1           1           1
 AtZEff=  -0.0000000  -0.0000000  -0.0000000  -0.0000000  -0.0000000  -0.0000000  -0.0000000  -0.0000000  -0.0000000  -0.0000000
 NQMom=    0.0000000   0.0000000   0.0000000   0.0000000   0.0000000   0.0000000   0.0000000   0.0000000   0.0000000   0.0000000
 NMagM=    0.0000000   0.0000000   0.0000000   2.7928460   2.7928460   2.7928460   2.7928460   2.7928460   2.7928460   2.7928460
 AtZNuc=   6.0000000   6.0000000   6.0000000   1.0000000   1.0000000   1.0000000   1.0000000   1.0000000   1.0000000   1.0000000

  Atom        11
 IAtWgt=           1
 AtmWgt=   1.0078250
 NucSpn=           1
 AtZEff=  -0.0000000
 NQMom=    0.0000000
 NMagM=    2.7928460
 AtZNuc=   1.0000000
 Leave Link  101 at Fri Sep 22 16:32:36 2023, MaxMem=   536870912 cpu:               0.4 elap:               0.1
 (Enter /share/apps/gaussian/g16/l202.exe)
                          Input orientation:                          
 ---------------------------------------------------------------------
 Center     Atomic      Atomic             Coordinates (Angstroms)
 Number     Number       Type             X           Y           Z
 ---------------------------------------------------------------------
      1          6           0        0.000000    0.000000    0.000000
      2          6           0        1.541900    0.000000    0.000000
      3          6           0        2.114950    0.000000    1.434900
      4          1           0       -0.449900   -0.754230    0.669640
      5          1           0       -0.343760    0.998620    0.309700
      6          1           0       -0.333860   -0.132840   -1.037010
      7          1           0        1.880860    0.940780   -0.555050
      8          1           0        1.909220   -0.861050   -0.558750
      9          1           0        1.595810   -0.691570    2.138790
     10          1           0        3.253480   -0.207820    1.486610
     11          1           0        1.984520    1.021770    1.804920
 ---------------------------------------------------------------------
                    Distance matrix (angstroms):
                    1          2          3          4          5
     1  C    0.000000
     2  C    1.541900   0.000000
     3  C    2.555768   1.545097   0.000000
     4  H    1.104396   2.232610   2.780817   0.000000
     5  H    1.100603   2.156124   2.882459   1.792570   0.000000
     6  H    1.097497   2.147443   3.482048   1.819957   1.758956
     7  H    2.175036   1.143696   2.213542   3.131352   2.387482
     8  H    2.167655   1.090198   2.181369   2.661917   3.047704
     9  H    2.756683   2.248466   1.115005   2.519376   3.156619
    10  H    3.583062   2.276555   1.158496   3.831583   3.972499
    11  H    2.870552   2.120769   1.094505   3.220161   2.767148
                    6          7          8          9         10
     6  H    0.000000
     7  H    2.507973   0.000000
     8  H    2.406331   1.802057   0.000000
     9  H    3.757860   3.162688   2.720969   0.000000
    10  H    4.386717   2.715095   2.533228   1.845866   0.000000
    11  H    3.845072   2.363633   3.022849   1.788323   1.795403
                   11
    11  H    0.000000
 Stoichiometry    C3H8
 Framework group  C1[X(C3H8)]
 Deg. of freedom    27
 Full point group                 C1      NOp   1
 Largest Abelian subgroup         C1      NOp   1
 Largest concise Abelian subgroup C1      NOp   1
                         Standard orientation:                         
 ---------------------------------------------------------------------
 Center     Atomic      Atomic             Coordinates (Angstroms)
 Number     Number       Type             X           Y           Z
 ---------------------------------------------------------------------
      1          6           0       -1.277059   -0.276039   -0.005483
      2          6           0       -0.005446    0.595548   -0.033625
      3          6           0        1.278668   -0.263048    0.000840
      4          1           0       -1.267372   -1.109473   -0.730041
      5          1           0       -1.388059   -0.689491    1.008452
      6          1           0       -2.138530    0.385055   -0.164609
      7          1           0       -0.042315    1.278578    0.882973
      8          1           0       -0.016233    1.232536   -0.918307
      9          1           0        1.250457   -1.161583   -0.658763
     10          1           0        2.247417    0.330400   -0.226004
     11          1           0        1.377655   -0.604786    1.035904
 ---------------------------------------------------------------------
 Rotational constants (GHZ):          28.5648330           8.3192182           7.3426774
 Leave Link  202 at Fri Sep 22 16:32:36 2023, MaxMem=   536870912 cpu:               0.1 elap:               0.0
 (Enter /share/apps/gaussian/g16/l301.exe)
 General basis read from cards:  (5D, 7F)
 Centers:       4      5      6      7      8      9     10     11
 S 3 1.00
     Exponent=  1.2251800000D+01 Coefficients=  2.3337100000D-02
     Exponent=  1.8687100000D+00 Coefficients=  1.5915000000D-01
     Exponent=  4.1820800000D-01 Coefficients=  5.0000000000D-01
 S 1 1.00
     Exponent=  1.0610000000D-01 Coefficients=  1.0000000000D+00
 P 1 1.00
     Exponent=  1.0000000000D+00 Coefficients=  1.0000000000D+00
 ****
 Centers:       1      2      3
 S 5 1.00
     Exponent=  1.2432000000D+03 Coefficients=  6.0336600000D-03
     Exponent=  1.8714500000D+02 Coefficients=  4.4957600000D-02
     Exponent=  4.2512600000D+01 Coefficients=  1.9790100000D-01
     Exponent=  1.1739300000D+01 Coefficients=  5.0000000000D-01
     Exponent=  3.5054800000D+00 Coefficients=  4.8036400000D-01
 S 2 1.00
     Exponent=  5.3908900000D+00 Coefficients= -7.0398000000D-02
     Exponent=  4.9334100000D-01 Coefficients=  5.0000000000D-01
 S 1 1.00
     Exponent=  1.4974100000D-01 Coefficients=  1.0000000000D+00
 P 3 1.00
     Exponent=  9.1805600000D+00 Coefficients=  4.3170100000D-02
     Exponent=  1.9365800000D+00 Coefficients=  2.2499900000D-01
     Exponent=  5.2629600000D-01 Coefficients=  5.0000000000D-01
 P 1 1.00
     Exponent=  1.3631900000D-01 Coefficients=  1.0000000000D+00
 D 1 1.00
     Exponent=  8.0000000000D-01 Coefficients=  1.0000000000D+00
 ****
 Ernie: Thresh=  0.10000D-02 Tol=  0.10000D-05 Strict=F.
 There are    85 symmetry adapted cartesian basis functions of A   symmetry.
 There are    82 symmetry adapted basis functions of A   symmetry.
    82 basis functions,   134 primitive gaussians,    85 cartesian basis functions
    13 alpha electrons       13 beta electrons
       nuclear repulsion energy        81.5796881539 Hartrees.
 IExCor=  402 DFT=T Ex+Corr=B3LYP ExCW=0 ScaHFX=  0.200000
 ScaDFX=  0.800000  0.720000  1.000000  0.810000 ScalE2=  1.000000  1.000000
 IRadAn=      5 IRanWt=     -1 IRanGd=            0 ICorTp=0 IEmpDi=141
 NAtoms=   11 NActive=   11 NUniq=   11 SFac= 1.00D+00 NAtFMM=   60 NAOKFM=F Big=F
 Integral buffers will be    131072 words long.
 Raffenetti 2 integral format.
 Two-electron integral symmetry is turned on.
 R6Disp:  Grimme-D3(BJ) Dispersion energy=       -0.0098556775 Hartrees.
 Nuclear repulsion after empirical dispersion term =       81.5698324764 Hartrees.
 ------------------------------------------------------------------------------
 Polarizable Continuum Model (PCM)
 =================================
 Model                : C-PCM.
 Atomic radii         : UFF (Universal Force Field).
 Polarization charges : Total charges.
 Charge compensation  : None.
 Solution method      : On-the-fly selection.
 Cavity type          : Scaled VdW (van der Waals Surface) (Alpha=1.100).
 Cavity algorithm     : GePol (No added spheres)
                        Default sphere list used, NSphG=   11.
                        Lebedev-Laikov grids with approx.  5.0 points / Ang**2.
                        Smoothing algorithm: York/Karplus (Gamma=1.0000).
                        Polarization charges: spherical gaussians, with
                                              point-specific exponents (IZeta= 3).
                        Self-potential: point-specific (ISelfS= 7).
                        Self-field    : sphere-specific E.n sum rule (ISelfD= 2).
 Solvent              : Toluene, Eps=   2.374100 Eps(inf)=   2.238315
 ------------------------------------------------------------------------------
 Spheres list:
 ISph  on   Nord     Re0    Alpha      Xe            Ye            Ze
    1   C      1    1.9255  1.100     -1.277059     -0.276039     -0.005483
    2   C      2    1.9255  1.100     -0.005446      0.595548     -0.033625
    3   C      3    1.9255  1.100      1.278668     -0.263048      0.000840
    4   H      4    1.4430  1.100     -1.267372     -1.109473     -0.730041
    5   H      5    1.4430  1.100     -1.388059     -0.689491      1.008452
    6   H      6    1.4430  1.100     -2.138530      0.385055     -0.164609
    7   H      7    1.4430  1.100     -0.042315      1.278578      0.882973
    8   H      8    1.4430  1.100     -0.016233      1.232536     -0.918307
    9   H      9    1.4430  1.100      1.250457     -1.161583     -0.658763
   10   H     10    1.4430  1.100      2.247417      0.330400     -0.226004
   11   H     11    1.4430  1.100      1.377655     -0.604786      1.035904
 ------------------------------------------------------------------------------
 GePol: Number of generator spheres                  =      11
 GePol: Total number of spheres                      =      11
 GePol: Number of exposed spheres                    =      11 (100.00%)
 GePol: Number of points                             =     897
 GePol: Average weight of points                     =       0.14
 GePol: Minimum weight of points                     =   0.58D-07
 GePol: Maximum weight of points                     =    0.20577
 GePol: Number of points with low weight             =      50
 GePol: Fraction of low-weight points (<1% of avg)   =       5.57%
 GePol: Cavity surface area                          =    122.368 Ang**2
 GePol: Cavity volume                                =    105.110 Ang**3
 Leave Link  301 at Fri Sep 22 16:32:36 2023, MaxMem=   536870912 cpu:               0.4 elap:               0.1
 (Enter /share/apps/gaussian/g16/l302.exe)
 NPDir=0 NMtPBC=     1 NCelOv=     1 NCel=       1 NClECP=     1 NCelD=      1
         NCelK=      1 NCelE2=     1 NClLst=     1 CellRange=     0.0.
 One-electron integrals computed using PRISM.
 One-electron integral symmetry used in STVInt
 NBasis=    82 RedAO= T EigKep=  6.61D-03  NBF=    82
 NBsUse=    82 1.00D-06 EigRej= -1.00D+00 NBFU=    82
 Precomputing XC quadrature grid using
 IXCGrd= 4 IRadAn=           5 IRanWt=          -1 IRanGd=           0 AccXCQ= 0.00D+00.
 Generated NRdTot=       0 NPtTot=           0 NUsed=           0 NTot=          32
 NSgBfM=    85    85    85    85    85 MxSgAt=    11 MxSgA2=    11.
 Leave Link  302 at Fri Sep 22 16:32:36 2023, MaxMem=   536870912 cpu:               0.5 elap:               0.1
 (Enter /share/apps/gaussian/g16/l303.exe)
 DipDrv:  MaxL=1.
 Leave Link  303 at Fri Sep 22 16:32:36 2023, MaxMem=   536870912 cpu:               0.1 elap:               0.0
 (Enter /share/apps/gaussian/g16/l401.exe)
 ExpMin= 1.06D-01 ExpMax= 1.24D+03 ExpMxC= 1.87D+02 IAcc=3 IRadAn=         5 AccDes= 0.00D+00
 Harris functional with IExCor=  402 and IRadAn=       5 diagonalized for initial guess.
 HarFok:  IExCor=  402 AccDes= 0.00D+00 IRadAn=         5 IDoV= 1 UseB2=F ITyADJ=14
 ICtDFT=  3500011 ScaDFX=  1.000000  1.000000  1.000000  1.000000
 FoFCou: FMM=F IPFlag=           0 FMFlag=      100000 FMFlg1=           0
         NFxFlg=           0 DoJE=T BraDBF=F KetDBF=T FulRan=T
         wScrn=  0.000000 ICntrl=       500 IOpCl=  0 I1Cent=   200000004 NGrid=           0
         NMat0=    1 NMatS0=      1 NMatT0=    0 NMatD0=    1 NMtDS0=    0 NMtDT0=    0
 Petite list used in FoFCou.
 Harris En= -119.171382094890    
 JPrj=0 DoOrth=F DoCkMO=F.
 Leave Link  401 at Fri Sep 22 16:32:37 2023, MaxMem=   536870912 cpu:               2.4 elap:               0.6
 (Enter /share/apps/gaussian/g16/l502.exe)
 Keep R1 ints in memory in canonical form, NReq=9428299.
 FoFCou: FMM=F IPFlag=           0 FMFlag=           0 FMFlg1=           0
         NFxFlg=           0 DoJE=F BraDBF=F KetDBF=F FulRan=T
         wScrn=  0.000000 ICntrl=       600 IOpCl=  0 I1Cent=           0 NGrid=           0
         NMat0=    1 NMatS0=   3403 NMatT0=    0 NMatD0=    1 NMtDS0=    0 NMtDT0=    0
 Symmetry not used in FoFCou.
 Two-electron integral symmetry not used.
 Closed shell SCF:
 Using DIIS extrapolation, IDIIS=  1040.
 NGot=   536870912 LenX=   531062899 LenY=   531055233
 Requested convergence on RMS density matrix=1.00D-08 within 128 cycles.
 Requested convergence on MAX density matrix=1.00D-06.
 Requested convergence on             energy=1.00D-06.
 No special actions if energy rises.

 Cycle   1  Pass 1  IDiag  1:
 Inv3:  Mode=1 IEnd=     2413827.
 Iteration    1 A*A^-1 deviation from unit magnitude is 2.89D-15 for    235.
 Iteration    1 A*A^-1 deviation from orthogonality  is 1.78D-15 for    842    354.
 Iteration    1 A^-1*A deviation from unit magnitude is 2.89D-15 for    235.
 Iteration    1 A^-1*A deviation from orthogonality  is 1.23D-15 for    753    495.
 E= -118.971474064905    
 DIIS: error= 3.16D-02 at cycle   1 NSaved=   1.
 NSaved= 1 IEnMin= 1 EnMin= -118.971474064905     IErMin= 1 ErrMin= 3.16D-02
 ErrMax= 3.16D-02  0.00D+00 EMaxC= 1.00D-01 BMatC= 1.31D-01 BMatP= 1.31D-01
 IDIUse=3 WtCom= 6.84D-01 WtEn= 3.16D-01
 Coeff-Com:  0.100D+01
 Coeff-En:   0.100D+01
 Coeff:      0.100D+01
 Gap=     0.311 Goal=   None    Shift=    0.000
 GapD=    0.311 DampG=1.000 DampE=0.500 DampFc=0.5000 IDamp=-1.
 Damping current iteration by 5.00D-01
 RMSDP=9.38D-03 MaxDP=1.36D-01              OVMax= 1.87D-01

 Cycle   2  Pass 1  IDiag  1:
 E= -119.035708002076     Delta-E=       -0.064233937171 Rises=F Damp=T
 DIIS: error= 7.21D-03 at cycle   2 NSaved=   2.
 NSaved= 2 IEnMin= 2 EnMin= -119.035708002076     IErMin= 2 ErrMin= 7.21D-03
 ErrMax= 7.21D-03  0.00D+00 EMaxC= 1.00D-01 BMatC= 5.03D-03 BMatP= 1.31D-01
 IDIUse=3 WtCom= 9.28D-01 WtEn= 7.21D-02
 Coeff-Com:  0.115D+00 0.885D+00
 Coeff-En:   0.188D+00 0.812D+00
 Coeff:      0.120D+00 0.880D+00
 Gap=     0.383 Goal=   None    Shift=    0.000
 RMSDP=1.44D-03 MaxDP=1.70D-02 DE=-6.42D-02 OVMax= 1.11D-01

 Cycle   3  Pass 1  IDiag  1:
 E= -119.125715553639     Delta-E=       -0.090007551563 Rises=F Damp=F
 DIIS: error= 1.95D-03 at cycle   3 NSaved=   3.
 NSaved= 3 IEnMin= 3 EnMin= -119.125715553639     IErMin= 3 ErrMin= 1.95D-03
 ErrMax= 1.95D-03  0.00D+00 EMaxC= 1.00D-01 BMatC= 4.04D-04 BMatP= 5.03D-03
 IDIUse=3 WtCom= 9.80D-01 WtEn= 1.95D-02
 Coeff-Com:  0.181D-01 0.198D+00 0.784D+00
 Coeff-En:   0.000D+00 0.000D+00 0.100D+01
 Coeff:      0.177D-01 0.194D+00 0.788D+00
 Gap=     0.369 Goal=   None    Shift=    0.000
 RMSDP=3.00D-04 MaxDP=4.93D-03 DE=-9.00D-02 OVMax= 6.09D-03

 Cycle   4  Pass 1  IDiag  1:
 E= -119.126006539463     Delta-E=       -0.000290985823 Rises=F Damp=F
 DIIS: error= 6.90D-04 at cycle   4 NSaved=   4.
 NSaved= 4 IEnMin= 4 EnMin= -119.126006539463     IErMin= 4 ErrMin= 6.90D-04
 ErrMax= 6.90D-04  0.00D+00 EMaxC= 1.00D-01 BMatC= 9.57D-05 BMatP= 4.04D-04
 IDIUse=3 WtCom= 9.93D-01 WtEn= 6.90D-03
 Coeff-Com:  0.173D-02 0.334D-01 0.333D+00 0.632D+00
 Coeff-En:   0.000D+00 0.000D+00 0.982D-01 0.902D+00
 Coeff:      0.172D-02 0.332D-01 0.331D+00 0.634D+00
 Gap=     0.370 Goal=   None    Shift=    0.000
 RMSDP=1.15D-04 MaxDP=2.94D-03 DE=-2.91D-04 OVMax= 2.81D-03

 Cycle   5  Pass 1  IDiag  1:
 E= -119.126091039775     Delta-E=       -0.000084500312 Rises=F Damp=F
 DIIS: error= 2.21D-04 at cycle   5 NSaved=   5.
 NSaved= 5 IEnMin= 5 EnMin= -119.126091039775     IErMin= 5 ErrMin= 2.21D-04
 ErrMax= 2.21D-04  0.00D+00 EMaxC= 1.00D-01 BMatC= 9.13D-06 BMatP= 9.57D-05
 IDIUse=3 WtCom= 9.98D-01 WtEn= 2.21D-03
 Coeff-Com: -0.621D-03-0.358D-02 0.723D-01 0.287D+00 0.644D+00
 Coeff-En:   0.000D+00 0.000D+00 0.000D+00 0.000D+00 0.100D+01
 Coeff:     -0.620D-03-0.357D-02 0.722D-01 0.287D+00 0.645D+00
 Gap=     0.370 Goal=   None    Shift=    0.000
 RMSDP=3.14D-05 MaxDP=7.47D-04 DE=-8.45D-05 OVMax= 8.34D-04

 Cycle   6  Pass 1  IDiag  1:
 E= -119.126100042901     Delta-E=       -0.000009003126 Rises=F Damp=F
 DIIS: error= 1.85D-05 at cycle   6 NSaved=   6.
 NSaved= 6 IEnMin= 6 EnMin= -119.126100042901     IErMin= 6 ErrMin= 1.85D-05
 ErrMax= 1.85D-05  0.00D+00 EMaxC= 1.00D-01 BMatC= 2.90D-08 BMatP= 9.13D-06
 IDIUse=1 WtCom= 1.00D+00 WtEn= 0.00D+00
 Coeff-Com: -0.846D-04-0.128D-02 0.127D-01 0.584D-01 0.153D+00 0.777D+00
 Coeff:     -0.846D-04-0.128D-02 0.127D-01 0.584D-01 0.153D+00 0.777D+00
 Gap=     0.370 Goal=   None    Shift=    0.000
 RMSDP=2.80D-06 MaxDP=3.44D-05 DE=-9.00D-06 OVMax= 5.32D-05

 Cycle   7  Pass 1  IDiag  1:
 E= -119.126100075045     Delta-E=       -0.000000032144 Rises=F Damp=F
 DIIS: error= 2.34D-06 at cycle   7 NSaved=   7.
 NSaved= 7 IEnMin= 7 EnMin= -119.126100075045     IErMin= 7 ErrMin= 2.34D-06
 ErrMax= 2.34D-06  0.00D+00 EMaxC= 1.00D-01 BMatC= 4.00D-10 BMatP= 2.90D-08
 IDIUse=1 WtCom= 1.00D+00 WtEn= 0.00D+00
 Coeff-Com:  0.344D-04-0.196D-04-0.114D-02-0.385D-02-0.584D-02 0.791D-01
 Coeff-Com:  0.932D+00
 Coeff:      0.344D-04-0.196D-04-0.114D-02-0.385D-02-0.584D-02 0.791D-01
 Coeff:      0.932D+00
 Gap=     0.370 Goal=   None    Shift=    0.000
 RMSDP=3.59D-07 MaxDP=4.17D-06 DE=-3.21D-08 OVMax= 7.12D-06

 Cycle   8  Pass 1  IDiag  1:
 E= -119.126100075526     Delta-E=       -0.000000000481 Rises=F Damp=F
 DIIS: error= 2.58D-07 at cycle   8 NSaved=   8.
 NSaved= 8 IEnMin= 8 EnMin= -119.126100075526     IErMin= 8 ErrMin= 2.58D-07
 ErrMax= 2.58D-07  0.00D+00 EMaxC= 1.00D-01 BMatC= 9.77D-12 BMatP= 4.00D-10
 IDIUse=1 WtCom= 1.00D+00 WtEn= 0.00D+00
 Coeff-Com:  0.752D-05 0.106D-05-0.345D-03-0.121D-02-0.207D-02 0.151D-01
 Coeff-Com:  0.230D+00 0.758D+00
 Coeff:      0.752D-05 0.106D-05-0.345D-03-0.121D-02-0.207D-02 0.151D-01
 Coeff:      0.230D+00 0.758D+00
 Gap=     0.370 Goal=   None    Shift=    0.000
 RMSDP=5.12D-08 MaxDP=9.87D-07 DE=-4.81D-10 OVMax= 1.14D-06

 Cycle   9  Pass 1  IDiag  1:
 E= -119.126100075533     Delta-E=       -0.000000000007 Rises=F Damp=F
 DIIS: error= 1.75D-07 at cycle   9 NSaved=   9.
 NSaved= 9 IEnMin= 9 EnMin= -119.126100075533     IErMin= 9 ErrMin= 1.75D-07
 ErrMax= 1.75D-07  0.00D+00 EMaxC= 1.00D-01 BMatC= 4.48D-12 BMatP= 9.77D-12
 IDIUse=1 WtCom= 1.00D+00 WtEn= 0.00D+00
 Coeff-Com: -0.639D-06 0.290D-05-0.369D-04-0.142D-03-0.302D-03-0.167D-02
 Coeff-Com:  0.638D-02 0.413D+00 0.583D+00
 Coeff:     -0.639D-06 0.290D-05-0.369D-04-0.142D-03-0.302D-03-0.167D-02
 Coeff:      0.638D-02 0.413D+00 0.583D+00
 Gap=     0.370 Goal=   None    Shift=    0.000
 RMSDP=2.12D-08 MaxDP=4.39D-07 DE=-7.22D-12 OVMax= 5.03D-07

 Cycle  10  Pass 1  IDiag  1:
 E= -119.126100075537     Delta-E=       -0.000000000004 Rises=F Damp=F
 DIIS: error= 5.57D-09 at cycle  10 NSaved=  10.
 NSaved=10 IEnMin=10 EnMin= -119.126100075537     IErMin=10 ErrMin= 5.57D-09
 ErrMax= 5.57D-09  0.00D+00 EMaxC= 1.00D-01 BMatC= 5.32D-15 BMatP= 4.48D-12
 IDIUse=1 WtCom= 1.00D+00 WtEn= 0.00D+00
 Coeff-Com: -0.262D-06 0.413D-06 0.204D-06-0.229D-05-0.166D-04-0.473D-03
 Coeff-Com: -0.286D-02 0.496D-01 0.859D-01 0.868D+00
 Coeff:     -0.262D-06 0.413D-06 0.204D-06-0.229D-05-0.166D-04-0.473D-03
 Coeff:     -0.286D-02 0.496D-01 0.859D-01 0.868D+00
 Gap=     0.370 Goal=   None    Shift=    0.000
 RMSDP=1.30D-09 MaxDP=2.12D-08 DE=-4.09D-12 OVMax= 2.33D-08

 Error on total polarization charges =  0.00622
 SCF Done:  E(RB3LYP) =  -119.126100076     A.U. after   10 cycles
            NFock= 10  Conv=0.13D-08     -V/T= 2.0087
 KE= 1.180972013100D+02 PE=-4.378542032954D+02 EE= 1.190610694334D+02
 Leave Link  502 at Fri Sep 22 16:32:44 2023, MaxMem=   536870912 cpu:              29.4 elap:               7.4
 (Enter /share/apps/gaussian/g16/l601.exe)
 Copying SCF densities to generalized density rwf, IOpCl= 0 IROHF=0.

 **********************************************************************

            Population analysis using the SCF density.

 **********************************************************************

 Orbital symmetries:
       Occupied  (A) (A) (A) (A) (A) (A) (A) (A) (A) (A) (A) (A)
                 (A)
       Virtual   (A) (A) (A) (A) (A) (A) (A) (A) (A) (A) (A) (A)
                 (A) (A) (A) (A) (A) (A) (A) (A) (A) (A) (A) (A)
                 (A) (A) (A) (A) (A) (A) (A) (A) (A) (A) (A) (A)
                 (A) (A) (A) (A) (A) (A) (A) (A) (A) (A) (A) (A)
                 (A) (A) (A) (A) (A) (A) (A) (A) (A) (A) (A) (A)
                 (A) (A) (A) (A) (A) (A) (A) (A) (A)
 The electronic state is 1-A.
 Alpha  occ. eigenvalues --  -10.17559 -10.17127 -10.16564  -0.77752  -0.67681
 Alpha  occ. eigenvalues --   -0.58024  -0.45615  -0.43274  -0.39815  -0.38056
 Alpha  occ. eigenvalues --   -0.34174  -0.33330  -0.32578
 Alpha virt. eigenvalues --    0.04414   0.08118   0.08595   0.08764   0.11518
 Alpha virt. eigenvalues --    0.13683   0.14048   0.14896   0.19045   0.23406
 Alpha virt. eigenvalues --    0.36608   0.38365   0.39753   0.41169   0.42623
 Alpha virt. eigenvalues --    0.56658   0.58237   0.58942   0.60006   0.62650
 Alpha virt. eigenvalues --    0.63413   0.65143   0.65459   0.66249   0.67471
 Alpha virt. eigenvalues --    0.68411   0.70563   0.90869   1.20645   1.24313
 Alpha virt. eigenvalues --    1.25916   1.30938   1.46433   1.57624   1.59451
 Alpha virt. eigenvalues --    1.70762   1.72444   1.78272   1.85488   1.85845
 Alpha virt. eigenvalues --    1.89502   1.90610   1.91376   1.93470   1.95569
 Alpha virt. eigenvalues --    2.05571   2.07303   2.08415   2.14328   2.19207
 Alpha virt. eigenvalues --    2.22463   2.33624   2.43475   2.46592   2.53083
 Alpha virt. eigenvalues --    2.60094   2.60593   2.68159   2.71165   2.76519
 Alpha virt. eigenvalues --    2.79347   2.93150   3.03242   3.08778   3.13772
 Alpha virt. eigenvalues --    3.16635   3.25425   3.27216   3.33118
          Condensed to atoms (all electrons):
               1          2          3          4          5          6
     1  C    4.778922   0.394875  -0.081609   0.400102   0.397890   0.394347
     2  C    0.394875   4.886830   0.385664  -0.034010  -0.037821  -0.026702
     3  C   -0.081609   0.385664   4.816473  -0.007022  -0.003280   0.009445
     4  H    0.400102  -0.034010  -0.007022   0.590419  -0.027481  -0.023040
     5  H    0.397890  -0.037821  -0.003280  -0.027481   0.613822  -0.026257
     6  H    0.394347  -0.026702   0.009445  -0.023040  -0.026257   0.599029
     7  H   -0.033658   0.390989  -0.031338   0.009147  -0.013488  -0.002767
     8  H   -0.035423   0.399061  -0.038283  -0.004828   0.010713  -0.009829
     9  H   -0.007909  -0.034374   0.399970   0.006928  -0.001478   0.000431
    10  H    0.008173  -0.024083   0.388417   0.000288  -0.000255  -0.000443
    11  H   -0.002717  -0.040867   0.396160  -0.001475   0.005498  -0.000338
               7          8          9         10         11
     1  C   -0.033658  -0.035423  -0.007909   0.008173  -0.002717
     2  C    0.390989   0.399061  -0.034374  -0.024083  -0.040867
     3  C   -0.031338  -0.038283   0.399970   0.388417   0.396160
     4  H    0.009147  -0.004828   0.006928   0.000288  -0.001475
     5  H   -0.013488   0.010713  -0.001478  -0.000255   0.005498
     6  H   -0.002767  -0.009829   0.000431  -0.000443  -0.000338
     7  H    0.630268  -0.034545   0.008312  -0.001443  -0.014461
     8  H   -0.034545   0.626093  -0.003620  -0.008859   0.010905
     9  H    0.008312  -0.003620   0.593151  -0.025792  -0.026570
    10  H   -0.001443  -0.008859  -0.025792   0.597244  -0.026594
    11  H   -0.014461   0.010905  -0.026570  -0.026594   0.618433
 Mulliken charges:
               1
     1  C   -0.212993
     2  C   -0.259563
     3  C   -0.234597
     4  H    0.090973
     5  H    0.082137
     6  H    0.086123
     7  H    0.092981
     8  H    0.088615
     9  H    0.090951
    10  H    0.093347
    11  H    0.082026
 Sum of Mulliken charges =  -0.00000
 Mulliken charges with hydrogens summed into heavy atoms:
               1
     1  C    0.046240
     2  C   -0.077967
     3  C    0.031726
 Electronic spatial extent (au):  <R**2>=            231.1849
 Charge=             -0.0000 electrons
 Dipole moment (field-independent basis, Debye):
    X=             -0.0703    Y=              0.0461    Z=              0.0581  Tot=              0.1022
 Quadrupole moment (field-independent basis, Debye-Ang):
   XX=            -22.8619   YY=            -22.2295   ZZ=            -21.7884
   XY=             -0.1370   XZ=             -0.0659   YZ=              0.2295
 Traceless Quadrupole moment (field-independent basis, Debye-Ang):
   XX=             -0.5686   YY=              0.0638   ZZ=              0.5048
   XY=             -0.1370   XZ=             -0.0659   YZ=              0.2295
 Octapole moment (field-independent basis, Debye-Ang**2):
  XXX=              0.0596  YYY=             -0.3685  ZZZ=              0.7804  XYY=             -0.3180
  XXY=              1.6076  XXZ=             -0.2542  XZZ=             -0.2500  YZZ=             -0.1053
  YYZ=             -0.6818  XYZ=             -0.0037
 Hexadecapole moment (field-independent basis, Debye-Ang**3):
 XXXX=           -212.6347 YYYY=            -74.5550 ZZZZ=            -45.4981 XXXY=             -0.3406
 XXXZ=             -0.5824 YYYX=             -0.4018 YYYZ=              1.2607 ZZZX=              0.1441
 ZZZY=             -0.2295 XXYY=            -47.3470 XXZZ=            -43.6136 YYZZ=            -18.5681
 XXYZ=             -0.1486 YYXZ=             -0.0987 ZZXY=              0.0326
 N-N= 8.156983247642D+01 E-N=-4.378542030394D+02  KE= 1.180972013100D+02
 There are a total of      243782 grid points.
 ElSum from          density=       25.9999977649
 ElSum from atomic densities=       25.9999963768
 Hirshfeld populations at iteration   1 (CA, CB, DipXYZ):
               1          2          3          4          5
     1  C    3.040239   3.040239   0.027868   0.011452  -0.013372
     2  C    3.017731   3.017731  -0.000339  -0.037647   0.002621
     3  C    3.039115   3.039115  -0.033933   0.018749  -0.017928
     4  H    0.485952   0.485952   0.001621  -0.100679  -0.087213
     5  H    0.488366   0.488366  -0.010313  -0.041907   0.123544
     6  H    0.486932   0.486932  -0.099812   0.089615  -0.015903
     7  H    0.487112   0.487112  -0.008335   0.069614   0.106630
     8  H    0.490335   0.490335  -0.003312   0.072195  -0.109524
     9  H    0.486660   0.486660  -0.002547  -0.108265  -0.077172
    10  H    0.487725   0.487725   0.107088   0.067540  -0.022370
    11  H    0.489832   0.489832   0.005162  -0.034113   0.127572
       Tot  12.999999  12.999999  -0.016852   0.006554   0.016885

 Dip from Atomic Chgs             -0.010798   0.011575   0.005990
         Total Dipole             -0.027650   0.018129   0.022875

 Hirshfeld charges, spin densities, dipoles, and CM5 charges using IRadAn=      5:
              Q-H        S-H        Dx         Dy         Dz        Q-CM5   
     1  C   -0.080478   0.000000   0.027868   0.011452  -0.013372  -0.228062
     2  C   -0.035463   0.000000  -0.000339  -0.037647   0.002621  -0.143774
     3  C   -0.078231   0.000000  -0.033933   0.018749  -0.017928  -0.218317
     4  H    0.028097   0.000000   0.001621  -0.100679  -0.087213   0.077759
     5  H    0.023269   0.000000  -0.010313  -0.041907   0.123544   0.073793
     6  H    0.026135   0.000000  -0.099812   0.089615  -0.015903   0.076654
     7  H    0.025777   0.000000  -0.008335   0.069614   0.106630   0.073836
     8  H    0.019331   0.000000  -0.003312   0.072195  -0.109524   0.073616
     9  H    0.026681   0.000000  -0.002547  -0.108265  -0.077172   0.075084
    10  H    0.024549   0.000000   0.107088   0.067540  -0.022370   0.067515
    11  H    0.020336   0.000000   0.005162  -0.034113   0.127572   0.071897
       Tot   0.000002   0.000000  -0.016852   0.006554   0.016885   0.000002
 Hirshfeld charges with hydrogens summed into heavy atoms:
              Q-H       Q-CM5   
     1  C   -0.002978   0.000144
     2  C    0.009645   0.003679
     3  C   -0.006665  -0.003821
 
 EQQ= 0.000000000000E+00 EQD= 0.000000000000E+00 EDD=-0.230208713640E-02
 EQQ+QD+DD=-0.230208713640E-02
 
 No NMR shielding tensors so no spin-rotation constants.
 Leave Link  601 at Fri Sep 22 16:32:45 2023, MaxMem=   536870912 cpu:               2.0 elap:               0.5
 (Enter /share/apps/gaussian/g16/l9999.exe)
 1\1\GINC-NODE74\SP\RB3LYP\Gen\C3H8\YANZ\22-Sep-2023\0\\#p b3lyp/gen sc
 rf=(cpcm,solvent=toluene) pop=hirshfeld empiricaldispersion=gd3bj\\tmp
 dir/M3_conf_0_36.gjf\\0,1\C,0,0.,0.,0.\C,0,1.5419,0.,0.\C,0,2.11495,0.
 ,1.4349\H,0,-0.4499,-0.75423,0.66964\H,0,-0.34376,0.99862,0.3097\H,0,-
 0.33386,-0.13284,-1.03701\H,0,1.88086,0.94078,-0.55505\H,0,1.90922,-0.
 86105,-0.55875\H,0,1.59581,-0.69157,2.13879\H,0,3.25348,-0.20782,1.486
 61\H,0,1.98452,1.02177,1.80492\\Version=ES64L-G16RevA.03\State=1-A\HF=
 -119.1261001\RMSD=1.305e-09\Dipole=-0.0129708,0.0235904,-0.0298641\Qua
 drupole=-0.3692422,0.3875115,-0.0182693,0.0480951,-0.1779868,-0.159347
 \PG=C01 [X(C3H8)]\\@


 "PERFECTION IS NOT AN ACCIDENT"
         --  EAGLE ELECTRIC MANUFACTURING CO.,INC. NY
 Job cpu time:       0 days  0 hours  0 minutes 35.6 seconds.
 Elapsed time:       0 days  0 hours  0 minutes  9.1 seconds.
 File lengths (MBytes):  RWF=     14 Int=      0 D2E=      0 Chk=      2 Scr=      1
 Normal termination of Gaussian 16 at Fri Sep 22 16:32:45 2023.
