 Entering Gaussian System, Link 0=g16
 Initial command:
 /share/apps/gaussian/g16/l1.exe "/tmp/55557.mgr/Gau-216259.inp" -scrdir="/tmp/55557.mgr/"
 Entering Link 1 = /share/apps/gaussian/g16/l1.exe PID=    216260.
  
 Copyright (c) 1988,1990,1992,1993,1995,1998,2003,2009,2016,
            Gaussian, Inc.  All Rights Reserved.
  
 This is part of the Gaussian(R) 16 program.  It is based on
 the Gaussian(R) 09 system (copyright 2009, Gaussian, Inc.),
 the Gaussian(R) 03 system (copyright 2003, Gaussian, Inc.),
 the Gaussian(R) 98 system (copyright 1998, Gaussian, Inc.),
 the Gaussian(R) 94 system (copyright 1995, Gaussian, Inc.),
 the Gaussian 92(TM) system (copyright 1992, Gaussian, Inc.),
 the Gaussian 90(TM) system (copyright 1990, Gaussian, Inc.),
 the Gaussian 88(TM) system (copyright 1988, Gaussian, Inc.),
 the Gaussian 86(TM) system (copyright 1986, Carnegie Mellon
 University), and the Gaussian 82(TM) system (copyright 1983,
 Carnegie Mellon University). Gaussian is a federally registered
 trademark of Gaussian, Inc.
  
 This software contains proprietary and confidential information,
 including trade secrets, belonging to Gaussian, Inc.
  
 This software is provided under written license and may be
 used, copied, transmitted, or stored only in accord with that
 written license.
  
 The following legend is applicable only to US Government
 contracts under FAR:
  
                    RESTRICTED RIGHTS LEGEND
  
 Use, reproduction and disclosure by the US Government is
 subject to restrictions as set forth in subparagraphs (a)
 and (c) of the Commercial Computer Software - Restricted
 Rights clause in FAR 52.227-19.
  
 Gaussian, Inc.
 340 Quinnipiac St., Bldg. 40, Wallingford CT 06492
  
  
 ---------------------------------------------------------------
 Warning -- This program may not be used in any manner that
 competes with the business of Gaussian, Inc. or will provide
 assistance to any competitor of Gaussian, Inc.  The licensee
 of this program is prohibited from giving any competitor of
 Gaussian, Inc. access to this program.  By using this program,
 the user acknowledges that Gaussian, Inc. is engaged in the
 business of creating and licensing software in the field of
 computational chemistry and represents and warrants to the
 licensee that it is not a competitor of Gaussian, Inc. and that
 it will not use this program in any manner prohibited above.
 ---------------------------------------------------------------
  

 Cite this work as:
 Gaussian 16, Revision A.03,
 M. J. Frisch, G. W. Trucks, H. B. Schlegel, G. E. Scuseria, 
 M. A. Robb, J. R. Cheeseman, G. Scalmani, V. Barone, 
 G. A. Petersson, H. Nakatsuji, X. Li, M. Caricato, A. V. Marenich, 
 J. Bloino, B. G. Janesko, R. Gomperts, B. Mennucci, H. P. Hratchian, 
 J. V. Ortiz, A. F. Izmaylov, J. L. Sonnenberg, D. Williams-Young, 
 F. Ding, F. Lipparini, F. Egidi, J. Goings, B. Peng, A. Petrone, 
 T. Henderson, D. Ranasinghe, V. G. Zakrzewski, J. Gao, N. Rega, 
 G. Zheng, W. Liang, M. Hada, M. Ehara, K. Toyota, R. Fukuda, 
 J. Hasegawa, M. Ishida, T. Nakajima, Y. Honda, O. Kitao, H. Nakai, 
 T. Vreven, K. Throssell, J. A. Montgomery, Jr., J. E. Peralta, 
 F. Ogliaro, M. J. Bearpark, J. J. Heyd, E. N. Brothers, K. N. Kudin, 
 V. N. Staroverov, T. A. Keith, R. Kobayashi, J. Normand, 
 K. Raghavachari, A. P. Rendell, J. C. Burant, S. S. Iyengar, 
 J. Tomasi, M. Cossi, J. M. Millam, M. Klene, C. Adamo, R. Cammi, 
 J. W. Ochterski, R. L. Martin, K. Morokuma, O. Farkas, 
 J. B. Foresman, and D. J. Fox, Gaussian, Inc., Wallingford CT, 2016.
 
 ******************************************
 Gaussian 16:  ES64L-G16RevA.03 25-Dec-2016
                22-Sep-2023 
 ******************************************
 %nprocshared=4
 Will use up to    4 processors via shared memory.
 %mem=4GB
 ----------------------------------------------------------------------
 #p b3lyp/gen scrf=(cpcm,solvent=toluene) pop=hirshfeld empiricaldisper
 sion=gd3bj
 ----------------------------------------------------------------------
 1/38=1,172=1/1;
 2/12=2,17=6,18=5,40=1/2;
 3/5=7,11=2,25=1,30=1,70=2101,72=13,74=-5,124=41/1,2,3;
 4//1;
 5/5=2,38=5,53=13/2;
 6/7=2,8=2,9=2,10=2,28=1,79=1/1;
 99/5=1,9=1/99;
 Leave Link    1 at Fri Sep 22 16:34:06 2023, MaxMem=   536870912 cpu:               0.2 elap:               0.0
 (Enter /share/apps/gaussian/g16/l101.exe)
 ------------------------
 tmpdir/M3_conf_0_146.gjf
 ------------------------
 Symbolic Z-matrix:
 Charge =  0 Multiplicity = 1
 C                     0.        0.        0. 
 H                     1.0941    0.        0. 
 H                    -0.40337   0.       -1.05245 
 H                    -0.44208   0.88798   0.48918 
 H                    -0.33544  -0.91264   0.50985 
 
 ITRead=  0  0  0  0  0
 MicOpt= -1 -1 -1 -1 -1
 NAtoms=      5 NQM=        5 NQMF=       0 NMMI=      0 NMMIF=      0
                NMic=       0 NMicF=      0.
                    Isotopes and Nuclear Properties:
 (Nuclear quadrupole moments (NQMom) in fm**2, nuclear magnetic moments (NMagM)
  in nuclear magnetons)

  Atom         1           2           3           4           5
 IAtWgt=          12           1           1           1           1
 AtmWgt=  12.0000000   1.0078250   1.0078250   1.0078250   1.0078250
 NucSpn=           0           1           1           1           1
 AtZEff=  -0.0000000  -0.0000000  -0.0000000  -0.0000000  -0.0000000
 NQMom=    0.0000000   0.0000000   0.0000000   0.0000000   0.0000000
 NMagM=    0.0000000   2.7928460   2.7928460   2.7928460   2.7928460
 AtZNuc=   6.0000000   1.0000000   1.0000000   1.0000000   1.0000000
 Leave Link  101 at Fri Sep 22 16:34:06 2023, MaxMem=   536870912 cpu:               0.3 elap:               0.1
 (Enter /share/apps/gaussian/g16/l202.exe)
                          Input orientation:                          
 ---------------------------------------------------------------------
 Center     Atomic      Atomic             Coordinates (Angstroms)
 Number     Number       Type             X           Y           Z
 ---------------------------------------------------------------------
      1          6           0        0.000000    0.000000    0.000000
      2          1           0        1.094100    0.000000    0.000000
      3          1           0       -0.403370    0.000000   -1.052450
      4          1           0       -0.442080    0.887980    0.489180
      5          1           0       -0.335440   -0.912640    0.509850
 ---------------------------------------------------------------------
                    Distance matrix (angstroms):
                    1          2          3          4          5
     1  C    0.000000
     2  H    1.094100   0.000000
     3  H    1.127102   1.830319   0.000000
     4  H    1.106002   1.840558   1.779503   0.000000
     5  H    1.097897   1.771001   1.810610   1.803893   0.000000
 Stoichiometry    CH4
 Framework group  C1[X(CH4)]
 Deg. of freedom     9
 Full point group                 C1      NOp   1
 Largest Abelian subgroup         C1      NOp   1
 Largest concise Abelian subgroup C1      NOp   1
                         Standard orientation:                         
 ---------------------------------------------------------------------
 Center     Atomic      Atomic             Coordinates (Angstroms)
 Number     Number       Type             X           Y           Z
 ---------------------------------------------------------------------
      1          6           0       -0.006764   -0.002941   -0.007453
      2          1           0       -0.825899    0.310175   -0.661694
      3          1           0        0.630177    0.877700    0.291105
      4          1           0        0.684927   -0.725195   -0.479844
      5          1           0       -0.448623   -0.445035    0.895150
 ---------------------------------------------------------------------
 Rotational constants (GHZ):         159.4311344         151.7387056         150.1058210
 Leave Link  202 at Fri Sep 22 16:34:06 2023, MaxMem=   536870912 cpu:               0.0 elap:               0.0
 (Enter /share/apps/gaussian/g16/l301.exe)
 General basis read from cards:  (5D, 7F)
 Centers:       2      3      4      5
 S 3 1.00
     Exponent=  1.2251800000D+01 Coefficients=  2.3337100000D-02
     Exponent=  1.8687100000D+00 Coefficients=  1.5915000000D-01
     Exponent=  4.1820800000D-01 Coefficients=  5.0000000000D-01
 S 1 1.00
     Exponent=  1.0610000000D-01 Coefficients=  1.0000000000D+00
 P 1 1.00
     Exponent=  1.0000000000D+00 Coefficients=  1.0000000000D+00
 ****
 Centers:       1
 S 5 1.00
     Exponent=  1.2432000000D+03 Coefficients=  6.0336600000D-03
     Exponent=  1.8714500000D+02 Coefficients=  4.4957600000D-02
     Exponent=  4.2512600000D+01 Coefficients=  1.9790100000D-01
     Exponent=  1.1739300000D+01 Coefficients=  5.0000000000D-01
     Exponent=  3.5054800000D+00 Coefficients=  4.8036400000D-01
 S 2 1.00
     Exponent=  5.3908900000D+00 Coefficients= -7.0398000000D-02
     Exponent=  4.9334100000D-01 Coefficients=  5.0000000000D-01
 S 1 1.00
     Exponent=  1.4974100000D-01 Coefficients=  1.0000000000D+00
 P 3 1.00
     Exponent=  9.1805600000D+00 Coefficients=  4.3170100000D-02
     Exponent=  1.9365800000D+00 Coefficients=  2.2499900000D-01
     Exponent=  5.2629600000D-01 Coefficients=  5.0000000000D-01
 P 1 1.00
     Exponent=  1.3631900000D-01 Coefficients=  1.0000000000D+00
 D 1 1.00
     Exponent=  8.0000000000D-01 Coefficients=  1.0000000000D+00
 ****
 Ernie: Thresh=  0.10000D-02 Tol=  0.10000D-05 Strict=F.
 There are    35 symmetry adapted cartesian basis functions of A   symmetry.
 There are    34 symmetry adapted basis functions of A   symmetry.
    34 basis functions,    54 primitive gaussians,    35 cartesian basis functions
     5 alpha electrons        5 beta electrons
       nuclear repulsion energy        13.2401272073 Hartrees.
 IExCor=  402 DFT=T Ex+Corr=B3LYP ExCW=0 ScaHFX=  0.200000
 ScaDFX=  0.800000  0.720000  1.000000  0.810000 ScalE2=  1.000000  1.000000
 IRadAn=      5 IRanWt=     -1 IRanGd=            0 ICorTp=0 IEmpDi=141
 NAtoms=    5 NActive=    5 NUniq=    5 SFac= 1.00D+00 NAtFMM=   60 NAOKFM=F Big=F
 Integral buffers will be    131072 words long.
 Raffenetti 2 integral format.
 Two-electron integral symmetry is turned on.
 R6Disp:  Grimme-D3(BJ) Dispersion energy=       -0.0019122571 Hartrees.
 Nuclear repulsion after empirical dispersion term =       13.2382149502 Hartrees.
 ------------------------------------------------------------------------------
 Polarizable Continuum Model (PCM)
 =================================
 Model                : C-PCM.
 Atomic radii         : UFF (Universal Force Field).
 Polarization charges : Total charges.
 Charge compensation  : None.
 Solution method      : On-the-fly selection.
 Cavity type          : Scaled VdW (van der Waals Surface) (Alpha=1.100).
 Cavity algorithm     : GePol (No added spheres)
                        Default sphere list used, NSphG=    5.
                        Lebedev-Laikov grids with approx.  5.0 points / Ang**2.
                        Smoothing algorithm: York/Karplus (Gamma=1.0000).
                        Polarization charges: spherical gaussians, with
                                              point-specific exponents (IZeta= 3).
                        Self-potential: point-specific (ISelfS= 7).
                        Self-field    : sphere-specific E.n sum rule (ISelfD= 2).
 Solvent              : Toluene, Eps=   2.374100 Eps(inf)=   2.238315
 ------------------------------------------------------------------------------
 Spheres list:
 ISph  on   Nord     Re0    Alpha      Xe            Ye            Ze
    1   C      1    1.9255  1.100     -0.006764     -0.002941     -0.007453
    2   H      2    1.4430  1.100     -0.825899      0.310175     -0.661694
    3   H      3    1.4430  1.100      0.630177      0.877700      0.291105
    4   H      4    1.4430  1.100      0.684927     -0.725195     -0.479844
    5   H      5    1.4430  1.100     -0.448623     -0.445035      0.895150
 ------------------------------------------------------------------------------
 GePol: Number of generator spheres                  =       5
 GePol: Total number of spheres                      =       5
 GePol: Number of exposed spheres                    =       5 (100.00%)
 GePol: Number of points                             =     494
 GePol: Average weight of points                     =       0.14
 GePol: Minimum weight of points                     =   0.36D-07
 GePol: Maximum weight of points                     =    0.20577
 GePol: Number of points with low weight             =      21
 GePol: Fraction of low-weight points (<1% of avg)   =       4.25%
 GePol: Cavity surface area                          =     70.510 Ang**2
 GePol: Cavity volume                                =     52.038 Ang**3
 Leave Link  301 at Fri Sep 22 16:34:06 2023, MaxMem=   536870912 cpu:               0.4 elap:               0.1
 (Enter /share/apps/gaussian/g16/l302.exe)
 NPDir=0 NMtPBC=     1 NCelOv=     1 NCel=       1 NClECP=     1 NCelD=      1
         NCelK=      1 NCelE2=     1 NClLst=     1 CellRange=     0.0.
 One-electron integrals computed using PRISM.
 One-electron integral symmetry used in STVInt
 NBasis=    34 RedAO= T EigKep=  2.88D-02  NBF=    34
 NBsUse=    34 1.00D-06 EigRej= -1.00D+00 NBFU=    34
 Precomputing XC quadrature grid using
 IXCGrd= 4 IRadAn=           5 IRanWt=          -1 IRanGd=           0 AccXCQ= 0.00D+00.
 Generated NRdTot=       0 NPtTot=           0 NUsed=           0 NTot=          32
 NSgBfM=    35    35    35    35    35 MxSgAt=     5 MxSgA2=     5.
 Leave Link  302 at Fri Sep 22 16:34:06 2023, MaxMem=   536870912 cpu:               0.5 elap:               0.1
 (Enter /share/apps/gaussian/g16/l303.exe)
 DipDrv:  MaxL=1.
 Leave Link  303 at Fri Sep 22 16:34:06 2023, MaxMem=   536870912 cpu:               0.1 elap:               0.0
 (Enter /share/apps/gaussian/g16/l401.exe)
 ExpMin= 1.06D-01 ExpMax= 1.24D+03 ExpMxC= 1.87D+02 IAcc=3 IRadAn=         5 AccDes= 0.00D+00
 Harris functional with IExCor=  402 and IRadAn=       5 diagonalized for initial guess.
 HarFok:  IExCor=  402 AccDes= 0.00D+00 IRadAn=         5 IDoV= 1 UseB2=F ITyADJ=14
 ICtDFT=  3500011 ScaDFX=  1.000000  1.000000  1.000000  1.000000
 FoFCou: FMM=F IPFlag=           0 FMFlag=      100000 FMFlg1=           0
         NFxFlg=           0 DoJE=T BraDBF=F KetDBF=T FulRan=T
         wScrn=  0.000000 ICntrl=       500 IOpCl=  0 I1Cent=   200000004 NGrid=           0
         NMat0=    1 NMatS0=      1 NMatT0=    0 NMatD0=    1 NMtDS0=    0 NMtDT0=    0
 Petite list used in FoFCou.
 Harris En= -40.5479493283019    
 JPrj=0 DoOrth=F DoCkMO=F.
 Leave Link  401 at Fri Sep 22 16:34:07 2023, MaxMem=   536870912 cpu:               0.8 elap:               0.2
 (Enter /share/apps/gaussian/g16/l502.exe)
 Keep R1 ints in memory in canonical form, NReq=3628609.
 FoFCou: FMM=F IPFlag=           0 FMFlag=           0 FMFlg1=           0
         NFxFlg=           0 DoJE=F BraDBF=F KetDBF=F FulRan=T
         wScrn=  0.000000 ICntrl=       600 IOpCl=  0 I1Cent=           0 NGrid=           0
         NMat0=    1 NMatS0=    595 NMatT0=    0 NMatD0=    1 NMtDS0=    0 NMtDT0=    0
 Symmetry not used in FoFCou.
 Two-electron integral symmetry not used.
 Closed shell SCF:
 Using DIIS extrapolation, IDIIS=  1040.
 NGot=   536870912 LenX=   536690353 LenY=   536688687
 Requested convergence on RMS density matrix=1.00D-08 within 128 cycles.
 Requested convergence on MAX density matrix=1.00D-06.
 Requested convergence on             energy=1.00D-06.
 No special actions if energy rises.

 Cycle   1  Pass 1  IDiag  1:
 Inv3:  Mode=1 IEnd=      732108.
 Iteration    1 A*A^-1 deviation from unit magnitude is 3.11D-15 for    482.
 Iteration    1 A*A^-1 deviation from orthogonality  is 1.41D-15 for    329     61.
 Iteration    1 A^-1*A deviation from unit magnitude is 3.11D-15 for    482.
 Iteration    1 A^-1*A deviation from orthogonality  is 2.04D-15 for    418     80.
 E= -40.4281541567502    
 DIIS: error= 4.47D-02 at cycle   1 NSaved=   1.
 NSaved= 1 IEnMin= 1 EnMin= -40.4281541567502     IErMin= 1 ErrMin= 4.47D-02
 ErrMax= 4.47D-02  0.00D+00 EMaxC= 1.00D-01 BMatC= 7.52D-02 BMatP= 7.52D-02
 IDIUse=3 WtCom= 5.53D-01 WtEn= 4.47D-01
 Coeff-Com:  0.100D+01
 Coeff-En:   0.100D+01
 Coeff:      0.100D+01
 Gap=     0.355 Goal=   None    Shift=    0.000
 GapD=    0.355 DampG=1.000 DampE=0.500 DampFc=0.5000 IDamp=-1.
 Damping current iteration by 5.00D-01
 RMSDP=1.45D-02 MaxDP=1.50D-01              OVMax= 2.00D-01

 Cycle   2  Pass 1  IDiag  1:
 E= -40.4661549171957     Delta-E=       -0.038000760446 Rises=F Damp=T
 DIIS: error= 7.84D-03 at cycle   2 NSaved=   2.
 NSaved= 2 IEnMin= 2 EnMin= -40.4661549171957     IErMin= 2 ErrMin= 7.84D-03
 ErrMax= 7.84D-03  0.00D+00 EMaxC= 1.00D-01 BMatC= 1.32D-03 BMatP= 7.52D-02
 IDIUse=3 WtCom= 9.22D-01 WtEn= 7.84D-02
 Coeff-Com:  0.880D-01 0.912D+00
 Coeff-En:   0.144D+00 0.856D+00
 Coeff:      0.924D-01 0.908D+00
 Gap=     0.430 Goal=   None    Shift=    0.000
 RMSDP=1.35D-03 MaxDP=1.14D-02 DE=-3.80D-02 OVMax= 1.06D-01

 Cycle   3  Pass 1  IDiag  1:
 E= -40.5129174845105     Delta-E=       -0.046762567315 Rises=F Damp=F
 DIIS: error= 5.01D-04 at cycle   3 NSaved=   3.
 NSaved= 3 IEnMin= 3 EnMin= -40.5129174845105     IErMin= 3 ErrMin= 5.01D-04
 ErrMax= 5.01D-04  0.00D+00 EMaxC= 1.00D-01 BMatC= 1.06D-05 BMatP= 1.32D-03
 IDIUse=3 WtCom= 9.95D-01 WtEn= 5.01D-03
 Coeff-Com:  0.659D-02-0.500D-01 0.104D+01
 Coeff-En:   0.000D+00 0.000D+00 0.100D+01
 Coeff:      0.656D-02-0.498D-01 0.104D+01
 Gap=     0.438 Goal=   None    Shift=    0.000
 RMSDP=8.28D-05 MaxDP=8.26D-04 DE=-4.68D-02 OVMax= 9.12D-04

 Cycle   4  Pass 1  IDiag  1:
 E= -40.5129271092120     Delta-E=       -0.000009624702 Rises=F Damp=F
 DIIS: error= 4.66D-05 at cycle   4 NSaved=   4.
 NSaved= 4 IEnMin= 4 EnMin= -40.5129271092120     IErMin= 4 ErrMin= 4.66D-05
 ErrMax= 4.66D-05  0.00D+00 EMaxC= 1.00D-01 BMatC= 6.18D-08 BMatP= 1.06D-05
 IDIUse=1 WtCom= 1.00D+00 WtEn= 0.00D+00
 Coeff-Com:  0.154D-02-0.713D-02 0.160D+00 0.846D+00
 Coeff:      0.154D-02-0.713D-02 0.160D+00 0.846D+00
 Gap=     0.438 Goal=   None    Shift=    0.000
 RMSDP=7.84D-06 MaxDP=6.68D-05 DE=-9.62D-06 OVMax= 1.07D-04

 Cycle   5  Pass 1  IDiag  1:
 E= -40.5129271816838     Delta-E=       -0.000000072472 Rises=F Damp=F
 DIIS: error= 7.44D-06 at cycle   5 NSaved=   5.
 NSaved= 5 IEnMin= 5 EnMin= -40.5129271816838     IErMin= 5 ErrMin= 7.44D-06
 ErrMax= 7.44D-06  0.00D+00 EMaxC= 1.00D-01 BMatC= 1.36D-09 BMatP= 6.18D-08
 IDIUse=1 WtCom= 1.00D+00 WtEn= 0.00D+00
 Coeff-Com:  0.132D-03 0.251D-03-0.106D-02 0.131D+00 0.870D+00
 Coeff:      0.132D-03 0.251D-03-0.106D-02 0.131D+00 0.870D+00
 Gap=     0.438 Goal=   None    Shift=    0.000
 RMSDP=1.17D-06 MaxDP=1.57D-05 DE=-7.25D-08 OVMax= 1.85D-05

 Cycle   6  Pass 1  IDiag  1:
 E= -40.5129271832203     Delta-E=       -0.000000001537 Rises=F Damp=F
 DIIS: error= 6.44D-07 at cycle   6 NSaved=   6.
 NSaved= 6 IEnMin= 6 EnMin= -40.5129271832203     IErMin= 6 ErrMin= 6.44D-07
 ErrMax= 6.44D-07  0.00D+00 EMaxC= 1.00D-01 BMatC= 1.48D-11 BMatP= 1.36D-09
 IDIUse=1 WtCom= 1.00D+00 WtEn= 0.00D+00
 Coeff-Com: -0.111D-04 0.414D-04-0.117D-02 0.234D-02 0.904D-01 0.908D+00
 Coeff:     -0.111D-04 0.414D-04-0.117D-02 0.234D-02 0.904D-01 0.908D+00
 Gap=     0.438 Goal=   None    Shift=    0.000
 RMSDP=1.32D-07 MaxDP=1.69D-06 DE=-1.54D-09 OVMax= 1.78D-06

 Cycle   7  Pass 1  IDiag  1:
 E= -40.5129271832405     Delta-E=       -0.000000000020 Rises=F Damp=F
 DIIS: error= 1.85D-08 at cycle   7 NSaved=   7.
 NSaved= 7 IEnMin= 7 EnMin= -40.5129271832405     IErMin= 7 ErrMin= 1.85D-08
 ErrMax= 1.85D-08  0.00D+00 EMaxC= 1.00D-01 BMatC= 1.62D-14 BMatP= 1.48D-11
 IDIUse=1 WtCom= 1.00D+00 WtEn= 0.00D+00
 Coeff-Com:  0.375D-07-0.824D-06-0.156D-04 0.568D-04-0.905D-03-0.746D-02
 Coeff-Com:  0.101D+01
 Coeff:      0.375D-07-0.824D-06-0.156D-04 0.568D-04-0.905D-03-0.746D-02
 Coeff:      0.101D+01
 Gap=     0.438 Goal=   None    Shift=    0.000
 RMSDP=5.31D-09 MaxDP=6.16D-08 DE=-2.02D-11 OVMax= 7.84D-08

 Error on total polarization charges =  0.00453
 SCF Done:  E(RB3LYP) =  -40.5129271832     A.U. after    7 cycles
            NFock=  7  Conv=0.53D-08     -V/T= 2.0104
 KE= 4.009704558751D+01 PE=-1.195281532938D+02 EE= 2.567996557279D+01
 Leave Link  502 at Fri Sep 22 16:34:08 2023, MaxMem=   536870912 cpu:               5.0 elap:               1.3
 (Enter /share/apps/gaussian/g16/l601.exe)
 Copying SCF densities to generalized density rwf, IOpCl= 0 IROHF=0.

 **********************************************************************

            Population analysis using the SCF density.

 **********************************************************************

 Orbital symmetries:
       Occupied  (A) (A) (A) (A) (A)
       Virtual   (A) (A) (A) (A) (A) (A) (A) (A) (A) (A) (A) (A)
                 (A) (A) (A) (A) (A) (A) (A) (A) (A) (A) (A) (A)
                 (A) (A) (A) (A) (A)
 The electronic state is 1-A.
 Alpha  occ. eigenvalues --  -10.16670  -0.69089  -0.40170  -0.38965  -0.38241
 Alpha virt. eigenvalues --    0.05535   0.12075   0.12485   0.12557   0.36904
 Alpha virt. eigenvalues --    0.37215   0.39091   0.62168   0.63481   0.63964
 Alpha virt. eigenvalues --    0.66618   0.95681   1.28418   1.29999   1.82724
 Alpha virt. eigenvalues --    1.84670   1.85670   1.87838   1.89329   1.89981
 Alpha virt. eigenvalues --    2.37833   2.40354   2.42850   2.71686   2.74885
 Alpha virt. eigenvalues --    2.90009   3.16501   3.18668   3.21528
          Condensed to atoms (all electrons):
               1          2          3          4          5
     1  C    4.755660   0.403853   0.397681   0.401478   0.402466
     2  H    0.403853   0.564420  -0.019689  -0.017981  -0.023683
     3  H    0.397681  -0.019689   0.578600  -0.025017  -0.020588
     4  H    0.401478  -0.017981  -0.025017   0.570767  -0.020593
     5  H    0.402466  -0.023683  -0.020588  -0.020593   0.574701
 Mulliken charges:
               1
     1  C   -0.361137
     2  H    0.093081
     3  H    0.089013
     4  H    0.091346
     5  H    0.087697
 Sum of Mulliken charges =  -0.00000
 Mulliken charges with hydrogens summed into heavy atoms:
               1
     1  C   -0.000000
 Electronic spatial extent (au):  <R**2>=             36.3990
 Charge=             -0.0000 electrons
 Dipole moment (field-independent basis, Debye):
    X=              0.0032    Y=             -0.0072    Z=              0.0237  Tot=              0.0250
 Quadrupole moment (field-independent basis, Debye-Ang):
   XX=             -8.2894   YY=             -8.5824   ZZ=             -8.5747
   XY=             -0.0422   XZ=              0.0060   YZ=             -0.0279
 Traceless Quadrupole moment (field-independent basis, Debye-Ang):
   XX=              0.1927   YY=             -0.1002   ZZ=             -0.0925
   XY=             -0.0422   XZ=              0.0060   YZ=             -0.0279
 Octapole moment (field-independent basis, Debye-Ang**2):
  XXX=             -0.1144  YYY=              0.0752  ZZZ=              0.2478  XYY=              0.4097
  XXY=              0.0664  XXZ=             -0.2596  XZZ=             -0.3505  YZZ=             -0.2043
  YYZ=              0.0579  XYZ=              0.4828
 Hexadecapole moment (field-independent basis, Debye-Ang**3):
 XXXX=            -17.1124 YYYY=            -16.9609 ZZZZ=            -16.6032 XXXY=             -0.2623
 XXXZ=              0.2412 YYYX=              0.1027 YYYZ=              0.2341 ZZZX=             -0.1501
 ZZZY=             -0.4000 XXYY=             -5.2804 XXZZ=             -5.2901 YYZZ=             -5.5037
 XXYZ=              0.0293 YYXZ=             -0.0571 ZZXY=             -0.0493
 N-N= 1.323821495024D+01 E-N=-1.195281534713D+02  KE= 4.009704558751D+01
 There are a total of      109428 grid points.
 ElSum from          density=       10.0000000230
 ElSum from atomic densities=       10.0000000811
 Hirshfeld populations at iteration   1 (CA, CB, DipXYZ):
               1          2          3          4          5
     1  C    3.060233   3.060233  -0.005243  -0.002643  -0.004652
     2  H    0.484157   0.484157  -0.111193   0.040124  -0.079321
     3  H    0.485393   0.485393   0.081469   0.101810   0.035689
     4  H    0.484700   0.484700   0.093272  -0.088384  -0.054736
     5  H    0.485517   0.485517  -0.058978  -0.055152   0.112965
       Tot   5.000000   5.000000  -0.000672  -0.004245   0.009945

 Dip from Atomic Chgs              0.001926   0.001401  -0.000604
         Total Dipole              0.001254  -0.002845   0.009341

 Hirshfeld charges, spin densities, dipoles, and CM5 charges using IRadAn=      5:
              Q-H        S-H        Dx         Dy         Dz        Q-CM5   
     1  C   -0.120465   0.000000  -0.005243  -0.002643  -0.004652  -0.304120
     2  H    0.031686   0.000000  -0.111193   0.040124  -0.079321   0.078981
     3  H    0.029213   0.000000   0.081469   0.101810   0.035689   0.072800
     4  H    0.030600   0.000000   0.093272  -0.088384  -0.054736   0.076523
     5  H    0.028965   0.000000  -0.058978  -0.055152   0.112965   0.075817
       Tot  -0.000000   0.000000  -0.000672  -0.004245   0.009945  -0.000000
 Hirshfeld charges with hydrogens summed into heavy atoms:
              Q-H       Q-CM5   
     1  C   -0.000000  -0.000000
 
 EQQ= 0.000000000000E+00 EQD= 0.000000000000E+00 EDD=-0.960401763043E-03
 EQQ+QD+DD=-0.960401763043E-03
 
 No NMR shielding tensors so no spin-rotation constants.
 Leave Link  601 at Fri Sep 22 16:34:08 2023, MaxMem=   536870912 cpu:               0.6 elap:               0.2
 (Enter /share/apps/gaussian/g16/l9999.exe)
 1\1\GINC-NODE74\SP\RB3LYP\Gen\C1H4\YANZ\22-Sep-2023\0\\#p b3lyp/gen sc
 rf=(cpcm,solvent=toluene) pop=hirshfeld empiricaldispersion=gd3bj\\tmp
 dir/M3_conf_0_146.gjf\\0,1\C,0,0.,0.,0.\H,0,1.0941,0.,0.\H,0,-0.40337,
 0.,-1.05245\H,0,-0.44208,0.88798,0.48918\H,0,-0.33544,-0.91264,0.50985
 \\Version=ES64L-G16RevA.03\State=1-A\HF=-40.5129272\RMSD=5.309e-09\Dip
 ole=-0.0073383,-0.0063148,0.0017845\Quadrupole=0.0741908,-0.0008554,-0
 .0733354,-0.0968032,0.0223056,-0.0391522\PG=C01 [X(C1H4)]\\@


 A BIRD IN THE HAND IS SAFER THAN ONE OVERHEAD.

                       -- NEWTON'S SEVENTH LAW
 Job cpu time:       0 days  0 hours  0 minutes  8.1 seconds.
 Elapsed time:       0 days  0 hours  0 minutes  2.2 seconds.
 File lengths (MBytes):  RWF=      6 Int=      0 D2E=      0 Chk=      1 Scr=      1
 Normal termination of Gaussian 16 at Fri Sep 22 16:34:08 2023.
