 Entering Gaussian System, Link 0=g16
 Initial command:
 /share/apps/gaussian/g16/l1.exe "/tmp/55557.mgr/Gau-211964.inp" -scrdir="/tmp/55557.mgr/"
 Entering Link 1 = /share/apps/gaussian/g16/l1.exe PID=    211968.
  
 Copyright (c) 1988,1990,1992,1993,1995,1998,2003,2009,2016,
            Gaussian, Inc.  All Rights Reserved.
  
 This is part of the Gaussian(R) 16 program.  It is based on
 the Gaussian(R) 09 system (copyright 2009, Gaussian, Inc.),
 the Gaussian(R) 03 system (copyright 2003, Gaussian, Inc.),
 the Gaussian(R) 98 system (copyright 1998, Gaussian, Inc.),
 the Gaussian(R) 94 system (copyright 1995, Gaussian, Inc.),
 the Gaussian 92(TM) system (copyright 1992, Gaussian, Inc.),
 the Gaussian 90(TM) system (copyright 1990, Gaussian, Inc.),
 the Gaussian 88(TM) system (copyright 1988, Gaussian, Inc.),
 the Gaussian 86(TM) system (copyright 1986, Carnegie Mellon
 University), and the Gaussian 82(TM) system (copyright 1983,
 Carnegie Mellon University). Gaussian is a federally registered
 trademark of Gaussian, Inc.
  
 This software contains proprietary and confidential information,
 including trade secrets, belonging to Gaussian, Inc.
  
 This software is provided under written license and may be
 used, copied, transmitted, or stored only in accord with that
 written license.
  
 The following legend is applicable only to US Government
 contracts under FAR:
  
                    RESTRICTED RIGHTS LEGEND
  
 Use, reproduction and disclosure by the US Government is
 subject to restrictions as set forth in subparagraphs (a)
 and (c) of the Commercial Computer Software - Restricted
 Rights clause in FAR 52.227-19.
  
 Gaussian, Inc.
 340 Quinnipiac St., Bldg. 40, Wallingford CT 06492
  
  
 ---------------------------------------------------------------
 Warning -- This program may not be used in any manner that
 competes with the business of Gaussian, Inc. or will provide
 assistance to any competitor of Gaussian, Inc.  The licensee
 of this program is prohibited from giving any competitor of
 Gaussian, Inc. access to this program.  By using this program,
 the user acknowledges that Gaussian, Inc. is engaged in the
 business of creating and licensing software in the field of
 computational chemistry and represents and warrants to the
 licensee that it is not a competitor of Gaussian, Inc. and that
 it will not use this program in any manner prohibited above.
 ---------------------------------------------------------------
  

 Cite this work as:
 Gaussian 16, Revision A.03,
 M. J. Frisch, G. W. Trucks, H. B. Schlegel, G. E. Scuseria, 
 M. A. Robb, J. R. Cheeseman, G. Scalmani, V. Barone, 
 G. A. Petersson, H. Nakatsuji, X. Li, M. Caricato, A. V. Marenich, 
 J. Bloino, B. G. Janesko, R. Gomperts, B. Mennucci, H. P. Hratchian, 
 J. V. Ortiz, A. F. Izmaylov, J. L. Sonnenberg, D. Williams-Young, 
 F. Ding, F. Lipparini, F. Egidi, J. Goings, B. Peng, A. Petrone, 
 T. Henderson, D. Ranasinghe, V. G. Zakrzewski, J. Gao, N. Rega, 
 G. Zheng, W. Liang, M. Hada, M. Ehara, K. Toyota, R. Fukuda, 
 J. Hasegawa, M. Ishida, T. Nakajima, Y. Honda, O. Kitao, H. Nakai, 
 T. Vreven, K. Throssell, J. A. Montgomery, Jr., J. E. Peralta, 
 F. Ogliaro, M. J. Bearpark, J. J. Heyd, E. N. Brothers, K. N. Kudin, 
 V. N. Staroverov, T. A. Keith, R. Kobayashi, J. Normand, 
 K. Raghavachari, A. P. Rendell, J. C. Burant, S. S. Iyengar, 
 J. Tomasi, M. Cossi, J. M. Millam, M. Klene, C. Adamo, R. Cammi, 
 J. W. Ochterski, R. L. Martin, K. Morokuma, O. Farkas, 
 J. B. Foresman, and D. J. Fox, Gaussian, Inc., Wallingford CT, 2016.
 
 ******************************************
 Gaussian 16:  ES64L-G16RevA.03 25-Dec-2016
                22-Sep-2023 
 ******************************************
 %nprocshared=4
 Will use up to    4 processors via shared memory.
 %mem=4GB
 ----------------------------------------------------------------------
 #p b3lyp/gen scrf=(cpcm,solvent=toluene) pop=hirshfeld empiricaldisper
 sion=gd3bj
 ----------------------------------------------------------------------
 1/38=1,172=1/1;
 2/12=2,17=6,18=5,40=1/2;
 3/5=7,11=2,25=1,30=1,70=2101,72=13,74=-5,124=41/1,2,3;
 4//1;
 5/5=2,38=5,53=13/2;
 6/7=2,8=2,9=2,10=2,28=1,79=1/1;
 99/5=1,9=1/99;
 Leave Link    1 at Fri Sep 22 16:31:36 2023, MaxMem=   536870912 cpu:               0.2 elap:               0.0
 (Enter /share/apps/gaussian/g16/l101.exe)
 ------------------------
 tmpdir/M3_frag_ref_3.gjf
 ------------------------
 Symbolic Z-matrix:
 Charge =  0 Multiplicity = 1
 C                    -0.81068  -1.23132  -2.65929 
 C                    -2.05299  -1.6791   -3.18742 
 C                    -2.21993  -1.77146  -4.57477 
 C                    -1.17361  -1.41259  -5.41818 
 C                     0.22756  -0.87278  -3.53981 
 C                     0.04985  -0.95826  -4.91007 
 H                    -1.31824  -1.48452  -6.4947 
 H                    -3.15817  -2.11507  -4.99715 
 H                     1.17123  -0.51651  -3.13801 
 H                     0.85302  -0.67351  -5.58497 
 H                    -0.72553  -1.14048  -1.62836 
 H                    -2.82555  -1.92927  -2.44847 
 
 ITRead=  0  0  0  0  0  0  0  0  0  0  0  0
 MicOpt= -1 -1 -1 -1 -1 -1 -1 -1 -1 -1 -1 -1
 NAtoms=     12 NQM=       12 NQMF=       0 NMMI=      0 NMMIF=      0
                NMic=       0 NMicF=      0.
                    Isotopes and Nuclear Properties:
 (Nuclear quadrupole moments (NQMom) in fm**2, nuclear magnetic moments (NMagM)
  in nuclear magnetons)

  Atom         1           2           3           4           5           6           7           8           9          10
 IAtWgt=          12          12          12          12          12          12           1           1           1           1
 AtmWgt=  12.0000000  12.0000000  12.0000000  12.0000000  12.0000000  12.0000000   1.0078250   1.0078250   1.0078250   1.0078250
 NucSpn=           0           0           0           0           0           0           1           1           1           1
 AtZEff=  -0.0000000  -0.0000000  -0.0000000  -0.0000000  -0.0000000  -0.0000000  -0.0000000  -0.0000000  -0.0000000  -0.0000000
 NQMom=    0.0000000   0.0000000   0.0000000   0.0000000   0.0000000   0.0000000   0.0000000   0.0000000   0.0000000   0.0000000
 NMagM=    0.0000000   0.0000000   0.0000000   0.0000000   0.0000000   0.0000000   2.7928460   2.7928460   2.7928460   2.7928460
 AtZNuc=   6.0000000   6.0000000   6.0000000   6.0000000   6.0000000   6.0000000   1.0000000   1.0000000   1.0000000   1.0000000

  Atom        11          12
 IAtWgt=           1           1
 AtmWgt=   1.0078250   1.0078250
 NucSpn=           1           1
 AtZEff=  -0.0000000  -0.0000000
 NQMom=    0.0000000   0.0000000
 NMagM=    2.7928460   2.7928460
 AtZNuc=   1.0000000   1.0000000
 Leave Link  101 at Fri Sep 22 16:31:37 2023, MaxMem=   536870912 cpu:               0.4 elap:               0.1
 (Enter /share/apps/gaussian/g16/l202.exe)
                          Input orientation:                          
 ---------------------------------------------------------------------
 Center     Atomic      Atomic             Coordinates (Angstroms)
 Number     Number       Type             X           Y           Z
 ---------------------------------------------------------------------
      1          6           0       -0.810681   -1.231316   -2.659287
      2          6           0       -2.052990   -1.679097   -3.187425
      3          6           0       -2.219932   -1.771457   -4.574765
      4          6           0       -1.173612   -1.412586   -5.418178
      5          6           0        0.227556   -0.872776   -3.539813
      6          6           0        0.049846   -0.958260   -4.910070
      7          1           0       -1.318242   -1.484517   -6.494701
      8          1           0       -3.158170   -2.115073   -4.997152
      9          1           0        1.171231   -0.516508   -3.138005
     10          1           0        0.853019   -0.673509   -5.584971
     11          1           0       -0.725532   -1.140481   -1.628363
     12          1           0       -2.825546   -1.929265   -2.448469
 ---------------------------------------------------------------------
                    Distance matrix (angstroms):
                    1          2          3          4          5
     1  C    0.000000
     2  C    1.422241   0.000000
     3  C    2.438606   1.400397   0.000000
     4  C    2.788558   2.412591   1.391014   0.000000
     5  C    1.407769   2.444427   2.805165   2.404771   0.000000
     6  C    2.425096   2.812300   2.434258   1.400513   1.384374
     7  H    3.877129   3.393492   2.140451   1.088574   3.390440
     8  H    3.428898   2.164858   1.084792   2.146910   3.889766
     9  H    2.160578   3.427777   3.890908   3.391229   1.085771
    10  H    3.411550   3.899272   3.415997   2.163628   2.147925
    11  H    1.038415   2.117292   3.363428   3.825900   2.152599
    12  H    2.142722   1.097945   2.216485   3.437297   3.410078
                    6          7          8          9         10
     6  C    0.000000
     7  H    2.158626   0.000000
     8  H    3.411329   2.454708   0.000000
     9  H    2.143097   4.289746   4.975495   0.000000
    10  H    1.087042   2.489923   4.302706   2.472559   0.000000
    11  H    3.376983   4.914357   4.268055   2.503212   4.285397
    12  H    3.907711   4.340709   2.577003   4.294831   4.994638
                   11         12
    11  H    0.000000
    12  H    2.388476   0.000000
 Stoichiometry    C6H6
 Framework group  C1[X(C6H6)]
 Deg. of freedom    30
 Full point group                 C1      NOp   1
 Largest Abelian subgroup         C1      NOp   1
 Largest concise Abelian subgroup C1      NOp   1
                         Standard orientation:                         
 ---------------------------------------------------------------------
 Center     Atomic      Atomic             Coordinates (Angstroms)
 Number     Number       Type             X           Y           Z
 ---------------------------------------------------------------------
      1          6           0       -0.203643   -1.389382   -0.007693
      2          6           0       -1.316051   -0.503247    0.001421
      3          6           0       -1.096598    0.879845   -0.001614
      4          6           0        0.205580    1.368978   -0.001010
      5          6           0        1.101821   -0.862538   -0.003934
      6          6           0        1.308817    0.506257    0.002803
      7          1           0        0.362155    2.446230    0.001488
      8          1           0       -1.931687    1.572229    0.000620
      9          1           0        1.951776   -1.538117    0.004305
     10          1           0        2.319261    0.906967    0.012537
     11          1           0       -0.394781   -2.409408    0.028607
     12          1           0       -2.306283   -0.977375    0.012609
 ---------------------------------------------------------------------
 Rotational constants (GHZ):           5.7091591           5.6133309           2.8304869
 Leave Link  202 at Fri Sep 22 16:31:37 2023, MaxMem=   536870912 cpu:               0.0 elap:               0.0
 (Enter /share/apps/gaussian/g16/l301.exe)
 General basis read from cards:  (5D, 7F)
 Centers:       7      8      9     10     11     12
 S 3 1.00
     Exponent=  1.2251800000D+01 Coefficients=  2.3337100000D-02
     Exponent=  1.8687100000D+00 Coefficients=  1.5915000000D-01
     Exponent=  4.1820800000D-01 Coefficients=  5.0000000000D-01
 S 1 1.00
     Exponent=  1.0610000000D-01 Coefficients=  1.0000000000D+00
 P 1 1.00
     Exponent=  1.0000000000D+00 Coefficients=  1.0000000000D+00
 ****
 Centers:       1      2      3      4      5      6
 S 5 1.00
     Exponent=  1.2432000000D+03 Coefficients=  6.0336600000D-03
     Exponent=  1.8714500000D+02 Coefficients=  4.4957600000D-02
     Exponent=  4.2512600000D+01 Coefficients=  1.9790100000D-01
     Exponent=  1.1739300000D+01 Coefficients=  5.0000000000D-01
     Exponent=  3.5054800000D+00 Coefficients=  4.8036400000D-01
 S 2 1.00
     Exponent=  5.3908900000D+00 Coefficients= -7.0398000000D-02
     Exponent=  4.9334100000D-01 Coefficients=  5.0000000000D-01
 S 1 1.00
     Exponent=  1.4974100000D-01 Coefficients=  1.0000000000D+00
 P 3 1.00
     Exponent=  9.1805600000D+00 Coefficients=  4.3170100000D-02
     Exponent=  1.9365800000D+00 Coefficients=  2.2499900000D-01
     Exponent=  5.2629600000D-01 Coefficients=  5.0000000000D-01
 P 1 1.00
     Exponent=  1.3631900000D-01 Coefficients=  1.0000000000D+00
 D 1 1.00
     Exponent=  8.0000000000D-01 Coefficients=  1.0000000000D+00
 ****
 Ernie: Thresh=  0.10000D-02 Tol=  0.10000D-05 Strict=F.
 There are   120 symmetry adapted cartesian basis functions of A   symmetry.
 There are   114 symmetry adapted basis functions of A   symmetry.
   114 basis functions,   198 primitive gaussians,   120 cartesian basis functions
    21 alpha electrons       21 beta electrons
       nuclear repulsion energy       202.8521963952 Hartrees.
 IExCor=  402 DFT=T Ex+Corr=B3LYP ExCW=0 ScaHFX=  0.200000
 ScaDFX=  0.800000  0.720000  1.000000  0.810000 ScalE2=  1.000000  1.000000
 IRadAn=      5 IRanWt=     -1 IRanGd=            0 ICorTp=0 IEmpDi=141
 NAtoms=   12 NActive=   12 NUniq=   12 SFac= 1.00D+00 NAtFMM=   60 NAOKFM=F Big=F
 Integral buffers will be    131072 words long.
 Raffenetti 2 integral format.
 Two-electron integral symmetry is turned on.
 R6Disp:  Grimme-D3(BJ) Dispersion energy=       -0.0188935172 Hartrees.
 Nuclear repulsion after empirical dispersion term =      202.8333028780 Hartrees.
 ------------------------------------------------------------------------------
 Polarizable Continuum Model (PCM)
 =================================
 Model                : C-PCM.
 Atomic radii         : UFF (Universal Force Field).
 Polarization charges : Total charges.
 Charge compensation  : None.
 Solution method      : On-the-fly selection.
 Cavity type          : Scaled VdW (van der Waals Surface) (Alpha=1.100).
 Cavity algorithm     : GePol (No added spheres)
                        Default sphere list used, NSphG=   12.
                        Lebedev-Laikov grids with approx.  5.0 points / Ang**2.
                        Smoothing algorithm: York/Karplus (Gamma=1.0000).
                        Polarization charges: spherical gaussians, with
                                              point-specific exponents (IZeta= 3).
                        Self-potential: point-specific (ISelfS= 7).
                        Self-field    : sphere-specific E.n sum rule (ISelfD= 2).
 Solvent              : Toluene, Eps=   2.374100 Eps(inf)=   2.238315
 ------------------------------------------------------------------------------
 Spheres list:
 ISph  on   Nord     Re0    Alpha      Xe            Ye            Ze
    1   C      1    1.9255  1.100     -0.203643     -1.389382     -0.007693
    2   C      2    1.9255  1.100     -1.316051     -0.503247      0.001421
    3   C      3    1.9255  1.100     -1.096598      0.879845     -0.001614
    4   C      4    1.9255  1.100      0.205580      1.368978     -0.001010
    5   C      5    1.9255  1.100      1.101821     -0.862538     -0.003934
    6   C      6    1.9255  1.100      1.308817      0.506257      0.002803
    7   H      7    1.4430  1.100      0.362155      2.446230      0.001488
    8   H      8    1.4430  1.100     -1.931687      1.572229      0.000620
    9   H      9    1.4430  1.100      1.951776     -1.538117      0.004305
   10   H     10    1.4430  1.100      2.319261      0.906967      0.012537
   11   H     11    1.4430  1.100     -0.394781     -2.409408      0.028607
   12   H     12    1.4430  1.100     -2.306283     -0.977375      0.012609
 ------------------------------------------------------------------------------
 GePol: Number of generator spheres                  =      12
 GePol: Total number of spheres                      =      12
 GePol: Number of exposed spheres                    =      12 (100.00%)
 GePol: Number of points                             =    1097
 GePol: Average weight of points                     =       0.13
 GePol: Minimum weight of points                     =   0.67D-08
 GePol: Maximum weight of points                     =    0.20577
 GePol: Number of points with low weight             =      94
 GePol: Fraction of low-weight points (<1% of avg)   =       8.57%
 GePol: Cavity surface area                          =    142.469 Ang**2
 GePol: Cavity volume                                =    134.162 Ang**3
 Leave Link  301 at Fri Sep 22 16:31:37 2023, MaxMem=   536870912 cpu:               0.3 elap:               0.1
 (Enter /share/apps/gaussian/g16/l302.exe)
 NPDir=0 NMtPBC=     1 NCelOv=     1 NCel=       1 NClECP=     1 NCelD=      1
         NCelK=      1 NCelE2=     1 NClLst=     1 CellRange=     0.0.
 One-electron integrals computed using PRISM.
 One-electron integral symmetry used in STVInt
 NBasis=   114 RedAO= T EigKep=  5.22D-04  NBF=   114
 NBsUse=   114 1.00D-06 EigRej= -1.00D+00 NBFU=   114
 Precomputing XC quadrature grid using
 IXCGrd= 4 IRadAn=           5 IRanWt=          -1 IRanGd=           0 AccXCQ= 0.00D+00.
 Generated NRdTot=       0 NPtTot=           0 NUsed=           0 NTot=          32
 NSgBfM=   120   120   120   120   120 MxSgAt=    12 MxSgA2=    12.
 Leave Link  302 at Fri Sep 22 16:31:37 2023, MaxMem=   536870912 cpu:               0.7 elap:               0.2
 (Enter /share/apps/gaussian/g16/l303.exe)
 DipDrv:  MaxL=1.
 Leave Link  303 at Fri Sep 22 16:31:37 2023, MaxMem=   536870912 cpu:               0.1 elap:               0.0
 (Enter /share/apps/gaussian/g16/l401.exe)
 ExpMin= 1.06D-01 ExpMax= 1.24D+03 ExpMxC= 1.87D+02 IAcc=3 IRadAn=         5 AccDes= 0.00D+00
 Harris functional with IExCor=  402 and IRadAn=       5 diagonalized for initial guess.
 HarFok:  IExCor=  402 AccDes= 0.00D+00 IRadAn=         5 IDoV= 1 UseB2=F ITyADJ=14
 ICtDFT=  3500011 ScaDFX=  1.000000  1.000000  1.000000  1.000000
 FoFCou: FMM=F IPFlag=           0 FMFlag=      100000 FMFlg1=           0
         NFxFlg=           0 DoJE=T BraDBF=F KetDBF=T FulRan=T
         wScrn=  0.000000 ICntrl=       500 IOpCl=  0 I1Cent=   200000004 NGrid=           0
         NMat0=    1 NMatS0=      1 NMatT0=    0 NMatD0=    1 NMtDS0=    0 NMtDT0=    0
 Petite list used in FoFCou.
 Harris En= -232.252304448819    
 JPrj=0 DoOrth=F DoCkMO=F.
 Leave Link  401 at Fri Sep 22 16:31:38 2023, MaxMem=   536870912 cpu:               3.7 elap:               0.9
 (Enter /share/apps/gaussian/g16/l502.exe)
 Keep R1 ints in memory in canonical form, NReq=25272994.
 FoFCou: FMM=F IPFlag=           0 FMFlag=           0 FMFlg1=           0
         NFxFlg=           0 DoJE=F BraDBF=F KetDBF=F FulRan=T
         wScrn=  0.000000 ICntrl=       600 IOpCl=  0 I1Cent=           0 NGrid=           0
         NMat0=    1 NMatS0=   6555 NMatT0=    0 NMatD0=    1 NMtDS0=    0 NMtDT0=    0
 Symmetry not used in FoFCou.
 Two-electron integral symmetry not used.
 Closed shell SCF:
 Using DIIS extrapolation, IDIIS=  1040.
 NGot=   536870912 LenX=   515352694 LenY=   515337853
 Requested convergence on RMS density matrix=1.00D-08 within 128 cycles.
 Requested convergence on MAX density matrix=1.00D-06.
 Requested convergence on             energy=1.00D-06.
 No special actions if energy rises.

 Cycle   1  Pass 1  IDiag  1:
 Inv3:  Mode=1 IEnd=     3610227.
 Iteration    1 A*A^-1 deviation from unit magnitude is 3.11D-15 for    327.
 Iteration    1 A*A^-1 deviation from orthogonality  is 1.73D-15 for   1089    794.
 Iteration    1 A^-1*A deviation from unit magnitude is 3.11D-15 for   1097.
 Iteration    1 A^-1*A deviation from orthogonality  is 2.17D-15 for   1094    783.
 E= -232.082003065822    
 DIIS: error= 4.75D-02 at cycle   1 NSaved=   1.
 NSaved= 1 IEnMin= 1 EnMin= -232.082003065822     IErMin= 1 ErrMin= 4.75D-02
 ErrMax= 4.75D-02  0.00D+00 EMaxC= 1.00D-01 BMatC= 1.14D-01 BMatP= 1.14D-01
 IDIUse=3 WtCom= 5.25D-01 WtEn= 4.75D-01
 Coeff-Com:  0.100D+01
 Coeff-En:   0.100D+01
 Coeff:      0.100D+01
 Gap=     0.242 Goal=   None    Shift=    0.000
 GapD=    0.242 DampG=1.000 DampE=0.500 DampFc=0.5000 IDamp=-1.
 Damping current iteration by 5.00D-01
 RMSDP=7.45D-03 MaxDP=8.83D-02              OVMax= 1.44D-01

 Cycle   2  Pass 1  IDiag  1:
 E= -232.151111481868     Delta-E=       -0.069108416046 Rises=F Damp=T
 DIIS: error= 6.53D-03 at cycle   2 NSaved=   2.
 NSaved= 2 IEnMin= 2 EnMin= -232.151111481868     IErMin= 2 ErrMin= 6.53D-03
 ErrMax= 6.53D-03  0.00D+00 EMaxC= 1.00D-01 BMatC= 4.26D-03 BMatP= 1.14D-01
 IDIUse=3 WtCom= 9.35D-01 WtEn= 6.53D-02
 Coeff-Com:  0.219D-01 0.978D+00
 Coeff-En:   0.839D-02 0.992D+00
 Coeff:      0.211D-01 0.979D+00
 Gap=     0.244 Goal=   None    Shift=    0.000
 RMSDP=1.78D-03 MaxDP=2.05D-02 DE=-6.91D-02 OVMax= 8.24D-02

 Cycle   3  Pass 1  IDiag  1:
 E= -232.227054410065     Delta-E=       -0.075942928196 Rises=F Damp=F
 DIIS: error= 3.31D-03 at cycle   3 NSaved=   3.
 NSaved= 3 IEnMin= 3 EnMin= -232.227054410065     IErMin= 3 ErrMin= 3.31D-03
 ErrMax= 3.31D-03  0.00D+00 EMaxC= 1.00D-01 BMatC= 8.37D-04 BMatP= 4.26D-03
 IDIUse=3 WtCom= 9.67D-01 WtEn= 3.31D-02
 Coeff-Com: -0.249D-01 0.274D+00 0.751D+00
 Coeff-En:   0.000D+00 0.000D+00 0.100D+01
 Coeff:     -0.241D-01 0.265D+00 0.759D+00
 Gap=     0.240 Goal=   None    Shift=    0.000
 RMSDP=3.29D-04 MaxDP=4.57D-03 DE=-7.59D-02 OVMax= 8.29D-03

 Cycle   4  Pass 1  IDiag  1:
 E= -232.227732617447     Delta-E=       -0.000678207382 Rises=F Damp=F
 DIIS: error= 8.61D-04 at cycle   4 NSaved=   4.
 NSaved= 4 IEnMin= 4 EnMin= -232.227732617447     IErMin= 4 ErrMin= 8.61D-04
 ErrMax= 8.61D-04  0.00D+00 EMaxC= 1.00D-01 BMatC= 8.54D-05 BMatP= 8.37D-04
 IDIUse=3 WtCom= 9.91D-01 WtEn= 8.61D-03
 Coeff-Com: -0.112D-01 0.661D-01 0.278D+00 0.667D+00
 Coeff-En:   0.000D+00 0.000D+00 0.000D+00 0.100D+01
 Coeff:     -0.111D-01 0.656D-01 0.276D+00 0.670D+00
 Gap=     0.240 Goal=   None    Shift=    0.000
 RMSDP=1.45D-04 MaxDP=3.36D-03 DE=-6.78D-04 OVMax= 7.28D-03

 Cycle   5  Pass 1  IDiag  1:
 E= -232.227769083254     Delta-E=       -0.000036465808 Rises=F Damp=F
 DIIS: error= 7.35D-04 at cycle   5 NSaved=   5.
 NSaved= 5 IEnMin= 5 EnMin= -232.227769083254     IErMin= 5 ErrMin= 7.35D-04
 ErrMax= 7.35D-04  0.00D+00 EMaxC= 1.00D-01 BMatC= 5.28D-05 BMatP= 8.54D-05
 IDIUse=3 WtCom= 9.93D-01 WtEn= 7.35D-03
 Coeff-Com: -0.434D-02 0.587D-02 0.758D-01 0.452D+00 0.471D+00
 Coeff-En:   0.000D+00 0.000D+00 0.000D+00 0.405D+00 0.595D+00
 Coeff:     -0.430D-02 0.583D-02 0.752D-01 0.452D+00 0.472D+00
 Gap=     0.240 Goal=   None    Shift=    0.000
 RMSDP=6.63D-05 MaxDP=1.38D-03 DE=-3.65D-05 OVMax= 3.33D-03

 Cycle   6  Pass 1  IDiag  1:
 E= -232.227830744662     Delta-E=       -0.000061661407 Rises=F Damp=F
 DIIS: error= 2.62D-05 at cycle   6 NSaved=   6.
 NSaved= 6 IEnMin= 6 EnMin= -232.227830744662     IErMin= 6 ErrMin= 2.62D-05
 ErrMax= 2.62D-05  0.00D+00 EMaxC= 1.00D-01 BMatC= 7.04D-08 BMatP= 5.28D-05
 IDIUse=1 WtCom= 1.00D+00 WtEn= 0.00D+00
 Coeff-Com: -0.819D-03 0.248D-03 0.126D-01 0.898D-01 0.104D+00 0.794D+00
 Coeff:     -0.819D-03 0.248D-03 0.126D-01 0.898D-01 0.104D+00 0.794D+00
 Gap=     0.240 Goal=   None    Shift=    0.000
 RMSDP=3.87D-06 MaxDP=1.10D-04 DE=-6.17D-05 OVMax= 1.44D-04

 Cycle   7  Pass 1  IDiag  1:
 E= -232.227830768021     Delta-E=       -0.000000023359 Rises=F Damp=F
 DIIS: error= 2.32D-05 at cycle   7 NSaved=   7.
 NSaved= 7 IEnMin= 7 EnMin= -232.227830768021     IErMin= 7 ErrMin= 2.32D-05
 ErrMax= 2.32D-05  0.00D+00 EMaxC= 1.00D-01 BMatC= 4.99D-08 BMatP= 7.04D-08
 IDIUse=1 WtCom= 1.00D+00 WtEn= 0.00D+00
 Coeff-Com: -0.846D-04-0.418D-03 0.388D-03 0.113D-01 0.183D-01 0.476D+00
 Coeff-Com:  0.495D+00
 Coeff:     -0.846D-04-0.418D-03 0.388D-03 0.113D-01 0.183D-01 0.476D+00
 Coeff:      0.495D+00
 Gap=     0.240 Goal=   None    Shift=    0.000
 RMSDP=1.73D-06 MaxDP=5.45D-05 DE=-2.34D-08 OVMax= 7.04D-05

 Cycle   8  Pass 1  IDiag  1:
 E= -232.227830817372     Delta-E=       -0.000000049351 Rises=F Damp=F
 DIIS: error= 8.22D-07 at cycle   8 NSaved=   8.
 NSaved= 8 IEnMin= 8 EnMin= -232.227830817372     IErMin= 8 ErrMin= 8.22D-07
 ErrMax= 8.22D-07  0.00D+00 EMaxC= 1.00D-01 BMatC= 1.04D-10 BMatP= 4.99D-08
 IDIUse=1 WtCom= 1.00D+00 WtEn= 0.00D+00
 Coeff-Com:  0.629D-05-0.572D-04-0.252D-03-0.361D-03 0.247D-03 0.466D-01
 Coeff-Com:  0.690D-01 0.885D+00
 Coeff:      0.629D-05-0.572D-04-0.252D-03-0.361D-03 0.247D-03 0.466D-01
 Coeff:      0.690D-01 0.885D+00
 Gap=     0.240 Goal=   None    Shift=    0.000
 RMSDP=2.05D-07 MaxDP=4.56D-06 DE=-4.94D-08 OVMax= 1.01D-05

 Cycle   9  Pass 1  IDiag  1:
 E= -232.227830817318     Delta-E=        0.000000000054 Rises=F Damp=F
 DIIS: error= 1.25D-06 at cycle   9 NSaved=   9.
 NSaved= 9 IEnMin= 8 EnMin= -232.227830817372     IErMin= 8 ErrMin= 8.22D-07
 ErrMax= 1.25D-06  0.00D+00 EMaxC= 1.00D-01 BMatC= 1.53D-10 BMatP= 1.04D-10
 IDIUse=1 WtCom= 1.00D+00 WtEn= 0.00D+00
 Coeff-Com:  0.100D-04-0.646D-05-0.194D-03-0.105D-02-0.115D-02-0.389D-02
 Coeff-Com:  0.971D-02 0.588D+00 0.409D+00
 Coeff:      0.100D-04-0.646D-05-0.194D-03-0.105D-02-0.115D-02-0.389D-02
 Coeff:      0.971D-02 0.588D+00 0.409D+00
 Gap=     0.240 Goal=   None    Shift=    0.000
 RMSDP=1.15D-07 MaxDP=2.66D-06 DE= 5.41D-11 OVMax= 5.81D-06

 Cycle  10  Pass 1  IDiag  1:
 E= -232.227830817492     Delta-E=       -0.000000000174 Rises=F Damp=F
 DIIS: error= 5.29D-08 at cycle  10 NSaved=  10.
 NSaved=10 IEnMin=10 EnMin= -232.227830817492     IErMin=10 ErrMin= 5.29D-08
 ErrMax= 5.29D-08  0.00D+00 EMaxC= 1.00D-01 BMatC= 4.71D-13 BMatP= 1.04D-10
 IDIUse=1 WtCom= 1.00D+00 WtEn= 0.00D+00
 Coeff-Com:  0.240D-05 0.285D-06-0.473D-04-0.286D-03-0.325D-03-0.264D-02
 Coeff-Com:  0.564D-03 0.134D+00 0.115D+00 0.754D+00
 Coeff:      0.240D-05 0.285D-06-0.473D-04-0.286D-03-0.325D-03-0.264D-02
 Coeff:      0.564D-03 0.134D+00 0.115D+00 0.754D+00
 Gap=     0.240 Goal=   None    Shift=    0.000
 RMSDP=7.84D-09 MaxDP=1.03D-07 DE=-1.74D-10 OVMax= 2.21D-07

 Error on total polarization charges =  0.00715
 SCF Done:  E(RB3LYP) =  -232.227830817     A.U. after   10 cycles
            NFock= 10  Conv=0.78D-08     -V/T= 2.0056
 KE= 2.309373797613D+02 PE=-9.437095560943D+02 EE= 2.777110426376D+02
 Leave Link  502 at Fri Sep 22 16:31:50 2023, MaxMem=   536870912 cpu:              46.3 elap:              11.8
 (Enter /share/apps/gaussian/g16/l601.exe)
 Copying SCF densities to generalized density rwf, IOpCl= 0 IROHF=0.

 **********************************************************************

            Population analysis using the SCF density.

 **********************************************************************

 Orbital symmetries:
       Occupied  (A) (A) (A) (A) (A) (A) (A) (A) (A) (A) (A) (A)
                 (A) (A) (A) (A) (A) (A) (A) (A) (A)
       Virtual   (A) (A) (A) (A) (A) (A) (A) (A) (A) (A) (A) (A)
                 (A) (A) (A) (A) (A) (A) (A) (A) (A) (A) (A) (A)
                 (A) (A) (A) (A) (A) (A) (A) (A) (A) (A) (A) (A)
                 (A) (A) (A) (A) (A) (A) (A) (A) (A) (A) (A) (A)
                 (A) (A) (A) (A) (A) (A) (A) (A) (A) (A) (A) (A)
                 (A) (A) (A) (A) (A) (A) (A) (A) (A) (A) (A) (A)
                 (A) (A) (A) (A) (A) (A) (A) (A) (A) (A) (A) (A)
                 (A) (A) (A) (A) (A) (A) (A) (A) (A)
 The electronic state is 1-A.
 Alpha  occ. eigenvalues --  -10.18833 -10.18576 -10.18512 -10.18482 -10.18426
 Alpha  occ. eigenvalues --  -10.18278  -0.86129  -0.75535  -0.75243  -0.61173
 Alpha  occ. eigenvalues --   -0.60917  -0.52974  -0.46967  -0.45401  -0.43104
 Alpha  occ. eigenvalues --   -0.42741  -0.37485  -0.35636  -0.34821  -0.26460
 Alpha  occ. eigenvalues --   -0.26035
 Alpha virt. eigenvalues --   -0.02004  -0.01642   0.04552   0.08016   0.08186
 Alpha virt. eigenvalues --    0.11229   0.11594   0.13738   0.14059   0.24755
 Alpha virt. eigenvalues --    0.25361   0.26997   0.28196   0.35790   0.41400
 Alpha virt. eigenvalues --    0.41556   0.42258   0.47494   0.47708   0.49146
 Alpha virt. eigenvalues --    0.49375   0.50132   0.50512   0.51108   0.51769
 Alpha virt. eigenvalues --    0.53819   0.53913   0.60838   0.61548   0.62209
 Alpha virt. eigenvalues --    0.62605   0.63448   0.68559   0.74998   0.83490
 Alpha virt. eigenvalues --    0.87833   0.88203   0.92879   0.93287   0.96359
 Alpha virt. eigenvalues --    0.96931   1.02610   1.22221   1.22991   1.24509
 Alpha virt. eigenvalues --    1.26424   1.35700   1.36209   1.38858   1.39419
 Alpha virt. eigenvalues --    1.49661   1.65208   1.68971   1.74734   1.82814
 Alpha virt. eigenvalues --    1.83600   1.84739   1.86153   1.87106   1.87383
 Alpha virt. eigenvalues --    1.87469   1.91820   1.93759   2.19421   2.20043
 Alpha virt. eigenvalues --    2.20641   2.21715   2.22156   2.24482   2.25009
 Alpha virt. eigenvalues --    2.25777   2.26215   2.29524   2.32313   2.32610
 Alpha virt. eigenvalues --    2.38018   2.39986   2.48094   2.49600   2.63305
 Alpha virt. eigenvalues --    2.68205   2.69041   2.70936   2.96208   2.99120
 Alpha virt. eigenvalues --    3.04371   3.05308   3.08055   3.12009   3.32934
 Alpha virt. eigenvalues --    3.36283   3.39364   3.84232
          Condensed to atoms (all electrons):
               1          2          3          4          5          6
     1  C    4.911941   0.483736  -0.043490  -0.068152   0.447190  -0.040507
     2  C    0.483736   4.977375   0.431739  -0.040014  -0.040213  -0.065638
     3  C   -0.043490   0.431739   4.943302   0.472436  -0.066153  -0.040406
     4  C   -0.068152  -0.040014   0.472436   4.952011  -0.040313   0.456125
     5  C    0.447190  -0.040213  -0.066153  -0.040313   4.958356   0.463507
     6  C   -0.040507  -0.065638  -0.040406   0.456125   0.463507   4.935923
     7  H   -0.001861   0.012169  -0.048345   0.421170   0.011977  -0.049577
     8  H    0.010750  -0.053465   0.424160  -0.045293  -0.002210   0.012065
     9  H   -0.050560   0.011119  -0.002036   0.012251   0.422545  -0.047865
    10  H    0.011768  -0.002115   0.011616  -0.049110  -0.049039   0.423565
    11  H    0.427003  -0.043933   0.013097  -0.002202  -0.052276   0.011640
    12  H   -0.042553   0.419198  -0.051565   0.010232   0.012528  -0.001911
               7          8          9         10         11         12
     1  C   -0.001861   0.010750  -0.050560   0.011768   0.427003  -0.042553
     2  C    0.012169  -0.053465   0.011119  -0.002115  -0.043933   0.419198
     3  C   -0.048345   0.424160  -0.002036   0.011616   0.013097  -0.051565
     4  C    0.421170  -0.045293   0.012251  -0.049110  -0.002202   0.010232
     5  C    0.011977  -0.002210   0.422545  -0.049039  -0.052276   0.012528
     6  C   -0.049577   0.012065  -0.047865   0.423565   0.011640  -0.001911
     7  H    0.617417  -0.015748  -0.000173  -0.014620   0.000057  -0.000137
     8  H   -0.015748   0.615949   0.000065  -0.000099  -0.000147  -0.012320
     9  H   -0.000173   0.000065   0.618260  -0.015129  -0.014468  -0.000152
    10  H   -0.014620  -0.000099  -0.015129   0.617079  -0.000109   0.000056
    11  H    0.000057  -0.000147  -0.014468  -0.000109   0.634575  -0.016808
    12  H   -0.000137  -0.012320  -0.000152   0.000056  -0.016808   0.611710
 Mulliken charges:
               1
     1  C   -0.045266
     2  C   -0.089958
     3  C   -0.044353
     4  C   -0.079140
     5  C   -0.065898
     6  C   -0.056921
     7  H    0.067670
     8  H    0.066293
     9  H    0.066144
    10  H    0.066137
    11  H    0.043571
    12  H    0.071721
 Sum of Mulliken charges =  -0.00000
 Mulliken charges with hydrogens summed into heavy atoms:
               1
     1  C   -0.001695
     2  C   -0.018237
     3  C    0.021940
     4  C   -0.011470
     5  C    0.000246
     6  C    0.009216
 Electronic spatial extent (au):  <R**2>=            461.7309
 Charge=             -0.0000 electrons
 Dipole moment (field-independent basis, Debye):
    X=              0.0069    Y=             -0.0306    Z=              0.0523  Tot=              0.0610
 Quadrupole moment (field-independent basis, Debye-Ang):
   XX=            -31.9386   YY=            -31.8395   ZZ=            -40.4568
   XY=              0.1824   XZ=             -0.0048   YZ=             -0.0789
 Traceless Quadrupole moment (field-independent basis, Debye-Ang):
   XX=              2.8064   YY=              2.9055   ZZ=             -5.7118
   XY=              0.1824   XZ=             -0.0048   YZ=             -0.0789
 Octapole moment (field-independent basis, Debye-Ang**2):
  XXX=              0.6735  YYY=             -0.1914  ZZZ=              0.0981  XYY=             -0.6836
  XXY=             -0.2693  XXZ=              0.1766  XZZ=              0.0873  YZZ=             -0.0333
  YYZ=              0.2532  XYZ=              0.0621
 Hexadecapole moment (field-independent basis, Debye-Ang**3):
 XXXX=           -278.1965 YYYY=           -273.0936 ZZZZ=            -49.1833 XXXY=              1.0296
 XXXZ=              0.0257 YYYX=              0.6895 YYYZ=             -0.5495 ZZZX=             -0.0072
 ZZZY=             -0.1229 XXYY=            -90.5957 XXZZ=            -64.9988 YYZZ=            -63.9579
 XXYZ=             -0.0782 YYXZ=             -0.0598 ZZXY=              0.0256
 N-N= 2.028333028780D+02 E-N=-9.437095541925D+02  KE= 2.309373797613D+02
 There are a total of      264984 grid points.
 ElSum from          density=       41.9999951452
 ElSum from atomic densities=       42.0000028157
 Hirshfeld populations at iteration   1 (CA, CB, DipXYZ):
               1          2          3          4          5
     1  C    3.021296   3.021296  -0.002243  -0.056905  -0.000457
     2  C    3.019534   3.019534  -0.049201  -0.014364   0.001563
     3  C    3.021269   3.021269  -0.041313   0.033906   0.000073
     4  C    3.020430   3.020430   0.009898   0.045308  -0.000210
     5  C    3.020296   3.020296   0.037352  -0.034706   0.000405
     6  C    3.020670   3.020670   0.050642   0.023438   0.001099
     7  H    0.479969   0.479969   0.021032   0.150794   0.000410
     8  H    0.479042   0.479042  -0.117289   0.099505   0.000381
     9  H    0.479845   0.479845   0.119269  -0.094256   0.001603
    10  H    0.478491   0.478491   0.143191   0.055933   0.001622
    11  H    0.480111   0.480111  -0.032099  -0.154301   0.006605
    12  H    0.479046   0.479046  -0.134906  -0.073338   0.002021
       Tot  20.999998  20.999998   0.004334  -0.018985   0.015114

 Dip from Atomic Chgs             -0.001637   0.006940   0.005463
         Total Dipole              0.002697  -0.012045   0.020577

 Hirshfeld charges, spin densities, dipoles, and CM5 charges using IRadAn=      5:
              Q-H        S-H        Dx         Dy         Dz        Q-CM5   
     1  C   -0.042591   0.000000  -0.002243  -0.056905  -0.000457  -0.104132
     2  C   -0.039067   0.000000  -0.049201  -0.014364   0.001563  -0.093374
     3  C   -0.042538   0.000000  -0.041313   0.033906   0.000073  -0.097801
     4  C   -0.040860   0.000000   0.009898   0.045308  -0.000210  -0.096016
     5  C   -0.040591   0.000000   0.037352  -0.034706   0.000405  -0.096167
     6  C   -0.041341   0.000000   0.050642   0.023438   0.001099  -0.096759
     7  H    0.040062   0.000000   0.021032   0.150794   0.000410   0.095327
     8  H    0.041917   0.000000  -0.117289   0.099505   0.000381   0.097500
     9  H    0.040310   0.000000   0.119269  -0.094256   0.001603   0.095854
    10  H    0.043018   0.000000   0.143191   0.055933   0.001622   0.098338
    11  H    0.039778   0.000000  -0.032099  -0.154301   0.006605   0.101662
    12  H    0.041908   0.000000  -0.134906  -0.073338   0.002021   0.095573
       Tot   0.000005   0.000000   0.004334  -0.018985   0.015114   0.000005
 Hirshfeld charges with hydrogens summed into heavy atoms:
              Q-H       Q-CM5   
     1  C   -0.002813  -0.002470
     2  C    0.002840   0.002199
     3  C   -0.000621  -0.000300
     4  C   -0.000797  -0.000689
     5  C   -0.000281  -0.000313
     6  C    0.001677   0.001579
 
 EQQ= 0.000000000000E+00 EQD= 0.000000000000E+00 EDD= 0.686919474701E-02
 EQQ+QD+DD= 0.686919474701E-02
 
 No NMR shielding tensors so no spin-rotation constants.
 Leave Link  601 at Fri Sep 22 16:31:50 2023, MaxMem=   536870912 cpu:               2.7 elap:               0.7
 (Enter /share/apps/gaussian/g16/l9999.exe)
 1\1\GINC-NODE74\SP\RB3LYP\Gen\C6H6\YANZ\22-Sep-2023\0\\#p b3lyp/gen sc
 rf=(cpcm,solvent=toluene) pop=hirshfeld empiricaldispersion=gd3bj\\tmp
 dir/M3_frag_ref_3.gjf\\0,1\C,0,-0.810681,-1.231316,-2.65928698\C,0,-2.
 05299,-1.679097,-3.1874249\C,0,-2.219932,-1.771457,-4.57476521\C,0,-1.
 173612,-1.412586,-5.41817808\C,0,0.227556,-0.872776,-3.53981304\C,0,0.
 049846,-0.95826,-4.91006994\H,0,-1.318242,-1.484517,-6.49470091\H,0,-3
 .15817,-2.115073,-4.99715185\H,0,1.171231,-0.516508,-3.13800502\H,0,0.
 853019,-0.673509,-5.58497095\H,0,-0.72553174,-1.14048061,-1.62836327\H
 ,0,-2.82554619,-1.92926506,-2.44846947\\Version=ES64L-G16RevA.03\State
 =1-A\HF=-232.2278308\RMSD=7.845e-09\Dipole=-0.0013333,0.0216066,0.0103
 468\Quadrupole=1.294636,-3.5186799,2.2240439,2.0009467,-0.1501417,0.14
 28098\PG=C01 [X(C6H6)]\\@


 There are more things in heaven and earth, Horatio,
 than are dreamt of in your philosophy.
                   -- Hamlet, Act I, Scene 5
 Job cpu time:       0 days  0 hours  0 minutes 54.6 seconds.
 Elapsed time:       0 days  0 hours  0 minutes 14.0 seconds.
 File lengths (MBytes):  RWF=     21 Int=      0 D2E=      0 Chk=      2 Scr=      1
 Normal termination of Gaussian 16 at Fri Sep 22 16:31:51 2023.
