 Entering Gaussian System, Link 0=g16
 Initial command:
 /share/apps/gaussian/g16/l1.exe "/tmp/55557.mgr/Gau-208709.inp" -scrdir="/tmp/55557.mgr/"
 Entering Link 1 = /share/apps/gaussian/g16/l1.exe PID=    208710.
  
 Copyright (c) 1988,1990,1992,1993,1995,1998,2003,2009,2016,
            Gaussian, Inc.  All Rights Reserved.
  
 This is part of the Gaussian(R) 16 program.  It is based on
 the Gaussian(R) 09 system (copyright 2009, Gaussian, Inc.),
 the Gaussian(R) 03 system (copyright 2003, Gaussian, Inc.),
 the Gaussian(R) 98 system (copyright 1998, Gaussian, Inc.),
 the Gaussian(R) 94 system (copyright 1995, Gaussian, Inc.),
 the Gaussian 92(TM) system (copyright 1992, Gaussian, Inc.),
 the Gaussian 90(TM) system (copyright 1990, Gaussian, Inc.),
 the Gaussian 88(TM) system (copyright 1988, Gaussian, Inc.),
 the Gaussian 86(TM) system (copyright 1986, Carnegie Mellon
 University), and the Gaussian 82(TM) system (copyright 1983,
 Carnegie Mellon University). Gaussian is a federally registered
 trademark of Gaussian, Inc.
  
 This software contains proprietary and confidential information,
 including trade secrets, belonging to Gaussian, Inc.
  
 This software is provided under written license and may be
 used, copied, transmitted, or stored only in accord with that
 written license.
  
 The following legend is applicable only to US Government
 contracts under FAR:
  
                    RESTRICTED RIGHTS LEGEND
  
 Use, reproduction and disclosure by the US Government is
 subject to restrictions as set forth in subparagraphs (a)
 and (c) of the Commercial Computer Software - Restricted
 Rights clause in FAR 52.227-19.
  
 Gaussian, Inc.
 340 Quinnipiac St., Bldg. 40, Wallingford CT 06492
  
  
 ---------------------------------------------------------------
 Warning -- This program may not be used in any manner that
 competes with the business of Gaussian, Inc. or will provide
 assistance to any competitor of Gaussian, Inc.  The licensee
 of this program is prohibited from giving any competitor of
 Gaussian, Inc. access to this program.  By using this program,
 the user acknowledges that Gaussian, Inc. is engaged in the
 business of creating and licensing software in the field of
 computational chemistry and represents and warrants to the
 licensee that it is not a competitor of Gaussian, Inc. and that
 it will not use this program in any manner prohibited above.
 ---------------------------------------------------------------
  

 Cite this work as:
 Gaussian 16, Revision A.03,
 M. J. Frisch, G. W. Trucks, H. B. Schlegel, G. E. Scuseria, 
 M. A. Robb, J. R. Cheeseman, G. Scalmani, V. Barone, 
 G. A. Petersson, H. Nakatsuji, X. Li, M. Caricato, A. V. Marenich, 
 J. Bloino, B. G. Janesko, R. Gomperts, B. Mennucci, H. P. Hratchian, 
 J. V. Ortiz, A. F. Izmaylov, J. L. Sonnenberg, D. Williams-Young, 
 F. Ding, F. Lipparini, F. Egidi, J. Goings, B. Peng, A. Petrone, 
 T. Henderson, D. Ranasinghe, V. G. Zakrzewski, J. Gao, N. Rega, 
 G. Zheng, W. Liang, M. Hada, M. Ehara, K. Toyota, R. Fukuda, 
 J. Hasegawa, M. Ishida, T. Nakajima, Y. Honda, O. Kitao, H. Nakai, 
 T. Vreven, K. Throssell, J. A. Montgomery, Jr., J. E. Peralta, 
 F. Ogliaro, M. J. Bearpark, J. J. Heyd, E. N. Brothers, K. N. Kudin, 
 V. N. Staroverov, T. A. Keith, R. Kobayashi, J. Normand, 
 K. Raghavachari, A. P. Rendell, J. C. Burant, S. S. Iyengar, 
 J. Tomasi, M. Cossi, J. M. Millam, M. Klene, C. Adamo, R. Cammi, 
 J. W. Ochterski, R. L. Martin, K. Morokuma, O. Farkas, 
 J. B. Foresman, and D. J. Fox, Gaussian, Inc., Wallingford CT, 2016.
 
 ******************************************
 Gaussian 16:  ES64L-G16RevA.03 25-Dec-2016
                22-Sep-2023 
 ******************************************
 %nprocshared=4
 Will use up to    4 processors via shared memory.
 %mem=4GB
 ----------------------------------------------------------------------
 #p b3lyp/gen scrf=(cpcm,solvent=toluene) pop=hirshfeld empiricaldisper
 sion=gd3bj
 ----------------------------------------------------------------------
 1/38=1,172=1/1;
 2/12=2,17=6,18=5,40=1/2;
 3/5=7,11=2,25=1,30=1,70=2101,72=13,74=-5,124=41/1,2,3;
 4//1;
 5/5=2,38=5,53=13/2;
 6/7=2,8=2,9=2,10=2,28=1,79=1/1;
 99/5=1,9=1/99;
 Leave Link    1 at Fri Sep 22 16:28:36 2023, MaxMem=   536870912 cpu:               0.2 elap:               0.1
 (Enter /share/apps/gaussian/g16/l101.exe)
 ---------------------
 tmpdir/M3_ref_153.gjf
 ---------------------
 Symbolic Z-matrix:
 Charge =  0 Multiplicity = 1
 C                     6.32156   0.84294   0.62326 
 H                     7.36322   0.82456   0.96094 
 H                     5.92801  -0.17337   0.44661 
 H                     6.19807   1.33782  -0.35814 
 H                     5.72923   1.34582   1.3964 
 
 ITRead=  0  0  0  0  0
 MicOpt= -1 -1 -1 -1 -1
 NAtoms=      5 NQM=        5 NQMF=       0 NMMI=      0 NMMIF=      0
                NMic=       0 NMicF=      0.
                    Isotopes and Nuclear Properties:
 (Nuclear quadrupole moments (NQMom) in fm**2, nuclear magnetic moments (NMagM)
  in nuclear magnetons)

  Atom         1           2           3           4           5
 IAtWgt=          12           1           1           1           1
 AtmWgt=  12.0000000   1.0078250   1.0078250   1.0078250   1.0078250
 NucSpn=           0           1           1           1           1
 AtZEff=  -0.0000000  -0.0000000  -0.0000000  -0.0000000  -0.0000000
 NQMom=    0.0000000   0.0000000   0.0000000   0.0000000   0.0000000
 NMagM=    0.0000000   2.7928460   2.7928460   2.7928460   2.7928460
 AtZNuc=   6.0000000   1.0000000   1.0000000   1.0000000   1.0000000
 Leave Link  101 at Fri Sep 22 16:28:37 2023, MaxMem=   536870912 cpu:               0.3 elap:               0.1
 (Enter /share/apps/gaussian/g16/l202.exe)
                          Input orientation:                          
 ---------------------------------------------------------------------
 Center     Atomic      Atomic             Coordinates (Angstroms)
 Number     Number       Type             X           Y           Z
 ---------------------------------------------------------------------
      1          6           0        6.321564    0.842942    0.623264
      2          1           0        7.363221    0.824559    0.960941
      3          1           0        5.928009   -0.173367    0.446610
      4          1           0        6.198071    1.337819   -0.358140
      5          1           0        5.729231    1.345823    1.396401
 ---------------------------------------------------------------------
                    Distance matrix (angstroms):
                    1          2          3          4          5
     1  C    0.000000
     2  H    1.095177   0.000000
     3  H    1.104073   1.822149   0.000000
     4  H    1.106032   1.833299   1.733274   0.000000
     5  H    1.096124   1.769538   1.802652   1.816119   0.000000
 Stoichiometry    CH4
 Framework group  C1[X(CH4)]
 Deg. of freedom     9
 Full point group                 C1      NOp   1
 Largest Abelian subgroup         C1      NOp   1
 Largest concise Abelian subgroup C1      NOp   1
                         Standard orientation:                         
 ---------------------------------------------------------------------
 Center     Atomic      Atomic             Coordinates (Angstroms)
 Number     Number       Type             X           Y           Z
 ---------------------------------------------------------------------
      1          6           0        0.008123   -0.003192   -0.002377
      2          1           0        0.754532   -0.804453    0.013965
      3          1           0       -0.621390   -0.008350    0.904630
      4          1           0       -0.725572   -0.117885   -0.822039
      5          1           0        0.543690    0.949840   -0.082292
 ---------------------------------------------------------------------
 Rotational constants (GHZ):         163.6318408         152.9169409         150.0668113
 Leave Link  202 at Fri Sep 22 16:28:37 2023, MaxMem=   536870912 cpu:               0.2 elap:               0.1
 (Enter /share/apps/gaussian/g16/l301.exe)
 General basis read from cards:  (5D, 7F)
 Centers:       2      3      4      5
 S 3 1.00
     Exponent=  1.2251800000D+01 Coefficients=  2.3337100000D-02
     Exponent=  1.8687100000D+00 Coefficients=  1.5915000000D-01
     Exponent=  4.1820800000D-01 Coefficients=  5.0000000000D-01
 S 1 1.00
     Exponent=  1.0610000000D-01 Coefficients=  1.0000000000D+00
 P 1 1.00
     Exponent=  1.0000000000D+00 Coefficients=  1.0000000000D+00
 ****
 Centers:       1
 S 5 1.00
     Exponent=  1.2432000000D+03 Coefficients=  6.0336600000D-03
     Exponent=  1.8714500000D+02 Coefficients=  4.4957600000D-02
     Exponent=  4.2512600000D+01 Coefficients=  1.9790100000D-01
     Exponent=  1.1739300000D+01 Coefficients=  5.0000000000D-01
     Exponent=  3.5054800000D+00 Coefficients=  4.8036400000D-01
 S 2 1.00
     Exponent=  5.3908900000D+00 Coefficients= -7.0398000000D-02
     Exponent=  4.9334100000D-01 Coefficients=  5.0000000000D-01
 S 1 1.00
     Exponent=  1.4974100000D-01 Coefficients=  1.0000000000D+00
 P 3 1.00
     Exponent=  9.1805600000D+00 Coefficients=  4.3170100000D-02
     Exponent=  1.9365800000D+00 Coefficients=  2.2499900000D-01
     Exponent=  5.2629600000D-01 Coefficients=  5.0000000000D-01
 P 1 1.00
     Exponent=  1.3631900000D-01 Coefficients=  1.0000000000D+00
 D 1 1.00
     Exponent=  8.0000000000D-01 Coefficients=  1.0000000000D+00
 ****
 Ernie: Thresh=  0.10000D-02 Tol=  0.10000D-05 Strict=F.
 There are    35 symmetry adapted cartesian basis functions of A   symmetry.
 There are    34 symmetry adapted basis functions of A   symmetry.
    34 basis functions,    54 primitive gaussians,    35 cartesian basis functions
     5 alpha electrons        5 beta electrons
       nuclear repulsion energy        13.3105583812 Hartrees.
 IExCor=  402 DFT=T Ex+Corr=B3LYP ExCW=0 ScaHFX=  0.200000
 ScaDFX=  0.800000  0.720000  1.000000  0.810000 ScalE2=  1.000000  1.000000
 IRadAn=      5 IRanWt=     -1 IRanGd=            0 ICorTp=0 IEmpDi=141
 NAtoms=    5 NActive=    5 NUniq=    5 SFac= 1.00D+00 NAtFMM=   60 NAOKFM=F Big=F
 Integral buffers will be    131072 words long.
 Raffenetti 2 integral format.
 Two-electron integral symmetry is turned on.
 R6Disp:  Grimme-D3(BJ) Dispersion energy=       -0.0019125648 Hartrees.
 Nuclear repulsion after empirical dispersion term =       13.3086458164 Hartrees.
 ------------------------------------------------------------------------------
 Polarizable Continuum Model (PCM)
 =================================
 Model                : C-PCM.
 Atomic radii         : UFF (Universal Force Field).
 Polarization charges : Total charges.
 Charge compensation  : None.
 Solution method      : On-the-fly selection.
 Cavity type          : Scaled VdW (van der Waals Surface) (Alpha=1.100).
 Cavity algorithm     : GePol (No added spheres)
                        Default sphere list used, NSphG=    5.
                        Lebedev-Laikov grids with approx.  5.0 points / Ang**2.
                        Smoothing algorithm: York/Karplus (Gamma=1.0000).
                        Polarization charges: spherical gaussians, with
                                              point-specific exponents (IZeta= 3).
                        Self-potential: point-specific (ISelfS= 7).
                        Self-field    : sphere-specific E.n sum rule (ISelfD= 2).
 Solvent              : Toluene, Eps=   2.374100 Eps(inf)=   2.238315
 ------------------------------------------------------------------------------
 Spheres list:
 ISph  on   Nord     Re0    Alpha      Xe            Ye            Ze
    1   C      1    1.9255  1.100      0.008123     -0.003192     -0.002377
    2   H      2    1.4430  1.100      0.754532     -0.804453      0.013965
    3   H      3    1.4430  1.100     -0.621390     -0.008350      0.904630
    4   H      4    1.4430  1.100     -0.725572     -0.117885     -0.822039
    5   H      5    1.4430  1.100      0.543690      0.949840     -0.082292
 ------------------------------------------------------------------------------
 GePol: Number of generator spheres                  =       5
 GePol: Total number of spheres                      =       5
 GePol: Number of exposed spheres                    =       5 (100.00%)
 GePol: Number of points                             =     487
 GePol: Average weight of points                     =       0.14
 GePol: Minimum weight of points                     =   0.11D-05
 GePol: Maximum weight of points                     =    0.20577
 GePol: Number of points with low weight             =      16
 GePol: Fraction of low-weight points (<1% of avg)   =       3.29%
 GePol: Cavity surface area                          =     70.132 Ang**2
 GePol: Cavity volume                                =     51.742 Ang**3
 Leave Link  301 at Fri Sep 22 16:28:37 2023, MaxMem=   536870912 cpu:               0.4 elap:               0.1
 (Enter /share/apps/gaussian/g16/l302.exe)
 NPDir=0 NMtPBC=     1 NCelOv=     1 NCel=       1 NClECP=     1 NCelD=      1
         NCelK=      1 NCelE2=     1 NClLst=     1 CellRange=     0.0.
 One-electron integrals computed using PRISM.
 One-electron integral symmetry used in STVInt
 NBasis=    34 RedAO= T EigKep=  2.86D-02  NBF=    34
 NBsUse=    34 1.00D-06 EigRej= -1.00D+00 NBFU=    34
 Precomputing XC quadrature grid using
 IXCGrd= 4 IRadAn=           5 IRanWt=          -1 IRanGd=           0 AccXCQ= 0.00D+00.
 Generated NRdTot=       0 NPtTot=           0 NUsed=           0 NTot=          32
 NSgBfM=    35    35    35    35    35 MxSgAt=     5 MxSgA2=     5.
 Leave Link  302 at Fri Sep 22 16:28:37 2023, MaxMem=   536870912 cpu:               0.4 elap:               0.1
 (Enter /share/apps/gaussian/g16/l303.exe)
 DipDrv:  MaxL=1.
 Leave Link  303 at Fri Sep 22 16:28:37 2023, MaxMem=   536870912 cpu:               0.1 elap:               0.0
 (Enter /share/apps/gaussian/g16/l401.exe)
 ExpMin= 1.06D-01 ExpMax= 1.24D+03 ExpMxC= 1.87D+02 IAcc=3 IRadAn=         5 AccDes= 0.00D+00
 Harris functional with IExCor=  402 and IRadAn=       5 diagonalized for initial guess.
 HarFok:  IExCor=  402 AccDes= 0.00D+00 IRadAn=         5 IDoV= 1 UseB2=F ITyADJ=14
 ICtDFT=  3500011 ScaDFX=  1.000000  1.000000  1.000000  1.000000
 FoFCou: FMM=F IPFlag=           0 FMFlag=      100000 FMFlg1=           0
         NFxFlg=           0 DoJE=T BraDBF=F KetDBF=T FulRan=T
         wScrn=  0.000000 ICntrl=       500 IOpCl=  0 I1Cent=   200000004 NGrid=           0
         NMat0=    1 NMatS0=      1 NMatT0=    0 NMatD0=    1 NMtDS0=    0 NMtDT0=    0
 Petite list used in FoFCou.
 Harris En= -40.5498723036425    
 JPrj=0 DoOrth=F DoCkMO=F.
 Leave Link  401 at Fri Sep 22 16:28:37 2023, MaxMem=   536870912 cpu:               0.8 elap:               0.2
 (Enter /share/apps/gaussian/g16/l502.exe)
 Keep R1 ints in memory in canonical form, NReq=3628609.
 FoFCou: FMM=F IPFlag=           0 FMFlag=           0 FMFlg1=           0
         NFxFlg=           0 DoJE=F BraDBF=F KetDBF=F FulRan=T
         wScrn=  0.000000 ICntrl=       600 IOpCl=  0 I1Cent=           0 NGrid=           0
         NMat0=    1 NMatS0=    595 NMatT0=    0 NMatD0=    1 NMtDS0=    0 NMtDT0=    0
 Symmetry not used in FoFCou.
 Two-electron integral symmetry not used.
 Closed shell SCF:
 Using DIIS extrapolation, IDIIS=  1040.
 NGot=   536870912 LenX=   536690353 LenY=   536688687
 Requested convergence on RMS density matrix=1.00D-08 within 128 cycles.
 Requested convergence on MAX density matrix=1.00D-06.
 Requested convergence on             energy=1.00D-06.
 No special actions if energy rises.

 Cycle   1  Pass 1  IDiag  1:
 Inv3:  Mode=1 IEnd=      711507.
 Iteration    1 A*A^-1 deviation from unit magnitude is 4.11D-15 for    108.
 Iteration    1 A*A^-1 deviation from orthogonality  is 1.55D-15 for    328    302.
 Iteration    1 A^-1*A deviation from unit magnitude is 3.89D-15 for    108.
 Iteration    1 A^-1*A deviation from orthogonality  is 1.53D-15 for    451    273.
 E= -40.4263322444978    
 DIIS: error= 4.62D-02 at cycle   1 NSaved=   1.
 NSaved= 1 IEnMin= 1 EnMin= -40.4263322444978     IErMin= 1 ErrMin= 4.62D-02
 ErrMax= 4.62D-02  0.00D+00 EMaxC= 1.00D-01 BMatC= 7.70D-02 BMatP= 7.70D-02
 IDIUse=3 WtCom= 5.38D-01 WtEn= 4.62D-01
 Coeff-Com:  0.100D+01
 Coeff-En:   0.100D+01
 Coeff:      0.100D+01
 Gap=     0.352 Goal=   None    Shift=    0.000
 GapD=    0.352 DampG=1.000 DampE=0.500 DampFc=0.5000 IDamp=-1.
 Damping current iteration by 5.00D-01
 RMSDP=1.46D-02 MaxDP=1.52D-01              OVMax= 2.01D-01

 Cycle   2  Pass 1  IDiag  1:
 E= -40.4653455818909     Delta-E=       -0.039013337393 Rises=F Damp=T
 DIIS: error= 8.18D-03 at cycle   2 NSaved=   2.
 NSaved= 2 IEnMin= 2 EnMin= -40.4653455818909     IErMin= 2 ErrMin= 8.18D-03
 ErrMax= 8.18D-03  0.00D+00 EMaxC= 1.00D-01 BMatC= 1.28D-03 BMatP= 7.70D-02
 IDIUse=3 WtCom= 9.18D-01 WtEn= 8.18D-02
 Coeff-Com:  0.847D-01 0.915D+00
 Coeff-En:   0.139D+00 0.861D+00
 Coeff:      0.892D-01 0.911D+00
 Gap=     0.429 Goal=   None    Shift=    0.000
 RMSDP=1.36D-03 MaxDP=1.15D-02 DE=-3.90D-02 OVMax= 1.06D-01

 Cycle   3  Pass 1  IDiag  1:
 E= -40.5129362110348     Delta-E=       -0.047590629144 Rises=F Damp=F
 DIIS: error= 4.86D-04 at cycle   3 NSaved=   3.
 NSaved= 3 IEnMin= 3 EnMin= -40.5129362110348     IErMin= 3 ErrMin= 4.86D-04
 ErrMax= 4.86D-04  0.00D+00 EMaxC= 1.00D-01 BMatC= 1.03D-05 BMatP= 1.28D-03
 IDIUse=3 WtCom= 9.95D-01 WtEn= 4.86D-03
 Coeff-Com:  0.631D-02-0.505D-01 0.104D+01
 Coeff-En:   0.000D+00 0.000D+00 0.100D+01
 Coeff:      0.628D-02-0.503D-01 0.104D+01
 Gap=     0.437 Goal=   None    Shift=    0.000
 RMSDP=8.22D-05 MaxDP=8.04D-04 DE=-4.76D-02 OVMax= 8.85D-04

 Cycle   4  Pass 1  IDiag  1:
 E= -40.5129453721366     Delta-E=       -0.000009161102 Rises=F Damp=F
 DIIS: error= 5.33D-05 at cycle   4 NSaved=   4.
 NSaved= 4 IEnMin= 4 EnMin= -40.5129453721366     IErMin= 4 ErrMin= 5.33D-05
 ErrMax= 5.33D-05  0.00D+00 EMaxC= 1.00D-01 BMatC= 7.53D-08 BMatP= 1.03D-05
 IDIUse=1 WtCom= 1.00D+00 WtEn= 0.00D+00
 Coeff-Com:  0.162D-02-0.786D-02 0.174D+00 0.833D+00
 Coeff:      0.162D-02-0.786D-02 0.174D+00 0.833D+00
 Gap=     0.437 Goal=   None    Shift=    0.000
 RMSDP=8.65D-06 MaxDP=9.44D-05 DE=-9.16D-06 OVMax= 1.10D-04

 Cycle   5  Pass 1  IDiag  1:
 E= -40.5129454612915     Delta-E=       -0.000000089155 Rises=F Damp=F
 DIIS: error= 7.63D-06 at cycle   5 NSaved=   5.
 NSaved= 5 IEnMin= 5 EnMin= -40.5129454612915     IErMin= 5 ErrMin= 7.63D-06
 ErrMax= 7.63D-06  0.00D+00 EMaxC= 1.00D-01 BMatC= 1.65D-09 BMatP= 7.53D-08
 IDIUse=1 WtCom= 1.00D+00 WtEn= 0.00D+00
 Coeff-Com:  0.172D-03 0.113D-03 0.246D-02 0.134D+00 0.863D+00
 Coeff:      0.172D-03 0.113D-03 0.246D-02 0.134D+00 0.863D+00
 Gap=     0.437 Goal=   None    Shift=    0.000
 RMSDP=1.32D-06 MaxDP=1.46D-05 DE=-8.92D-08 OVMax= 1.74D-05

 Cycle   6  Pass 1  IDiag  1:
 E= -40.5129454631996     Delta-E=       -0.000000001908 Rises=F Damp=F
 DIIS: error= 7.76D-07 at cycle   6 NSaved=   6.
 NSaved= 6 IEnMin= 6 EnMin= -40.5129454631996     IErMin= 6 ErrMin= 7.76D-07
 ErrMax= 7.76D-07  0.00D+00 EMaxC= 1.00D-01 BMatC= 1.63D-11 BMatP= 1.65D-09
 IDIUse=1 WtCom= 1.00D+00 WtEn= 0.00D+00
 Coeff-Com: -0.105D-04 0.434D-04-0.115D-02 0.123D-02 0.856D-01 0.914D+00
 Coeff:     -0.105D-04 0.434D-04-0.115D-02 0.123D-02 0.856D-01 0.914D+00
 Gap=     0.437 Goal=   None    Shift=    0.000
 RMSDP=1.32D-07 MaxDP=1.48D-06 DE=-1.91D-09 OVMax= 1.99D-06

 Cycle   7  Pass 1  IDiag  1:
 E= -40.5129454632214     Delta-E=       -0.000000000022 Rises=F Damp=F
 DIIS: error= 3.42D-08 at cycle   7 NSaved=   7.
 NSaved= 7 IEnMin= 7 EnMin= -40.5129454632214     IErMin= 7 ErrMin= 3.42D-08
 ErrMax= 3.42D-08  0.00D+00 EMaxC= 1.00D-01 BMatC= 6.40D-14 BMatP= 1.63D-11
 IDIUse=1 WtCom= 1.00D+00 WtEn= 0.00D+00
 Coeff-Com: -0.191D-05 0.628D-05-0.205D-03 0.171D-03 0.129D-01 0.144D+00
 Coeff-Com:  0.843D+00
 Coeff:     -0.191D-05 0.628D-05-0.205D-03 0.171D-03 0.129D-01 0.144D+00
 Coeff:      0.843D+00
 Gap=     0.437 Goal=   None    Shift=    0.000
 RMSDP=8.43D-09 MaxDP=1.09D-07 DE=-2.18D-11 OVMax= 1.19D-07

 Error on total polarization charges =  0.00450
 SCF Done:  E(RB3LYP) =  -40.5129454632     A.U. after    7 cycles
            NFock=  7  Conv=0.84D-08     -V/T= 2.0097
 KE= 4.012518072373D+01 PE=-1.196883991275D+02 EE= 2.574162712416D+01
 Leave Link  502 at Fri Sep 22 16:28:38 2023, MaxMem=   536870912 cpu:               4.9 elap:               1.3
 (Enter /share/apps/gaussian/g16/l601.exe)
 Copying SCF densities to generalized density rwf, IOpCl= 0 IROHF=0.

 **********************************************************************

            Population analysis using the SCF density.

 **********************************************************************

 Orbital symmetries:
       Occupied  (A) (A) (A) (A) (A)
       Virtual   (A) (A) (A) (A) (A) (A) (A) (A) (A) (A) (A) (A)
                 (A) (A) (A) (A) (A) (A) (A) (A) (A) (A) (A) (A)
                 (A) (A) (A) (A) (A)
 The electronic state is 1-A.
 Alpha  occ. eigenvalues --  -10.16437  -0.69266  -0.40506  -0.39019  -0.38113
 Alpha virt. eigenvalues --    0.05628   0.12328   0.12534   0.12562   0.36575
 Alpha virt. eigenvalues --    0.37151   0.39574   0.62899   0.63682   0.64218
 Alpha virt. eigenvalues --    0.67126   0.95454   1.28278   1.30303   1.82900
 Alpha virt. eigenvalues --    1.84380   1.85410   1.88513   1.89300   1.92842
 Alpha virt. eigenvalues --    2.38757   2.40298   2.44104   2.72249   2.75951
 Alpha virt. eigenvalues --    2.92990   3.16685   3.21281   3.21654
          Condensed to atoms (all electrons):
               1          2          3          4          5
     1  C    4.745745   0.403979   0.401167   0.401206   0.403418
     2  H    0.403979   0.564803  -0.018777  -0.018281  -0.024088
     3  H    0.401167  -0.018777   0.579061  -0.027537  -0.019964
     4  H    0.401206  -0.018281  -0.027537   0.575559  -0.019200
     5  H    0.403418  -0.024088  -0.019964  -0.019200   0.570990
 Mulliken charges:
               1
     1  C   -0.355514
     2  H    0.092364
     3  H    0.086051
     4  H    0.088254
     5  H    0.088844
 Sum of Mulliken charges =   0.00000
 Mulliken charges with hydrogens summed into heavy atoms:
               1
     1  C    0.000000
 Electronic spatial extent (au):  <R**2>=             36.1731
 Charge=              0.0000 electrons
 Dipole moment (field-independent basis, Debye):
    X=             -0.0239    Y=              0.0134    Z=              0.0116  Tot=              0.0297
 Quadrupole moment (field-independent basis, Debye-Ang):
   XX=             -8.2092   YY=             -8.5148   ZZ=             -8.6711
   XY=             -0.0115   XZ=              0.0006   YZ=             -0.0029
 Traceless Quadrupole moment (field-independent basis, Debye-Ang):
   XX=              0.2558   YY=             -0.0497   ZZ=             -0.2061
   XY=             -0.0115   XZ=              0.0006   YZ=             -0.0029
 Octapole moment (field-independent basis, Debye-Ang**2):
  XXX=             -0.0425  YYY=              0.2338  ZZZ=              0.1269  XYY=              0.6342
  XXY=             -0.1638  XXZ=             -0.0585  XZZ=             -0.6136  YZZ=             -0.0333
  YYZ=             -0.0356  XYZ=             -0.0739
 Hexadecapole moment (field-independent basis, Debye-Ang**3):
 XXXX=            -17.1183 YYYY=            -16.1306 ZZZZ=            -16.3880 XXXY=             -0.1849
 XXXZ=              0.0996 YYYX=              0.0629 YYYZ=             -0.0883 ZZZX=             -0.0671
 ZZZY=              0.0550 XXYY=             -5.2165 XXZZ=             -5.1993 YYZZ=             -5.8208
 XXYZ=              0.0183 YYXZ=             -0.0271 ZZXY=              0.0617
 N-N= 1.330864581643D+01 E-N=-1.196883990927D+02  KE= 4.012518072373D+01
 There are a total of      109428 grid points.
 ElSum from          density=        9.9999999504
 ElSum from atomic densities=        9.9999999076
 Hirshfeld populations at iteration   1 (CA, CB, DipXYZ):
               1          2          3          4          5
     1  C    3.060833   3.060833   0.005281  -0.001933  -0.001170
     2  H    0.483999   0.483999   0.101499  -0.098762   0.002692
     3  H    0.485418   0.485418  -0.086956   0.000328   0.106470
     4  H    0.484895   0.484895  -0.100625  -0.012855  -0.094222
     5  H    0.484855   0.484855   0.072199   0.119230  -0.008830
       Tot   5.000000   5.000000  -0.008601   0.006008   0.004940

 Dip from Atomic Chgs             -0.000785  -0.000734  -0.000391
         Total Dipole             -0.009386   0.005274   0.004549

 Hirshfeld charges, spin densities, dipoles, and CM5 charges using IRadAn=      5:
              Q-H        S-H        Dx         Dy         Dz        Q-CM5   
     1  C   -0.121666   0.000000   0.005281  -0.001933  -0.001170  -0.307953
     2  H    0.032001   0.000000   0.101499  -0.098762   0.002692   0.079170
     3  H    0.029165   0.000000  -0.086956   0.000328   0.106470   0.075306
     4  H    0.030210   0.000000  -0.100625  -0.012855  -0.094222   0.076128
     5  H    0.030291   0.000000   0.072199   0.119230  -0.008830   0.077349
       Tot   0.000000   0.000000  -0.008601   0.006008   0.004940   0.000000
 Hirshfeld charges with hydrogens summed into heavy atoms:
              Q-H       Q-CM5   
     1  C    0.000000   0.000000
 
 EQQ= 0.000000000000E+00 EQD= 0.000000000000E+00 EDD=-0.973956062331E-03
 EQQ+QD+DD=-0.973956062331E-03
 
 No NMR shielding tensors so no spin-rotation constants.
 Leave Link  601 at Fri Sep 22 16:28:39 2023, MaxMem=   536870912 cpu:               0.6 elap:               0.2
 (Enter /share/apps/gaussian/g16/l9999.exe)
 1\1\GINC-NODE74\SP\RB3LYP\Gen\C1H4\YANZ\22-Sep-2023\0\\#p b3lyp/gen sc
 rf=(cpcm,solvent=toluene) pop=hirshfeld empiricaldispersion=gd3bj\\tmp
 dir/M3_ref_153.gjf\\0,1\C,0,6.321564,0.842942,0.62326401\H,0,7.363221,
 0.824559,0.96094102\H,0,5.9280089,-0.17336716,0.44660976\H,0,6.1980705
 ,1.3378187,-0.35814009\H,0,5.729231,1.345823,1.39640105\\Version=ES64L
 -G16RevA.03\State=1-A\HF=-40.5129455\RMSD=8.427e-09\Dipole=-0.0094567,
 -0.00546,-0.0041648\Quadrupole=0.0131467,-0.1137089,0.1005622,0.016341
 3,0.0974725,0.0959815\PG=C01 [X(C1H4)]\\@


 IT IS THE GODS' CUSTOM TO BRING LOW ALL THINGS OF SURPASSING GREATNESS.
     -- HERODOTUS
 IT IS THE LOFTY PINE THAT BY THE STORM IS OFTENER TOSSED;
 TOWERS FALL WITH HEAVIER CRASH WHICH HIGHER SOAR.
     -- HORACE
 THE BIGGER THEY COME, THE HARDER THEY FALL.
     -- BOB FITZSIMONS HEAVYWEIGHT CHAMPION, 1897-1899
 Job cpu time:       0 days  0 hours  0 minutes  8.3 seconds.
 Elapsed time:       0 days  0 hours  0 minutes  2.2 seconds.
 File lengths (MBytes):  RWF=      6 Int=      0 D2E=      0 Chk=      1 Scr=      1
 Normal termination of Gaussian 16 at Fri Sep 22 16:28:39 2023.
