 Entering Gaussian System, Link 0=g16
 Initial command:
 /share/apps/gaussian/g16/l1.exe "/tmp/55557.mgr/Gau-209748.inp" -scrdir="/tmp/55557.mgr/"
 Entering Link 1 = /share/apps/gaussian/g16/l1.exe PID=    209749.
  
 Copyright (c) 1988,1990,1992,1993,1995,1998,2003,2009,2016,
            Gaussian, Inc.  All Rights Reserved.
  
 This is part of the Gaussian(R) 16 program.  It is based on
 the Gaussian(R) 09 system (copyright 2009, Gaussian, Inc.),
 the Gaussian(R) 03 system (copyright 2003, Gaussian, Inc.),
 the Gaussian(R) 98 system (copyright 1998, Gaussian, Inc.),
 the Gaussian(R) 94 system (copyright 1995, Gaussian, Inc.),
 the Gaussian 92(TM) system (copyright 1992, Gaussian, Inc.),
 the Gaussian 90(TM) system (copyright 1990, Gaussian, Inc.),
 the Gaussian 88(TM) system (copyright 1988, Gaussian, Inc.),
 the Gaussian 86(TM) system (copyright 1986, Carnegie Mellon
 University), and the Gaussian 82(TM) system (copyright 1983,
 Carnegie Mellon University). Gaussian is a federally registered
 trademark of Gaussian, Inc.
  
 This software contains proprietary and confidential information,
 including trade secrets, belonging to Gaussian, Inc.
  
 This software is provided under written license and may be
 used, copied, transmitted, or stored only in accord with that
 written license.
  
 The following legend is applicable only to US Government
 contracts under FAR:
  
                    RESTRICTED RIGHTS LEGEND
  
 Use, reproduction and disclosure by the US Government is
 subject to restrictions as set forth in subparagraphs (a)
 and (c) of the Commercial Computer Software - Restricted
 Rights clause in FAR 52.227-19.
  
 Gaussian, Inc.
 340 Quinnipiac St., Bldg. 40, Wallingford CT 06492
  
  
 ---------------------------------------------------------------
 Warning -- This program may not be used in any manner that
 competes with the business of Gaussian, Inc. or will provide
 assistance to any competitor of Gaussian, Inc.  The licensee
 of this program is prohibited from giving any competitor of
 Gaussian, Inc. access to this program.  By using this program,
 the user acknowledges that Gaussian, Inc. is engaged in the
 business of creating and licensing software in the field of
 computational chemistry and represents and warrants to the
 licensee that it is not a competitor of Gaussian, Inc. and that
 it will not use this program in any manner prohibited above.
 ---------------------------------------------------------------
  

 Cite this work as:
 Gaussian 16, Revision A.03,
 M. J. Frisch, G. W. Trucks, H. B. Schlegel, G. E. Scuseria, 
 M. A. Robb, J. R. Cheeseman, G. Scalmani, V. Barone, 
 G. A. Petersson, H. Nakatsuji, X. Li, M. Caricato, A. V. Marenich, 
 J. Bloino, B. G. Janesko, R. Gomperts, B. Mennucci, H. P. Hratchian, 
 J. V. Ortiz, A. F. Izmaylov, J. L. Sonnenberg, D. Williams-Young, 
 F. Ding, F. Lipparini, F. Egidi, J. Goings, B. Peng, A. Petrone, 
 T. Henderson, D. Ranasinghe, V. G. Zakrzewski, J. Gao, N. Rega, 
 G. Zheng, W. Liang, M. Hada, M. Ehara, K. Toyota, R. Fukuda, 
 J. Hasegawa, M. Ishida, T. Nakajima, Y. Honda, O. Kitao, H. Nakai, 
 T. Vreven, K. Throssell, J. A. Montgomery, Jr., J. E. Peralta, 
 F. Ogliaro, M. J. Bearpark, J. J. Heyd, E. N. Brothers, K. N. Kudin, 
 V. N. Staroverov, T. A. Keith, R. Kobayashi, J. Normand, 
 K. Raghavachari, A. P. Rendell, J. C. Burant, S. S. Iyengar, 
 J. Tomasi, M. Cossi, J. M. Millam, M. Klene, C. Adamo, R. Cammi, 
 J. W. Ochterski, R. L. Martin, K. Morokuma, O. Farkas, 
 J. B. Foresman, and D. J. Fox, Gaussian, Inc., Wallingford CT, 2016.
 
 ******************************************
 Gaussian 16:  ES64L-G16RevA.03 25-Dec-2016
                22-Sep-2023 
 ******************************************
 %nprocshared=4
 Will use up to    4 processors via shared memory.
 %mem=4GB
 ----------------------------------------------------------------------
 #p b3lyp/gen scrf=(cpcm,solvent=toluene) pop=hirshfeld empiricaldisper
 sion=gd3bj
 ----------------------------------------------------------------------
 1/38=1,172=1/1;
 2/12=2,17=6,18=5,40=1/2;
 3/5=7,11=2,25=1,30=1,70=2101,72=13,74=-5,124=41/1,2,3;
 4//1;
 5/5=2,38=5,53=13/2;
 6/7=2,8=2,9=2,10=2,28=1,79=1/1;
 99/5=1,9=1/99;
 Leave Link    1 at Fri Sep 22 16:29:33 2023, MaxMem=   536870912 cpu:               0.2 elap:               0.0
 (Enter /share/apps/gaussian/g16/l101.exe)
 ---------------------
 tmpdir/M3_ref_186.gjf
 ---------------------
 Symbolic Z-matrix:
 Charge =  0 Multiplicity = 1
 C                    -1.2159    3.83654   2.80414 
 O                    -0.67303   4.8505    3.21795 
 H                    -0.94619   2.85434   3.0916 
 H                    -2.06561   3.85475   2.0929 
 
 ITRead=  0  0  0  0
 MicOpt= -1 -1 -1 -1
 NAtoms=      4 NQM=        4 NQMF=       0 NMMI=      0 NMMIF=      0
                NMic=       0 NMicF=      0.
                    Isotopes and Nuclear Properties:
 (Nuclear quadrupole moments (NQMom) in fm**2, nuclear magnetic moments (NMagM)
  in nuclear magnetons)

  Atom         1           2           3           4
 IAtWgt=          12          16           1           1
 AtmWgt=  12.0000000  15.9949146   1.0078250   1.0078250
 NucSpn=           0           0           1           1
 AtZEff=  -0.0000000  -0.0000000  -0.0000000  -0.0000000
 NQMom=    0.0000000   0.0000000   0.0000000   0.0000000
 NMagM=    0.0000000   0.0000000   2.7928460   2.7928460
 AtZNuc=   6.0000000   8.0000000   1.0000000   1.0000000
 Leave Link  101 at Fri Sep 22 16:29:33 2023, MaxMem=   536870912 cpu:               0.3 elap:               0.1
 (Enter /share/apps/gaussian/g16/l202.exe)
                          Input orientation:                          
 ---------------------------------------------------------------------
 Center     Atomic      Atomic             Coordinates (Angstroms)
 Number     Number       Type             X           Y           Z
 ---------------------------------------------------------------------
      1          6           0       -1.215903    3.836542    2.804136
      2          8           0       -0.673030    4.850504    3.217952
      3          1           0       -0.946193    2.854339    3.091603
      4          1           0       -2.065612    3.854747    2.092905
 ---------------------------------------------------------------------
                    Distance matrix (angstroms):
                    1          2          3          4
     1  C    0.000000
     2  O    1.222323   0.000000
     3  H    1.058350   2.018727   0.000000
     4  H    1.108236   2.048548   1.803140   0.000000
 Stoichiometry    CH2O
 Framework group  C1[X(CH2O)]
 Deg. of freedom     6
 Full point group                 C1      NOp   1
 Largest Abelian subgroup         C1      NOp   1
 Largest concise Abelian subgroup C1      NOp   1
                         Standard orientation:                         
 ---------------------------------------------------------------------
 Center     Atomic      Atomic             Coordinates (Angstroms)
 Number     Number       Type             X           Y           Z
 ---------------------------------------------------------------------
      1          6           0       -0.536043   -0.009250   -0.002516
      2          8           0        0.686206    0.003811    0.000621
      3          1           0       -1.124363   -0.888979    0.005220
      4          1           0       -1.149032    0.913992    0.004903
 ---------------------------------------------------------------------
 Rotational constants (GHZ):         308.2492493          37.6703766          33.5686346
 Leave Link  202 at Fri Sep 22 16:29:33 2023, MaxMem=   536870912 cpu:               0.0 elap:               0.0
 (Enter /share/apps/gaussian/g16/l301.exe)
 General basis read from cards:  (5D, 7F)
 Centers:       3      4
 S 3 1.00
     Exponent=  1.2251800000D+01 Coefficients=  2.3337100000D-02
     Exponent=  1.8687100000D+00 Coefficients=  1.5915000000D-01
     Exponent=  4.1820800000D-01 Coefficients=  5.0000000000D-01
 S 1 1.00
     Exponent=  1.0610000000D-01 Coefficients=  1.0000000000D+00
 P 1 1.00
     Exponent=  1.0000000000D+00 Coefficients=  1.0000000000D+00
 ****
 Centers:       1
 S 5 1.00
     Exponent=  1.2432000000D+03 Coefficients=  6.0336600000D-03
     Exponent=  1.8714500000D+02 Coefficients=  4.4957600000D-02
     Exponent=  4.2512600000D+01 Coefficients=  1.9790100000D-01
     Exponent=  1.1739300000D+01 Coefficients=  5.0000000000D-01
     Exponent=  3.5054800000D+00 Coefficients=  4.8036400000D-01
 S 2 1.00
     Exponent=  5.3908900000D+00 Coefficients= -7.0398000000D-02
     Exponent=  4.9334100000D-01 Coefficients=  5.0000000000D-01
 S 1 1.00
     Exponent=  1.4974100000D-01 Coefficients=  1.0000000000D+00
 P 3 1.00
     Exponent=  9.1805600000D+00 Coefficients=  4.3170100000D-02
     Exponent=  1.9365800000D+00 Coefficients=  2.2499900000D-01
     Exponent=  5.2629600000D-01 Coefficients=  5.0000000000D-01
 P 1 1.00
     Exponent=  1.3631900000D-01 Coefficients=  1.0000000000D+00
 D 1 1.00
     Exponent=  8.0000000000D-01 Coefficients=  1.0000000000D+00
 ****
 Centers:       2
 S 5 1.00
     Exponent=  2.2886400000D+03 Coefficients=  5.8546800000D-03
     Exponent=  3.4441600000D+02 Coefficients=  4.3733300000D-02
     Exponent=  7.8253800000D+01 Coefficients=  1.9479600000D-01
     Exponent=  2.1719500000D+01 Coefficients=  5.0000000000D-01
     Exponent=  6.5590700000D+00 Coefficients=  4.8461400000D-01
 S 2 1.00
     Exponent=  1.0465600000D+01 Coefficients= -7.1334300000D-02
     Exponent=  9.6435100000D-01 Coefficients=  5.0000000000D-01
 S 1 1.00
     Exponent=  2.8512700000D-01 Coefficients=  1.0000000000D+00
 P 3 1.00
     Exponent=  1.7059000000D+01 Coefficients=  4.7443900000D-02
     Exponent=  3.6899900000D+00 Coefficients=  2.4268900000D-01
     Exponent=  9.9299600000D-01 Coefficients=  5.0000000000D-01
 P 1 1.00
     Exponent=  2.4492400000D-01 Coefficients=  1.0000000000D+00
 D 1 1.00
     Exponent=  1.0000000000D+00 Coefficients=  1.0000000000D+00
 ****
 Ernie: Thresh=  0.10000D-02 Tol=  0.10000D-05 Strict=F.
 There are    40 symmetry adapted cartesian basis functions of A   symmetry.
 There are    38 symmetry adapted basis functions of A   symmetry.
    38 basis functions,    66 primitive gaussians,    40 cartesian basis functions
     8 alpha electrons        8 beta electrons
       nuclear repulsion energy        31.1025952862 Hartrees.
 IExCor=  402 DFT=T Ex+Corr=B3LYP ExCW=0 ScaHFX=  0.200000
 ScaDFX=  0.800000  0.720000  1.000000  0.810000 ScalE2=  1.000000  1.000000
 IRadAn=      5 IRanWt=     -1 IRanGd=            0 ICorTp=0 IEmpDi=141
 NAtoms=    4 NActive=    4 NUniq=    4 SFac= 1.00D+00 NAtFMM=   60 NAOKFM=F Big=F
 Integral buffers will be    131072 words long.
 Raffenetti 2 integral format.
 Two-electron integral symmetry is turned on.
 R6Disp:  Grimme-D3(BJ) Dispersion energy=       -0.0018344786 Hartrees.
 Nuclear repulsion after empirical dispersion term =       31.1007608076 Hartrees.
 ------------------------------------------------------------------------------
 Polarizable Continuum Model (PCM)
 =================================
 Model                : C-PCM.
 Atomic radii         : UFF (Universal Force Field).
 Polarization charges : Total charges.
 Charge compensation  : None.
 Solution method      : On-the-fly selection.
 Cavity type          : Scaled VdW (van der Waals Surface) (Alpha=1.100).
 Cavity algorithm     : GePol (No added spheres)
                        Default sphere list used, NSphG=    4.
                        Lebedev-Laikov grids with approx.  5.0 points / Ang**2.
                        Smoothing algorithm: York/Karplus (Gamma=1.0000).
                        Polarization charges: spherical gaussians, with
                                              point-specific exponents (IZeta= 3).
                        Self-potential: point-specific (ISelfS= 7).
                        Self-field    : sphere-specific E.n sum rule (ISelfD= 2).
 Solvent              : Toluene, Eps=   2.374100 Eps(inf)=   2.238315
 ------------------------------------------------------------------------------
 Spheres list:
 ISph  on   Nord     Re0    Alpha      Xe            Ye            Ze
    1   C      1    1.9255  1.100     -0.536043     -0.009250     -0.002516
    2   O      2    1.7500  1.100      0.686206      0.003811      0.000621
    3   H      3    1.4430  1.100     -1.124363     -0.888979      0.005220
    4   H      4    1.4430  1.100     -1.149032      0.913992      0.004903
 ------------------------------------------------------------------------------
 GePol: Number of generator spheres                  =       4
 GePol: Total number of spheres                      =       4
 GePol: Number of exposed spheres                    =       4 (100.00%)
 GePol: Number of points                             =     529
 GePol: Average weight of points                     =       0.14
 GePol: Minimum weight of points                     =   0.10D-08
 GePol: Maximum weight of points                     =    0.20577
 GePol: Number of points with low weight             =      23
 GePol: Fraction of low-weight points (<1% of avg)   =       4.35%
 GePol: Cavity surface area                          =     74.013 Ang**2
 GePol: Cavity volume                                =     56.261 Ang**3
 Leave Link  301 at Fri Sep 22 16:29:33 2023, MaxMem=   536870912 cpu:               0.4 elap:               0.1
 (Enter /share/apps/gaussian/g16/l302.exe)
 NPDir=0 NMtPBC=     1 NCelOv=     1 NCel=       1 NClECP=     1 NCelD=      1
         NCelK=      1 NCelE2=     1 NClLst=     1 CellRange=     0.0.
 One-electron integrals computed using PRISM.
 One-electron integral symmetry used in STVInt
 NBasis=    38 RedAO= T EigKep=  2.36D-02  NBF=    38
 NBsUse=    38 1.00D-06 EigRej= -1.00D+00 NBFU=    38
 Precomputing XC quadrature grid using
 IXCGrd= 4 IRadAn=           5 IRanWt=          -1 IRanGd=           0 AccXCQ= 0.00D+00.
 Generated NRdTot=       0 NPtTot=           0 NUsed=           0 NTot=          32
 NSgBfM=    40    40    40    40    40 MxSgAt=     4 MxSgA2=     4.
 Leave Link  302 at Fri Sep 22 16:29:33 2023, MaxMem=   536870912 cpu:               0.4 elap:               0.1
 (Enter /share/apps/gaussian/g16/l303.exe)
 DipDrv:  MaxL=1.
 Leave Link  303 at Fri Sep 22 16:29:34 2023, MaxMem=   536870912 cpu:               0.1 elap:               0.0
 (Enter /share/apps/gaussian/g16/l401.exe)
 ExpMin= 1.06D-01 ExpMax= 2.29D+03 ExpMxC= 3.44D+02 IAcc=3 IRadAn=         5 AccDes= 0.00D+00
 Harris functional with IExCor=  402 and IRadAn=       5 diagonalized for initial guess.
 HarFok:  IExCor=  402 AccDes= 0.00D+00 IRadAn=         5 IDoV= 1 UseB2=F ITyADJ=14
 ICtDFT=  3500011 ScaDFX=  1.000000  1.000000  1.000000  1.000000
 FoFCou: FMM=F IPFlag=           0 FMFlag=      100000 FMFlg1=           0
         NFxFlg=           0 DoJE=T BraDBF=F KetDBF=T FulRan=T
         wScrn=  0.000000 ICntrl=       500 IOpCl=  0 I1Cent=   200000004 NGrid=           0
         NMat0=    1 NMatS0=      1 NMatT0=    0 NMatD0=    1 NMtDS0=    0 NMtDT0=    0
 Petite list used in FoFCou.
 Harris En= -114.493579608988    
 JPrj=0 DoOrth=F DoCkMO=F.
 Leave Link  401 at Fri Sep 22 16:29:34 2023, MaxMem=   536870912 cpu:               0.8 elap:               0.2
 (Enter /share/apps/gaussian/g16/l502.exe)
 Keep R1 ints in memory in canonical form, NReq=3727303.
 FoFCou: FMM=F IPFlag=           0 FMFlag=           0 FMFlg1=           0
         NFxFlg=           0 DoJE=F BraDBF=F KetDBF=F FulRan=T
         wScrn=  0.000000 ICntrl=       600 IOpCl=  0 I1Cent=           0 NGrid=           0
         NMat0=    1 NMatS0=    741 NMatT0=    0 NMatD0=    1 NMtDS0=    0 NMtDT0=    0
 Symmetry not used in FoFCou.
 Two-electron integral symmetry not used.
 Closed shell SCF:
 Using DIIS extrapolation, IDIIS=  1040.
 NGot=   536870912 LenX=   536591977 LenY=   536589936
 Requested convergence on RMS density matrix=1.00D-08 within 128 cycles.
 Requested convergence on MAX density matrix=1.00D-06.
 Requested convergence on             energy=1.00D-06.
 No special actions if energy rises.

 Cycle   1  Pass 1  IDiag  1:
 Inv3:  Mode=1 IEnd=      839523.
 Iteration    1 A*A^-1 deviation from unit magnitude is 2.66D-15 for     61.
 Iteration    1 A*A^-1 deviation from orthogonality  is 9.96D-16 for    373    145.
 Iteration    1 A^-1*A deviation from unit magnitude is 2.66D-15 for    114.
 Iteration    1 A^-1*A deviation from orthogonality  is 1.25D-15 for    521    246.
 E= -114.442788729169    
 DIIS: error= 3.93D-02 at cycle   1 NSaved=   1.
 NSaved= 1 IEnMin= 1 EnMin= -114.442788729169     IErMin= 1 ErrMin= 3.93D-02
 ErrMax= 3.93D-02  0.00D+00 EMaxC= 1.00D-01 BMatC= 5.34D-02 BMatP= 5.34D-02
 IDIUse=3 WtCom= 6.07D-01 WtEn= 3.93D-01
 Coeff-Com:  0.100D+01
 Coeff-En:   0.100D+01
 Coeff:      0.100D+01
 Gap=     0.175 Goal=   None    Shift=    0.000
 GapD=    0.175 DampG=1.000 DampE=0.500 DampFc=0.5000 IDamp=-1.
 Damping current iteration by 5.00D-01
 RMSDP=1.29D-02 MaxDP=1.67D-01              OVMax= 2.40D-01

 Cycle   2  Pass 1  IDiag  1:
 E= -114.446497818320     Delta-E=       -0.003709089151 Rises=F Damp=T
 DIIS: error= 1.51D-02 at cycle   2 NSaved=   2.
 NSaved= 2 IEnMin= 2 EnMin= -114.446497818320     IErMin= 2 ErrMin= 1.51D-02
 ErrMax= 1.51D-02  0.00D+00 EMaxC= 1.00D-01 BMatC= 1.38D-02 BMatP= 5.34D-02
 IDIUse=3 WtCom= 8.49D-01 WtEn= 1.51D-01
 Coeff-Com:  0.312D+00 0.688D+00
 Coeff-En:   0.465D+00 0.535D+00
 Coeff:      0.335D+00 0.665D+00
 Gap=     0.219 Goal=   None    Shift=    0.000
 RMSDP=3.09D-03 MaxDP=3.42D-02 DE=-3.71D-03 OVMax= 1.79D-01

 Cycle   3  Pass 1  IDiag  1:
 E= -114.484228363740     Delta-E=       -0.037730545420 Rises=F Damp=F
 DIIS: error= 8.08D-03 at cycle   3 NSaved=   3.
 NSaved= 3 IEnMin= 3 EnMin= -114.484228363740     IErMin= 3 ErrMin= 8.08D-03
 ErrMax= 8.08D-03  0.00D+00 EMaxC= 1.00D-01 BMatC= 2.31D-03 BMatP= 1.38D-02
 IDIUse=3 WtCom= 9.19D-01 WtEn= 8.08D-02
 Coeff-Com:  0.106D+00 0.320D+00 0.574D+00
 Coeff-En:   0.000D+00 0.000D+00 0.100D+01
 Coeff:      0.971D-01 0.294D+00 0.608D+00
 Gap=     0.217 Goal=   None    Shift=    0.000
 RMSDP=1.24D-03 MaxDP=1.60D-02 DE=-3.77D-02 OVMax= 2.48D-02

 Cycle   4  Pass 1  IDiag  1:
 E= -114.486469443192     Delta-E=       -0.002241079452 Rises=F Damp=F
 DIIS: error= 2.37D-03 at cycle   4 NSaved=   4.
 NSaved= 4 IEnMin= 4 EnMin= -114.486469443192     IErMin= 4 ErrMin= 2.37D-03
 ErrMax= 2.37D-03  0.00D+00 EMaxC= 1.00D-01 BMatC= 1.87D-04 BMatP= 2.31D-03
 IDIUse=3 WtCom= 9.76D-01 WtEn= 2.37D-02
 Coeff-Com:  0.144D-01 0.212D-01 0.224D+00 0.740D+00
 Coeff-En:   0.000D+00 0.000D+00 0.000D+00 0.100D+01
 Coeff:      0.140D-01 0.207D-01 0.219D+00 0.746D+00
 Gap=     0.220 Goal=   None    Shift=    0.000
 RMSDP=2.45D-04 MaxDP=3.77D-03 DE=-2.24D-03 OVMax= 3.94D-03

 Cycle   5  Pass 1  IDiag  1:
 E= -114.486634357204     Delta-E=       -0.000164914013 Rises=F Damp=F
 DIIS: error= 2.14D-04 at cycle   5 NSaved=   5.
 NSaved= 5 IEnMin= 5 EnMin= -114.486634357204     IErMin= 5 ErrMin= 2.14D-04
 ErrMax= 2.14D-04  0.00D+00 EMaxC= 1.00D-01 BMatC= 1.66D-06 BMatP= 1.87D-04
 IDIUse=3 WtCom= 9.98D-01 WtEn= 2.14D-03
 Coeff-Com:  0.191D-02-0.738D-02 0.289D-01 0.141D+00 0.836D+00
 Coeff-En:   0.000D+00 0.000D+00 0.000D+00 0.000D+00 0.100D+01
 Coeff:      0.191D-02-0.736D-02 0.288D-01 0.140D+00 0.836D+00
 Gap=     0.220 Goal=   None    Shift=    0.000
 RMSDP=2.91D-05 MaxDP=2.52D-04 DE=-1.65D-04 OVMax= 3.41D-04

 Cycle   6  Pass 1  IDiag  1:
 E= -114.486635719207     Delta-E=       -0.000001362003 Rises=F Damp=F
 DIIS: error= 3.50D-05 at cycle   6 NSaved=   6.
 NSaved= 6 IEnMin= 6 EnMin= -114.486635719207     IErMin= 6 ErrMin= 3.50D-05
 ErrMax= 3.50D-05  0.00D+00 EMaxC= 1.00D-01 BMatC= 4.78D-08 BMatP= 1.66D-06
 IDIUse=1 WtCom= 1.00D+00 WtEn= 0.00D+00
 Coeff-Com:  0.384D-03-0.121D-02 0.976D-03 0.834D-03 0.269D-01 0.972D+00
 Coeff:      0.384D-03-0.121D-02 0.976D-03 0.834D-03 0.269D-01 0.972D+00
 Gap=     0.220 Goal=   None    Shift=    0.000
 RMSDP=5.48D-06 MaxDP=5.33D-05 DE=-1.36D-06 OVMax= 6.15D-05

 Cycle   7  Pass 1  IDiag  1:
 E= -114.486635758057     Delta-E=       -0.000000038850 Rises=F Damp=F
 DIIS: error= 1.59D-06 at cycle   7 NSaved=   7.
 NSaved= 7 IEnMin= 7 EnMin= -114.486635758057     IErMin= 7 ErrMin= 1.59D-06
 ErrMax= 1.59D-06  0.00D+00 EMaxC= 1.00D-01 BMatC= 2.20D-10 BMatP= 4.78D-08
 IDIUse=1 WtCom= 1.00D+00 WtEn= 0.00D+00
 Coeff-Com:  0.389D-05 0.258D-04-0.260D-03-0.222D-02-0.134D-01 0.518D-01
 Coeff-Com:  0.964D+00
 Coeff:      0.389D-05 0.258D-04-0.260D-03-0.222D-02-0.134D-01 0.518D-01
 Coeff:      0.964D+00
 Gap=     0.220 Goal=   None    Shift=    0.000
 RMSDP=3.58D-07 MaxDP=3.28D-06 DE=-3.89D-08 OVMax= 3.68D-06

 Cycle   8  Pass 1  IDiag  1:
 E= -114.486635758233     Delta-E=       -0.000000000176 Rises=F Damp=F
 DIIS: error= 3.83D-07 at cycle   8 NSaved=   8.
 NSaved= 8 IEnMin= 8 EnMin= -114.486635758233     IErMin= 8 ErrMin= 3.83D-07
 ErrMax= 3.83D-07  0.00D+00 EMaxC= 1.00D-01 BMatC= 5.52D-12 BMatP= 2.20D-10
 IDIUse=1 WtCom= 1.00D+00 WtEn= 0.00D+00
 Coeff-Com: -0.695D-06 0.883D-05-0.148D-04-0.210D-03-0.136D-02-0.632D-02
 Coeff-Com:  0.808D-01 0.927D+00
 Coeff:     -0.695D-06 0.883D-05-0.148D-04-0.210D-03-0.136D-02-0.632D-02
 Coeff:      0.808D-01 0.927D+00
 Gap=     0.220 Goal=   None    Shift=    0.000
 RMSDP=5.33D-08 MaxDP=4.34D-07 DE=-1.76D-10 OVMax= 5.78D-07

 Cycle   9  Pass 1  IDiag  1:
 E= -114.486635758237     Delta-E=       -0.000000000004 Rises=F Damp=F
 DIIS: error= 4.51D-08 at cycle   9 NSaved=   9.
 NSaved= 9 IEnMin= 9 EnMin= -114.486635758237     IErMin= 9 ErrMin= 4.51D-08
 ErrMax= 4.51D-08  0.00D+00 EMaxC= 1.00D-01 BMatC= 1.01D-13 BMatP= 5.52D-12
 IDIUse=1 WtCom= 1.00D+00 WtEn= 0.00D+00
 Coeff-Com:  0.130D-06 0.991D-07 0.334D-05-0.108D-06 0.287D-04-0.175D-02
 Coeff-Com: -0.237D-02 0.123D+00 0.881D+00
 Coeff:      0.130D-06 0.991D-07 0.334D-05-0.108D-06 0.287D-04-0.175D-02
 Coeff:     -0.237D-02 0.123D+00 0.881D+00
 Gap=     0.220 Goal=   None    Shift=    0.000
 RMSDP=5.99D-09 MaxDP=5.42D-08 DE=-4.41D-12 OVMax= 7.73D-08

 Error on total polarization charges =  0.00289
 SCF Done:  E(RB3LYP) =  -114.486635758     A.U. after    9 cycles
            NFock=  9  Conv=0.60D-08     -V/T= 2.0042
 KE= 1.140113488304D+02 PE=-3.311134578086D+02 EE= 7.151471241229D+01
 Leave Link  502 at Fri Sep 22 16:29:35 2023, MaxMem=   536870912 cpu:               6.0 elap:               1.5
 (Enter /share/apps/gaussian/g16/l601.exe)
 Copying SCF densities to generalized density rwf, IOpCl= 0 IROHF=0.

 **********************************************************************

            Population analysis using the SCF density.

 **********************************************************************

 Orbital symmetries:
       Occupied  (A) (A) (A) (A) (A) (A) (A) (A)
       Virtual   (A) (A) (A) (A) (A) (A) (A) (A) (A) (A) (A) (A)
                 (A) (A) (A) (A) (A) (A) (A) (A) (A) (A) (A) (A)
                 (A) (A) (A) (A) (A) (A)
 The electronic state is 1-A.
 Alpha  occ. eigenvalues --  -19.14456 -10.27846  -1.06221  -0.65043  -0.49790
 Alpha  occ. eigenvalues --   -0.45922  -0.40290  -0.27691
 Alpha virt. eigenvalues --   -0.05699   0.06109   0.11913   0.17633   0.40233
 Alpha virt. eigenvalues --    0.49147   0.50076   0.58113   0.61325   0.71729
 Alpha virt. eigenvalues --    0.78022   0.87327   0.97345   1.33360   1.48834
 Alpha virt. eigenvalues --    1.59585   1.73907   1.79611   1.92325   1.93013
 Alpha virt. eigenvalues --    2.10240   2.14771   2.25804   2.47226   2.70014
 Alpha virt. eigenvalues --    2.74641   2.81081   3.12915   3.15164   3.42736
          Condensed to atoms (all electrons):
               1          2          3          4
     1  C    4.426158   0.594364   0.389613   0.383162
     2  O    0.594364   7.867476  -0.048796  -0.052923
     3  H    0.389613  -0.048796   0.671802  -0.088021
     4  H    0.383162  -0.052923  -0.088021   0.679767
 Mulliken charges:
               1
     1  C    0.206704
     2  O   -0.360122
     3  H    0.075403
     4  H    0.078015
 Sum of Mulliken charges =  -0.00000
 Mulliken charges with hydrogens summed into heavy atoms:
               1
     1  C    0.360122
     2  O   -0.360122
 Electronic spatial extent (au):  <R**2>=             60.8440
 Charge=             -0.0000 electrons
 Dipole moment (field-independent basis, Debye):
    X=             -2.7763    Y=             -0.0830    Z=              0.0007  Tot=              2.7775
 Quadrupole moment (field-independent basis, Debye-Ang):
   XX=            -11.9282   YY=            -11.7310   ZZ=            -11.5776
   XY=              0.0690   XZ=             -0.0056   YZ=              0.0003
 Traceless Quadrupole moment (field-independent basis, Debye-Ang):
   XX=             -0.1826   YY=              0.0146   ZZ=              0.1680
   XY=              0.0690   XZ=             -0.0056   YZ=              0.0003
 Octapole moment (field-independent basis, Debye-Ang**2):
  XXX=             -0.5143  YYY=             -0.1724  ZZZ=              0.0062  XYY=             -0.3740
  XXY=             -0.1085  XXZ=              0.0135  XZZ=              0.5245  YZZ=             -0.0706
  YYZ=              0.0108  XYZ=             -0.0000
 Hexadecapole moment (field-independent basis, Debye-Ang**3):
 XXXX=            -45.0221 YYYY=            -18.0661 ZZZZ=            -10.0489 XXXY=              0.2615
 XXXZ=             -0.0166 YYYX=              0.1874 YYYZ=             -0.0002 ZZZX=              0.0005
 ZZZY=             -0.0003 XXYY=            -10.2435 XXZZ=             -9.2436 YYZZ=             -4.8974
 XXYZ=              0.0003 YYXZ=             -0.0116 ZZXY=              0.0863
 N-N= 3.110076080761D+01 E-N=-3.311134580188D+02  KE= 1.140113488304D+02
 There are a total of       88026 grid points.
 ElSum from          density=       15.9999999366
 ElSum from atomic densities=       15.9999998529
 Hirshfeld populations at iteration   1 (CA, CB, DipXYZ):
               1          2          3          4          5
     1  C    2.929154   2.929154  -0.093249  -0.010829  -0.003180
     2  O    4.120458   4.120458  -0.146911  -0.001891   0.000420
     3  H    0.473786   0.473786  -0.093972  -0.099033   0.001551
     4  H    0.476602   0.476602  -0.089205   0.090561   0.001495
       Tot   8.000000   8.000000  -0.423337  -0.021192   0.000285

 Dip from Atomic Chgs             -0.668945  -0.011461  -0.000006
         Total Dipole             -1.092282  -0.032653   0.000280

 Hirshfeld charges, spin densities, dipoles, and CM5 charges using IRadAn=      5:
              Q-H        S-H        Dx         Dy         Dz        Q-CM5   
     1  C    0.141692   0.000000  -0.093249  -0.010829  -0.003180   0.079785
     2  O   -0.240917   0.000000  -0.146911  -0.001891   0.000420  -0.299829
     3  H    0.052429   0.000000  -0.093972  -0.099033   0.001551   0.116270
     4  H    0.046796   0.000000  -0.089205   0.090561   0.001495   0.103774
       Tot   0.000000   0.000000  -0.423337  -0.021192   0.000285   0.000000
 Hirshfeld charges with hydrogens summed into heavy atoms:
              Q-H       Q-CM5   
     1  C    0.240917   0.299829
     2  O   -0.240917  -0.299829
 
 EQQ= 0.000000000000E+00 EQD= 0.000000000000E+00 EDD= 0.360053443620E-02
 EQQ+QD+DD= 0.360053443620E-02
 
 No NMR shielding tensors so no spin-rotation constants.
 Leave Link  601 at Fri Sep 22 16:29:35 2023, MaxMem=   536870912 cpu:               0.6 elap:               0.2
 (Enter /share/apps/gaussian/g16/l9999.exe)
 1\1\GINC-NODE74\SP\RB3LYP\Gen\C1H2O1\YANZ\22-Sep-2023\0\\#p b3lyp/gen 
 scrf=(cpcm,solvent=toluene) pop=hirshfeld empiricaldispersion=gd3bj\\t
 mpdir/M3_ref_186.gjf\\0,1\C,0,-1.215903,3.836542,2.80413604\O,0,-0.673
 03,4.850504,3.21795201\H,0,-0.94619321,2.85433873,3.0916034\H,0,-2.065
 61209,3.85474721,2.09290457\\Version=ES64L-G16RevA.03\State=1-A\HF=-11
 4.4866358\RMSD=5.987e-09\Dipole=-0.47424,-0.9179045,-0.3559421\Quadrup
 ole=0.002549,-0.0408338,0.0382848,-0.068163,-0.1029909,-0.0538929\PG=C
 01 [X(C1H2O1)]\\@


 We're simply so accustomed to the marvels of everyday thought
 that we never wonder about it.
 -- Marvin Minsky in "Why people think computers are smart"
 Job cpu time:       0 days  0 hours  0 minutes  8.9 seconds.
 Elapsed time:       0 days  0 hours  0 minutes  2.4 seconds.
 File lengths (MBytes):  RWF=     10 Int=      0 D2E=      0 Chk=      1 Scr=      1
 Normal termination of Gaussian 16 at Fri Sep 22 16:29:35 2023.
