 Entering Gaussian System, Link 0=g16
 Initial command:
 /share/apps/gaussian/g16/l1.exe "/tmp/55557.mgr/Gau-203511.inp" -scrdir="/tmp/55557.mgr/"
 Entering Link 1 = /share/apps/gaussian/g16/l1.exe PID=    203517.
  
 Copyright (c) 1988,1990,1992,1993,1995,1998,2003,2009,2016,
            Gaussian, Inc.  All Rights Reserved.
  
 This is part of the Gaussian(R) 16 program.  It is based on
 the Gaussian(R) 09 system (copyright 2009, Gaussian, Inc.),
 the Gaussian(R) 03 system (copyright 2003, Gaussian, Inc.),
 the Gaussian(R) 98 system (copyright 1998, Gaussian, Inc.),
 the Gaussian(R) 94 system (copyright 1995, Gaussian, Inc.),
 the Gaussian 92(TM) system (copyright 1992, Gaussian, Inc.),
 the Gaussian 90(TM) system (copyright 1990, Gaussian, Inc.),
 the Gaussian 88(TM) system (copyright 1988, Gaussian, Inc.),
 the Gaussian 86(TM) system (copyright 1986, Carnegie Mellon
 University), and the Gaussian 82(TM) system (copyright 1983,
 Carnegie Mellon University). Gaussian is a federally registered
 trademark of Gaussian, Inc.
  
 This software contains proprietary and confidential information,
 including trade secrets, belonging to Gaussian, Inc.
  
 This software is provided under written license and may be
 used, copied, transmitted, or stored only in accord with that
 written license.
  
 The following legend is applicable only to US Government
 contracts under FAR:
  
                    RESTRICTED RIGHTS LEGEND
  
 Use, reproduction and disclosure by the US Government is
 subject to restrictions as set forth in subparagraphs (a)
 and (c) of the Commercial Computer Software - Restricted
 Rights clause in FAR 52.227-19.
  
 Gaussian, Inc.
 340 Quinnipiac St., Bldg. 40, Wallingford CT 06492
  
  
 ---------------------------------------------------------------
 Warning -- This program may not be used in any manner that
 competes with the business of Gaussian, Inc. or will provide
 assistance to any competitor of Gaussian, Inc.  The licensee
 of this program is prohibited from giving any competitor of
 Gaussian, Inc. access to this program.  By using this program,
 the user acknowledges that Gaussian, Inc. is engaged in the
 business of creating and licensing software in the field of
 computational chemistry and represents and warrants to the
 licensee that it is not a competitor of Gaussian, Inc. and that
 it will not use this program in any manner prohibited above.
 ---------------------------------------------------------------
  

 Cite this work as:
 Gaussian 16, Revision A.03,
 M. J. Frisch, G. W. Trucks, H. B. Schlegel, G. E. Scuseria, 
 M. A. Robb, J. R. Cheeseman, G. Scalmani, V. Barone, 
 G. A. Petersson, H. Nakatsuji, X. Li, M. Caricato, A. V. Marenich, 
 J. Bloino, B. G. Janesko, R. Gomperts, B. Mennucci, H. P. Hratchian, 
 J. V. Ortiz, A. F. Izmaylov, J. L. Sonnenberg, D. Williams-Young, 
 F. Ding, F. Lipparini, F. Egidi, J. Goings, B. Peng, A. Petrone, 
 T. Henderson, D. Ranasinghe, V. G. Zakrzewski, J. Gao, N. Rega, 
 G. Zheng, W. Liang, M. Hada, M. Ehara, K. Toyota, R. Fukuda, 
 J. Hasegawa, M. Ishida, T. Nakajima, Y. Honda, O. Kitao, H. Nakai, 
 T. Vreven, K. Throssell, J. A. Montgomery, Jr., J. E. Peralta, 
 F. Ogliaro, M. J. Bearpark, J. J. Heyd, E. N. Brothers, K. N. Kudin, 
 V. N. Staroverov, T. A. Keith, R. Kobayashi, J. Normand, 
 K. Raghavachari, A. P. Rendell, J. C. Burant, S. S. Iyengar, 
 J. Tomasi, M. Cossi, J. M. Millam, M. Klene, C. Adamo, R. Cammi, 
 J. W. Ochterski, R. L. Martin, K. Morokuma, O. Farkas, 
 J. B. Foresman, and D. J. Fox, Gaussian, Inc., Wallingford CT, 2016.
 
 ******************************************
 Gaussian 16:  ES64L-G16RevA.03 25-Dec-2016
                22-Sep-2023 
 ******************************************
 %nprocshared=4
 Will use up to    4 processors via shared memory.
 %mem=4GB
 ----------------------------------------------------------------------
 #p b3lyp/gen scrf=(cpcm,solvent=toluene) pop=hirshfeld empiricaldisper
 sion=gd3bj
 ----------------------------------------------------------------------
 1/38=1,172=1/1;
 2/12=2,17=6,18=5,40=1/2;
 3/5=7,11=2,25=1,30=1,70=2101,72=13,74=-5,124=41/1,2,3;
 4//1;
 5/5=2,38=5,53=13/2;
 6/7=2,8=2,9=2,10=2,28=1,79=1/1;
 99/5=1,9=1/99;
 Leave Link    1 at Fri Sep 22 16:26:16 2023, MaxMem=   536870912 cpu:               0.2 elap:               0.1
 (Enter /share/apps/gaussian/g16/l101.exe)
 -------------------
 tmpdir/M3_ref_0.gjf
 -------------------
 Symbolic Z-matrix:
 Charge =  0 Multiplicity = 1
 C                    -0.81068  -1.23132  -2.65929 
 C                    -0.69305  -1.10583  -1.23513 
 C                    -2.05299  -1.6791   -3.18742 
 C                     0.22756  -0.87278  -3.53981 
 C                    -2.21993  -1.77146  -4.57477 
 C                     0.04985  -0.95826  -4.91007 
 H                     1.17123  -0.51651  -3.13801 
 C                    -1.17361  -1.41259  -5.41818 
 H                    -3.15817  -2.11507  -4.99715 
 H                     0.85302  -0.67351  -5.58497 
 H                    -1.31824  -1.48452  -6.4947 
 H                    -1.59306  -1.18115  -0.63314 
 O                     0.339    -0.69222  -0.60752 
 H                    -2.82555  -1.92927  -2.44847 
 
 ITRead=  0  0  0  0  0  0  0  0  0  0  0  0  0  0
 MicOpt= -1 -1 -1 -1 -1 -1 -1 -1 -1 -1 -1 -1 -1 -1
 NAtoms=     14 NQM=       14 NQMF=       0 NMMI=      0 NMMIF=      0
                NMic=       0 NMicF=      0.
                    Isotopes and Nuclear Properties:
 (Nuclear quadrupole moments (NQMom) in fm**2, nuclear magnetic moments (NMagM)
  in nuclear magnetons)

  Atom         1           2           3           4           5           6           7           8           9          10
 IAtWgt=          12          12          12          12          12          12           1          12           1           1
 AtmWgt=  12.0000000  12.0000000  12.0000000  12.0000000  12.0000000  12.0000000   1.0078250  12.0000000   1.0078250   1.0078250
 NucSpn=           0           0           0           0           0           0           1           0           1           1
 AtZEff=  -0.0000000  -0.0000000  -0.0000000  -0.0000000  -0.0000000  -0.0000000  -0.0000000  -0.0000000  -0.0000000  -0.0000000
 NQMom=    0.0000000   0.0000000   0.0000000   0.0000000   0.0000000   0.0000000   0.0000000   0.0000000   0.0000000   0.0000000
 NMagM=    0.0000000   0.0000000   0.0000000   0.0000000   0.0000000   0.0000000   2.7928460   0.0000000   2.7928460   2.7928460
 AtZNuc=   6.0000000   6.0000000   6.0000000   6.0000000   6.0000000   6.0000000   1.0000000   6.0000000   1.0000000   1.0000000

  Atom        11          12          13          14
 IAtWgt=           1           1          16           1
 AtmWgt=   1.0078250   1.0078250  15.9949146   1.0078250
 NucSpn=           1           1           0           1
 AtZEff=  -0.0000000  -0.0000000  -0.0000000  -0.0000000
 NQMom=    0.0000000   0.0000000   0.0000000   0.0000000
 NMagM=    2.7928460   2.7928460   0.0000000   2.7928460
 AtZNuc=   1.0000000   1.0000000   8.0000000   1.0000000
 Leave Link  101 at Fri Sep 22 16:26:17 2023, MaxMem=   536870912 cpu:               0.4 elap:               0.1
 (Enter /share/apps/gaussian/g16/l202.exe)
                          Input orientation:                          
 ---------------------------------------------------------------------
 Center     Atomic      Atomic             Coordinates (Angstroms)
 Number     Number       Type             X           Y           Z
 ---------------------------------------------------------------------
      1          6           0       -0.810681   -1.231316   -2.659287
      2          6           0       -0.693053   -1.105833   -1.235135
      3          6           0       -2.052990   -1.679097   -3.187425
      4          6           0        0.227556   -0.872776   -3.539813
      5          6           0       -2.219932   -1.771457   -4.574765
      6          6           0        0.049846   -0.958260   -4.910070
      7          1           0        1.171231   -0.516508   -3.138005
      8          6           0       -1.173612   -1.412586   -5.418178
      9          1           0       -3.158170   -2.115073   -4.997152
     10          1           0        0.853019   -0.673509   -5.584971
     11          1           0       -1.318242   -1.484517   -6.494701
     12          1           0       -1.593061   -1.181154   -0.633136
     13          8           0        0.338995   -0.692217   -0.607520
     14          1           0       -2.825546   -1.929265   -2.448469
 ---------------------------------------------------------------------
                    Distance matrix (angstroms):
                    1          2          3          4          5
     1  C    0.000000
     2  C    1.434500   0.000000
     3  C    1.422241   2.447345   0.000000
     4  C    1.407769   2.492665   2.444427   0.000000
     5  C    2.438606   3.731963   1.400397   2.805165   0.000000
     6  C    2.425096   3.752176   2.812300   1.384374   2.434258
     7  H    2.160578   2.728328   3.427777   1.085771   3.890908
     8  C    2.788558   4.221716   2.412591   2.404771   1.391014
     9  H    3.428898   4.609570   2.164858   3.889766   1.084792
    10  H    3.411550   4.636628   3.899272   2.147925   3.415997
    11  H    3.877129   5.310113   3.393492   3.390440   2.140451
    12  H    2.172538   1.085399   2.642702   3.443619   4.034584
    13  O    2.412909   1.276754   3.653961   2.939960   4.842716
    14  H    2.142722   2.588001   1.097945   3.410078   2.216485
                    6          7          8          9         10
     6  C    0.000000
     7  H    2.143097   0.000000
     8  C    1.400513   3.391229   0.000000
     9  H    3.411329   4.975495   2.146910   0.000000
    10  H    1.087042   2.472559   2.163628   4.302706   0.000000
    11  H    2.158626   4.289746   1.088574   2.454708   2.489923
    12  H    4.587046   3.789120   4.808963   4.729313   5.546321
    13  O    4.320454   2.669615   5.094050   5.789953   5.003957
    14  H    3.907711   4.294831   3.437297   2.577003   4.994638
                   11         12         13         14
    11  H    0.000000
    12  H    5.875840   0.000000
    13  O    6.167096   1.993127   0.000000
    14  H    4.340709   2.318216   3.864415   0.000000
 Stoichiometry    C7H6O
 Framework group  C1[X(C7H6O)]
 Deg. of freedom    36
 Full point group                 C1      NOp   1
 Largest Abelian subgroup         C1      NOp   1
 Largest concise Abelian subgroup C1      NOp   1
                         Standard orientation:                         
 ---------------------------------------------------------------------
 Center     Atomic      Atomic             Coordinates (Angstroms)
 Number     Number       Type             X           Y           Z
 ---------------------------------------------------------------------
      1          6           0        0.542569   -0.199479   -0.035727
      2          6           0        1.949204   -0.479513   -0.008375
      3          6           0       -0.355796   -1.301933   -0.018231
      4          6           0        0.030579    1.111765   -0.017836
      5          6           0       -1.736214   -1.067006    0.000915
      6          6           0       -1.335536    1.334029    0.010805
      7          1           0        0.715735    1.954058   -0.015981
      8          6           0       -2.210585    0.240546    0.015060
      9          1           0       -2.437844   -1.894296    0.009858
     10          1           0       -1.724646    2.348835    0.031369
     11          1           0       -3.285842    0.409152    0.034768
     12          1           0        2.270557   -1.494399    0.203357
     13          8           0        2.881181    0.392956    0.009483
     14          1           0        0.107265   -2.297451   -0.018904
 ---------------------------------------------------------------------
 Rotational constants (GHZ):           5.1896872           1.5541579           1.1964060
 Leave Link  202 at Fri Sep 22 16:26:17 2023, MaxMem=   536870912 cpu:               0.1 elap:               0.0
 (Enter /share/apps/gaussian/g16/l301.exe)
 General basis read from cards:  (5D, 7F)
 Centers:       7      9     10     11     12     14
 S 3 1.00
     Exponent=  1.2251800000D+01 Coefficients=  2.3337100000D-02
     Exponent=  1.8687100000D+00 Coefficients=  1.5915000000D-01
     Exponent=  4.1820800000D-01 Coefficients=  5.0000000000D-01
 S 1 1.00
     Exponent=  1.0610000000D-01 Coefficients=  1.0000000000D+00
 P 1 1.00
     Exponent=  1.0000000000D+00 Coefficients=  1.0000000000D+00
 ****
 Centers:       1      2      3      4      5      6      8
 S 5 1.00
     Exponent=  1.2432000000D+03 Coefficients=  6.0336600000D-03
     Exponent=  1.8714500000D+02 Coefficients=  4.4957600000D-02
     Exponent=  4.2512600000D+01 Coefficients=  1.9790100000D-01
     Exponent=  1.1739300000D+01 Coefficients=  5.0000000000D-01
     Exponent=  3.5054800000D+00 Coefficients=  4.8036400000D-01
 S 2 1.00
     Exponent=  5.3908900000D+00 Coefficients= -7.0398000000D-02
     Exponent=  4.9334100000D-01 Coefficients=  5.0000000000D-01
 S 1 1.00
     Exponent=  1.4974100000D-01 Coefficients=  1.0000000000D+00
 P 3 1.00
     Exponent=  9.1805600000D+00 Coefficients=  4.3170100000D-02
     Exponent=  1.9365800000D+00 Coefficients=  2.2499900000D-01
     Exponent=  5.2629600000D-01 Coefficients=  5.0000000000D-01
 P 1 1.00
     Exponent=  1.3631900000D-01 Coefficients=  1.0000000000D+00
 D 1 1.00
     Exponent=  8.0000000000D-01 Coefficients=  1.0000000000D+00
 ****
 Centers:      13
 S 5 1.00
     Exponent=  2.2886400000D+03 Coefficients=  5.8546800000D-03
     Exponent=  3.4441600000D+02 Coefficients=  4.3733300000D-02
     Exponent=  7.8253800000D+01 Coefficients=  1.9479600000D-01
     Exponent=  2.1719500000D+01 Coefficients=  5.0000000000D-01
     Exponent=  6.5590700000D+00 Coefficients=  4.8461400000D-01
 S 2 1.00
     Exponent=  1.0465600000D+01 Coefficients= -7.1334300000D-02
     Exponent=  9.6435100000D-01 Coefficients=  5.0000000000D-01
 S 1 1.00
     Exponent=  2.8512700000D-01 Coefficients=  1.0000000000D+00
 P 3 1.00
     Exponent=  1.7059000000D+01 Coefficients=  4.7443900000D-02
     Exponent=  3.6899900000D+00 Coefficients=  2.4268900000D-01
     Exponent=  9.9299600000D-01 Coefficients=  5.0000000000D-01
 P 1 1.00
     Exponent=  2.4492400000D-01 Coefficients=  1.0000000000D+00
 D 1 1.00
     Exponent=  1.0000000000D+00 Coefficients=  1.0000000000D+00
 ****
 Ernie: Thresh=  0.10000D-02 Tol=  0.10000D-05 Strict=F.
 There are   150 symmetry adapted cartesian basis functions of A   symmetry.
 There are   142 symmetry adapted basis functions of A   symmetry.
   142 basis functions,   250 primitive gaussians,   150 cartesian basis functions
    28 alpha electrons       28 beta electrons
       nuclear repulsion energy       319.5880435831 Hartrees.
 IExCor=  402 DFT=T Ex+Corr=B3LYP ExCW=0 ScaHFX=  0.200000
 ScaDFX=  0.800000  0.720000  1.000000  0.810000 ScalE2=  1.000000  1.000000
 IRadAn=      5 IRanWt=     -1 IRanGd=            0 ICorTp=0 IEmpDi=141
 NAtoms=   14 NActive=   14 NUniq=   14 SFac= 1.00D+00 NAtFMM=   60 NAOKFM=F Big=F
 Integral buffers will be    131072 words long.
 Raffenetti 2 integral format.
 Two-electron integral symmetry is turned on.
 R6Disp:  Grimme-D3(BJ) Dispersion energy=       -0.0243305954 Hartrees.
 Nuclear repulsion after empirical dispersion term =      319.5637129877 Hartrees.
 ------------------------------------------------------------------------------
 Polarizable Continuum Model (PCM)
 =================================
 Model                : C-PCM.
 Atomic radii         : UFF (Universal Force Field).
 Polarization charges : Total charges.
 Charge compensation  : None.
 Solution method      : On-the-fly selection.
 Cavity type          : Scaled VdW (van der Waals Surface) (Alpha=1.100).
 Cavity algorithm     : GePol (No added spheres)
                        Default sphere list used, NSphG=   14.
                        Lebedev-Laikov grids with approx.  5.0 points / Ang**2.
                        Smoothing algorithm: York/Karplus (Gamma=1.0000).
                        Polarization charges: spherical gaussians, with
                                              point-specific exponents (IZeta= 3).
                        Self-potential: point-specific (ISelfS= 7).
                        Self-field    : sphere-specific E.n sum rule (ISelfD= 2).
 Solvent              : Toluene, Eps=   2.374100 Eps(inf)=   2.238315
 ------------------------------------------------------------------------------
 Spheres list:
 ISph  on   Nord     Re0    Alpha      Xe            Ye            Ze
    1   C      1    1.9255  1.100      0.542569     -0.199479     -0.035727
    2   C      2    1.9255  1.100      1.949204     -0.479513     -0.008375
    3   C      3    1.9255  1.100     -0.355796     -1.301933     -0.018231
    4   C      4    1.9255  1.100      0.030579      1.111765     -0.017836
    5   C      5    1.9255  1.100     -1.736214     -1.067006      0.000915
    6   C      6    1.9255  1.100     -1.335536      1.334029      0.010805
    7   H      7    1.4430  1.100      0.715735      1.954058     -0.015981
    8   C      8    1.9255  1.100     -2.210585      0.240546      0.015060
    9   H      9    1.4430  1.100     -2.437844     -1.894296      0.009858
   10   H     10    1.4430  1.100     -1.724646      2.348835      0.031369
   11   H     11    1.4430  1.100     -3.285842      0.409152      0.034768
   12   H     12    1.4430  1.100      2.270557     -1.494399      0.203357
   13   O     13    1.7500  1.100      2.881181      0.392956      0.009483
   14   H     14    1.4430  1.100      0.107265     -2.297451     -0.018904
 ------------------------------------------------------------------------------
 GePol: Number of generator spheres                  =      14
 GePol: Total number of spheres                      =      14
 GePol: Number of exposed spheres                    =      14 (100.00%)
 GePol: Number of points                             =    1286
 GePol: Average weight of points                     =       0.13
 GePol: Minimum weight of points                     =   0.20D-09
 GePol: Maximum weight of points                     =    0.20577
 GePol: Number of points with low weight             =      91
 GePol: Fraction of low-weight points (<1% of avg)   =       7.08%
 GePol: Cavity surface area                          =    168.514 Ang**2
 GePol: Cavity volume                                =    163.970 Ang**3
 Leave Link  301 at Fri Sep 22 16:26:17 2023, MaxMem=   536870912 cpu:               0.4 elap:               0.1
 (Enter /share/apps/gaussian/g16/l302.exe)
 NPDir=0 NMtPBC=     1 NCelOv=     1 NCel=       1 NClECP=     1 NCelD=      1
         NCelK=      1 NCelE2=     1 NClLst=     1 CellRange=     0.0.
 One-electron integrals computed using PRISM.
 One-electron integral symmetry used in STVInt
 NBasis=   142 RedAO= T EigKep=  4.42D-04  NBF=   142
 NBsUse=   142 1.00D-06 EigRej= -1.00D+00 NBFU=   142
 Precomputing XC quadrature grid using
 IXCGrd= 4 IRadAn=           5 IRanWt=          -1 IRanGd=           0 AccXCQ= 0.00D+00.
 Generated NRdTot=       0 NPtTot=           0 NUsed=           0 NTot=          32
 NSgBfM=   150   150   150   150   150 MxSgAt=    14 MxSgA2=    14.
 Leave Link  302 at Fri Sep 22 16:26:17 2023, MaxMem=   536870912 cpu:               0.7 elap:               0.2
 (Enter /share/apps/gaussian/g16/l303.exe)
 DipDrv:  MaxL=1.
 Leave Link  303 at Fri Sep 22 16:26:17 2023, MaxMem=   536870912 cpu:               0.1 elap:               0.0
 (Enter /share/apps/gaussian/g16/l401.exe)
 ExpMin= 1.06D-01 ExpMax= 2.29D+03 ExpMxC= 3.44D+02 IAcc=3 IRadAn=         5 AccDes= 0.00D+00
 Harris functional with IExCor=  402 and IRadAn=       5 diagonalized for initial guess.
 HarFok:  IExCor=  402 AccDes= 0.00D+00 IRadAn=         5 IDoV= 1 UseB2=F ITyADJ=14
 ICtDFT=  3500011 ScaDFX=  1.000000  1.000000  1.000000  1.000000
 FoFCou: FMM=F IPFlag=           0 FMFlag=      100000 FMFlg1=           0
         NFxFlg=           0 DoJE=T BraDBF=F KetDBF=T FulRan=T
         wScrn=  0.000000 ICntrl=       500 IOpCl=  0 I1Cent=   200000004 NGrid=           0
         NMat0=    1 NMatS0=      1 NMatT0=    0 NMatD0=    1 NMtDS0=    0 NMtDT0=    0
 Petite list used in FoFCou.
 Harris En= -345.544563769391    
 JPrj=0 DoOrth=F DoCkMO=F.
 Leave Link  401 at Fri Sep 22 16:26:18 2023, MaxMem=   536870912 cpu:               5.0 elap:               1.3
 (Enter /share/apps/gaussian/g16/l502.exe)
 Keep R1 ints in memory in canonical form, NReq=55449555.
 FoFCou: FMM=F IPFlag=           0 FMFlag=           0 FMFlg1=           0
         NFxFlg=           0 DoJE=F BraDBF=F KetDBF=F FulRan=T
         wScrn=  0.000000 ICntrl=       600 IOpCl=  0 I1Cent=           0 NGrid=           0
         NMat0=    1 NMatS0=  10153 NMatT0=    0 NMatD0=    1 NMtDS0=    0 NMtDT0=    0
 Symmetry not used in FoFCou.
 Two-electron integral symmetry not used.
 Closed shell SCF:
 Using DIIS extrapolation, IDIIS=  1040.
 NGot=   536870912 LenX=   485276545 LenY=   485253604
 Requested convergence on RMS density matrix=1.00D-08 within 128 cycles.
 Requested convergence on MAX density matrix=1.00D-06.
 Requested convergence on             energy=1.00D-06.
 No special actions if energy rises.

 Cycle   1  Pass 1  IDiag  1:
 Inv3:  Mode=1 IEnd=     4961388.
 Iteration    1 A*A^-1 deviation from unit magnitude is 4.55D-15 for    482.
 Iteration    1 A*A^-1 deviation from orthogonality  is 1.27D-15 for   1278   1169.
 Iteration    1 A^-1*A deviation from unit magnitude is 4.11D-15 for    482.
 Iteration    1 A^-1*A deviation from orthogonality  is 1.92D-15 for   1066    726.
 E= -345.373681120936    
 DIIS: error= 4.37D-02 at cycle   1 NSaved=   1.
 NSaved= 1 IEnMin= 1 EnMin= -345.373681120936     IErMin= 1 ErrMin= 4.37D-02
 ErrMax= 4.37D-02  0.00D+00 EMaxC= 1.00D-01 BMatC= 1.51D-01 BMatP= 1.51D-01
 IDIUse=3 WtCom= 5.63D-01 WtEn= 4.37D-01
 Coeff-Com:  0.100D+01
 Coeff-En:   0.100D+01
 Coeff:      0.100D+01
 Gap=     0.131 Goal=   None    Shift=    0.000
 GapD=    0.131 DampG=1.000 DampE=0.500 DampFc=0.5000 IDamp=-1.
 Damping current iteration by 5.00D-01
 RMSDP=9.10D-03 MaxDP=3.11D-01              OVMax= 1.95D-01

 Cycle   2  Pass 1  IDiag  1:
 E= -345.428048668938     Delta-E=       -0.054367548002 Rises=F Damp=T
 DIIS: error= 1.35D-02 at cycle   2 NSaved=   2.
 NSaved= 2 IEnMin= 2 EnMin= -345.428048668938     IErMin= 2 ErrMin= 1.35D-02
 ErrMax= 1.35D-02  0.00D+00 EMaxC= 1.00D-01 BMatC= 2.35D-02 BMatP= 1.51D-01
 IDIUse=3 WtCom= 8.65D-01 WtEn= 1.35D-01
 Coeff-Com:  0.205D+00 0.795D+00
 Coeff-En:   0.269D+00 0.731D+00
 Coeff:      0.214D+00 0.786D+00
 Gap=     0.194 Goal=   None    Shift=    0.000
 RMSDP=2.85D-03 MaxDP=9.95D-02 DE=-5.44D-02 OVMax= 1.83D-01

 Cycle   3  Pass 1  IDiag  1:
 E= -345.510816884159     Delta-E=       -0.082768215220 Rises=F Damp=F
 DIIS: error= 1.79D-02 at cycle   3 NSaved=   3.
 NSaved= 3 IEnMin= 3 EnMin= -345.510816884159     IErMin= 2 ErrMin= 1.35D-02
 ErrMax= 1.79D-02  0.00D+00 EMaxC= 1.00D-01 BMatC= 2.74D-02 BMatP= 2.35D-02
 IDIUse=2 WtCom= 0.00D+00 WtEn= 1.00D+00
 Coeff-En:   0.000D+00 0.000D+00 0.100D+01
 Coeff:      0.000D+00 0.000D+00 0.100D+01
 Gap=     0.205 Goal=   None    Shift=    0.000
 RMSDP=4.65D-03 MaxDP=1.84D-01 DE=-8.28D-02 OVMax= 2.03D-01

 Cycle   4  Pass 1  IDiag  1:
 E= -345.392840937283     Delta-E=        0.117975946876 Rises=F Damp=F
 DIIS: error= 4.29D-02 at cycle   4 NSaved=   4.
 NSaved= 4 IEnMin= 3 EnMin= -345.510816884159     IErMin= 2 ErrMin= 1.35D-02
 ErrMax= 4.29D-02  0.00D+00 EMaxC= 1.00D-01 BMatC= 1.71D-01 BMatP= 2.35D-02
 IDIUse=2 WtCom= 0.00D+00 WtEn= 1.00D+00
 Coeff-En:   0.000D+00 0.000D+00 0.798D+00 0.202D+00
 Coeff:      0.000D+00 0.000D+00 0.798D+00 0.202D+00
 Gap=     0.161 Goal=   None    Shift=    0.000
 RMSDP=2.72D-03 MaxDP=1.20D-01 DE= 1.18D-01 OVMax= 9.58D-02

 Cycle   5  Pass 1  IDiag  1:
 E= -345.525321174083     Delta-E=       -0.132480236800 Rises=F Damp=F
 DIIS: error= 1.19D-02 at cycle   5 NSaved=   5.
 NSaved= 5 IEnMin= 5 EnMin= -345.525321174083     IErMin= 5 ErrMin= 1.19D-02
 ErrMax= 1.19D-02  0.00D+00 EMaxC= 1.00D-01 BMatC= 1.19D-02 BMatP= 2.35D-02
 IDIUse=3 WtCom= 8.81D-01 WtEn= 1.19D-01
 Coeff-Com: -0.933D-02 0.548D-01 0.274D+00-0.124D+00 0.804D+00
 Coeff-En:   0.000D+00 0.000D+00 0.339D+00 0.000D+00 0.661D+00
 Coeff:     -0.822D-02 0.483D-01 0.282D+00-0.109D+00 0.787D+00
 Gap=     0.179 Goal=   None    Shift=    0.000
 RMSDP=8.57D-04 MaxDP=3.04D-02 DE=-1.32D-01 OVMax= 3.37D-02

 Cycle   6  Pass 1  IDiag  1:
 E= -345.535615815718     Delta-E=       -0.010294641635 Rises=F Damp=F
 DIIS: error= 3.26D-04 at cycle   6 NSaved=   6.
 NSaved= 6 IEnMin= 6 EnMin= -345.535615815718     IErMin= 6 ErrMin= 3.26D-04
 ErrMax= 3.26D-04  0.00D+00 EMaxC= 1.00D-01 BMatC= 1.64D-05 BMatP= 1.19D-02
 IDIUse=3 WtCom= 9.97D-01 WtEn= 3.26D-03
 Coeff-Com: -0.505D-02 0.175D-01 0.105D+00-0.500D-01 0.335D+00 0.597D+00
 Coeff-En:   0.000D+00 0.000D+00 0.000D+00 0.000D+00 0.000D+00 0.100D+01
 Coeff:     -0.504D-02 0.175D-01 0.105D+00-0.498D-01 0.334D+00 0.598D+00
 Gap=     0.179 Goal=   None    Shift=    0.000
 RMSDP=4.30D-05 MaxDP=1.13D-03 DE=-1.03D-02 OVMax= 2.32D-03

 Cycle   7  Pass 1  IDiag  1:
 E= -345.535627958433     Delta-E=       -0.000012142715 Rises=F Damp=F
 DIIS: error= 1.87D-04 at cycle   7 NSaved=   7.
 NSaved= 7 IEnMin= 7 EnMin= -345.535627958433     IErMin= 7 ErrMin= 1.87D-04
 ErrMax= 1.87D-04  0.00D+00 EMaxC= 1.00D-01 BMatC= 3.61D-06 BMatP= 1.64D-05
 IDIUse=3 WtCom= 9.98D-01 WtEn= 1.87D-03
 Coeff-Com: -0.130D-02 0.124D-02 0.272D-01-0.115D-01 0.869D-01 0.373D+00
 Coeff-Com:  0.525D+00
 Coeff-En:   0.000D+00 0.000D+00 0.000D+00 0.000D+00 0.000D+00 0.229D+00
 Coeff-En:   0.771D+00
 Coeff:     -0.130D-02 0.124D-02 0.272D-01-0.115D-01 0.868D-01 0.372D+00
 Coeff:      0.525D+00
 Gap=     0.179 Goal=   None    Shift=    0.000
 RMSDP=1.49D-05 MaxDP=3.69D-04 DE=-1.21D-05 OVMax= 8.30D-04

 Cycle   8  Pass 1  IDiag  1:
 E= -345.535631885081     Delta-E=       -0.000003926648 Rises=F Damp=F
 DIIS: error= 2.01D-05 at cycle   8 NSaved=   8.
 NSaved= 8 IEnMin= 8 EnMin= -345.535631885081     IErMin= 8 ErrMin= 2.01D-05
 ErrMax= 2.01D-05  0.00D+00 EMaxC= 1.00D-01 BMatC= 6.73D-08 BMatP= 3.61D-06
 IDIUse=1 WtCom= 1.00D+00 WtEn= 0.00D+00
 Coeff-Com: -0.322D-03-0.805D-04 0.736D-02-0.322D-02 0.238D-01 0.132D+00
 Coeff-Com:  0.223D+00 0.617D+00
 Coeff:     -0.322D-03-0.805D-04 0.736D-02-0.322D-02 0.238D-01 0.132D+00
 Coeff:      0.223D+00 0.617D+00
 Gap=     0.179 Goal=   None    Shift=    0.000
 RMSDP=2.17D-06 MaxDP=5.98D-05 DE=-3.93D-06 OVMax= 1.34D-04

 Cycle   9  Pass 1  IDiag  1:
 E= -345.535631938002     Delta-E=       -0.000000052922 Rises=F Damp=F
 DIIS: error= 7.76D-06 at cycle   9 NSaved=   9.
 NSaved= 9 IEnMin= 9 EnMin= -345.535631938002     IErMin= 9 ErrMin= 7.76D-06
 ErrMax= 7.76D-06  0.00D+00 EMaxC= 1.00D-01 BMatC= 9.62D-09 BMatP= 6.73D-08
 IDIUse=1 WtCom= 1.00D+00 WtEn= 0.00D+00
 Coeff-Com: -0.127D-05-0.148D-03 0.369D-03-0.345D-03 0.155D-02 0.214D-01
 Coeff-Com:  0.507D-01 0.333D+00 0.593D+00
 Coeff:     -0.127D-05-0.148D-03 0.369D-03-0.345D-03 0.155D-02 0.214D-01
 Coeff:      0.507D-01 0.333D+00 0.593D+00
 Gap=     0.179 Goal=   None    Shift=    0.000
 RMSDP=6.99D-07 MaxDP=2.54D-05 DE=-5.29D-08 OVMax= 4.31D-05

 Cycle  10  Pass 1  IDiag  1:
 E= -345.535631947383     Delta-E=       -0.000000009380 Rises=F Damp=F
 DIIS: error= 8.07D-07 at cycle  10 NSaved=  10.
 NSaved=10 IEnMin=10 EnMin= -345.535631947383     IErMin=10 ErrMin= 8.07D-07
 ErrMax= 8.07D-07  0.00D+00 EMaxC= 1.00D-01 BMatC= 1.07D-10 BMatP= 9.62D-09
 IDIUse=1 WtCom= 1.00D+00 WtEn= 0.00D+00
 Coeff-Com:  0.925D-05-0.476D-04-0.671D-04-0.130D-05-0.171D-03 0.250D-02
 Coeff-Com:  0.710D-02 0.685D-01 0.175D+00 0.747D+00
 Coeff:      0.925D-05-0.476D-04-0.671D-04-0.130D-05-0.171D-03 0.250D-02
 Coeff:      0.710D-02 0.685D-01 0.175D+00 0.747D+00
 Gap=     0.179 Goal=   None    Shift=    0.000
 RMSDP=1.17D-07 MaxDP=2.74D-06 DE=-9.38D-09 OVMax= 6.73D-06

 Cycle  11  Pass 1  IDiag  1:
 E= -345.535631947457     Delta-E=       -0.000000000074 Rises=F Damp=F
 DIIS: error= 4.54D-07 at cycle  11 NSaved=  11.
 NSaved=11 IEnMin=11 EnMin= -345.535631947457     IErMin=11 ErrMin= 4.54D-07
 ErrMax= 4.54D-07  0.00D+00 EMaxC= 1.00D-01 BMatC= 3.78D-11 BMatP= 1.07D-10
 IDIUse=1 WtCom= 1.00D+00 WtEn= 0.00D+00
 Coeff-Com:  0.429D-05-0.962D-05-0.875D-04 0.244D-04-0.249D-03-0.468D-03
 Coeff-Com: -0.339D-03 0.113D-01 0.553D-01 0.431D+00 0.504D+00
 Coeff:      0.429D-05-0.962D-05-0.875D-04 0.244D-04-0.249D-03-0.468D-03
 Coeff:     -0.339D-03 0.113D-01 0.553D-01 0.431D+00 0.504D+00
 Gap=     0.179 Goal=   None    Shift=    0.000
 RMSDP=5.54D-08 MaxDP=1.16D-06 DE=-7.40D-11 OVMax= 3.23D-06

 Cycle  12  Pass 1  IDiag  1:
 E= -345.535631947492     Delta-E=       -0.000000000035 Rises=F Damp=F
 DIIS: error= 1.51D-07 at cycle  12 NSaved=  12.
 NSaved=12 IEnMin=12 EnMin= -345.535631947492     IErMin=12 ErrMin= 1.51D-07
 ErrMax= 1.51D-07  0.00D+00 EMaxC= 1.00D-01 BMatC= 2.75D-12 BMatP= 3.78D-11
 IDIUse=1 WtCom= 1.00D+00 WtEn= 0.00D+00
 Coeff-Com:  0.815D-06 0.103D-05-0.429D-04 0.116D-04-0.115D-03-0.482D-03
 Coeff-Com: -0.877D-03-0.719D-03 0.139D-01 0.157D+00 0.264D+00 0.568D+00
 Coeff:      0.815D-06 0.103D-05-0.429D-04 0.116D-04-0.115D-03-0.482D-03
 Coeff:     -0.877D-03-0.719D-03 0.139D-01 0.157D+00 0.264D+00 0.568D+00
 Gap=     0.179 Goal=   None    Shift=    0.000
 RMSDP=1.64D-08 MaxDP=3.36D-07 DE=-3.51D-11 OVMax= 9.19D-07

 Cycle  13  Pass 1  IDiag  1:
 E= -345.535631947494     Delta-E=       -0.000000000003 Rises=F Damp=F
 DIIS: error= 4.34D-08 at cycle  13 NSaved=  13.
 NSaved=13 IEnMin=13 EnMin= -345.535631947494     IErMin=13 ErrMin= 4.34D-08
 ErrMax= 4.34D-08  0.00D+00 EMaxC= 1.00D-01 BMatC= 2.66D-13 BMatP= 2.75D-12
 IDIUse=1 WtCom= 1.00D+00 WtEn= 0.00D+00
 Coeff-Com: -0.359D-06 0.134D-05-0.438D-05 0.163D-05-0.100D-04-0.102D-03
 Coeff-Com: -0.294D-03-0.175D-02-0.490D-03 0.837D-02 0.462D-01 0.261D+00
 Coeff-Com:  0.687D+00
 Coeff:     -0.359D-06 0.134D-05-0.438D-05 0.163D-05-0.100D-04-0.102D-03
 Coeff:     -0.294D-03-0.175D-02-0.490D-03 0.837D-02 0.462D-01 0.261D+00
 Coeff:      0.687D+00
 Gap=     0.179 Goal=   None    Shift=    0.000
 RMSDP=4.86D-09 MaxDP=1.05D-07 DE=-2.73D-12 OVMax= 2.76D-07

 Error on total polarization charges =  0.00651
 SCF Done:  E(RB3LYP) =  -345.535631947     A.U. after   13 cycles
            NFock= 13  Conv=0.49D-08     -V/T= 2.0053
 KE= 3.437260727424D+02 PE=-1.443232451192D+03 EE= 4.344070335144D+02
 Leave Link  502 at Fri Sep 22 16:26:43 2023, MaxMem=   536870912 cpu:              94.7 elap:              24.5
 (Enter /share/apps/gaussian/g16/l601.exe)
 Copying SCF densities to generalized density rwf, IOpCl= 0 IROHF=0.

 **********************************************************************

            Population analysis using the SCF density.

 **********************************************************************

 Orbital symmetries:
       Occupied  (A) (A) (A) (A) (A) (A) (A) (A) (A) (A) (A) (A)
                 (A) (A) (A) (A) (A) (A) (A) (A) (A) (A) (A) (A)
                 (A) (A) (A) (A)
       Virtual   (A) (A) (A) (A) (A) (A) (A) (A) (A) (A) (A) (A)
                 (A) (A) (A) (A) (A) (A) (A) (A) (A) (A) (A) (A)
                 (A) (A) (A) (A) (A) (A) (A) (A) (A) (A) (A) (A)
                 (A) (A) (A) (A) (A) (A) (A) (A) (A) (A) (A) (A)
                 (A) (A) (A) (A) (A) (A) (A) (A) (A) (A) (A) (A)
                 (A) (A) (A) (A) (A) (A) (A) (A) (A) (A) (A) (A)
                 (A) (A) (A) (A) (A) (A) (A) (A) (A) (A) (A) (A)
                 (A) (A) (A) (A) (A) (A) (A) (A) (A) (A) (A) (A)
                 (A) (A) (A) (A) (A) (A) (A) (A) (A) (A) (A) (A)
                 (A) (A) (A) (A) (A) (A)
 The electronic state is 1-A.
 Alpha  occ. eigenvalues --  -19.12148 -10.27077 -10.21221 -10.20652 -10.20528
 Alpha  occ. eigenvalues --  -10.20371 -10.20291 -10.20070  -1.02268  -0.88449
 Alpha  occ. eigenvalues --   -0.79101  -0.77400  -0.67246  -0.63277  -0.58733
 Alpha  occ. eigenvalues --   -0.53493  -0.49933  -0.47419  -0.45430  -0.44642
 Alpha  occ. eigenvalues --   -0.42849  -0.41244  -0.38159  -0.36906  -0.36454
 Alpha  occ. eigenvalues --   -0.28159  -0.27808  -0.26751
 Alpha virt. eigenvalues --   -0.08879  -0.03404   0.01798   0.04262   0.06313
 Alpha virt. eigenvalues --    0.08416   0.09846   0.11491   0.12936   0.13663
 Alpha virt. eigenvalues --    0.21683   0.22339   0.25042   0.25840   0.26728
 Alpha virt. eigenvalues --    0.31216   0.38468   0.38873   0.40554   0.42264
 Alpha virt. eigenvalues --    0.44590   0.45705   0.46303   0.47511   0.48017
 Alpha virt. eigenvalues --    0.48668   0.49048   0.50339   0.51274   0.52396
 Alpha virt. eigenvalues --    0.56350   0.58369   0.60562   0.60919   0.61752
 Alpha virt. eigenvalues --    0.62214   0.65212   0.67413   0.70031   0.73088
 Alpha virt. eigenvalues --    0.82823   0.84563   0.87658   0.88492   0.90463
 Alpha virt. eigenvalues --    0.91711   0.93870   0.97713   0.98157   1.02304
 Alpha virt. eigenvalues --    1.12141   1.12942   1.21680   1.22259   1.23457
 Alpha virt. eigenvalues --    1.26773   1.32299   1.33894   1.36434   1.36949
 Alpha virt. eigenvalues --    1.47791   1.49934   1.65574   1.66650   1.71048
 Alpha virt. eigenvalues --    1.74338   1.77329   1.77852   1.81953   1.83826
 Alpha virt. eigenvalues --    1.83991   1.85208   1.85950   1.87788   1.89658
 Alpha virt. eigenvalues --    1.94142   2.03802   2.05560   2.11786   2.15233
 Alpha virt. eigenvalues --    2.18565   2.19423   2.20043   2.22840   2.23699
 Alpha virt. eigenvalues --    2.24434   2.25244   2.25886   2.28778   2.29251
 Alpha virt. eigenvalues --    2.32153   2.34980   2.36535   2.46020   2.46976
 Alpha virt. eigenvalues --    2.50481   2.51962   2.60849   2.63800   2.66933
 Alpha virt. eigenvalues --    2.70400   2.78740   2.89341   2.95852   2.98456
 Alpha virt. eigenvalues --    3.02757   3.03947   3.07145   3.14418   3.20244
 Alpha virt. eigenvalues --    3.27173   3.35383   3.44078   3.78171
          Condensed to atoms (all electrons):
               1          2          3          4          5          6
     1  C    5.905149   0.199027   0.372924   0.314109  -0.025192  -0.031115
     2  C    0.199027   4.523568  -0.070612  -0.067001   0.009727   0.012885
     3  C    0.372924  -0.070612   5.022807  -0.061109   0.420661  -0.071566
     4  C    0.314109  -0.067001  -0.061109   4.967063  -0.059096   0.452102
     5  C   -0.025192   0.009727   0.420661  -0.059096   4.925828  -0.033593
     6  C   -0.031115   0.012885  -0.071566   0.452102  -0.033593   4.947439
     7  H   -0.058314  -0.018750   0.012509   0.427790  -0.002332  -0.045346
     8  C   -0.076238  -0.002028  -0.032662  -0.034066   0.459035   0.429135
     9  H    0.011322  -0.000176  -0.048702  -0.001591   0.422531   0.011130
    10  H    0.012832  -0.000156  -0.001609  -0.046069   0.010790   0.423712
    11  H   -0.002192   0.000042   0.012541   0.012021  -0.046906  -0.049459
    12  H   -0.130540   0.447741  -0.005855   0.015583   0.000984   0.000025
    13  O   -0.100313   0.599078   0.003593   0.008937  -0.000332   0.000963
    14  H   -0.054765  -0.012826   0.430637   0.012053  -0.047516  -0.002311
               7          8          9         10         11         12
     1  C   -0.058314  -0.076238   0.011322   0.012832  -0.002192  -0.130540
     2  C   -0.018750  -0.002028  -0.000176  -0.000156   0.000042   0.447741
     3  C    0.012509  -0.032662  -0.048702  -0.001609   0.012541  -0.005855
     4  C    0.427790  -0.034066  -0.001591  -0.046069   0.012021   0.015583
     5  C   -0.002332   0.459035   0.422531   0.010790  -0.046906   0.000984
     6  C   -0.045346   0.429135   0.011130   0.423712  -0.049459   0.000025
     7  H    0.607058   0.012242   0.000056  -0.014139  -0.000052   0.001554
     8  C    0.012242   4.947710  -0.045341  -0.050073   0.423319  -0.000139
     9  H    0.000056  -0.045341   0.600073  -0.000085  -0.015031   0.000027
    10  H   -0.014139  -0.050073  -0.000085   0.599821  -0.014024   0.000007
    11  H   -0.000052   0.423319  -0.015031  -0.014024   0.600689   0.000001
    12  H    0.001554  -0.000139   0.000027   0.000007   0.000001   0.665600
    13  O    0.018057   0.000018   0.000001  -0.000011   0.000000  -0.055541
    14  H    0.000088   0.010285  -0.011486   0.000049  -0.000073   0.003693
              13         14
     1  C   -0.100313  -0.054765
     2  C    0.599078  -0.012826
     3  C    0.003593   0.430637
     4  C    0.008937   0.012053
     5  C   -0.000332  -0.047516
     6  C    0.000963  -0.002311
     7  H    0.018057   0.000088
     8  C    0.000018   0.010285
     9  H    0.000001  -0.011486
    10  H   -0.000011   0.000049
    11  H    0.000000  -0.000073
    12  H   -0.055541   0.003693
    13  O    7.945280   0.000318
    14  H    0.000318   0.602309
 Mulliken charges:
               1
     1  C   -0.336694
     2  C    0.379481
     3  C    0.016443
     4  C    0.059272
     5  C   -0.034589
     6  C   -0.044002
     7  H    0.059579
     8  C   -0.041198
     9  H    0.077271
    10  H    0.078957
    11  H    0.079123
    12  H    0.056862
    13  O   -0.420049
    14  H    0.069545
 Sum of Mulliken charges =  -0.00000
 Mulliken charges with hydrogens summed into heavy atoms:
               1
     1  C   -0.336694
     2  C    0.436343
     3  C    0.085987
     4  C    0.118852
     5  C    0.042681
     6  C    0.034955
     8  C    0.037925
    13  O   -0.420049
 Electronic spatial extent (au):  <R**2>=            942.9818
 Charge=             -0.0000 electrons
 Dipole moment (field-independent basis, Debye):
    X=             -4.2598    Y=             -1.5896    Z=              0.0998  Tot=              4.5478
 Quadrupole moment (field-independent basis, Debye-Ang):
   XX=            -53.2991   YY=            -40.2161   ZZ=            -49.9305
   XY=             -4.7849   XZ=             -0.0001   YZ=             -0.0477
 Traceless Quadrupole moment (field-independent basis, Debye-Ang):
   XX=             -5.4839   YY=              7.5991   ZZ=             -2.1153
   XY=             -4.7849   XZ=             -0.0001   YZ=             -0.0477
 Octapole moment (field-independent basis, Debye-Ang**2):
  XXX=            -49.5316  YYY=              0.5571  ZZZ=              0.2922  XYY=             -0.0852
  XXY=            -11.5052  XXZ=              0.6016  XZZ=              7.6276  YZZ=              0.3938
  YYZ=              0.4634  XYZ=             -0.3214
 Hexadecapole moment (field-independent basis, Debye-Ang**3):
 XXXX=           -954.0864 YYYY=           -296.8078 ZZZZ=            -57.1358 XXXY=            -28.8300
 XXXZ=             -0.6203 YYYX=             -3.1023 YYYZ=             -0.1440 ZZZX=              0.3522
 ZZZY=             -0.0716 XXYY=           -183.3542 XXZZ=           -160.8146 YYZZ=            -70.3508
 XXYZ=             -0.4700 YYXZ=              0.4990 ZZXY=              0.7726
 N-N= 3.195637129877D+02 E-N=-1.443232449018D+03  KE= 3.437260727424D+02
 There are a total of      312420 grid points.
 ElSum from          density=       55.9999961303
 ElSum from atomic densities=       56.0000093484
 Hirshfeld populations at iteration   1 (CA, CB, DipXYZ):
               1          2          3          4          5
     1  C    3.008562   3.008562   0.038051  -0.004304   0.000412
     2  C    2.940829   2.940829  -0.027597  -0.045713  -0.029604
     3  C    3.008399   3.008399   0.011945  -0.051630   0.001857
     4  C    3.007790   3.007790   0.029119   0.035580   0.001079
     5  C    3.016024   3.016024  -0.036456  -0.041688   0.000334
     6  C    3.013884   3.013884  -0.027951   0.053288   0.001713
     7  H    0.476003   0.476003   0.070748   0.131787   0.000962
     8  C    3.007665   3.007665  -0.053023   0.014363   0.000948
     9  H    0.475415   0.475415  -0.103579  -0.119279   0.001392
    10  H    0.474390   0.474390  -0.055881   0.147772   0.002964
    11  H    0.474922   0.474922  -0.154491   0.023981   0.002786
    12  H    0.477670   0.477670   0.047303  -0.128373   0.031517
    13  O    4.143728   4.143728  -0.139392  -0.103632   0.006965
    14  H    0.474716   0.474716   0.060449  -0.141230   0.000615
       Tot  27.999998  27.999998  -0.340756  -0.229076   0.023940

 Dip from Atomic Chgs             -1.335185  -0.396318   0.015331
         Total Dipole             -1.675941  -0.625393   0.039271

 Hirshfeld charges, spin densities, dipoles, and CM5 charges using IRadAn=      5:
              Q-H        S-H        Dx         Dy         Dz        Q-CM5   
     1  C   -0.017123   0.000000   0.038051  -0.004304   0.000412  -0.025803
     2  C    0.118341   0.000000  -0.027597  -0.045713  -0.029604   0.098964
     3  C   -0.016798   0.000000   0.011945  -0.051630   0.001857  -0.068282
     4  C   -0.015581   0.000000   0.029119   0.035580   0.001079  -0.067345
     5  C   -0.032048   0.000000  -0.036456  -0.041688   0.000334  -0.087167
     6  C   -0.027768   0.000000  -0.027951   0.053288   0.001713  -0.083012
     7  H    0.047993   0.000000   0.070748   0.131787   0.000962   0.106799
     8  C   -0.015331   0.000000  -0.053023   0.014363   0.000948  -0.070434
     9  H    0.049170   0.000000  -0.103579  -0.119279   0.001392   0.104763
    10  H    0.051221   0.000000  -0.055881   0.147772   0.002964   0.106556
    11  H    0.050157   0.000000  -0.154491   0.023981   0.002786   0.105423
    12  H    0.044660   0.000000   0.047303  -0.128373   0.031517   0.110448
    13  O   -0.287456   0.000000  -0.139392  -0.103632   0.006965  -0.336439
    14  H    0.050567   0.000000   0.060449  -0.141230   0.000615   0.105533
       Tot   0.000004   0.000000  -0.340756  -0.229076   0.023940   0.000004
 Hirshfeld charges with hydrogens summed into heavy atoms:
              Q-H       Q-CM5   
     1  C   -0.017123  -0.025803
     2  C    0.163001   0.209411
     3  C    0.033769   0.037251
     4  C    0.032412   0.039454
     5  C    0.017122   0.017596
     6  C    0.023452   0.023544
     8  C    0.034826   0.034989
    13  O   -0.287456  -0.336439
 
 EQQ= 0.000000000000E+00 EQD= 0.000000000000E+00 EDD= 0.694827031234E-02
 EQQ+QD+DD= 0.694827031234E-02
 
 No NMR shielding tensors so no spin-rotation constants.
 Leave Link  601 at Fri Sep 22 16:26:44 2023, MaxMem=   536870912 cpu:               3.8 elap:               1.0
 (Enter /share/apps/gaussian/g16/l9999.exe)
 1\1\GINC-NODE74\SP\RB3LYP\Gen\C7H6O1\YANZ\22-Sep-2023\0\\#p b3lyp/gen 
 scrf=(cpcm,solvent=toluene) pop=hirshfeld empiricaldispersion=gd3bj\\t
 mpdir/M3_ref_0.gjf\\0,1\C,0,-0.810681,-1.231316,-2.65928698\C,0,-0.693
 053,-1.105833,-1.23513496\C,0,-2.05299,-1.679097,-3.1874249\C,0,0.2275
 56,-0.872776,-3.53981304\C,0,-2.219932,-1.771457,-4.57476521\C,0,0.049
 846,-0.95826,-4.91006994\H,0,1.171231,-0.516508,-3.13800502\C,0,-1.173
 612,-1.412586,-5.41817808\H,0,-3.15817,-2.115073,-4.99715185\H,0,0.853
 019,-0.673509,-5.58497095\H,0,-1.318242,-1.484517,-6.49470091\H,0,-1.5
 93061,-1.181154,-0.63313597\O,0,0.338995,-0.692217,-0.60751998\H,0,-2.
 82554619,-1.92926506,-2.44846947\\Version=ES64L-G16RevA.03\State=1-A\H
 F=-345.5356319\RMSD=4.864e-09\Dipole=-1.0292024,-0.3817227,-1.4129508\
 Quadrupole=2.4089469,-1.2283385,-1.1806083,1.1924424,-5.3643024,-1.901
 0953\PG=C01 [X(C7H6O1)]\\@


 STEINBACH'S GUIDELINES FOR SYSTEMS PROGRAMMING:
 NEVER TEST FOR AN ERROR CONDITION YOU DON'T KNOW HOW
 TO HANDLE.
 Job cpu time:       0 days  0 hours  1 minutes 45.9 seconds.
 Elapsed time:       0 days  0 hours  0 minutes 27.4 seconds.
 File lengths (MBytes):  RWF=     26 Int=      0 D2E=      0 Chk=      3 Scr=      1
 Normal termination of Gaussian 16 at Fri Sep 22 16:26:44 2023.
