 Entering Gaussian System, Link 0=g16
 Initial command:
 /share/apps/gaussian/g16/l1.exe "/tmp/55557.mgr/Gau-207174.inp" -scrdir="/tmp/55557.mgr/"
 Entering Link 1 = /share/apps/gaussian/g16/l1.exe PID=    207175.
  
 Copyright (c) 1988,1990,1992,1993,1995,1998,2003,2009,2016,
            Gaussian, Inc.  All Rights Reserved.
  
 This is part of the Gaussian(R) 16 program.  It is based on
 the Gaussian(R) 09 system (copyright 2009, Gaussian, Inc.),
 the Gaussian(R) 03 system (copyright 2003, Gaussian, Inc.),
 the Gaussian(R) 98 system (copyright 1998, Gaussian, Inc.),
 the Gaussian(R) 94 system (copyright 1995, Gaussian, Inc.),
 the Gaussian 92(TM) system (copyright 1992, Gaussian, Inc.),
 the Gaussian 90(TM) system (copyright 1990, Gaussian, Inc.),
 the Gaussian 88(TM) system (copyright 1988, Gaussian, Inc.),
 the Gaussian 86(TM) system (copyright 1986, Carnegie Mellon
 University), and the Gaussian 82(TM) system (copyright 1983,
 Carnegie Mellon University). Gaussian is a federally registered
 trademark of Gaussian, Inc.
  
 This software contains proprietary and confidential information,
 including trade secrets, belonging to Gaussian, Inc.
  
 This software is provided under written license and may be
 used, copied, transmitted, or stored only in accord with that
 written license.
  
 The following legend is applicable only to US Government
 contracts under FAR:
  
                    RESTRICTED RIGHTS LEGEND
  
 Use, reproduction and disclosure by the US Government is
 subject to restrictions as set forth in subparagraphs (a)
 and (c) of the Commercial Computer Software - Restricted
 Rights clause in FAR 52.227-19.
  
 Gaussian, Inc.
 340 Quinnipiac St., Bldg. 40, Wallingford CT 06492
  
  
 ---------------------------------------------------------------
 Warning -- This program may not be used in any manner that
 competes with the business of Gaussian, Inc. or will provide
 assistance to any competitor of Gaussian, Inc.  The licensee
 of this program is prohibited from giving any competitor of
 Gaussian, Inc. access to this program.  By using this program,
 the user acknowledges that Gaussian, Inc. is engaged in the
 business of creating and licensing software in the field of
 computational chemistry and represents and warrants to the
 licensee that it is not a competitor of Gaussian, Inc. and that
 it will not use this program in any manner prohibited above.
 ---------------------------------------------------------------
  

 Cite this work as:
 Gaussian 16, Revision A.03,
 M. J. Frisch, G. W. Trucks, H. B. Schlegel, G. E. Scuseria, 
 M. A. Robb, J. R. Cheeseman, G. Scalmani, V. Barone, 
 G. A. Petersson, H. Nakatsuji, X. Li, M. Caricato, A. V. Marenich, 
 J. Bloino, B. G. Janesko, R. Gomperts, B. Mennucci, H. P. Hratchian, 
 J. V. Ortiz, A. F. Izmaylov, J. L. Sonnenberg, D. Williams-Young, 
 F. Ding, F. Lipparini, F. Egidi, J. Goings, B. Peng, A. Petrone, 
 T. Henderson, D. Ranasinghe, V. G. Zakrzewski, J. Gao, N. Rega, 
 G. Zheng, W. Liang, M. Hada, M. Ehara, K. Toyota, R. Fukuda, 
 J. Hasegawa, M. Ishida, T. Nakajima, Y. Honda, O. Kitao, H. Nakai, 
 T. Vreven, K. Throssell, J. A. Montgomery, Jr., J. E. Peralta, 
 F. Ogliaro, M. J. Bearpark, J. J. Heyd, E. N. Brothers, K. N. Kudin, 
 V. N. Staroverov, T. A. Keith, R. Kobayashi, J. Normand, 
 K. Raghavachari, A. P. Rendell, J. C. Burant, S. S. Iyengar, 
 J. Tomasi, M. Cossi, J. M. Millam, M. Klene, C. Adamo, R. Cammi, 
 J. W. Ochterski, R. L. Martin, K. Morokuma, O. Farkas, 
 J. B. Foresman, and D. J. Fox, Gaussian, Inc., Wallingford CT, 2016.
 
 ******************************************
 Gaussian 16:  ES64L-G16RevA.03 25-Dec-2016
                22-Sep-2023 
 ******************************************
 %nprocshared=4
 Will use up to    4 processors via shared memory.
 %mem=4GB
 ----------------------------------------------------------------------
 #p b3lyp/gen scrf=(cpcm,solvent=toluene) pop=hirshfeld empiricaldisper
 sion=gd3bj
 ----------------------------------------------------------------------
 1/38=1,172=1/1;
 2/12=2,17=6,18=5,40=1/2;
 3/5=7,11=2,25=1,30=1,70=2101,72=13,74=-5,124=41/1,2,3;
 4//1;
 5/5=2,38=5,53=13/2;
 6/7=2,8=2,9=2,10=2,28=1,79=1/1;
 99/5=1,9=1/99;
 Leave Link    1 at Fri Sep 22 16:27:49 2023, MaxMem=   536870912 cpu:               0.1 elap:               0.0
 (Enter /share/apps/gaussian/g16/l101.exe)
 ---------------------
 tmpdir/M3_ref_132.gjf
 ---------------------
 Symbolic Z-matrix:
 Charge =  0 Multiplicity = 1
 N                     4.67627  -0.32734  -0.57445 
 C                     4.82716   0.96048  -1.32507 
 C                     3.65745   1.89526  -1.01316 
 C                     3.14336   2.7375   -1.97405 
 C                     3.12218   1.95558   0.30472 
 C                     2.12485   3.6791   -1.67328 
 H                     3.50567   2.70149  -2.99779 
 C                     2.15655   2.87429   0.63849 
 H                     3.45514   1.2478    1.05984 
 C                     1.64048   3.77672  -0.33098 
 C                     1.5704    4.52966  -2.6678 
 H                     1.75941   2.90044   1.6526 
 C                     0.65469   4.75079  -0.02392 
 C                     0.59265   5.44354  -2.34526 
 H                     1.93209   4.44613  -3.69195 
 C                     0.13939   5.56203  -1.00952 
 H                     0.32576   4.85519   1.00663 
 H                     0.17023   6.08548  -3.11614 
 H                    -0.61747   6.30455  -0.76476 
 H                     3.91636  -0.85741  -0.68738 
 H                     5.44762  -0.49096   0.09331 
 H                     5.78544   1.37027  -0.8961 
 H                     4.94848   0.74553  -2.40633 
 
 ITRead=  0  0  0  0  0  0  0  0  0  0  0  0  0  0  0  0  0  0  0  0
 ITRead=  0  0  0
 MicOpt= -1 -1 -1 -1 -1 -1 -1 -1 -1 -1 -1 -1 -1 -1 -1 -1 -1 -1 -1 -1
 MicOpt= -1 -1 -1
 NAtoms=     23 NQM=       23 NQMF=       0 NMMI=      0 NMMIF=      0
                NMic=       0 NMicF=      0.
                    Isotopes and Nuclear Properties:
 (Nuclear quadrupole moments (NQMom) in fm**2, nuclear magnetic moments (NMagM)
  in nuclear magnetons)

  Atom         1           2           3           4           5           6           7           8           9          10
 IAtWgt=          14          12          12          12          12          12           1          12           1          12
 AtmWgt=  14.0030740  12.0000000  12.0000000  12.0000000  12.0000000  12.0000000   1.0078250  12.0000000   1.0078250  12.0000000
 NucSpn=           2           0           0           0           0           0           1           0           1           0
 AtZEff=  -0.0000000  -0.0000000  -0.0000000  -0.0000000  -0.0000000  -0.0000000  -0.0000000  -0.0000000  -0.0000000  -0.0000000
 NQMom=    2.0440000   0.0000000   0.0000000   0.0000000   0.0000000   0.0000000   0.0000000   0.0000000   0.0000000   0.0000000
 NMagM=    0.4037610   0.0000000   0.0000000   0.0000000   0.0000000   0.0000000   2.7928460   0.0000000   2.7928460   0.0000000
 AtZNuc=   7.0000000   6.0000000   6.0000000   6.0000000   6.0000000   6.0000000   1.0000000   6.0000000   1.0000000   6.0000000

  Atom        11          12          13          14          15          16          17          18          19          20
 IAtWgt=          12           1          12          12           1          12           1           1           1           1
 AtmWgt=  12.0000000   1.0078250  12.0000000  12.0000000   1.0078250  12.0000000   1.0078250   1.0078250   1.0078250   1.0078250
 NucSpn=           0           1           0           0           1           0           1           1           1           1
 AtZEff=  -0.0000000  -0.0000000  -0.0000000  -0.0000000  -0.0000000  -0.0000000  -0.0000000  -0.0000000  -0.0000000  -0.0000000
 NQMom=    0.0000000   0.0000000   0.0000000   0.0000000   0.0000000   0.0000000   0.0000000   0.0000000   0.0000000   0.0000000
 NMagM=    0.0000000   2.7928460   0.0000000   0.0000000   2.7928460   0.0000000   2.7928460   2.7928460   2.7928460   2.7928460
 AtZNuc=   6.0000000   1.0000000   6.0000000   6.0000000   1.0000000   6.0000000   1.0000000   1.0000000   1.0000000   1.0000000

  Atom        21          22          23
 IAtWgt=           1           1           1
 AtmWgt=   1.0078250   1.0078250   1.0078250
 NucSpn=           1           1           1
 AtZEff=  -0.0000000  -0.0000000  -0.0000000
 NQMom=    0.0000000   0.0000000   0.0000000
 NMagM=    2.7928460   2.7928460   2.7928460
 AtZNuc=   1.0000000   1.0000000   1.0000000
 Leave Link  101 at Fri Sep 22 16:27:50 2023, MaxMem=   536870912 cpu:               0.4 elap:               0.1
 (Enter /share/apps/gaussian/g16/l202.exe)
                          Input orientation:                          
 ---------------------------------------------------------------------
 Center     Atomic      Atomic             Coordinates (Angstroms)
 Number     Number       Type             X           Y           Z
 ---------------------------------------------------------------------
      1          7           0        4.676274   -0.327336   -0.574446
      2          6           0        4.827158    0.960475   -1.325072
      3          6           0        3.657451    1.895260   -1.013158
      4          6           0        3.143360    2.737497   -1.974051
      5          6           0        3.122181    1.955584    0.304718
      6          6           0        2.124849    3.679104   -1.673284
      7          1           0        3.505671    2.701494   -2.997790
      8          6           0        2.156554    2.874293    0.638489
      9          1           0        3.455140    1.247799    1.059839
     10          6           0        1.640478    3.776720   -0.330975
     11          6           0        1.570398    4.529661   -2.667798
     12          1           0        1.759414    2.900438    1.652595
     13          6           0        0.654688    4.750794   -0.023924
     14          6           0        0.592651    5.443536   -2.345265
     15          1           0        1.932092    4.446134   -3.691949
     16          6           0        0.139387    5.562027   -1.009519
     17          1           0        0.325761    4.855187    1.006630
     18          1           0        0.170231    6.085484   -3.116139
     19          1           0       -0.617473    6.304547   -0.764759
     20          1           0        3.916355   -0.857408   -0.687380
     21          1           0        5.447616   -0.490960    0.093306
     22          1           0        5.785444    1.370271   -0.896103
     23          1           0        4.948478    0.745527   -2.406335
 ---------------------------------------------------------------------
                    Distance matrix (angstroms):
                    1          2          3          4          5
     1  N    0.000000
     2  C    1.498220   0.000000
     3  C    2.484029   1.529486   0.000000
     4  C    3.701611   2.532619   1.377305   0.000000
     5  C    2.898251   2.559962   1.423710   2.409279   0.000000
     6  C    4.875323   3.848983   2.442690   1.419313   2.806721
     7  H    4.051755   2.752355   2.147514   1.086558   3.407346
     8  C    4.250956   3.827584   2.437034   2.796044   1.373996
     9  H    2.577422   2.766368   2.181158   3.394244   1.087212
    10  C    5.110637   4.367424   2.841381   2.457303   2.432300
    11  C    6.133434   5.014827   3.746157   2.483414   4.227263
    12  H    4.887362   4.694786   3.423327   3.885154   2.136973
    13  C    6.501049   5.785241   4.260193   3.748313   3.742957
    14  C    7.287986   6.250574   4.874194   3.737187   5.058334
    15  H    6.327351   5.112077   4.081635   2.708834   4.857211
    16  C    7.446961   6.576401   5.081532   4.234636   4.861143
    17  H    6.948763   6.392823   4.892941   4.616052   4.089052
    18  H    8.239471   7.152664   5.843048   4.620917   6.121466
    19  H    8.487747   7.649645   6.146421   5.322603   5.834576
    20  H    0.933384   2.130941   2.783944   3.895688   3.086729
    21  H    1.033264   2.122128   3.181666   4.472862   3.381999
    22  H    2.053191   1.127058   2.194919   3.164157   2.979519
    23  H    2.140315   1.109076   2.220265   2.722731   3.485599
                    6          7          8          9         10
     6  C    0.000000
     7  H    2.148652   0.000000
     8  C    2.448065   3.882332   0.000000
     9  H    3.892413   4.310468   2.123522   0.000000
    10  C    1.430363   3.427384   1.421467   3.409223   0.000000
    11  C    1.421239   2.682605   3.743709   5.312076   2.456130
    12  H    3.435307   4.971426   1.089410   2.440914   2.171766
    13  C    2.455663   4.601262   2.493120   4.613897   1.419466
    14  C    2.431545   4.053427   4.236696   6.114964   2.816661
    15  H    2.168063   2.449852   4.612349   5.926931   3.439375
    16  C    2.815678   4.844351   3.742834   5.821428   2.429201
    17  H    3.435379   5.548477   2.722365   4.775887   2.163506
    18  H    3.419507   4.752952   5.324890   7.185584   3.905017
    19  H    3.903678   5.913437   4.629360   6.744334   3.417078
    20  H    4.976087   4.262915   4.333638   2.774417   5.175112
    21  H    5.617032   4.849514   4.738485   2.815569   5.734754
    22  H    4.397121   3.374405   4.217333   3.044836   4.826086
    23  H    4.137163   2.501463   4.647304   3.807453   4.943492
                   11         12         13         14         15
    11  C    0.000000
    12  H    4.621243   0.000000
    13  C    2.806687   2.730376   0.000000
    14  C    1.376657   4.879710   2.423296   0.000000
    15  H    1.089350   5.566250   3.896022   2.145337   0.000000
    16  C    2.421459   4.098218   1.376601   1.415523   3.413860
    17  H    3.893136   2.508720   1.086799   3.413588   4.982396
    18  H    2.140575   5.950701   3.402630   1.088477   2.474506
    19  H    3.399788   4.804285   2.140415   2.168810   4.303768
    20  H    6.200491   4.924356   6.521547   7.314198   6.410327
    21  H    6.918320   5.247456   7.103653   8.045841   7.145765
    22  H    5.557631   5.004617   6.205908   6.756971   5.667981
    23  H    5.079316   5.593628   6.336771   6.406890   4.944277
                   16         17         18         19         20
    16  C    0.000000
    17  H    2.144578   0.000000
    18  H    2.170900   4.305234   0.000000
    19  H    1.088155   2.475511   2.489469   0.000000
    20  H    7.455093   6.956707   8.254457   8.476744   0.000000
    21  H    8.126018   7.459815   9.022247   9.148797   1.757417
    22  H    7.032897   6.750790   7.661097   8.084657   2.915409
    23  H    6.948174   7.064499   7.200736   8.035999   2.566999
                   21         22         23
    21  H    0.000000
    22  H    2.134769   0.000000
    23  H    2.833062   1.836197   0.000000
 Stoichiometry    C11H11N
 Framework group  C1[X(C11H11N)]
 Deg. of freedom    63
 Full point group                 C1      NOp   1
 Largest Abelian subgroup         C1      NOp   1
 Largest concise Abelian subgroup C1      NOp   1
                         Standard orientation:                         
 ---------------------------------------------------------------------
 Center     Atomic      Atomic             Coordinates (Angstroms)
 Number     Number       Type             X           Y           Z
 ---------------------------------------------------------------------
      1          7           0        4.042920    0.064996    0.454832
      2          6           0        3.073552   -0.782906   -0.310706
      3          6           0        1.650707   -0.249822   -0.135598
      4          6           0        0.571960   -1.104381   -0.080812
      5          6           0        1.413110    1.153262   -0.092555
      6          6           0       -0.760808   -0.620471   -0.017504
      7          1           0        0.714110   -2.181599   -0.082336
      8          6           0        0.135295    1.657282   -0.060648
      9          1           0        2.250432    1.845691   -0.054304
     10          6           0       -0.991509    0.790965   -0.041252
     11          6           0       -1.875487   -1.497916    0.069121
     12          1           0       -0.022686    2.734593   -0.025177
     13          6           0       -2.327383    1.270582   -0.024163
     14          6           0       -3.158641   -1.001387    0.115586
     15          1           0       -1.697605   -2.572235    0.098804
     16          6           0       -3.386116    0.394521    0.057270
     17          1           0       -2.499496    2.341479   -0.092642
     18          1           0       -4.004765   -1.682216    0.188573
     19          1           0       -4.406665    0.771817    0.071735
     20          1           0        3.948322    0.181757    1.376040
     21          1           0        4.736007    0.527021   -0.156559
     22          1           0        3.422346   -0.636317   -1.372362
     23          1           0        3.191483   -1.843344   -0.008028
 ---------------------------------------------------------------------
 Rotational constants (GHZ):           2.6840551           0.5579687           0.4693948
 Leave Link  202 at Fri Sep 22 16:27:50 2023, MaxMem=   536870912 cpu:               0.1 elap:               0.0
 (Enter /share/apps/gaussian/g16/l301.exe)
 General basis read from cards:  (5D, 7F)
 Centers:       7      9     12     15     17     18     19     20     21     22
 Centers:      23
 S 3 1.00
     Exponent=  1.2251800000D+01 Coefficients=  2.3337100000D-02
     Exponent=  1.8687100000D+00 Coefficients=  1.5915000000D-01
     Exponent=  4.1820800000D-01 Coefficients=  5.0000000000D-01
 S 1 1.00
     Exponent=  1.0610000000D-01 Coefficients=  1.0000000000D+00
 P 1 1.00
     Exponent=  1.0000000000D+00 Coefficients=  1.0000000000D+00
 ****
 Centers:       2      3      4      5      6      8     10     11     13     14
 Centers:      16
 S 5 1.00
     Exponent=  1.2432000000D+03 Coefficients=  6.0336600000D-03
     Exponent=  1.8714500000D+02 Coefficients=  4.4957600000D-02
     Exponent=  4.2512600000D+01 Coefficients=  1.9790100000D-01
     Exponent=  1.1739300000D+01 Coefficients=  5.0000000000D-01
     Exponent=  3.5054800000D+00 Coefficients=  4.8036400000D-01
 S 2 1.00
     Exponent=  5.3908900000D+00 Coefficients= -7.0398000000D-02
     Exponent=  4.9334100000D-01 Coefficients=  5.0000000000D-01
 S 1 1.00
     Exponent=  1.4974100000D-01 Coefficients=  1.0000000000D+00
 P 3 1.00
     Exponent=  9.1805600000D+00 Coefficients=  4.3170100000D-02
     Exponent=  1.9365800000D+00 Coefficients=  2.2499900000D-01
     Exponent=  5.2629600000D-01 Coefficients=  5.0000000000D-01
 P 1 1.00
     Exponent=  1.3631900000D-01 Coefficients=  1.0000000000D+00
 D 1 1.00
     Exponent=  8.0000000000D-01 Coefficients=  1.0000000000D+00
 ****
 Centers:       1
 S 5 1.00
     Exponent=  1.7263200000D+03 Coefficients=  5.9307700000D-03
     Exponent=  2.5982700000D+02 Coefficients=  4.4253900000D-02
     Exponent=  5.9033500000D+01 Coefficients=  1.9609600000D-01
     Exponent=  1.6350900000D+01 Coefficients=  5.0000000000D-01
     Exponent=  4.9108400000D+00 Coefficients=  4.8298700000D-01
 S 2 1.00
     Exponent=  7.7589400000D+00 Coefficients= -7.0335600000D-02
     Exponent=  7.0557300000D-01 Coefficients=  5.0000000000D-01
 S 1 1.00
     Exponent=  2.0928600000D-01 Coefficients=  1.0000000000D+00
 P 3 1.00
     Exponent=  1.3184400000D+01 Coefficients=  4.4074700000D-02
     Exponent=  2.8186000000D+00 Coefficients=  2.3047800000D-01
     Exponent=  7.6557100000D-01 Coefficients=  5.0000000000D-01
 P 1 1.00
     Exponent=  1.9594900000D-01 Coefficients=  1.0000000000D+00
 D 1 1.00
     Exponent=  9.0000000000D-01 Coefficients=  1.0000000000D+00
 ****
 Ernie: Thresh=  0.10000D-02 Tol=  0.10000D-05 Strict=F.
 There are   235 symmetry adapted cartesian basis functions of A   symmetry.
 There are   223 symmetry adapted basis functions of A   symmetry.
   223 basis functions,   389 primitive gaussians,   235 cartesian basis functions
    42 alpha electrons       42 beta electrons
       nuclear repulsion energy       627.3708458319 Hartrees.
 IExCor=  402 DFT=T Ex+Corr=B3LYP ExCW=0 ScaHFX=  0.200000
 ScaDFX=  0.800000  0.720000  1.000000  0.810000 ScalE2=  1.000000  1.000000
 IRadAn=      5 IRanWt=     -1 IRanGd=            0 ICorTp=0 IEmpDi=141
 NAtoms=   23 NActive=   23 NUniq=   23 SFac= 1.00D+00 NAtFMM=   60 NAOKFM=F Big=F
 Integral buffers will be    131072 words long.
 Raffenetti 2 integral format.
 Two-electron integral symmetry is turned on.
 R6Disp:  Grimme-D3(BJ) Dispersion energy=       -0.0458246407 Hartrees.
 Nuclear repulsion after empirical dispersion term =      627.3250211912 Hartrees.
 ------------------------------------------------------------------------------
 Polarizable Continuum Model (PCM)
 =================================
 Model                : C-PCM.
 Atomic radii         : UFF (Universal Force Field).
 Polarization charges : Total charges.
 Charge compensation  : None.
 Solution method      : On-the-fly selection.
 Cavity type          : Scaled VdW (van der Waals Surface) (Alpha=1.100).
 Cavity algorithm     : GePol (No added spheres)
                        Default sphere list used, NSphG=   23.
                        Lebedev-Laikov grids with approx.  5.0 points / Ang**2.
                        Smoothing algorithm: York/Karplus (Gamma=1.0000).
                        Polarization charges: spherical gaussians, with
                                              point-specific exponents (IZeta= 3).
                        Self-potential: point-specific (ISelfS= 7).
                        Self-field    : sphere-specific E.n sum rule (ISelfD= 2).
 Solvent              : Toluene, Eps=   2.374100 Eps(inf)=   2.238315
 ------------------------------------------------------------------------------
 GePol: Number of generator spheres                  =      23
 GePol: Total number of spheres                      =      23
 GePol: Number of exposed spheres                    =      23 (100.00%)
 GePol: Number of points                             =    1802
 GePol: Average weight of points                     =       0.13
 GePol: Minimum weight of points                     =   0.16D-10
 GePol: Maximum weight of points                     =    0.20577
 GePol: Number of points with low weight             =     121
 GePol: Fraction of low-weight points (<1% of avg)   =       6.71%
 GePol: Cavity surface area                          =    234.920 Ang**2
 GePol: Cavity volume                                =    242.397 Ang**3
 Leave Link  301 at Fri Sep 22 16:27:50 2023, MaxMem=   536870912 cpu:               0.4 elap:               0.1
 (Enter /share/apps/gaussian/g16/l302.exe)
 NPDir=0 NMtPBC=     1 NCelOv=     1 NCel=       1 NClECP=     1 NCelD=      1
         NCelK=      1 NCelE2=     1 NClLst=     1 CellRange=     0.0.
 One-electron integrals computed using PRISM.
 One-electron integral symmetry used in STVInt
 NBasis=   223 RedAO= T EigKep=  2.03D-04  NBF=   223
 NBsUse=   223 1.00D-06 EigRej= -1.00D+00 NBFU=   223
 Precomputing XC quadrature grid using
 IXCGrd= 4 IRadAn=           5 IRanWt=          -1 IRanGd=           0 AccXCQ= 0.00D+00.
 Generated NRdTot=       0 NPtTot=           0 NUsed=           0 NTot=          32
 NSgBfM=   234   234   234   234   234 MxSgAt=    23 MxSgA2=    23.
 Leave Link  302 at Fri Sep 22 16:27:50 2023, MaxMem=   536870912 cpu:               1.3 elap:               0.3
 (Enter /share/apps/gaussian/g16/l303.exe)
 DipDrv:  MaxL=1.
 Leave Link  303 at Fri Sep 22 16:27:50 2023, MaxMem=   536870912 cpu:               0.2 elap:               0.1
 (Enter /share/apps/gaussian/g16/l401.exe)
 ExpMin= 1.06D-01 ExpMax= 1.73D+03 ExpMxC= 2.60D+02 IAcc=3 IRadAn=         5 AccDes= 0.00D+00
 Harris functional with IExCor=  402 and IRadAn=       5 diagonalized for initial guess.
 HarFok:  IExCor=  402 AccDes= 0.00D+00 IRadAn=         5 IDoV= 1 UseB2=F ITyADJ=14
 ICtDFT=  3500011 ScaDFX=  1.000000  1.000000  1.000000  1.000000
 FoFCou: FMM=F IPFlag=           0 FMFlag=      100000 FMFlg1=           0
         NFxFlg=           0 DoJE=T BraDBF=F KetDBF=T FulRan=T
         wScrn=  0.000000 ICntrl=       500 IOpCl=  0 I1Cent=   200000004 NGrid=           0
         NMat0=    1 NMatS0=      1 NMatT0=    0 NMatD0=    1 NMtDS0=    0 NMtDT0=    0
 Petite list used in FoFCou.
 Harris En= -480.519980178792    
 JPrj=0 DoOrth=F DoCkMO=F.
 Leave Link  401 at Fri Sep 22 16:27:53 2023, MaxMem=   536870912 cpu:              11.3 elap:               2.8
 (Enter /share/apps/gaussian/g16/l502.exe)
 Keep R1 ints in memory in canonical form, NReq=318486350.
 FoFCou: FMM=F IPFlag=           0 FMFlag=           0 FMFlg1=           0
         NFxFlg=           0 DoJE=F BraDBF=F KetDBF=F FulRan=T
         wScrn=  0.000000 ICntrl=       600 IOpCl=  0 I1Cent=           0 NGrid=           0
         NMat0=    1 NMatS0=  24976 NMatT0=    0 NMatD0=    1 NMtDS0=    0 NMtDT0=    0
 Symmetry not used in FoFCou.
 Two-electron integral symmetry not used.
 Closed shell SCF:
 Using DIIS extrapolation, IDIIS=  1040.
 NGot=   536870912 LenX=   224843653 LenY=   224787987
 Requested convergence on RMS density matrix=1.00D-08 within 128 cycles.
 Requested convergence on MAX density matrix=1.00D-06.
 Requested convergence on             energy=1.00D-06.
 No special actions if energy rises.

 Cycle   1  Pass 1  IDiag  1:
 Inv3:  Mode=1 IEnd=     9741612.
 Iteration    1 A*A^-1 deviation from unit magnitude is 5.33D-15 for   1782.
 Iteration    1 A*A^-1 deviation from orthogonality  is 1.99D-15 for   1782    375.
 Iteration    1 A^-1*A deviation from unit magnitude is 5.33D-15 for   1782.
 Iteration    1 A^-1*A deviation from orthogonality  is 1.50D-15 for    414    104.
 E= -480.219359968095    
 DIIS: error= 3.60D-02 at cycle   1 NSaved=   1.
 NSaved= 1 IEnMin= 1 EnMin= -480.219359968095     IErMin= 1 ErrMin= 3.60D-02
 ErrMax= 3.60D-02  0.00D+00 EMaxC= 1.00D-01 BMatC= 2.42D-01 BMatP= 2.42D-01
 IDIUse=3 WtCom= 6.40D-01 WtEn= 3.60D-01
 Coeff-Com:  0.100D+01
 Coeff-En:   0.100D+01
 Coeff:      0.100D+01
 Gap=     0.153 Goal=   None    Shift=    0.000
 GapD=    0.153 DampG=1.000 DampE=0.500 DampFc=0.5000 IDamp=-1.
 Damping current iteration by 5.00D-01
 RMSDP=6.57D-03 MaxDP=1.59D-01              OVMax= 1.76D-01

 Cycle   2  Pass 1  IDiag  1:
 E= -480.350549376468     Delta-E=       -0.131189408372 Rises=F Damp=T
 DIIS: error= 4.20D-03 at cycle   2 NSaved=   2.
 NSaved= 2 IEnMin= 2 EnMin= -480.350549376468     IErMin= 2 ErrMin= 4.20D-03
 ErrMax= 4.20D-03  0.00D+00 EMaxC= 1.00D-01 BMatC= 9.49D-03 BMatP= 2.42D-01
 IDIUse=3 WtCom= 9.58D-01 WtEn= 4.20D-02
 Coeff-Com:  0.328D-01 0.967D+00
 Coeff-En:   0.224D-01 0.978D+00
 Coeff:      0.324D-01 0.968D+00
 Gap=     0.191 Goal=   None    Shift=    0.000
 RMSDP=1.84D-03 MaxDP=3.92D-02 DE=-1.31D-01 OVMax= 1.03D-01

 Cycle   3  Pass 1  IDiag  1:
 E= -480.493475436647     Delta-E=       -0.142926060179 Rises=F Damp=F
 DIIS: error= 5.44D-03 at cycle   3 NSaved=   3.
 NSaved= 3 IEnMin= 3 EnMin= -480.493475436647     IErMin= 2 ErrMin= 4.20D-03
 ErrMax= 5.44D-03  0.00D+00 EMaxC= 1.00D-01 BMatC= 4.93D-03 BMatP= 9.49D-03
 IDIUse=3 WtCom= 9.46D-01 WtEn= 5.44D-02
 Coeff-Com: -0.228D-01 0.402D+00 0.621D+00
 Coeff-En:   0.000D+00 0.000D+00 0.100D+01
 Coeff:     -0.216D-01 0.380D+00 0.641D+00
 Gap=     0.175 Goal=   None    Shift=    0.000
 RMSDP=5.01D-04 MaxDP=2.09D-02 DE=-1.43D-01 OVMax= 2.36D-02

 Cycle   4  Pass 1  IDiag  1:
 E= -480.496891001329     Delta-E=       -0.003415564682 Rises=F Damp=F
 DIIS: error= 2.20D-03 at cycle   4 NSaved=   4.
 NSaved= 4 IEnMin= 4 EnMin= -480.496891001329     IErMin= 4 ErrMin= 2.20D-03
 ErrMax= 2.20D-03  0.00D+00 EMaxC= 1.00D-01 BMatC= 9.74D-04 BMatP= 4.93D-03
 IDIUse=3 WtCom= 9.78D-01 WtEn= 2.20D-02
 Coeff-Com: -0.138D-01 0.905D-01 0.337D+00 0.586D+00
 Coeff-En:   0.000D+00 0.000D+00 0.153D+00 0.847D+00
 Coeff:     -0.135D-01 0.885D-01 0.333D+00 0.592D+00
 Gap=     0.172 Goal=   None    Shift=    0.000
 RMSDP=2.01D-04 MaxDP=9.08D-03 DE=-3.42D-03 OVMax= 7.28D-03

 Cycle   5  Pass 1  IDiag  1:
 E= -480.497793031740     Delta-E=       -0.000902030411 Rises=F Damp=F
 DIIS: error= 2.47D-04 at cycle   5 NSaved=   5.
 NSaved= 5 IEnMin= 5 EnMin= -480.497793031740     IErMin= 5 ErrMin= 2.47D-04
 ErrMax= 2.47D-04  0.00D+00 EMaxC= 1.00D-01 BMatC= 2.20D-05 BMatP= 9.74D-04
 IDIUse=3 WtCom= 9.98D-01 WtEn= 2.47D-03
 Coeff-Com: -0.391D-02 0.101D-01 0.770D-01 0.205D+00 0.712D+00
 Coeff-En:   0.000D+00 0.000D+00 0.000D+00 0.000D+00 0.100D+01
 Coeff:     -0.390D-02 0.100D-01 0.768D-01 0.205D+00 0.712D+00
 Gap=     0.171 Goal=   None    Shift=    0.000
 RMSDP=4.20D-05 MaxDP=1.07D-03 DE=-9.02D-04 OVMax= 2.64D-03

 Cycle   6  Pass 1  IDiag  1:
 E= -480.497806700066     Delta-E=       -0.000013668326 Rises=F Damp=F
 DIIS: error= 1.33D-04 at cycle   6 NSaved=   6.
 NSaved= 6 IEnMin= 6 EnMin= -480.497806700066     IErMin= 6 ErrMin= 1.33D-04
 ErrMax= 1.33D-04  0.00D+00 EMaxC= 1.00D-01 BMatC= 8.41D-06 BMatP= 2.20D-05
 IDIUse=3 WtCom= 9.99D-01 WtEn= 1.33D-03
 Coeff-Com: -0.176D-02 0.119D-02 0.310D-01 0.100D+00 0.455D+00 0.414D+00
 Coeff-En:   0.000D+00 0.000D+00 0.000D+00 0.000D+00 0.293D+00 0.707D+00
 Coeff:     -0.176D-02 0.119D-02 0.310D-01 0.999D-01 0.455D+00 0.415D+00
 Gap=     0.170 Goal=   None    Shift=    0.000
 RMSDP=1.68D-05 MaxDP=5.00D-04 DE=-1.37D-05 OVMax= 1.26D-03

 Cycle   7  Pass 1  IDiag  1:
 E= -480.497816545233     Delta-E=       -0.000009845167 Rises=F Damp=F
 DIIS: error= 1.18D-05 at cycle   7 NSaved=   7.
 NSaved= 7 IEnMin= 7 EnMin= -480.497816545233     IErMin= 7 ErrMin= 1.18D-05
 ErrMax= 1.18D-05  0.00D+00 EMaxC= 1.00D-01 BMatC= 7.67D-08 BMatP= 8.41D-06
 IDIUse=1 WtCom= 1.00D+00 WtEn= 0.00D+00
 Coeff-Com: -0.288D-03-0.310D-03 0.493D-02 0.191D-01 0.975D-01 0.135D+00
 Coeff-Com:  0.744D+00
 Coeff:     -0.288D-03-0.310D-03 0.493D-02 0.191D-01 0.975D-01 0.135D+00
 Coeff:      0.744D+00
 Gap=     0.170 Goal=   None    Shift=    0.000
 RMSDP=2.09D-06 MaxDP=6.98D-05 DE=-9.85D-06 OVMax= 1.44D-04

 Cycle   8  Pass 1  IDiag  1:
 E= -480.497816602156     Delta-E=       -0.000000056923 Rises=F Damp=F
 DIIS: error= 6.95D-06 at cycle   8 NSaved=   8.
 NSaved= 8 IEnMin= 8 EnMin= -480.497816602156     IErMin= 8 ErrMin= 6.95D-06
 ErrMax= 6.95D-06  0.00D+00 EMaxC= 1.00D-01 BMatC= 2.62D-08 BMatP= 7.67D-08
 IDIUse=1 WtCom= 1.00D+00 WtEn= 0.00D+00
 Coeff-Com: -0.467D-04-0.275D-03 0.743D-03 0.444D-02 0.261D-01 0.529D-01
 Coeff-Com:  0.444D+00 0.472D+00
 Coeff:     -0.467D-04-0.275D-03 0.743D-03 0.444D-02 0.261D-01 0.529D-01
 Coeff:      0.444D+00 0.472D+00
 Gap=     0.170 Goal=   None    Shift=    0.000
 RMSDP=9.37D-07 MaxDP=4.04D-05 DE=-5.69D-08 OVMax= 6.50D-05

 Cycle   9  Pass 1  IDiag  1:
 E= -480.497816629136     Delta-E=       -0.000000026980 Rises=F Damp=F
 DIIS: error= 1.42D-06 at cycle   9 NSaved=   9.
 NSaved= 9 IEnMin= 9 EnMin= -480.497816629136     IErMin= 9 ErrMin= 1.42D-06
 ErrMax= 1.42D-06  0.00D+00 EMaxC= 1.00D-01 BMatC= 9.68D-10 BMatP= 2.62D-08
 IDIUse=1 WtCom= 1.00D+00 WtEn= 0.00D+00
 Coeff-Com:  0.322D-05-0.950D-04-0.938D-04 0.380D-03 0.326D-02 0.119D-01
 Coeff-Com:  0.129D+00 0.210D+00 0.646D+00
 Coeff:      0.322D-05-0.950D-04-0.938D-04 0.380D-03 0.326D-02 0.119D-01
 Coeff:      0.129D+00 0.210D+00 0.646D+00
 Gap=     0.170 Goal=   None    Shift=    0.000
 RMSDP=2.50D-07 MaxDP=1.04D-05 DE=-2.70D-08 OVMax= 2.01D-05

 Cycle  10  Pass 1  IDiag  1:
 E= -480.497816629951     Delta-E=       -0.000000000815 Rises=F Damp=F
 DIIS: error= 7.35D-07 at cycle  10 NSaved=  10.
 NSaved=10 IEnMin=10 EnMin= -480.497816629951     IErMin=10 ErrMin= 7.35D-07
 ErrMax= 7.35D-07  0.00D+00 EMaxC= 1.00D-01 BMatC= 2.79D-10 BMatP= 9.68D-10
 IDIUse=1 WtCom= 1.00D+00 WtEn= 0.00D+00
 Coeff-Com:  0.754D-05-0.189D-04-0.155D-03-0.344D-03-0.140D-02 0.399D-03
 Coeff-Com:  0.208D-01 0.675D-01 0.396D+00 0.517D+00
 Coeff:      0.754D-05-0.189D-04-0.155D-03-0.344D-03-0.140D-02 0.399D-03
 Coeff:      0.208D-01 0.675D-01 0.396D+00 0.517D+00
 Gap=     0.170 Goal=   None    Shift=    0.000
 RMSDP=9.60D-08 MaxDP=4.14D-06 DE=-8.15D-10 OVMax= 6.92D-06

 Cycle  11  Pass 1  IDiag  1:
 E= -480.497816630253     Delta-E=       -0.000000000301 Rises=F Damp=F
 DIIS: error= 1.15D-07 at cycle  11 NSaved=  11.
 NSaved=11 IEnMin=11 EnMin= -480.497816630253     IErMin=11 ErrMin= 1.15D-07
 ErrMax= 1.15D-07  0.00D+00 EMaxC= 1.00D-01 BMatC= 7.64D-12 BMatP= 2.79D-10
 IDIUse=1 WtCom= 1.00D+00 WtEn= 0.00D+00
 Coeff-Com:  0.262D-05-0.661D-06-0.600D-04-0.169D-03-0.797D-03-0.675D-03
 Coeff-Com: -0.340D-03 0.138D-01 0.117D+00 0.217D+00 0.654D+00
 Coeff:      0.262D-05-0.661D-06-0.600D-04-0.169D-03-0.797D-03-0.675D-03
 Coeff:     -0.340D-03 0.138D-01 0.117D+00 0.217D+00 0.654D+00
 Gap=     0.170 Goal=   None    Shift=    0.000
 RMSDP=1.99D-08 MaxDP=5.58D-07 DE=-3.01D-10 OVMax= 1.26D-06

 Cycle  12  Pass 1  IDiag  1:
 E= -480.497816630256     Delta-E=       -0.000000000003 Rises=F Damp=F
 DIIS: error= 4.54D-08 at cycle  12 NSaved=  12.
 NSaved=12 IEnMin=12 EnMin= -480.497816630256     IErMin=12 ErrMin= 4.54D-08
 ErrMax= 4.54D-08  0.00D+00 EMaxC= 1.00D-01 BMatC= 1.48D-12 BMatP= 7.64D-12
 IDIUse=1 WtCom= 1.00D+00 WtEn= 0.00D+00
 Coeff-Com:  0.664D-06 0.165D-05-0.192D-04-0.635D-04-0.321D-03-0.449D-03
 Coeff-Com: -0.253D-02 0.100D-02 0.269D-01 0.724D-01 0.363D+00 0.540D+00
 Coeff:      0.664D-06 0.165D-05-0.192D-04-0.635D-04-0.321D-03-0.449D-03
 Coeff:     -0.253D-02 0.100D-02 0.269D-01 0.724D-01 0.363D+00 0.540D+00
 Gap=     0.170 Goal=   None    Shift=    0.000
 RMSDP=6.81D-09 MaxDP=2.24D-07 DE=-3.41D-12 OVMax= 3.97D-07

 Error on total polarization charges =  0.00866
 SCF Done:  E(RB3LYP) =  -480.497816630     A.U. after   12 cycles
            NFock= 12  Conv=0.68D-08     -V/T= 2.0054
 KE= 4.779369123292D+02 PE=-2.369771252155D+03 EE= 7.840115020040D+02
 Leave Link  502 at Fri Sep 22 16:28:55 2023, MaxMem=   536870912 cpu:             233.2 elap:              62.3
 (Enter /share/apps/gaussian/g16/l601.exe)
 Copying SCF densities to generalized density rwf, IOpCl= 0 IROHF=0.

 **********************************************************************

            Population analysis using the SCF density.

 **********************************************************************

 Orbital symmetries:
       Occupied  (A) (A) (A) (A) (A) (A) (A) (A) (A) (A) (A) (A)
                 (A) (A) (A) (A) (A) (A) (A) (A) (A) (A) (A) (A)
                 (A) (A) (A) (A) (A) (A) (A) (A) (A) (A) (A) (A)
                 (A) (A) (A) (A) (A) (A)
       Virtual   (A) (A) (A) (A) (A) (A) (A) (A) (A) (A) (A) (A)
                 (A) (A) (A) (A) (A) (A) (A) (A) (A) (A) (A) (A)
                 (A) (A) (A) (A) (A) (A) (A) (A) (A) (A) (A) (A)
                 (A) (A) (A) (A) (A) (A) (A) (A) (A) (A) (A) (A)
                 (A) (A) (A) (A) (A) (A) (A) (A) (A) (A) (A) (A)
                 (A) (A) (A) (A) (A) (A) (A) (A) (A) (A) (A) (A)
                 (A) (A) (A) (A) (A) (A) (A) (A) (A) (A) (A) (A)
                 (A) (A) (A) (A) (A) (A) (A) (A) (A) (A) (A) (A)
                 (A) (A) (A) (A) (A) (A) (A) (A) (A) (A) (A) (A)
                 (A) (A) (A) (A) (A) (A) (A) (A) (A) (A) (A) (A)
                 (A) (A) (A) (A) (A) (A) (A) (A) (A) (A) (A) (A)
                 (A) (A) (A) (A) (A) (A) (A) (A) (A) (A) (A) (A)
                 (A) (A) (A) (A) (A) (A) (A) (A) (A) (A) (A) (A)
                 (A) (A) (A) (A) (A) (A) (A) (A) (A) (A) (A) (A)
                 (A) (A) (A) (A) (A) (A) (A) (A) (A) (A) (A) (A)
                 (A)
 The electronic state is 1-A.
 Alpha  occ. eigenvalues --  -14.28331 -10.21480 -10.19098 -10.19022 -10.18825
 Alpha  occ. eigenvalues --  -10.18449 -10.18430 -10.18386 -10.18342 -10.18315
 Alpha  occ. eigenvalues --  -10.18040 -10.17960  -0.88736  -0.87121  -0.82733
 Alpha  occ. eigenvalues --   -0.78214  -0.75303  -0.73027  -0.67027  -0.62794
 Alpha  occ. eigenvalues --   -0.60353  -0.60175  -0.52633  -0.51834  -0.50625
 Alpha  occ. eigenvalues --   -0.49102  -0.45406  -0.44796  -0.43294  -0.42398
 Alpha  occ. eigenvalues --   -0.42147  -0.40424  -0.39747  -0.38619  -0.37373
 Alpha  occ. eigenvalues --   -0.34375  -0.33775  -0.33091  -0.29415  -0.25277
 Alpha  occ. eigenvalues --   -0.22687  -0.22002
 Alpha virt. eigenvalues --   -0.04957  -0.02433   0.01446   0.04267   0.05299
 Alpha virt. eigenvalues --    0.06382   0.07339   0.08537   0.08885   0.10109
 Alpha virt. eigenvalues --    0.11053   0.11484   0.14323   0.14894   0.15724
 Alpha virt. eigenvalues --    0.17836   0.19492   0.21270   0.23722   0.25407
 Alpha virt. eigenvalues --    0.26883   0.27762   0.28843   0.30814   0.31793
 Alpha virt. eigenvalues --    0.38740   0.39692   0.39989   0.40460   0.41291
 Alpha virt. eigenvalues --    0.43787   0.44455   0.44837   0.46091   0.46839
 Alpha virt. eigenvalues --    0.47246   0.48676   0.50280   0.50601   0.51136
 Alpha virt. eigenvalues --    0.51546   0.51837   0.52051   0.52789   0.52979
 Alpha virt. eigenvalues --    0.54283   0.55134   0.56537   0.58720   0.59264
 Alpha virt. eigenvalues --    0.60633   0.61530   0.62039   0.63462   0.64239
 Alpha virt. eigenvalues --    0.64865   0.65621   0.66836   0.68907   0.69419
 Alpha virt. eigenvalues --    0.71024   0.71715   0.75772   0.76801   0.80942
 Alpha virt. eigenvalues --    0.82745   0.86109   0.89366   0.90547   0.90889
 Alpha virt. eigenvalues --    0.91847   0.94657   0.97279   0.99000   1.01799
 Alpha virt. eigenvalues --    1.05309   1.06015   1.09502   1.10998   1.19183
 Alpha virt. eigenvalues --    1.21989   1.23097   1.23948   1.24777   1.28156
 Alpha virt. eigenvalues --    1.30016   1.30862   1.33339   1.35422   1.36480
 Alpha virt. eigenvalues --    1.37408   1.37978   1.38770   1.41302   1.43243
 Alpha virt. eigenvalues --    1.51887   1.55366   1.57960   1.63397   1.65949
 Alpha virt. eigenvalues --    1.66539   1.68651   1.73169   1.74074   1.75088
 Alpha virt. eigenvalues --    1.77814   1.79591   1.80510   1.83742   1.83885
 Alpha virt. eigenvalues --    1.84294   1.87251   1.87395   1.88949   1.89519
 Alpha virt. eigenvalues --    1.91630   1.91827   1.92466   1.94290   1.96673
 Alpha virt. eigenvalues --    1.98770   2.03016   2.04946   2.08948   2.11234
 Alpha virt. eigenvalues --    2.12869   2.16531   2.16987   2.18031   2.20000
 Alpha virt. eigenvalues --    2.21874   2.23691   2.24464   2.25043   2.26071
 Alpha virt. eigenvalues --    2.26300   2.28108   2.28310   2.29920   2.31636
 Alpha virt. eigenvalues --    2.35862   2.36265   2.37167   2.38123   2.42538
 Alpha virt. eigenvalues --    2.45398   2.46557   2.48833   2.49109   2.52257
 Alpha virt. eigenvalues --    2.53785   2.56442   2.57110   2.61568   2.63518
 Alpha virt. eigenvalues --    2.65468   2.66649   2.68789   2.71092   2.72351
 Alpha virt. eigenvalues --    2.74167   2.77332   2.84245   2.88433   2.91974
 Alpha virt. eigenvalues --    3.02753   3.04446   3.05971   3.06008   3.07465
 Alpha virt. eigenvalues --    3.11163   3.12377   3.19265   3.24582   3.30735
 Alpha virt. eigenvalues --    3.33322   3.35346   3.39486   3.58990   3.64940
 Alpha virt. eigenvalues --    3.78415
          Condensed to atoms (all electrons):
               1          2          3          4          5          6
     1  N    6.497777   0.348049  -0.115862   0.009262  -0.015316  -0.000682
     2  C    0.348049   4.565359   0.363043  -0.076781  -0.083885   0.008901
     3  C   -0.115862   0.363043   5.632360   0.363432   0.332492  -0.001831
     4  C    0.009262  -0.076781   0.363432   5.074873  -0.046650   0.422349
     5  C   -0.015316  -0.083885   0.332492  -0.046650   4.966885  -0.064090
     6  C   -0.000682   0.008901  -0.001831   0.422349  -0.064090   5.312958
     7  H    0.000378  -0.010320  -0.070285   0.435925   0.013073  -0.045169
     8  C   -0.000360   0.007078  -0.019745  -0.073821   0.498937  -0.078371
     9  H    0.038673  -0.019019  -0.073963   0.016301   0.410378  -0.002258
    10  C    0.000114  -0.000463  -0.078294  -0.077003  -0.020031   0.315055
    11  C    0.000001  -0.000294   0.014488  -0.103922  -0.002511   0.446396
    12  H   -0.000127  -0.000253   0.013811  -0.001384  -0.048312   0.014030
    13  C    0.000001   0.000060  -0.001151   0.011840   0.010766  -0.080339
    14  C   -0.000000   0.000006  -0.001600   0.013238   0.000336  -0.024422
    15  H   -0.000000  -0.000035   0.001874  -0.020536  -0.000098  -0.046477
    16  C   -0.000000  -0.000001   0.000225  -0.001771  -0.001013  -0.069706
    17  H    0.000000  -0.000001  -0.000115  -0.000228   0.000777   0.015094
    18  H    0.000000  -0.000000   0.000007  -0.000456   0.000001   0.013286
    19  H   -0.000000   0.000000   0.000000   0.000080   0.000007  -0.000824
    20  H    0.401532  -0.043053   0.009062   0.002174  -0.003237  -0.000193
    21  H    0.370178  -0.013413  -0.000163  -0.000986   0.003648   0.000070
    22  H   -0.028965   0.379653  -0.028426   0.000781  -0.010434  -0.000690
    23  H   -0.038994   0.408721  -0.044900  -0.010487   0.011858   0.000653
               7          8          9         10         11         12
     1  N    0.000378  -0.000360   0.038673   0.000114   0.000001  -0.000127
     2  C   -0.010320   0.007078  -0.019019  -0.000463  -0.000294  -0.000253
     3  C   -0.070285  -0.019745  -0.073963  -0.078294   0.014488   0.013811
     4  C    0.435925  -0.073821   0.016301  -0.077003  -0.103922  -0.001384
     5  C    0.013073   0.498937   0.410378  -0.020031  -0.002511  -0.048312
     6  C   -0.045169  -0.078371  -0.002258   0.315055   0.446396   0.014030
     7  H    0.648671  -0.002230   0.000138   0.015979  -0.021435   0.000059
     8  C   -0.002230   4.973281  -0.044112   0.411406   0.012721   0.425418
     9  H    0.000138  -0.044112   0.648019   0.015620   0.000043  -0.017090
    10  C    0.015979   0.411406   0.015620   5.351662  -0.081375  -0.052383
    11  C   -0.021435   0.012721   0.000043  -0.081375   4.980256  -0.000203
    12  H    0.000059   0.425418  -0.017090  -0.052383  -0.000203   0.636751
    13  C   -0.000174  -0.098490  -0.000331   0.445373  -0.066876  -0.018535
    14  C    0.001237  -0.001765   0.000003  -0.067772   0.473707  -0.000078
    15  H    0.000062  -0.000162  -0.000005   0.014375   0.428507   0.000014
    16  C   -0.000109   0.012768   0.000005  -0.027222  -0.037796   0.000840
    17  H    0.000014  -0.020854   0.000029  -0.042939  -0.001739   0.000584
    18  H    0.000019   0.000069   0.000000  -0.000868  -0.042377  -0.000002
    19  H   -0.000002  -0.000436  -0.000000   0.013095   0.011804   0.000005
    20  H    0.000113  -0.000131  -0.000253  -0.000024   0.000001   0.000021
    21  H   -0.000054   0.000211   0.000482  -0.000007  -0.000000  -0.000001
    22  H    0.000466   0.000023  -0.000576   0.000089   0.000033   0.000022
    23  H    0.004436  -0.000297   0.001498  -0.000011  -0.000021   0.000005
              13         14         15         16         17         18
     1  N    0.000001  -0.000000  -0.000000  -0.000000   0.000000   0.000000
     2  C    0.000060   0.000006  -0.000035  -0.000001  -0.000001  -0.000000
     3  C   -0.001151  -0.001600   0.001874   0.000225  -0.000115   0.000007
     4  C    0.011840   0.013238  -0.020536  -0.001771  -0.000228  -0.000456
     5  C    0.010766   0.000336  -0.000098  -0.001013   0.000777   0.000001
     6  C   -0.080339  -0.024422  -0.046477  -0.069706   0.015094   0.013286
     7  H   -0.000174   0.001237   0.000062  -0.000109   0.000014   0.000019
     8  C   -0.098490  -0.001765  -0.000162   0.012768  -0.020854   0.000069
     9  H   -0.000331   0.000003  -0.000005   0.000005   0.000029   0.000000
    10  C    0.445373  -0.067772   0.014375  -0.027222  -0.042939  -0.000868
    11  C   -0.066876   0.473707   0.428507  -0.037796  -0.001739  -0.042377
    12  H   -0.018535  -0.000078   0.000014   0.000840   0.000584  -0.000002
    13  C    4.957868  -0.036102  -0.001922   0.481835   0.425184   0.011654
    14  C   -0.036102   4.952180  -0.054594   0.411512   0.011703   0.418098
    15  H   -0.001922  -0.054594   0.635924   0.011911   0.000063  -0.014793
    16  C    0.481835   0.411512   0.011911   4.951870  -0.053685  -0.053930
    17  H    0.425184   0.011703   0.000063  -0.053685   0.635439  -0.000143
    18  H    0.011654   0.418098  -0.014793  -0.053930  -0.000143   0.620823
    19  H   -0.042876  -0.053573  -0.000150   0.418299  -0.014689  -0.014834
    20  H    0.000000   0.000000  -0.000000   0.000000  -0.000000  -0.000000
    21  H   -0.000000   0.000000   0.000000   0.000000   0.000000  -0.000000
    22  H   -0.000001  -0.000000  -0.000000  -0.000000  -0.000000   0.000000
    23  H    0.000000  -0.000001   0.000007  -0.000000   0.000000   0.000000
              19         20         21         22         23
     1  N   -0.000000   0.401532   0.370178  -0.028965  -0.038994
     2  C    0.000000  -0.043053  -0.013413   0.379653   0.408721
     3  C    0.000000   0.009062  -0.000163  -0.028426  -0.044900
     4  C    0.000080   0.002174  -0.000986   0.000781  -0.010487
     5  C    0.000007  -0.003237   0.003648  -0.010434   0.011858
     6  C   -0.000824  -0.000193   0.000070  -0.000690   0.000653
     7  H   -0.000002   0.000113  -0.000054   0.000466   0.004436
     8  C   -0.000436  -0.000131   0.000211   0.000023  -0.000297
     9  H   -0.000000  -0.000253   0.000482  -0.000576   0.001498
    10  C    0.013095  -0.000024  -0.000007   0.000089  -0.000011
    11  C    0.011804   0.000001  -0.000000   0.000033  -0.000021
    12  H    0.000005   0.000021  -0.000001   0.000022   0.000005
    13  C   -0.042876   0.000000  -0.000000  -0.000001   0.000000
    14  C   -0.053573   0.000000   0.000000  -0.000000  -0.000001
    15  H   -0.000150  -0.000000   0.000000  -0.000000   0.000007
    16  C    0.418299   0.000000   0.000000  -0.000000  -0.000000
    17  H   -0.014689  -0.000000   0.000000  -0.000000   0.000000
    18  H   -0.014834  -0.000000  -0.000000   0.000000   0.000000
    19  H    0.620673  -0.000000   0.000000  -0.000000   0.000000
    20  H   -0.000000   0.531370  -0.033346   0.010364  -0.007118
    21  H    0.000000  -0.033346   0.500564  -0.018453   0.006166
    22  H   -0.000000   0.010364  -0.018453   0.614561  -0.031611
    23  H    0.000000  -0.007118   0.006166  -0.031611   0.606067
 Mulliken charges:
               1
     1  N   -0.465659
     2  C    0.166649
     3  C   -0.294459
     4  C    0.063773
     5  C    0.046422
     6  C   -0.133740
     7  H    0.029209
     8  C   -0.001137
     9  H    0.026418
    10  C   -0.134376
    11  C   -0.009407
    12  H    0.046806
    13  C    0.002214
    14  C   -0.042111
    15  H    0.046037
    16  C   -0.044031
    17  H    0.045504
    18  H    0.063446
    19  H    0.063422
    20  H    0.132719
    21  H    0.185106
    22  H    0.113167
    23  H    0.094030
 Sum of Mulliken charges =  -0.00000
 Mulliken charges with hydrogens summed into heavy atoms:
               1
     1  N   -0.147834
     2  C    0.373845
     3  C   -0.294459
     4  C    0.092982
     5  C    0.072840
     6  C   -0.133740
     8  C    0.045669
    10  C   -0.134376
    11  C    0.036630
    13  C    0.047718
    14  C    0.021335
    16  C    0.019390
 Electronic spatial extent (au):  <R**2>=           2352.9913
 Charge=             -0.0000 electrons
 Dipole moment (field-independent basis, Debye):
    X=              0.8124    Y=              0.1314    Z=             -0.1812  Tot=              0.8427
 Quadrupole moment (field-independent basis, Debye-Ang):
   XX=            -62.0226   YY=            -64.7264   ZZ=            -75.5820
   XY=              1.7541   XZ=             -1.8381   YZ=             -0.1131
 Traceless Quadrupole moment (field-independent basis, Debye-Ang):
   XX=              5.4210   YY=              2.7173   ZZ=             -8.1383
   XY=              1.7541   XZ=             -1.8381   YZ=             -0.1131
 Octapole moment (field-independent basis, Debye-Ang**2):
  XXX=              9.5285  YYY=              0.6664  ZZZ=              3.9019  XYY=             -1.6312
  XXY=             13.0156  XXZ=             -7.2346  XZZ=             19.3521  YZZ=             -0.0906
  YYZ=              0.6962  XYZ=              1.7358
 Hexadecapole moment (field-independent basis, Debye-Ang**3):
 XXXX=          -2311.9219 YYYY=           -551.0830 ZZZZ=           -112.1017 XXXY=             83.4266
 XXXZ=            -51.3332 YYYX=              0.1675 YYYZ=             -2.4704 ZZZX=             15.5575
 ZZZY=              1.8431 XXYY=           -493.5514 XXZZ=           -439.7787 YYZZ=           -132.5223
 XXYZ=             -0.0813 YYXZ=              0.5970 ZZXY=              1.0400
 N-N= 6.273250211912D+02 E-N=-2.369771251375D+03  KE= 4.779369123292D+02
 There are a total of      521602 grid points.
 ElSum from          density=       83.9999942019
 ElSum from atomic densities=       84.0000046427
 Hirshfeld populations at iteration   1 (CA, CB, DipXYZ):
               1          2          3          4          5
     1  N    3.606330   3.606330  -0.058297   0.007604  -0.011823
     2  C    2.996140   2.996140  -0.001374   0.022028   0.027812
     3  C    3.002996   3.002996   0.070971  -0.000741  -0.006564
     4  C    3.025275   3.025275  -0.017220  -0.045408  -0.002322
     5  C    3.023970   3.023970   0.043156   0.001153  -0.003974
     6  C    3.004309   3.004309  -0.001157   0.002332   0.000213
     7  H    0.480904   0.480904   0.016235  -0.145820   0.000510
     8  C    3.021740   3.021740  -0.035290   0.043178   0.001624
     9  H    0.484626   0.484626   0.086898   0.109302  -0.000921
    10  C    3.004975   3.004975   0.000125  -0.000422   0.000019
    11  C    3.021333   3.021333   0.031762  -0.042090  -0.000740
    12  H    0.479301   0.479301  -0.017671   0.149861   0.005352
    13  C    3.021156   3.021156   0.015703   0.050719  -0.003190
    14  C    3.021934   3.021934  -0.056698  -0.011979   0.004094
    15  H    0.479199   0.479199   0.020737  -0.149531   0.004284
    16  C    3.022276   3.022276  -0.056344  -0.006358   0.001931
    17  H    0.479081   0.479081  -0.027493   0.148511  -0.009992
    18  H    0.479147   0.479147  -0.119971  -0.095264   0.010306
    19  H    0.479368   0.479368  -0.144279   0.052134   0.002015
    20  H    0.453535   0.453535  -0.021014   0.022866   0.191651
    21  H    0.446575   0.446575   0.127034   0.087878  -0.125197
    22  H    0.480262   0.480262   0.054879   0.024206  -0.128420
    23  H    0.485564   0.485564   0.016656  -0.131327   0.036644
       Tot  41.999997  41.999997  -0.072652   0.092833  -0.006690

 Dip from Atomic Chgs              0.392204  -0.041132  -0.064620
         Total Dipole              0.319552   0.051701  -0.071310

 Hirshfeld charges, spin densities, dipoles, and CM5 charges using IRadAn=      5:
              Q-H        S-H        Dx         Dy         Dz        Q-CM5   
     1  N   -0.212660   0.000000  -0.058297   0.007604  -0.011823  -0.693711
     2  C    0.007720   0.000000  -0.001374   0.022028   0.027812  -0.039762
     3  C   -0.005993   0.000000   0.070971  -0.000741  -0.006564  -0.015479
     4  C   -0.050550   0.000000  -0.017220  -0.045408  -0.002322  -0.100794
     5  C   -0.047939   0.000000   0.043156   0.001153  -0.003974  -0.099314
     6  C   -0.008617   0.000000  -0.001157   0.002332   0.000213  -0.015978
     7  H    0.038191   0.000000   0.016235  -0.145820   0.000510   0.095552
     8  C   -0.043479   0.000000  -0.035290   0.043178   0.001624  -0.095930
     9  H    0.030747   0.000000   0.086898   0.109302  -0.000921   0.090696
    10  C   -0.009950   0.000000   0.000125  -0.000422   0.000019  -0.017238
    11  C   -0.042667   0.000000   0.031762  -0.042090  -0.000740  -0.095217
    12  H    0.041397   0.000000  -0.017671   0.149861   0.005352   0.097339
    13  C   -0.042312   0.000000   0.015703   0.050719  -0.003190  -0.095065
    14  C   -0.043867   0.000000  -0.056698  -0.011979   0.004094  -0.098834
    15  H    0.041601   0.000000   0.020737  -0.149531   0.004284   0.097539
    16  C   -0.044551   0.000000  -0.056344  -0.006358   0.001931  -0.099543
    17  H    0.041838   0.000000  -0.027493   0.148511  -0.009992   0.098092
    18  H    0.041706   0.000000  -0.119971  -0.095264   0.010306   0.096871
    19  H    0.041263   0.000000  -0.144279   0.052134   0.002015   0.096487
    20  H    0.092930   0.000000  -0.021014   0.022866   0.191651   0.319571
    21  H    0.106851   0.000000   0.127034   0.087878  -0.125197   0.284316
    22  H    0.039475   0.000000   0.054879   0.024206  -0.128420   0.100836
    23  H    0.028872   0.000000   0.016656  -0.131327   0.036644   0.089572
       Tot   0.000006   0.000000  -0.072652   0.092833  -0.006690   0.000006
 Hirshfeld charges with hydrogens summed into heavy atoms:
              Q-H       Q-CM5   
     1  N   -0.012880  -0.089824
     2  C    0.076067   0.150647
     3  C   -0.005993  -0.015479
     4  C   -0.012359  -0.005241
     5  C   -0.017192  -0.008618
     6  C   -0.008617  -0.015978
     8  C   -0.002082   0.001409
    10  C   -0.009950  -0.017238
    11  C   -0.001065   0.002322
    13  C   -0.000474   0.003027
    14  C   -0.002161  -0.001963
    16  C   -0.003288  -0.003056
 
 EQQ= 0.000000000000E+00 EQD= 0.000000000000E+00 EDD= 0.484018477238E-02
 EQQ+QD+DD= 0.484018477238E-02
 
 No NMR shielding tensors so no spin-rotation constants.
 Leave Link  601 at Fri Sep 22 16:28:58 2023, MaxMem=   536870912 cpu:               8.9 elap:               2.3
 (Enter /share/apps/gaussian/g16/l9999.exe)
 1\1\GINC-NODE74\SP\RB3LYP\Gen\C11H11N1\YANZ\22-Sep-2023\0\\#p b3lyp/ge
 n scrf=(cpcm,solvent=toluene) pop=hirshfeld empiricaldispersion=gd3bj\
 \tmpdir/M3_ref_132.gjf\\0,1\N,0,4.676274,-0.327336,-0.57444602\C,0,4.8
 27158,0.960475,-1.32507205\C,0,3.657451,1.89526,-1.01315796\C,0,3.1433
 6,2.737497,-1.974051\C,0,3.122181,1.955584,0.30471799\C,0,2.124849,3.6
 79104,-1.67328405\H,0,3.505671,2.701494,-2.9977901\C,0,2.156554,2.8742
 93,0.63848901\H,0,3.45514,1.247799,1.05983901\C,0,1.640478,3.77672,-0.
 330975\C,0,1.570398,4.529661,-2.66779804\H,0,1.759414,2.900438,1.65259
 504\C,0,0.654688,4.750794,-0.023924\C,0,0.592651,5.443536,-2.34526491\
 H,0,1.932092,4.446134,-3.69194889\C,0,0.139387,5.562027,-1.00951898\H,
 0,0.325761,4.855187,1.00662994\H,0,0.170231,6.085484,-3.11613894\H,0,-
 0.617473,6.304547,-0.764759\H,0,3.91635538,-0.85740778,-0.6873795\H,0,
 5.44761621,-0.49095967,0.09330604\H,0,5.78544408,1.37027121,-0.8961029
 5\H,0,4.94847767,0.74552719,-2.40633472\\Version=ES64L-G16RevA.03\Stat
 e=1-A\HF=-480.4978166\RMSD=6.813e-09\Dipole=0.2429592,-0.2006998,0.102
 9535\Quadrupole=-0.6113289,-1.3930606,2.0043895,-4.7826695,-0.0859431,
 -2.4487317\PG=C01 [X(C11H11N1)]\\@


 OF ALL THE WONDERS OF THE UNIVERSE, THE GREATEST IS MAN.

                                    -- ARISTOTLE
 Job cpu time:       0 days  0 hours  4 minutes 16.0 seconds.
 Elapsed time:       0 days  0 hours  1 minutes  8.2 seconds.
 File lengths (MBytes):  RWF=     52 Int=      0 D2E=      0 Chk=      5 Scr=      1
 Normal termination of Gaussian 16 at Fri Sep 22 16:28:58 2023.
