 Entering Gaussian System, Link 0=g16
 Initial command:
 /share/apps/gaussian/g16/l1.exe "/tmp/55557.mgr/Gau-205897.inp" -scrdir="/tmp/55557.mgr/"
 Entering Link 1 = /share/apps/gaussian/g16/l1.exe PID=    205898.
  
 Copyright (c) 1988,1990,1992,1993,1995,1998,2003,2009,2016,
            Gaussian, Inc.  All Rights Reserved.
  
 This is part of the Gaussian(R) 16 program.  It is based on
 the Gaussian(R) 09 system (copyright 2009, Gaussian, Inc.),
 the Gaussian(R) 03 system (copyright 2003, Gaussian, Inc.),
 the Gaussian(R) 98 system (copyright 1998, Gaussian, Inc.),
 the Gaussian(R) 94 system (copyright 1995, Gaussian, Inc.),
 the Gaussian 92(TM) system (copyright 1992, Gaussian, Inc.),
 the Gaussian 90(TM) system (copyright 1990, Gaussian, Inc.),
 the Gaussian 88(TM) system (copyright 1988, Gaussian, Inc.),
 the Gaussian 86(TM) system (copyright 1986, Carnegie Mellon
 University), and the Gaussian 82(TM) system (copyright 1983,
 Carnegie Mellon University). Gaussian is a federally registered
 trademark of Gaussian, Inc.
  
 This software contains proprietary and confidential information,
 including trade secrets, belonging to Gaussian, Inc.
  
 This software is provided under written license and may be
 used, copied, transmitted, or stored only in accord with that
 written license.
  
 The following legend is applicable only to US Government
 contracts under FAR:
  
                    RESTRICTED RIGHTS LEGEND
  
 Use, reproduction and disclosure by the US Government is
 subject to restrictions as set forth in subparagraphs (a)
 and (c) of the Commercial Computer Software - Restricted
 Rights clause in FAR 52.227-19.
  
 Gaussian, Inc.
 340 Quinnipiac St., Bldg. 40, Wallingford CT 06492
  
  
 ---------------------------------------------------------------
 Warning -- This program may not be used in any manner that
 competes with the business of Gaussian, Inc. or will provide
 assistance to any competitor of Gaussian, Inc.  The licensee
 of this program is prohibited from giving any competitor of
 Gaussian, Inc. access to this program.  By using this program,
 the user acknowledges that Gaussian, Inc. is engaged in the
 business of creating and licensing software in the field of
 computational chemistry and represents and warrants to the
 licensee that it is not a competitor of Gaussian, Inc. and that
 it will not use this program in any manner prohibited above.
 ---------------------------------------------------------------
  

 Cite this work as:
 Gaussian 16, Revision A.03,
 M. J. Frisch, G. W. Trucks, H. B. Schlegel, G. E. Scuseria, 
 M. A. Robb, J. R. Cheeseman, G. Scalmani, V. Barone, 
 G. A. Petersson, H. Nakatsuji, X. Li, M. Caricato, A. V. Marenich, 
 J. Bloino, B. G. Janesko, R. Gomperts, B. Mennucci, H. P. Hratchian, 
 J. V. Ortiz, A. F. Izmaylov, J. L. Sonnenberg, D. Williams-Young, 
 F. Ding, F. Lipparini, F. Egidi, J. Goings, B. Peng, A. Petrone, 
 T. Henderson, D. Ranasinghe, V. G. Zakrzewski, J. Gao, N. Rega, 
 G. Zheng, W. Liang, M. Hada, M. Ehara, K. Toyota, R. Fukuda, 
 J. Hasegawa, M. Ishida, T. Nakajima, Y. Honda, O. Kitao, H. Nakai, 
 T. Vreven, K. Throssell, J. A. Montgomery, Jr., J. E. Peralta, 
 F. Ogliaro, M. J. Bearpark, J. J. Heyd, E. N. Brothers, K. N. Kudin, 
 V. N. Staroverov, T. A. Keith, R. Kobayashi, J. Normand, 
 K. Raghavachari, A. P. Rendell, J. C. Burant, S. S. Iyengar, 
 J. Tomasi, M. Cossi, J. M. Millam, M. Klene, C. Adamo, R. Cammi, 
 J. W. Ochterski, R. L. Martin, K. Morokuma, O. Farkas, 
 J. B. Foresman, and D. J. Fox, Gaussian, Inc., Wallingford CT, 2016.
 
 ******************************************
 Gaussian 16:  ES64L-G16RevA.03 25-Dec-2016
                22-Sep-2023 
 ******************************************
 %nprocshared=4
 Will use up to    4 processors via shared memory.
 %mem=4GB
 ----------------------------------------------------------------------
 #p b3lyp/gen scrf=(cpcm,solvent=toluene) pop=hirshfeld empiricaldisper
 sion=gd3bj
 ----------------------------------------------------------------------
 1/38=1,172=1/1;
 2/12=2,17=6,18=5,40=1/2;
 3/5=7,11=2,25=1,30=1,70=2101,72=13,74=-5,124=41/1,2,3;
 4//1;
 5/5=2,38=5,53=13/2;
 6/7=2,8=2,9=2,10=2,28=1,79=1/1;
 99/5=1,9=1/99;
 Leave Link    1 at Fri Sep 22 16:27:20 2023, MaxMem=   536870912 cpu:               0.1 elap:               0.0
 (Enter /share/apps/gaussian/g16/l101.exe)
 ---------------------
 tmpdir/M3_ref_111.gjf
 ---------------------
 Symbolic Z-matrix:
 Charge =  0 Multiplicity = 1
 C                     3.79062  -3.62652  -1.0173 
 C                     2.84047  -3.65956  -2.22541 
 H                     3.06625  -4.54469  -2.8349 
 H                     3.57099  -2.76954  -0.31001 
 H                     4.83869  -3.52914  -1.37718 
 H                     3.69192  -4.57175  -0.4375 
 H                     1.78695  -3.72902  -1.92865 
 H                     2.95622  -2.77266  -2.85727 
 
 ITRead=  0  0  0  0  0  0  0  0
 MicOpt= -1 -1 -1 -1 -1 -1 -1 -1
 NAtoms=      8 NQM=        8 NQMF=       0 NMMI=      0 NMMIF=      0
                NMic=       0 NMicF=      0.
                    Isotopes and Nuclear Properties:
 (Nuclear quadrupole moments (NQMom) in fm**2, nuclear magnetic moments (NMagM)
  in nuclear magnetons)

  Atom         1           2           3           4           5           6           7           8
 IAtWgt=          12          12           1           1           1           1           1           1
 AtmWgt=  12.0000000  12.0000000   1.0078250   1.0078250   1.0078250   1.0078250   1.0078250   1.0078250
 NucSpn=           0           0           1           1           1           1           1           1
 AtZEff=  -0.0000000  -0.0000000  -0.0000000  -0.0000000  -0.0000000  -0.0000000  -0.0000000  -0.0000000
 NQMom=    0.0000000   0.0000000   0.0000000   0.0000000   0.0000000   0.0000000   0.0000000   0.0000000
 NMagM=    0.0000000   0.0000000   2.7928460   2.7928460   2.7928460   2.7928460   2.7928460   2.7928460
 AtZNuc=   6.0000000   6.0000000   1.0000000   1.0000000   1.0000000   1.0000000   1.0000000   1.0000000
 Leave Link  101 at Fri Sep 22 16:27:20 2023, MaxMem=   536870912 cpu:               0.3 elap:               0.1
 (Enter /share/apps/gaussian/g16/l202.exe)
                          Input orientation:                          
 ---------------------------------------------------------------------
 Center     Atomic      Atomic             Coordinates (Angstroms)
 Number     Number       Type             X           Y           Z
 ---------------------------------------------------------------------
      1          6           0        3.790623   -3.626523   -1.017301
      2          6           0        2.840468   -3.659560   -2.225411
      3          1           0        3.066251   -4.544694   -2.834899
      4          1           0        3.570989   -2.769539   -0.310014
      5          1           0        4.838689   -3.529136   -1.377175
      6          1           0        3.691918   -4.571748   -0.437499
      7          1           0        1.786950   -3.729023   -1.928645
      8          1           0        2.956222   -2.772660   -2.857274
 ---------------------------------------------------------------------
                    Distance matrix (angstroms):
                    1          2          3          4          5
     1  C    0.000000
     2  C    1.537340   0.000000
     3  H    2.161346   1.098142   0.000000
     4  H    1.132658   2.234847   3.127456   0.000000
     5  H    1.112401   2.174719   2.509553   1.822877   0.000000
     6  H    1.113267   2.180295   2.477846   1.810755   1.812489
     7  H    2.203579   1.096720   1.767265   2.592946   3.107601
     8  H    2.193355   1.095099   1.775588   2.620397   2.511301
                    6          7          8
     6  H    0.000000
     7  H    2.561759   0.000000
     8  H    3.103752   1.773183   0.000000
 Stoichiometry    C2H6
 Framework group  C1[X(C2H6)]
 Deg. of freedom    18
 Full point group                 C1      NOp   1
 Largest Abelian subgroup         C1      NOp   1
 Largest concise Abelian subgroup C1      NOp   1
                         Standard orientation:                         
 ---------------------------------------------------------------------
 Center     Atomic      Atomic             Coordinates (Angstroms)
 Number     Number       Type             X           Y           Z
 ---------------------------------------------------------------------
      1          6           0       -0.768897    0.000781   -0.000570
      2          6           0        0.768427   -0.004586   -0.005366
      3          1           0        1.131693    0.689384    0.764283
      4          1           0       -1.212265   -0.742653   -0.731081
      5          1           0       -1.133221    1.017942   -0.265312
      6          1           0       -1.140982   -0.265692    1.014273
      7          1           0        1.185108   -0.992640    0.224682
      8          1           0        1.172484    0.316489   -0.971228
 ---------------------------------------------------------------------
 Rotational constants (GHZ):          77.9736477          19.7442842          19.7384568
 Leave Link  202 at Fri Sep 22 16:27:20 2023, MaxMem=   536870912 cpu:               0.0 elap:               0.0
 (Enter /share/apps/gaussian/g16/l301.exe)
 General basis read from cards:  (5D, 7F)
 Centers:       3      4      5      6      7      8
 S 3 1.00
     Exponent=  1.2251800000D+01 Coefficients=  2.3337100000D-02
     Exponent=  1.8687100000D+00 Coefficients=  1.5915000000D-01
     Exponent=  4.1820800000D-01 Coefficients=  5.0000000000D-01
 S 1 1.00
     Exponent=  1.0610000000D-01 Coefficients=  1.0000000000D+00
 P 1 1.00
     Exponent=  1.0000000000D+00 Coefficients=  1.0000000000D+00
 ****
 Centers:       1      2
 S 5 1.00
     Exponent=  1.2432000000D+03 Coefficients=  6.0336600000D-03
     Exponent=  1.8714500000D+02 Coefficients=  4.4957600000D-02
     Exponent=  4.2512600000D+01 Coefficients=  1.9790100000D-01
     Exponent=  1.1739300000D+01 Coefficients=  5.0000000000D-01
     Exponent=  3.5054800000D+00 Coefficients=  4.8036400000D-01
 S 2 1.00
     Exponent=  5.3908900000D+00 Coefficients= -7.0398000000D-02
     Exponent=  4.9334100000D-01 Coefficients=  5.0000000000D-01
 S 1 1.00
     Exponent=  1.4974100000D-01 Coefficients=  1.0000000000D+00
 P 3 1.00
     Exponent=  9.1805600000D+00 Coefficients=  4.3170100000D-02
     Exponent=  1.9365800000D+00 Coefficients=  2.2499900000D-01
     Exponent=  5.2629600000D-01 Coefficients=  5.0000000000D-01
 P 1 1.00
     Exponent=  1.3631900000D-01 Coefficients=  1.0000000000D+00
 D 1 1.00
     Exponent=  8.0000000000D-01 Coefficients=  1.0000000000D+00
 ****
 Ernie: Thresh=  0.10000D-02 Tol=  0.10000D-05 Strict=F.
 There are    60 symmetry adapted cartesian basis functions of A   symmetry.
 There are    58 symmetry adapted basis functions of A   symmetry.
    58 basis functions,    94 primitive gaussians,    60 cartesian basis functions
     9 alpha electrons        9 beta electrons
       nuclear repulsion energy        41.8094806097 Hartrees.
 IExCor=  402 DFT=T Ex+Corr=B3LYP ExCW=0 ScaHFX=  0.200000
 ScaDFX=  0.800000  0.720000  1.000000  0.810000 ScalE2=  1.000000  1.000000
 IRadAn=      5 IRanWt=     -1 IRanGd=            0 ICorTp=0 IEmpDi=141
 NAtoms=    8 NActive=    8 NUniq=    8 SFac= 1.00D+00 NAtFMM=   60 NAOKFM=F Big=F
 Integral buffers will be    131072 words long.
 Raffenetti 2 integral format.
 Two-electron integral symmetry is turned on.
 R6Disp:  Grimme-D3(BJ) Dispersion energy=       -0.0053987432 Hartrees.
 Nuclear repulsion after empirical dispersion term =       41.8040818665 Hartrees.
 ------------------------------------------------------------------------------
 Polarizable Continuum Model (PCM)
 =================================
 Model                : C-PCM.
 Atomic radii         : UFF (Universal Force Field).
 Polarization charges : Total charges.
 Charge compensation  : None.
 Solution method      : On-the-fly selection.
 Cavity type          : Scaled VdW (van der Waals Surface) (Alpha=1.100).
 Cavity algorithm     : GePol (No added spheres)
                        Default sphere list used, NSphG=    8.
                        Lebedev-Laikov grids with approx.  5.0 points / Ang**2.
                        Smoothing algorithm: York/Karplus (Gamma=1.0000).
                        Polarization charges: spherical gaussians, with
                                              point-specific exponents (IZeta= 3).
                        Self-potential: point-specific (ISelfS= 7).
                        Self-field    : sphere-specific E.n sum rule (ISelfD= 2).
 Solvent              : Toluene, Eps=   2.374100 Eps(inf)=   2.238315
 ------------------------------------------------------------------------------
 Spheres list:
 ISph  on   Nord     Re0    Alpha      Xe            Ye            Ze
    1   C      1    1.9255  1.100     -0.768897      0.000781     -0.000570
    2   C      2    1.9255  1.100      0.768427     -0.004586     -0.005366
    3   H      3    1.4430  1.100      1.131693      0.689384      0.764283
    4   H      4    1.4430  1.100     -1.212265     -0.742653     -0.731081
    5   H      5    1.4430  1.100     -1.133221      1.017942     -0.265312
    6   H      6    1.4430  1.100     -1.140982     -0.265692      1.014273
    7   H      7    1.4430  1.100      1.185108     -0.992640      0.224682
    8   H      8    1.4430  1.100      1.172484      0.316489     -0.971228
 ------------------------------------------------------------------------------
 GePol: Number of generator spheres                  =       8
 GePol: Total number of spheres                      =       8
 GePol: Number of exposed spheres                    =       8 (100.00%)
 GePol: Number of points                             =     719
 GePol: Average weight of points                     =       0.13
 GePol: Minimum weight of points                     =   0.36D-08
 GePol: Maximum weight of points                     =    0.20577
 GePol: Number of points with low weight             =      42
 GePol: Fraction of low-weight points (<1% of avg)   =       5.84%
 GePol: Cavity surface area                          =     97.052 Ang**2
 GePol: Cavity volume                                =     78.475 Ang**3
 Leave Link  301 at Fri Sep 22 16:27:20 2023, MaxMem=   536870912 cpu:               0.4 elap:               0.1
 (Enter /share/apps/gaussian/g16/l302.exe)
 NPDir=0 NMtPBC=     1 NCelOv=     1 NCel=       1 NClECP=     1 NCelD=      1
         NCelK=      1 NCelE2=     1 NClLst=     1 CellRange=     0.0.
 One-electron integrals computed using PRISM.
 One-electron integral symmetry used in STVInt
 NBasis=    58 RedAO= T EigKep=  9.19D-03  NBF=    58
 NBsUse=    58 1.00D-06 EigRej= -1.00D+00 NBFU=    58
 Precomputing XC quadrature grid using
 IXCGrd= 4 IRadAn=           5 IRanWt=          -1 IRanGd=           0 AccXCQ= 0.00D+00.
 Generated NRdTot=       0 NPtTot=           0 NUsed=           0 NTot=          32
 NSgBfM=    60    60    60    60    60 MxSgAt=     8 MxSgA2=     8.
 Leave Link  302 at Fri Sep 22 16:27:20 2023, MaxMem=   536870912 cpu:               0.4 elap:               0.1
 (Enter /share/apps/gaussian/g16/l303.exe)
 DipDrv:  MaxL=1.
 Leave Link  303 at Fri Sep 22 16:27:20 2023, MaxMem=   536870912 cpu:               0.1 elap:               0.0
 (Enter /share/apps/gaussian/g16/l401.exe)
 ExpMin= 1.06D-01 ExpMax= 1.24D+03 ExpMxC= 1.87D+02 IAcc=3 IRadAn=         5 AccDes= 0.00D+00
 Harris functional with IExCor=  402 and IRadAn=       5 diagonalized for initial guess.
 HarFok:  IExCor=  402 AccDes= 0.00D+00 IRadAn=         5 IDoV= 1 UseB2=F ITyADJ=14
 ICtDFT=  3500011 ScaDFX=  1.000000  1.000000  1.000000  1.000000
 FoFCou: FMM=F IPFlag=           0 FMFlag=      100000 FMFlg1=           0
         NFxFlg=           0 DoJE=T BraDBF=F KetDBF=T FulRan=T
         wScrn=  0.000000 ICntrl=       500 IOpCl=  0 I1Cent=   200000004 NGrid=           0
         NMat0=    1 NMatS0=      1 NMatT0=    0 NMatD0=    1 NMtDS0=    0 NMtDT0=    0
 Petite list used in FoFCou.
 Harris En= -79.8620858592668    
 JPrj=0 DoOrth=F DoCkMO=F.
 Leave Link  401 at Fri Sep 22 16:27:21 2023, MaxMem=   536870912 cpu:               1.5 elap:               0.4
 (Enter /share/apps/gaussian/g16/l502.exe)
 Keep R1 ints in memory in canonical form, NReq=5000644.
 FoFCou: FMM=F IPFlag=           0 FMFlag=           0 FMFlg1=           0
         NFxFlg=           0 DoJE=F BraDBF=F KetDBF=F FulRan=T
         wScrn=  0.000000 ICntrl=       600 IOpCl=  0 I1Cent=           0 NGrid=           0
         NMat0=    1 NMatS0=   1711 NMatT0=    0 NMatD0=    1 NMtDS0=    0 NMtDT0=    0
 Symmetry not used in FoFCou.
 Two-electron integral symmetry not used.
 Closed shell SCF:
 Using DIIS extrapolation, IDIIS=  1040.
 NGot=   536870912 LenX=   535397868 LenY=   535393827
 Requested convergence on RMS density matrix=1.00D-08 within 128 cycles.
 Requested convergence on MAX density matrix=1.00D-06.
 Requested convergence on             energy=1.00D-06.
 No special actions if energy rises.

 Cycle   1  Pass 1  IDiag  1:
 Inv3:  Mode=1 IEnd=     1550883.
 Iteration    1 A*A^-1 deviation from unit magnitude is 2.66D-15 for    119.
 Iteration    1 A*A^-1 deviation from orthogonality  is 1.79D-15 for    706    322.
 Iteration    1 A^-1*A deviation from unit magnitude is 2.66D-15 for    119.
 Iteration    1 A^-1*A deviation from orthogonality  is 1.30D-15 for    717    241.
 E= -79.7026061650452    
 DIIS: error= 4.19D-02 at cycle   1 NSaved=   1.
 NSaved= 1 IEnMin= 1 EnMin= -79.7026061650452     IErMin= 1 ErrMin= 4.19D-02
 ErrMax= 4.19D-02  0.00D+00 EMaxC= 1.00D-01 BMatC= 1.01D-01 BMatP= 1.01D-01
 IDIUse=3 WtCom= 5.81D-01 WtEn= 4.19D-01
 Coeff-Com:  0.100D+01
 Coeff-En:   0.100D+01
 Coeff:      0.100D+01
 Gap=     0.323 Goal=   None    Shift=    0.000
 GapD=    0.323 DampG=1.000 DampE=0.500 DampFc=0.5000 IDamp=-1.
 Damping current iteration by 5.00D-01
 RMSDP=1.10D-02 MaxDP=1.38D-01              OVMax= 1.89D-01

 Cycle   2  Pass 1  IDiag  1:
 E= -79.7527684599245     Delta-E=       -0.050162294879 Rises=F Damp=T
 DIIS: error= 1.16D-02 at cycle   2 NSaved=   2.
 NSaved= 2 IEnMin= 2 EnMin= -79.7527684599245     IErMin= 2 ErrMin= 1.16D-02
 ErrMax= 1.16D-02  0.00D+00 EMaxC= 1.00D-01 BMatC= 3.32D-03 BMatP= 1.01D-01
 IDIUse=3 WtCom= 8.84D-01 WtEn= 1.16D-01
 Coeff-Com:  0.109D+00 0.891D+00
 Coeff-En:   0.177D+00 0.823D+00
 Coeff:      0.117D+00 0.883D+00
 Gap=     0.415 Goal=   None    Shift=    0.000
 RMSDP=1.38D-03 MaxDP=1.12D-02 DE=-5.02D-02 OVMax= 1.02D-01

 Cycle   3  Pass 1  IDiag  1:
 E= -79.8209311976483     Delta-E=       -0.068162737724 Rises=F Damp=F
 DIIS: error= 2.10D-03 at cycle   3 NSaved=   3.
 NSaved= 3 IEnMin= 3 EnMin= -79.8209311976483     IErMin= 3 ErrMin= 2.10D-03
 ErrMax= 2.10D-03  0.00D+00 EMaxC= 1.00D-01 BMatC= 1.30D-04 BMatP= 3.32D-03
 IDIUse=3 WtCom= 9.79D-01 WtEn= 2.10D-02
 Coeff-Com:  0.174D-01 0.137D+00 0.845D+00
 Coeff-En:   0.000D+00 0.000D+00 0.100D+01
 Coeff:      0.171D-01 0.134D+00 0.848D+00
 Gap=     0.391 Goal=   None    Shift=    0.000
 RMSDP=1.97D-04 MaxDP=1.71D-03 DE=-6.82D-02 OVMax= 4.33D-03

 Cycle   4  Pass 1  IDiag  1:
 E= -79.8210430761959     Delta-E=       -0.000111878548 Rises=F Damp=F
 DIIS: error= 5.29D-04 at cycle   4 NSaved=   4.
 NSaved= 4 IEnMin= 4 EnMin= -79.8210430761959     IErMin= 4 ErrMin= 5.29D-04
 ErrMax= 5.29D-04  0.00D+00 EMaxC= 1.00D-01 BMatC= 8.65D-06 BMatP= 1.30D-04
 IDIUse=3 WtCom= 9.95D-01 WtEn= 5.29D-03
 Coeff-Com:  0.830D-03-0.358D-02 0.179D+00 0.824D+00
 Coeff-En:   0.000D+00 0.000D+00 0.000D+00 0.100D+01
 Coeff:      0.826D-03-0.356D-02 0.178D+00 0.825D+00
 Gap=     0.391 Goal=   None    Shift=    0.000
 RMSDP=5.43D-05 MaxDP=8.83D-04 DE=-1.12D-04 OVMax= 1.35D-03

 Cycle   5  Pass 1  IDiag  1:
 E= -79.8210490668608     Delta-E=       -0.000005990665 Rises=F Damp=F
 DIIS: error= 2.03D-04 at cycle   5 NSaved=   5.
 NSaved= 5 IEnMin= 5 EnMin= -79.8210490668608     IErMin= 5 ErrMin= 2.03D-04
 ErrMax= 2.03D-04  0.00D+00 EMaxC= 1.00D-01 BMatC= 2.45D-06 BMatP= 8.65D-06
 IDIUse=3 WtCom= 9.98D-01 WtEn= 2.03D-03
 Coeff-Com:  0.984D-04-0.554D-02 0.734D-01 0.446D+00 0.486D+00
 Coeff-En:   0.000D+00 0.000D+00 0.000D+00 0.137D+00 0.863D+00
 Coeff:      0.982D-04-0.553D-02 0.732D-01 0.445D+00 0.487D+00
 Gap=     0.391 Goal=   None    Shift=    0.000
 RMSDP=2.06D-05 MaxDP=3.65D-04 DE=-5.99D-06 OVMax= 5.05D-04

 Cycle   6  Pass 1  IDiag  1:
 E= -79.8210515144123     Delta-E=       -0.000002447552 Rises=F Damp=F
 DIIS: error= 6.60D-06 at cycle   6 NSaved=   6.
 NSaved= 6 IEnMin= 6 EnMin= -79.8210515144123     IErMin= 6 ErrMin= 6.60D-06
 ErrMax= 6.60D-06  0.00D+00 EMaxC= 1.00D-01 BMatC= 2.25D-09 BMatP= 2.45D-06
 IDIUse=1 WtCom= 1.00D+00 WtEn= 0.00D+00
 Coeff-Com:  0.825D-04 0.528D-04-0.356D-02-0.162D-01 0.420D-02 0.102D+01
 Coeff:      0.825D-04 0.528D-04-0.356D-02-0.162D-01 0.420D-02 0.102D+01
 Gap=     0.391 Goal=   None    Shift=    0.000
 RMSDP=8.39D-07 MaxDP=1.74D-05 DE=-2.45D-06 OVMax= 2.10D-05

 Cycle   7  Pass 1  IDiag  1:
 E= -79.8210515169349     Delta-E=       -0.000000002523 Rises=F Damp=F
 DIIS: error= 3.12D-07 at cycle   7 NSaved=   7.
 NSaved= 7 IEnMin= 7 EnMin= -79.8210515169349     IErMin= 7 ErrMin= 3.12D-07
 ErrMax= 3.12D-07  0.00D+00 EMaxC= 1.00D-01 BMatC= 6.50D-12 BMatP= 2.25D-09
 IDIUse=1 WtCom= 1.00D+00 WtEn= 0.00D+00
 Coeff-Com: -0.233D-06 0.135D-04-0.397D-03-0.199D-02-0.587D-03 0.549D-01
 Coeff-Com:  0.948D+00
 Coeff:     -0.233D-06 0.135D-04-0.397D-03-0.199D-02-0.587D-03 0.549D-01
 Coeff:      0.948D+00
 Gap=     0.391 Goal=   None    Shift=    0.000
 RMSDP=6.73D-08 MaxDP=8.24D-07 DE=-2.52D-09 OVMax= 1.06D-06

 Cycle   8  Pass 1  IDiag  1:
 E= -79.8210515169429     Delta-E=       -0.000000000008 Rises=F Damp=F
 DIIS: error= 9.76D-08 at cycle   8 NSaved=   8.
 NSaved= 8 IEnMin= 8 EnMin= -79.8210515169429     IErMin= 8 ErrMin= 9.76D-08
 ErrMax= 9.76D-08  0.00D+00 EMaxC= 1.00D-01 BMatC= 5.81D-13 BMatP= 6.50D-12
 IDIUse=1 WtCom= 1.00D+00 WtEn= 0.00D+00
 Coeff-Com: -0.208D-05 0.220D-05-0.297D-04-0.181D-03-0.257D-03-0.715D-02
 Coeff-Com:  0.260D+00 0.748D+00
 Coeff:     -0.208D-05 0.220D-05-0.297D-04-0.181D-03-0.257D-03-0.715D-02
 Coeff:      0.260D+00 0.748D+00
 Gap=     0.391 Goal=   None    Shift=    0.000
 RMSDP=1.57D-08 MaxDP=2.08D-07 DE=-7.96D-12 OVMax= 2.62D-07

 Cycle   9  Pass 1  IDiag  1:
 E= -79.8210515169435     Delta-E=       -0.000000000001 Rises=F Damp=F
 DIIS: error= 4.99D-09 at cycle   9 NSaved=   9.
 NSaved= 9 IEnMin= 9 EnMin= -79.8210515169435     IErMin= 9 ErrMin= 4.99D-09
 ErrMax= 4.99D-09  0.00D+00 EMaxC= 1.00D-01 BMatC= 2.59D-15 BMatP= 5.81D-13
 IDIUse=1 WtCom= 1.00D+00 WtEn= 0.00D+00
 Coeff-Com: -0.167D-06 0.984D-07 0.243D-05 0.412D-05-0.314D-04-0.154D-02
 Coeff-Com:  0.109D-01 0.718D-01 0.919D+00
 Coeff:     -0.167D-06 0.984D-07 0.243D-05 0.412D-05-0.314D-04-0.154D-02
 Coeff:      0.109D-01 0.718D-01 0.919D+00
 Gap=     0.391 Goal=   None    Shift=    0.000
 RMSDP=1.39D-09 MaxDP=2.11D-08 DE=-6.25D-13 OVMax= 2.29D-08

 Error on total polarization charges =  0.00541
 SCF Done:  E(RB3LYP) =  -79.8210515169     A.U. after    9 cycles
            NFock=  9  Conv=0.14D-08     -V/T= 2.0089
 KE= 7.912018532522D+01 PE=-2.675117800641D+02 EE= 6.676646135546D+01
 Leave Link  502 at Fri Sep 22 16:27:24 2023, MaxMem=   536870912 cpu:              13.8 elap:               3.5
 (Enter /share/apps/gaussian/g16/l601.exe)
 Copying SCF densities to generalized density rwf, IOpCl= 0 IROHF=0.

 **********************************************************************

            Population analysis using the SCF density.

 **********************************************************************

 Orbital symmetries:
       Occupied  (A) (A) (A) (A) (A) (A) (A) (A) (A)
       Virtual   (A) (A) (A) (A) (A) (A) (A) (A) (A) (A) (A) (A)
                 (A) (A) (A) (A) (A) (A) (A) (A) (A) (A) (A) (A)
                 (A) (A) (A) (A) (A) (A) (A) (A) (A) (A) (A) (A)
                 (A) (A) (A) (A) (A) (A) (A) (A) (A) (A) (A) (A)
                 (A)
 The electronic state is 1-A.
 Alpha  occ. eigenvalues --  -10.17257 -10.16600  -0.75090  -0.61201  -0.43547
 Alpha  occ. eigenvalues --   -0.43251  -0.36712  -0.34537  -0.34219
 Alpha virt. eigenvalues --    0.04917   0.09036   0.10400   0.10516   0.13608
 Alpha virt. eigenvalues --    0.13747   0.21233   0.37439   0.38854   0.39155
 Alpha virt. eigenvalues --    0.46887   0.47122   0.57998   0.63038   0.63804
 Alpha virt. eigenvalues --    0.64407   0.64743   0.65203   0.68814   0.93812
 Alpha virt. eigenvalues --    1.22484   1.26614   1.26813   1.57548   1.58013
 Alpha virt. eigenvalues --    1.74895   1.85595   1.87125   1.87306   1.89085
 Alpha virt. eigenvalues --    1.90926   1.91203   2.07931   2.08324   2.09308
 Alpha virt. eigenvalues --    2.27842   2.28333   2.47712   2.59895   2.60248
 Alpha virt. eigenvalues --    2.60809   2.75946   2.76399   2.93797   3.05103
 Alpha virt. eigenvalues --    3.16689   3.17568   3.28229   3.29063
          Condensed to atoms (all electrons):
               1          2          3          4          5          6
     1  C    4.781966   0.401834  -0.033305   0.395325   0.397322   0.397251
     2  C    0.401834   4.753336   0.399168  -0.032254  -0.034314  -0.033972
     3  H   -0.033305   0.399168   0.608321   0.009283  -0.006720  -0.008334
     4  H    0.395325  -0.032254   0.009283   0.602588  -0.026402  -0.027616
     5  H    0.397322  -0.034314  -0.006720  -0.026402   0.603333  -0.025427
     6  H    0.397251  -0.033972  -0.008334  -0.027616  -0.025427   0.605221
     7  H   -0.031059   0.400067  -0.027371  -0.007034   0.009337  -0.006115
     8  H   -0.032011   0.400440  -0.026465  -0.005722  -0.007703   0.009403
               7          8
     1  C   -0.031059  -0.032011
     2  C    0.400067   0.400440
     3  H   -0.027371  -0.026465
     4  H   -0.007034  -0.005722
     5  H    0.009337  -0.007703
     6  H   -0.006115   0.009403
     7  H    0.602526  -0.027233
     8  H   -0.027233   0.601970
 Mulliken charges:
               1
     1  C   -0.277323
     2  C   -0.254305
     3  H    0.085425
     4  H    0.091833
     5  H    0.090575
     6  H    0.089589
     7  H    0.086883
     8  H    0.087323
 Sum of Mulliken charges =  -0.00000
 Mulliken charges with hydrogens summed into heavy atoms:
               1
     1  C   -0.005326
     2  C    0.005326
 Electronic spatial extent (au):  <R**2>=            111.5087
 Charge=             -0.0000 electrons
 Dipole moment (field-independent basis, Debye):
    X=              0.0400    Y=              0.0213    Z=              0.0275  Tot=              0.0530
 Quadrupole moment (field-independent basis, Debye-Ang):
   XX=            -15.9537   YY=            -15.0464   ZZ=            -15.0582
   XY=              0.0052   XZ=              0.0060   YZ=             -0.0299
 Traceless Quadrupole moment (field-independent basis, Debye-Ang):
   XX=             -0.6009   YY=              0.3064   ZZ=              0.2945
   XY=              0.0052   XZ=              0.0060   YZ=             -0.0299
 Octapole moment (field-independent basis, Debye-Ang**2):
  XXX=              0.4100  YYY=              0.0874  ZZZ=              0.1819  XYY=              0.0252
  XXY=             -0.1462  XXZ=             -0.0788  XZZ=              0.0867  YZZ=              0.0427
  YYZ=             -0.0636  XYZ=             -0.0405
 Hexadecapole moment (field-independent basis, Debye-Ang**3):
 XXXX=            -98.3694 YYYY=            -30.9238 ZZZZ=            -30.9136 XXXY=              0.0029
 XXXZ=              0.0078 YYYX=             -0.9758 YYYZ=             -0.0720 ZZZX=             -0.8622
 ZZZY=             -0.0708 XXYY=            -20.4514 XXZZ=            -20.4883 YYZZ=            -10.2990
 XXYZ=             -0.0211 YYXZ=              0.8222 ZZXY=              0.9373
 N-N= 4.180408186648D+01 E-N=-2.675117801708D+02  KE= 7.912018532522D+01
 There are a total of      177360 grid points.
 ElSum from          density=       18.0000003399
 ElSum from atomic densities=       18.0000007666
 Hirshfeld populations at iteration   1 (CA, CB, DipXYZ):
               1          2          3          4          5
     1  C    3.036730   3.036730   0.042201  -0.000862  -0.001791
     2  C    3.039476   3.039476  -0.036830  -0.002145  -0.002244
     3  H    0.487112   0.487112   0.037788   0.084652   0.095491
     4  H    0.487630   0.487630  -0.046415  -0.088011  -0.084401
     5  H    0.487147   0.487147  -0.034098   0.125372  -0.032605
     6  H    0.487479   0.487479  -0.035721  -0.033426   0.123888
     7  H    0.487256   0.487256   0.047960  -0.121033   0.029129
     8  H    0.487171   0.487171   0.045430   0.040004  -0.119421
       Tot   9.000000   9.000000   0.020316   0.004550   0.008046

 Dip from Atomic Chgs             -0.004570   0.003843   0.002770
         Total Dipole              0.015746   0.008393   0.010816

 Hirshfeld charges, spin densities, dipoles, and CM5 charges using IRadAn=      5:
              Q-H        S-H        Dx         Dy         Dz        Q-CM5   
     1  C   -0.073460   0.000000   0.042201  -0.000862  -0.001791  -0.216286
     2  C   -0.078952   0.000000  -0.036830  -0.002145  -0.002244  -0.229238
     3  H    0.025777   0.000000   0.037788   0.084652   0.095491   0.075974
     4  H    0.024741   0.000000  -0.046415  -0.088011  -0.084401   0.070545
     5  H    0.025705   0.000000  -0.034098   0.125372  -0.032605   0.074170
     6  H    0.025042   0.000000  -0.035721  -0.033426   0.123888   0.073366
     7  H    0.025488   0.000000   0.047960  -0.121033   0.029129   0.075516
     8  H    0.025658   0.000000   0.045430   0.040004  -0.119421   0.075953
       Tot  -0.000000   0.000000   0.020316   0.004550   0.008046  -0.000000
 Hirshfeld charges with hydrogens summed into heavy atoms:
              Q-H       Q-CM5   
     1  C    0.002028   0.001794
     2  C   -0.002028  -0.001795
 
 EQQ= 0.000000000000E+00 EQD= 0.000000000000E+00 EDD=-0.187494959144E-02
 EQQ+QD+DD=-0.187494959144E-02
 
 No NMR shielding tensors so no spin-rotation constants.
 Leave Link  601 at Fri Sep 22 16:27:24 2023, MaxMem=   536870912 cpu:               1.2 elap:               0.3
 (Enter /share/apps/gaussian/g16/l9999.exe)
 1\1\GINC-NODE74\SP\RB3LYP\Gen\C2H6\YANZ\22-Sep-2023\0\\#p b3lyp/gen sc
 rf=(cpcm,solvent=toluene) pop=hirshfeld empiricaldispersion=gd3bj\\tmp
 dir/M3_ref_111.gjf\\0,1\C,0,3.790623,-3.626523,-1.01730096\C,0,2.84046
 8,-3.65956,-2.22541094\H,0,3.066251,-4.544694,-2.83489895\H,0,3.570989
 47,-2.76953898,-0.31001442\H,0,4.83868904,-3.52913572,-1.37717515\H,0,
 3.69191825,-4.571748,-0.43749871\H,0,1.78695,-3.729023,-1.92864501\H,0
 ,2.956222,-2.77266,-2.85727406\\Version=ES64L-G16RevA.03\State=1-A\HF=
 -79.8210515\RMSD=1.389e-09\Dipole=-0.0044373,-0.0124754,-0.0161246\Qua
 drupole=-0.0270305,0.2116265,-0.184596,0.0081861,-0.3315909,-0.0210377
 \PG=C01 [X(C2H6)]\\@


 SILVERMAN'S PARADOX - IF MURPHY'S LAW CAN GO WRONG, IT WILL.
 Job cpu time:       0 days  0 hours  0 minutes 18.0 seconds.
 Elapsed time:       0 days  0 hours  0 minutes  4.7 seconds.
 File lengths (MBytes):  RWF=     11 Int=      0 D2E=      0 Chk=      2 Scr=      1
 Normal termination of Gaussian 16 at Fri Sep 22 16:27:24 2023.
