 Entering Gaussian System, Link 0=g16
 Initial command:
 /share/apps/gaussian/g16/l1.exe "/tmp/55557.mgr/Gau-203513.inp" -scrdir="/tmp/55557.mgr/"
 Entering Link 1 = /share/apps/gaussian/g16/l1.exe PID=    203520.
  
 Copyright (c) 1988,1990,1992,1993,1995,1998,2003,2009,2016,
            Gaussian, Inc.  All Rights Reserved.
  
 This is part of the Gaussian(R) 16 program.  It is based on
 the Gaussian(R) 09 system (copyright 2009, Gaussian, Inc.),
 the Gaussian(R) 03 system (copyright 2003, Gaussian, Inc.),
 the Gaussian(R) 98 system (copyright 1998, Gaussian, Inc.),
 the Gaussian(R) 94 system (copyright 1995, Gaussian, Inc.),
 the Gaussian 92(TM) system (copyright 1992, Gaussian, Inc.),
 the Gaussian 90(TM) system (copyright 1990, Gaussian, Inc.),
 the Gaussian 88(TM) system (copyright 1988, Gaussian, Inc.),
 the Gaussian 86(TM) system (copyright 1986, Carnegie Mellon
 University), and the Gaussian 82(TM) system (copyright 1983,
 Carnegie Mellon University). Gaussian is a federally registered
 trademark of Gaussian, Inc.
  
 This software contains proprietary and confidential information,
 including trade secrets, belonging to Gaussian, Inc.
  
 This software is provided under written license and may be
 used, copied, transmitted, or stored only in accord with that
 written license.
  
 The following legend is applicable only to US Government
 contracts under FAR:
  
                    RESTRICTED RIGHTS LEGEND
  
 Use, reproduction and disclosure by the US Government is
 subject to restrictions as set forth in subparagraphs (a)
 and (c) of the Commercial Computer Software - Restricted
 Rights clause in FAR 52.227-19.
  
 Gaussian, Inc.
 340 Quinnipiac St., Bldg. 40, Wallingford CT 06492
  
  
 ---------------------------------------------------------------
 Warning -- This program may not be used in any manner that
 competes with the business of Gaussian, Inc. or will provide
 assistance to any competitor of Gaussian, Inc.  The licensee
 of this program is prohibited from giving any competitor of
 Gaussian, Inc. access to this program.  By using this program,
 the user acknowledges that Gaussian, Inc. is engaged in the
 business of creating and licensing software in the field of
 computational chemistry and represents and warrants to the
 licensee that it is not a competitor of Gaussian, Inc. and that
 it will not use this program in any manner prohibited above.
 ---------------------------------------------------------------
  

 Cite this work as:
 Gaussian 16, Revision A.03,
 M. J. Frisch, G. W. Trucks, H. B. Schlegel, G. E. Scuseria, 
 M. A. Robb, J. R. Cheeseman, G. Scalmani, V. Barone, 
 G. A. Petersson, H. Nakatsuji, X. Li, M. Caricato, A. V. Marenich, 
 J. Bloino, B. G. Janesko, R. Gomperts, B. Mennucci, H. P. Hratchian, 
 J. V. Ortiz, A. F. Izmaylov, J. L. Sonnenberg, D. Williams-Young, 
 F. Ding, F. Lipparini, F. Egidi, J. Goings, B. Peng, A. Petrone, 
 T. Henderson, D. Ranasinghe, V. G. Zakrzewski, J. Gao, N. Rega, 
 G. Zheng, W. Liang, M. Hada, M. Ehara, K. Toyota, R. Fukuda, 
 J. Hasegawa, M. Ishida, T. Nakajima, Y. Honda, O. Kitao, H. Nakai, 
 T. Vreven, K. Throssell, J. A. Montgomery, Jr., J. E. Peralta, 
 F. Ogliaro, M. J. Bearpark, J. J. Heyd, E. N. Brothers, K. N. Kudin, 
 V. N. Staroverov, T. A. Keith, R. Kobayashi, J. Normand, 
 K. Raghavachari, A. P. Rendell, J. C. Burant, S. S. Iyengar, 
 J. Tomasi, M. Cossi, J. M. Millam, M. Klene, C. Adamo, R. Cammi, 
 J. W. Ochterski, R. L. Martin, K. Morokuma, O. Farkas, 
 J. B. Foresman, and D. J. Fox, Gaussian, Inc., Wallingford CT, 2016.
 
 ******************************************
 Gaussian 16:  ES64L-G16RevA.03 25-Dec-2016
                22-Sep-2023 
 ******************************************
 %nprocshared=4
 Will use up to    4 processors via shared memory.
 %mem=4GB
 ----------------------------------------------------------------------
 #p b3lyp/gen scrf=(cpcm,solvent=toluene) pop=hirshfeld empiricaldisper
 sion=gd3bj
 ----------------------------------------------------------------------
 1/38=1,172=1/1;
 2/12=2,17=6,18=5,40=1/2;
 3/5=7,11=2,25=1,30=1,70=2101,72=13,74=-5,124=41/1,2,3;
 4//1;
 5/5=2,38=5,53=13/2;
 6/7=2,8=2,9=2,10=2,28=1,79=1/1;
 99/5=1,9=1/99;
 Leave Link    1 at Fri Sep 22 16:26:16 2023, MaxMem=   536870912 cpu:               0.2 elap:               0.0
 (Enter /share/apps/gaussian/g16/l101.exe)
 --------------------
 tmpdir/M3_ref_44.gjf
 --------------------
 Symbolic Z-matrix:
 Charge =  0 Multiplicity = 1
 C                    -1.61234  -3.7455    4.75522 
 C                    -0.6799   -3.61885   3.55434 
 H                    -1.22693  -3.91938   2.6478 
 H                    -2.4618   -3.04561   4.64813 
 H                    -1.96706  -4.78128   4.83754 
 H                    -1.06695  -3.52392   5.68612 
 H                    -0.28075  -2.58867   3.39528 
 H                     0.17684  -4.29975   3.63698 
 
 ITRead=  0  0  0  0  0  0  0  0
 MicOpt= -1 -1 -1 -1 -1 -1 -1 -1
 NAtoms=      8 NQM=        8 NQMF=       0 NMMI=      0 NMMIF=      0
                NMic=       0 NMicF=      0.
                    Isotopes and Nuclear Properties:
 (Nuclear quadrupole moments (NQMom) in fm**2, nuclear magnetic moments (NMagM)
  in nuclear magnetons)

  Atom         1           2           3           4           5           6           7           8
 IAtWgt=          12          12           1           1           1           1           1           1
 AtmWgt=  12.0000000  12.0000000   1.0078250   1.0078250   1.0078250   1.0078250   1.0078250   1.0078250
 NucSpn=           0           0           1           1           1           1           1           1
 AtZEff=  -0.0000000  -0.0000000  -0.0000000  -0.0000000  -0.0000000  -0.0000000  -0.0000000  -0.0000000
 NQMom=    0.0000000   0.0000000   0.0000000   0.0000000   0.0000000   0.0000000   0.0000000   0.0000000
 NMagM=    0.0000000   0.0000000   2.7928460   2.7928460   2.7928460   2.7928460   2.7928460   2.7928460
 AtZNuc=   6.0000000   6.0000000   1.0000000   1.0000000   1.0000000   1.0000000   1.0000000   1.0000000
 Leave Link  101 at Fri Sep 22 16:26:16 2023, MaxMem=   536870912 cpu:               0.4 elap:               0.1
 (Enter /share/apps/gaussian/g16/l202.exe)
                          Input orientation:                          
 ---------------------------------------------------------------------
 Center     Atomic      Atomic             Coordinates (Angstroms)
 Number     Number       Type             X           Y           Z
 ---------------------------------------------------------------------
      1          6           0       -1.612341   -3.745502    4.755217
      2          6           0       -0.679895   -3.618849    3.554339
      3          1           0       -1.226933   -3.919380    2.647805
      4          1           0       -2.461802   -3.045614    4.648135
      5          1           0       -1.967060   -4.781276    4.837545
      6          1           0       -1.066950   -3.523922    5.686117
      7          1           0       -0.280754   -2.588672    3.395280
      8          1           0        0.176838   -4.299753    3.636977
 ---------------------------------------------------------------------
                    Distance matrix (angstroms):
                    1          2          3          4          5
     1  C    0.000000
     2  C    1.525649   0.000000
     3  H    2.149409   1.100624   0.000000
     4  H    1.105845   2.167990   2.507925   0.000000
     5  H    1.097921   2.157463   2.466904   1.814709   0.000000
     6  H    1.101419   2.168710   3.068114   1.803274   1.763863
     7  H    2.227287   1.116189   1.795760   2.556444   3.119498
     8  H    2.181471   1.097475   1.758897   3.091557   2.503902
                    6          7          8
     6  H    0.000000
     7  H    2.596292   0.000000
     8  H    2.519504   1.787626   0.000000
 Stoichiometry    C2H6
 Framework group  C1[X(C2H6)]
 Deg. of freedom    18
 Full point group                 C1      NOp   1
 Largest Abelian subgroup         C1      NOp   1
 Largest concise Abelian subgroup C1      NOp   1
                         Standard orientation:                         
 ---------------------------------------------------------------------
 Center     Atomic      Atomic             Coordinates (Angstroms)
 Number     Number       Type             X           Y           Z
 ---------------------------------------------------------------------
      1          6           0        0.767569    0.005840    0.000213
      2          6           0       -0.758070    0.001603   -0.003560
      3          1           0       -1.114913    0.000362    1.037610
      4          1           0        1.140617    0.936492    0.466705
      5          1           0        1.136275   -0.876763    0.539192
      6          1           0        1.151338   -0.070190   -1.029382
      7          1           0       -1.213872    0.875560   -0.527315
      8          1           0       -1.156440   -0.910115   -0.466726
 ---------------------------------------------------------------------
 Rotational constants (GHZ):          78.5149741          20.0824092          19.9982300
 Leave Link  202 at Fri Sep 22 16:26:17 2023, MaxMem=   536870912 cpu:               0.0 elap:               0.0
 (Enter /share/apps/gaussian/g16/l301.exe)
 General basis read from cards:  (5D, 7F)
 Centers:       3      4      5      6      7      8
 S 3 1.00
     Exponent=  1.2251800000D+01 Coefficients=  2.3337100000D-02
     Exponent=  1.8687100000D+00 Coefficients=  1.5915000000D-01
     Exponent=  4.1820800000D-01 Coefficients=  5.0000000000D-01
 S 1 1.00
     Exponent=  1.0610000000D-01 Coefficients=  1.0000000000D+00
 P 1 1.00
     Exponent=  1.0000000000D+00 Coefficients=  1.0000000000D+00
 ****
 Centers:       1      2
 S 5 1.00
     Exponent=  1.2432000000D+03 Coefficients=  6.0336600000D-03
     Exponent=  1.8714500000D+02 Coefficients=  4.4957600000D-02
     Exponent=  4.2512600000D+01 Coefficients=  1.9790100000D-01
     Exponent=  1.1739300000D+01 Coefficients=  5.0000000000D-01
     Exponent=  3.5054800000D+00 Coefficients=  4.8036400000D-01
 S 2 1.00
     Exponent=  5.3908900000D+00 Coefficients= -7.0398000000D-02
     Exponent=  4.9334100000D-01 Coefficients=  5.0000000000D-01
 S 1 1.00
     Exponent=  1.4974100000D-01 Coefficients=  1.0000000000D+00
 P 3 1.00
     Exponent=  9.1805600000D+00 Coefficients=  4.3170100000D-02
     Exponent=  1.9365800000D+00 Coefficients=  2.2499900000D-01
     Exponent=  5.2629600000D-01 Coefficients=  5.0000000000D-01
 P 1 1.00
     Exponent=  1.3631900000D-01 Coefficients=  1.0000000000D+00
 D 1 1.00
     Exponent=  8.0000000000D-01 Coefficients=  1.0000000000D+00
 ****
 Ernie: Thresh=  0.10000D-02 Tol=  0.10000D-05 Strict=F.
 There are    60 symmetry adapted cartesian basis functions of A   symmetry.
 There are    58 symmetry adapted basis functions of A   symmetry.
    58 basis functions,    94 primitive gaussians,    60 cartesian basis functions
     9 alpha electrons        9 beta electrons
       nuclear repulsion energy        42.0609053107 Hartrees.
 IExCor=  402 DFT=T Ex+Corr=B3LYP ExCW=0 ScaHFX=  0.200000
 ScaDFX=  0.800000  0.720000  1.000000  0.810000 ScalE2=  1.000000  1.000000
 IRadAn=      5 IRanWt=     -1 IRanGd=            0 ICorTp=0 IEmpDi=141
 NAtoms=    8 NActive=    8 NUniq=    8 SFac= 1.00D+00 NAtFMM=   60 NAOKFM=F Big=F
 Integral buffers will be    131072 words long.
 Raffenetti 2 integral format.
 Two-electron integral symmetry is turned on.
 R6Disp:  Grimme-D3(BJ) Dispersion energy=       -0.0054148689 Hartrees.
 Nuclear repulsion after empirical dispersion term =       42.0554904418 Hartrees.
 ------------------------------------------------------------------------------
 Polarizable Continuum Model (PCM)
 =================================
 Model                : C-PCM.
 Atomic radii         : UFF (Universal Force Field).
 Polarization charges : Total charges.
 Charge compensation  : None.
 Solution method      : On-the-fly selection.
 Cavity type          : Scaled VdW (van der Waals Surface) (Alpha=1.100).
 Cavity algorithm     : GePol (No added spheres)
                        Default sphere list used, NSphG=    8.
                        Lebedev-Laikov grids with approx.  5.0 points / Ang**2.
                        Smoothing algorithm: York/Karplus (Gamma=1.0000).
                        Polarization charges: spherical gaussians, with
                                              point-specific exponents (IZeta= 3).
                        Self-potential: point-specific (ISelfS= 7).
                        Self-field    : sphere-specific E.n sum rule (ISelfD= 2).
 Solvent              : Toluene, Eps=   2.374100 Eps(inf)=   2.238315
 ------------------------------------------------------------------------------
 Spheres list:
 ISph  on   Nord     Re0    Alpha      Xe            Ye            Ze
    1   C      1    1.9255  1.100      0.767569      0.005840      0.000213
    2   C      2    1.9255  1.100     -0.758070      0.001603     -0.003560
    3   H      3    1.4430  1.100     -1.114913      0.000362      1.037610
    4   H      4    1.4430  1.100      1.140617      0.936492      0.466705
    5   H      5    1.4430  1.100      1.136275     -0.876763      0.539192
    6   H      6    1.4430  1.100      1.151338     -0.070190     -1.029382
    7   H      7    1.4430  1.100     -1.213872      0.875560     -0.527315
    8   H      8    1.4430  1.100     -1.156440     -0.910115     -0.466726
 ------------------------------------------------------------------------------
 GePol: Number of generator spheres                  =       8
 GePol: Total number of spheres                      =       8
 GePol: Number of exposed spheres                    =       8 (100.00%)
 GePol: Number of points                             =     710
 GePol: Average weight of points                     =       0.14
 GePol: Minimum weight of points                     =   0.14D-06
 GePol: Maximum weight of points                     =    0.20577
 GePol: Number of points with low weight             =      36
 GePol: Fraction of low-weight points (<1% of avg)   =       5.07%
 GePol: Cavity surface area                          =     96.711 Ang**2
 GePol: Cavity volume                                =     78.156 Ang**3
 Leave Link  301 at Fri Sep 22 16:26:17 2023, MaxMem=   536870912 cpu:               0.4 elap:               0.1
 (Enter /share/apps/gaussian/g16/l302.exe)
 NPDir=0 NMtPBC=     1 NCelOv=     1 NCel=       1 NClECP=     1 NCelD=      1
         NCelK=      1 NCelE2=     1 NClLst=     1 CellRange=     0.0.
 One-electron integrals computed using PRISM.
 One-electron integral symmetry used in STVInt
 NBasis=    58 RedAO= T EigKep=  8.87D-03  NBF=    58
 NBsUse=    58 1.00D-06 EigRej= -1.00D+00 NBFU=    58
 Precomputing XC quadrature grid using
 IXCGrd= 4 IRadAn=           5 IRanWt=          -1 IRanGd=           0 AccXCQ= 0.00D+00.
 Generated NRdTot=       0 NPtTot=           0 NUsed=           0 NTot=          32
 NSgBfM=    60    60    60    60    60 MxSgAt=     8 MxSgA2=     8.
 Leave Link  302 at Fri Sep 22 16:26:17 2023, MaxMem=   536870912 cpu:               0.5 elap:               0.1
 (Enter /share/apps/gaussian/g16/l303.exe)
 DipDrv:  MaxL=1.
 Leave Link  303 at Fri Sep 22 16:26:17 2023, MaxMem=   536870912 cpu:               0.1 elap:               0.0
 (Enter /share/apps/gaussian/g16/l401.exe)
 ExpMin= 1.06D-01 ExpMax= 1.24D+03 ExpMxC= 1.87D+02 IAcc=3 IRadAn=         5 AccDes= 0.00D+00
 Harris functional with IExCor=  402 and IRadAn=       5 diagonalized for initial guess.
 HarFok:  IExCor=  402 AccDes= 0.00D+00 IRadAn=         5 IDoV= 1 UseB2=F ITyADJ=14
 ICtDFT=  3500011 ScaDFX=  1.000000  1.000000  1.000000  1.000000
 FoFCou: FMM=F IPFlag=           0 FMFlag=      100000 FMFlg1=           0
         NFxFlg=           0 DoJE=T BraDBF=F KetDBF=T FulRan=T
         wScrn=  0.000000 ICntrl=       500 IOpCl=  0 I1Cent=   200000004 NGrid=           0
         NMat0=    1 NMatS0=      1 NMatT0=    0 NMatD0=    1 NMtDS0=    0 NMtDT0=    0
 Petite list used in FoFCou.
 Harris En= -79.8651975429491    
 JPrj=0 DoOrth=F DoCkMO=F.
 Leave Link  401 at Fri Sep 22 16:26:17 2023, MaxMem=   536870912 cpu:               1.6 elap:               0.4
 (Enter /share/apps/gaussian/g16/l502.exe)
 Keep R1 ints in memory in canonical form, NReq=5000644.
 FoFCou: FMM=F IPFlag=           0 FMFlag=           0 FMFlg1=           0
         NFxFlg=           0 DoJE=F BraDBF=F KetDBF=F FulRan=T
         wScrn=  0.000000 ICntrl=       600 IOpCl=  0 I1Cent=           0 NGrid=           0
         NMat0=    1 NMatS0=   1711 NMatT0=    0 NMatD0=    1 NMtDS0=    0 NMtDT0=    0
 Symmetry not used in FoFCou.
 Two-electron integral symmetry not used.
 Closed shell SCF:
 Using DIIS extrapolation, IDIIS=  1040.
 NGot=   536870912 LenX=   535397868 LenY=   535393827
 Requested convergence on RMS density matrix=1.00D-08 within 128 cycles.
 Requested convergence on MAX density matrix=1.00D-06.
 Requested convergence on             energy=1.00D-06.
 No special actions if energy rises.

 Cycle   1  Pass 1  IDiag  1:
 Inv3:  Mode=1 IEnd=     1512300.
 Iteration    1 A*A^-1 deviation from unit magnitude is 2.44D-15 for    696.
 Iteration    1 A*A^-1 deviation from orthogonality  is 1.62D-15 for    511    438.
 Iteration    1 A^-1*A deviation from unit magnitude is 2.44D-15 for    703.
 Iteration    1 A^-1*A deviation from orthogonality  is 9.66D-16 for    533     98.
 E= -79.6994103795482    
 DIIS: error= 4.19D-02 at cycle   1 NSaved=   1.
 NSaved= 1 IEnMin= 1 EnMin= -79.6994103795482     IErMin= 1 ErrMin= 4.19D-02
 ErrMax= 4.19D-02  0.00D+00 EMaxC= 1.00D-01 BMatC= 1.04D-01 BMatP= 1.04D-01
 IDIUse=3 WtCom= 5.81D-01 WtEn= 4.19D-01
 Coeff-Com:  0.100D+01
 Coeff-En:   0.100D+01
 Coeff:      0.100D+01
 Gap=     0.320 Goal=   None    Shift=    0.000
 GapD=    0.320 DampG=1.000 DampE=0.500 DampFc=0.5000 IDamp=-1.
 Damping current iteration by 5.00D-01
 RMSDP=1.12D-02 MaxDP=1.38D-01              OVMax= 1.91D-01

 Cycle   2  Pass 1  IDiag  1:
 E= -79.7511052219575     Delta-E=       -0.051694842409 Rises=F Damp=T
 DIIS: error= 1.01D-02 at cycle   2 NSaved=   2.
 NSaved= 2 IEnMin= 2 EnMin= -79.7511052219575     IErMin= 2 ErrMin= 1.01D-02
 ErrMax= 1.01D-02  0.00D+00 EMaxC= 1.00D-01 BMatC= 3.34D-03 BMatP= 1.04D-01
 IDIUse=3 WtCom= 8.99D-01 WtEn= 1.01D-01
 Coeff-Com:  0.108D+00 0.892D+00
 Coeff-En:   0.176D+00 0.824D+00
 Coeff:      0.115D+00 0.885D+00
 Gap=     0.416 Goal=   None    Shift=    0.000
 RMSDP=1.41D-03 MaxDP=1.16D-02 DE=-5.17D-02 OVMax= 1.04D-01

 Cycle   3  Pass 1  IDiag  1:
 E= -79.8212457171900     Delta-E=       -0.070140495233 Rises=F Damp=F
 DIIS: error= 1.87D-03 at cycle   3 NSaved=   3.
 NSaved= 3 IEnMin= 3 EnMin= -79.8212457171900     IErMin= 3 ErrMin= 1.87D-03
 ErrMax= 1.87D-03  0.00D+00 EMaxC= 1.00D-01 BMatC= 1.26D-04 BMatP= 3.34D-03
 IDIUse=3 WtCom= 9.81D-01 WtEn= 1.87D-02
 Coeff-Com:  0.157D-01 0.136D+00 0.848D+00
 Coeff-En:   0.000D+00 0.000D+00 0.100D+01
 Coeff:      0.154D-01 0.134D+00 0.851D+00
 Gap=     0.391 Goal=   None    Shift=    0.000
 RMSDP=1.90D-04 MaxDP=1.33D-03 DE=-7.01D-02 OVMax= 4.15D-03

 Cycle   4  Pass 1  IDiag  1:
 E= -79.8213565610649     Delta-E=       -0.000110843875 Rises=F Damp=F
 DIIS: error= 4.47D-04 at cycle   4 NSaved=   4.
 NSaved= 4 IEnMin= 4 EnMin= -79.8213565610649     IErMin= 4 ErrMin= 4.47D-04
 ErrMax= 4.47D-04  0.00D+00 EMaxC= 1.00D-01 BMatC= 4.86D-06 BMatP= 1.26D-04
 IDIUse=3 WtCom= 9.96D-01 WtEn= 4.47D-03
 Coeff-Com: -0.172D-03-0.913D-02 0.141D+00 0.868D+00
 Coeff-En:   0.000D+00 0.000D+00 0.000D+00 0.100D+01
 Coeff:     -0.171D-03-0.909D-02 0.141D+00 0.868D+00
 Gap=     0.391 Goal=   None    Shift=    0.000
 RMSDP=3.38D-05 MaxDP=3.72D-04 DE=-1.11D-04 OVMax= 8.33D-04

 Cycle   5  Pass 1  IDiag  1:
 E= -79.8213609971056     Delta-E=       -0.000004436041 Rises=F Damp=F
 DIIS: error= 6.35D-05 at cycle   5 NSaved=   5.
 NSaved= 5 IEnMin= 5 EnMin= -79.8213609971056     IErMin= 5 ErrMin= 6.35D-05
 ErrMax= 6.35D-05  0.00D+00 EMaxC= 1.00D-01 BMatC= 2.26D-07 BMatP= 4.86D-06
 IDIUse=1 WtCom= 1.00D+00 WtEn= 0.00D+00
 Coeff-Com: -0.335D-04-0.472D-02 0.628D-01 0.405D+00 0.537D+00
 Coeff:     -0.335D-04-0.472D-02 0.628D-01 0.405D+00 0.537D+00
 Gap=     0.391 Goal=   None    Shift=    0.000
 RMSDP=7.17D-06 MaxDP=1.37D-04 DE=-4.44D-06 OVMax= 1.74D-04

 Cycle   6  Pass 1  IDiag  1:
 E= -79.8213612138869     Delta-E=       -0.000000216781 Rises=F Damp=F
 DIIS: error= 1.19D-05 at cycle   6 NSaved=   6.
 NSaved= 6 IEnMin= 6 EnMin= -79.8213612138869     IErMin= 6 ErrMin= 1.19D-05
 ErrMax= 1.19D-05  0.00D+00 EMaxC= 1.00D-01 BMatC= 8.14D-09 BMatP= 2.26D-07
 IDIUse=1 WtCom= 1.00D+00 WtEn= 0.00D+00
 Coeff-Com:  0.904D-04 0.109D-04-0.294D-02-0.128D-01 0.144D+00 0.872D+00
 Coeff:      0.904D-04 0.109D-04-0.294D-02-0.128D-01 0.144D+00 0.872D+00
 Gap=     0.391 Goal=   None    Shift=    0.000
 RMSDP=1.32D-06 MaxDP=2.82D-05 DE=-2.17D-07 OVMax= 3.15D-05

 Cycle   7  Pass 1  IDiag  1:
 E= -79.8213612222118     Delta-E=       -0.000000008325 Rises=F Damp=F
 DIIS: error= 6.04D-07 at cycle   7 NSaved=   7.
 NSaved= 7 IEnMin= 7 EnMin= -79.8213612222118     IErMin= 7 ErrMin= 6.04D-07
 ErrMax= 6.04D-07  0.00D+00 EMaxC= 1.00D-01 BMatC= 3.11D-11 BMatP= 8.14D-09
 IDIUse=1 WtCom= 1.00D+00 WtEn= 0.00D+00
 Coeff-Com:  0.143D-04 0.265D-04-0.977D-03-0.492D-02 0.253D-01 0.175D+00
 Coeff-Com:  0.806D+00
 Coeff:      0.143D-04 0.265D-04-0.977D-03-0.492D-02 0.253D-01 0.175D+00
 Coeff:      0.806D+00
 Gap=     0.391 Goal=   None    Shift=    0.000
 RMSDP=1.27D-07 MaxDP=1.53D-06 DE=-8.32D-09 OVMax= 2.13D-06

 Cycle   8  Pass 1  IDiag  1:
 E= -79.8213612222476     Delta-E=       -0.000000000036 Rises=F Damp=F
 DIIS: error= 1.27D-07 at cycle   8 NSaved=   8.
 NSaved= 8 IEnMin= 8 EnMin= -79.8213612222476     IErMin= 8 ErrMin= 1.27D-07
 ErrMax= 1.27D-07  0.00D+00 EMaxC= 1.00D-01 BMatC= 1.26D-12 BMatP= 3.11D-11
 IDIUse=1 WtCom= 1.00D+00 WtEn= 0.00D+00
 Coeff-Com: -0.200D-05 0.275D-05-0.542D-04-0.309D-03-0.844D-03-0.156D-02
 Coeff-Com:  0.159D+00 0.844D+00
 Coeff:     -0.200D-05 0.275D-05-0.542D-04-0.309D-03-0.844D-03-0.156D-02
 Coeff:      0.159D+00 0.844D+00
 Gap=     0.391 Goal=   None    Shift=    0.000
 RMSDP=2.28D-08 MaxDP=2.20D-07 DE=-3.58D-11 OVMax= 3.73D-07

 Cycle   9  Pass 1  IDiag  1:
 E= -79.8213612222483     Delta-E=       -0.000000000001 Rises=F Damp=F
 DIIS: error= 7.58D-09 at cycle   9 NSaved=   9.
 NSaved= 9 IEnMin= 9 EnMin= -79.8213612222483     IErMin= 9 ErrMin= 7.58D-09
 ErrMax= 7.58D-09  0.00D+00 EMaxC= 1.00D-01 BMatC= 4.83D-15 BMatP= 1.26D-12
 IDIUse=1 WtCom= 1.00D+00 WtEn= 0.00D+00
 Coeff-Com: -0.383D-06 0.230D-06-0.298D-07-0.107D-04-0.350D-03-0.176D-02
 Coeff-Com:  0.161D-01 0.115D+00 0.871D+00
 Coeff:     -0.383D-06 0.230D-06-0.298D-07-0.107D-04-0.350D-03-0.176D-02
 Coeff:      0.161D-01 0.115D+00 0.871D+00
 Gap=     0.391 Goal=   None    Shift=    0.000
 RMSDP=1.51D-09 MaxDP=1.83D-08 DE=-7.39D-13 OVMax= 2.32D-08

 Error on total polarization charges =  0.00539
 SCF Done:  E(RB3LYP) =  -79.8213612222     A.U. after    9 cycles
            NFock=  9  Conv=0.15D-08     -V/T= 2.0082
 KE= 7.917419759645D+01 PE=-2.680544317351D+02 EE= 6.700338247462D+01
 Leave Link  502 at Fri Sep 22 16:26:21 2023, MaxMem=   536870912 cpu:              13.7 elap:               3.5
 (Enter /share/apps/gaussian/g16/l601.exe)
 Copying SCF densities to generalized density rwf, IOpCl= 0 IROHF=0.

 **********************************************************************

            Population analysis using the SCF density.

 **********************************************************************

 Orbital symmetries:
       Occupied  (A) (A) (A) (A) (A) (A) (A) (A) (A)
       Virtual   (A) (A) (A) (A) (A) (A) (A) (A) (A) (A) (A) (A)
                 (A) (A) (A) (A) (A) (A) (A) (A) (A) (A) (A) (A)
                 (A) (A) (A) (A) (A) (A) (A) (A) (A) (A) (A) (A)
                 (A) (A) (A) (A) (A) (A) (A) (A) (A) (A) (A) (A)
                 (A)
 The electronic state is 1-A.
 Alpha  occ. eigenvalues --  -10.16701 -10.16654  -0.75399  -0.61216  -0.43770
 Alpha  occ. eigenvalues --   -0.43457  -0.36821  -0.34558  -0.34111
 Alpha virt. eigenvalues --    0.04980   0.09190   0.10434   0.10630   0.13637
 Alpha virt. eigenvalues --    0.13827   0.21583   0.37209   0.39042   0.39483
 Alpha virt. eigenvalues --    0.45848   0.47683   0.58919   0.63888   0.64141
 Alpha virt. eigenvalues --    0.64434   0.64723   0.66009   0.68949   0.94044
 Alpha virt. eigenvalues --    1.22635   1.26282   1.26992   1.57279   1.58931
 Alpha virt. eigenvalues --    1.76137   1.85495   1.86896   1.88535   1.88998
 Alpha virt. eigenvalues --    1.91018   1.92074   2.08255   2.08937   2.10130
 Alpha virt. eigenvalues --    2.27604   2.30320   2.48493   2.59676   2.61389
 Alpha virt. eigenvalues --    2.62526   2.76473   2.78139   2.96167   3.05908
 Alpha virt. eigenvalues --    3.17737   3.18712   3.28519   3.30678
          Condensed to atoms (all electrons):
               1          2          3          4          5          6
     1  C    4.747380   0.405675  -0.035608   0.399360   0.399611   0.399338
     2  C    0.405675   4.768872   0.398666  -0.034735  -0.032170  -0.034993
     3  H   -0.035608   0.398666   0.613409  -0.007168  -0.008560   0.010431
     4  H    0.399360  -0.034735  -0.007168   0.598516  -0.024283  -0.025695
     5  H    0.399611  -0.032170  -0.008560  -0.024283   0.604338  -0.028680
     6  H    0.399338  -0.034993   0.010431  -0.025695  -0.028680   0.607816
     7  H   -0.030169   0.398247  -0.026777  -0.006999   0.009263  -0.006427
     8  H   -0.031376   0.399231  -0.028185   0.009710  -0.006857  -0.007785
               7          8
     1  C   -0.030169  -0.031376
     2  C    0.398247   0.399231
     3  H   -0.026777  -0.028185
     4  H   -0.006999   0.009710
     5  H    0.009263  -0.006857
     6  H   -0.006427  -0.007785
     7  H    0.600280  -0.027613
     8  H   -0.027613   0.608485
 Mulliken charges:
               1
     1  C   -0.254212
     2  C   -0.268793
     3  H    0.083791
     4  H    0.091294
     5  H    0.087339
     6  H    0.085995
     7  H    0.090196
     8  H    0.084390
 Sum of Mulliken charges =  -0.00000
 Mulliken charges with hydrogens summed into heavy atoms:
               1
     1  C    0.010416
     2  C   -0.010416
 Electronic spatial extent (au):  <R**2>=            110.4212
 Charge=             -0.0000 electrons
 Dipole moment (field-independent basis, Debye):
    X=             -0.0018    Y=             -0.0471    Z=              0.0118  Tot=              0.0486
 Quadrupole moment (field-independent basis, Debye-Ang):
   XX=            -15.9880   YY=            -14.9292   ZZ=            -15.0973
   XY=             -0.0420   XZ=              0.0425   YZ=              0.0070
 Traceless Quadrupole moment (field-independent basis, Debye-Ang):
   XX=             -0.6498   YY=              0.4090   ZZ=              0.2409
   XY=             -0.0420   XZ=              0.0425   YZ=              0.0070
 Octapole moment (field-independent basis, Debye-Ang**2):
  XXX=             -0.1964  YYY=             -0.0690  ZZZ=              0.0305  XYY=              0.0770
  XXY=             -0.0344  XXZ=             -0.1410  XZZ=              0.0297  YZZ=             -0.0895
  YYZ=              0.0565  XYZ=              0.1200
 Hexadecapole moment (field-independent basis, Debye-Ang**3):
 XXXX=            -97.0442 YYYY=            -30.7001 ZZZZ=            -30.5987 XXXY=             -0.1861
 XXXZ=              0.2211 YYYX=              0.1121 YYYZ=              0.0335 ZZZX=             -1.1566
 ZZZY=              0.0234 XXYY=            -20.0984 XXZZ=            -20.4172 YYZZ=            -10.2623
 XXYZ=             -0.0454 YYXZ=              1.2255 ZZXY=             -0.1479
 N-N= 4.205549044183D+01 E-N=-2.680544317998D+02  KE= 7.917419759645D+01
 There are a total of      177360 grid points.
 ElSum from          density=       17.9999995395
 ElSum from atomic densities=       17.9999992041
 Hirshfeld populations at iteration   1 (CA, CB, DipXYZ):
               1          2          3          4          5
     1  C    3.038323   3.038323  -0.034782   0.000237   0.004305
     2  C    3.038649   3.038649   0.042071   0.003723  -0.007409
     3  H    0.488301   0.488301  -0.034233  -0.003217   0.127023
     4  H    0.486142   0.486142   0.035619   0.116459   0.057287
     5  H    0.486167   0.486167   0.036899  -0.113150   0.063463
     6  H    0.487744   0.487744   0.038548  -0.013572  -0.125705
     7  H    0.486926   0.486926  -0.051131   0.103898  -0.063018
     8  H    0.487749   0.487749  -0.042916  -0.112912  -0.054954
       Tot   9.000000   9.000000  -0.009925  -0.018534   0.000992

 Dip from Atomic Chgs              0.009210   0.000017   0.003651
         Total Dipole             -0.000716  -0.018517   0.004643

 Hirshfeld charges, spin densities, dipoles, and CM5 charges using IRadAn=      5:
              Q-H        S-H        Dx         Dy         Dz        Q-CM5   
     1  C   -0.076647   0.000000  -0.034782   0.000237   0.004305  -0.225432
     2  C   -0.077297   0.000000   0.042071   0.003723  -0.007409  -0.225552
     3  H    0.023398   0.000000  -0.034233  -0.003217   0.127023   0.073410
     4  H    0.027716   0.000000   0.035619   0.116459   0.057287   0.076974
     5  H    0.027667   0.000000   0.036899  -0.113150   0.063463   0.077923
     6  H    0.024512   0.000000   0.038548  -0.013572  -0.125705   0.074271
     7  H    0.026149   0.000000  -0.051131   0.103898  -0.063018   0.073794
     8  H    0.024503   0.000000  -0.042916  -0.112912  -0.054954   0.074614
       Tot   0.000000   0.000000  -0.009925  -0.018534   0.000992   0.000000
 Hirshfeld charges with hydrogens summed into heavy atoms:
              Q-H       Q-CM5   
     1  C    0.003248   0.003736
     2  C   -0.003248  -0.003735
 
 EQQ= 0.000000000000E+00 EQD= 0.000000000000E+00 EDD=-0.186918368157E-02
 EQQ+QD+DD=-0.186918368157E-02
 
 No NMR shielding tensors so no spin-rotation constants.
 Leave Link  601 at Fri Sep 22 16:26:21 2023, MaxMem=   536870912 cpu:               1.2 elap:               0.3
 (Enter /share/apps/gaussian/g16/l9999.exe)
 1\1\GINC-NODE74\SP\RB3LYP\Gen\C2H6\YANZ\22-Sep-2023\0\\#p b3lyp/gen sc
 rf=(cpcm,solvent=toluene) pop=hirshfeld empiricaldispersion=gd3bj\\tmp
 dir/M3_ref_44.gjf\\0,1\C,0,-1.612341,-3.745502,4.75521708\C,0,-0.67989
 5,-3.618849,3.55433893\H,0,-1.226933,-3.91938,2.64780498\H,0,-2.461801
 68,-3.04561354,4.64813459\H,0,-1.96706,-4.781276,4.83754492\H,0,-1.066
 95,-3.523922,5.68611717\H,0,-0.28075439,-2.58867236,3.39527953\H,0,0.1
 76838,-4.299753,3.63697696\\Version=ES64L-G16RevA.03\State=1-A\HF=-79.
 8213612\RMSD=1.510e-09\Dipole=0.0025946,-0.0189032,-0.0009392\Quadrupo
 le=-0.0357589,0.2894544,-0.2536955,-0.0476123,0.3224629,-0.0037197\PG=
 C01 [X(C2H6)]\\@


 COLLEGE PROFESSOR: SOMEONE WHO TALKS IN OTHER PEOPLE'S SLEEP.
 Job cpu time:       0 days  0 hours  0 minutes 18.2 seconds.
 Elapsed time:       0 days  0 hours  0 minutes  4.7 seconds.
 File lengths (MBytes):  RWF=     11 Int=      0 D2E=      0 Chk=      2 Scr=      1
 Normal termination of Gaussian 16 at Fri Sep 22 16:26:21 2023.
