 Entering Gaussian System, Link 0=g16
 Initial command:
 /share/apps/gaussian/g16/l1.exe "/tmp/55557.mgr/Gau-208811.inp" -scrdir="/tmp/55557.mgr/"
 Entering Link 1 = /share/apps/gaussian/g16/l1.exe PID=    208812.
  
 Copyright (c) 1988,1990,1992,1993,1995,1998,2003,2009,2016,
            Gaussian, Inc.  All Rights Reserved.
  
 This is part of the Gaussian(R) 16 program.  It is based on
 the Gaussian(R) 09 system (copyright 2009, Gaussian, Inc.),
 the Gaussian(R) 03 system (copyright 2003, Gaussian, Inc.),
 the Gaussian(R) 98 system (copyright 1998, Gaussian, Inc.),
 the Gaussian(R) 94 system (copyright 1995, Gaussian, Inc.),
 the Gaussian 92(TM) system (copyright 1992, Gaussian, Inc.),
 the Gaussian 90(TM) system (copyright 1990, Gaussian, Inc.),
 the Gaussian 88(TM) system (copyright 1988, Gaussian, Inc.),
 the Gaussian 86(TM) system (copyright 1986, Carnegie Mellon
 University), and the Gaussian 82(TM) system (copyright 1983,
 Carnegie Mellon University). Gaussian is a federally registered
 trademark of Gaussian, Inc.
  
 This software contains proprietary and confidential information,
 including trade secrets, belonging to Gaussian, Inc.
  
 This software is provided under written license and may be
 used, copied, transmitted, or stored only in accord with that
 written license.
  
 The following legend is applicable only to US Government
 contracts under FAR:
  
                    RESTRICTED RIGHTS LEGEND
  
 Use, reproduction and disclosure by the US Government is
 subject to restrictions as set forth in subparagraphs (a)
 and (c) of the Commercial Computer Software - Restricted
 Rights clause in FAR 52.227-19.
  
 Gaussian, Inc.
 340 Quinnipiac St., Bldg. 40, Wallingford CT 06492
  
  
 ---------------------------------------------------------------
 Warning -- This program may not be used in any manner that
 competes with the business of Gaussian, Inc. or will provide
 assistance to any competitor of Gaussian, Inc.  The licensee
 of this program is prohibited from giving any competitor of
 Gaussian, Inc. access to this program.  By using this program,
 the user acknowledges that Gaussian, Inc. is engaged in the
 business of creating and licensing software in the field of
 computational chemistry and represents and warrants to the
 licensee that it is not a competitor of Gaussian, Inc. and that
 it will not use this program in any manner prohibited above.
 ---------------------------------------------------------------
  

 Cite this work as:
 Gaussian 16, Revision A.03,
 M. J. Frisch, G. W. Trucks, H. B. Schlegel, G. E. Scuseria, 
 M. A. Robb, J. R. Cheeseman, G. Scalmani, V. Barone, 
 G. A. Petersson, H. Nakatsuji, X. Li, M. Caricato, A. V. Marenich, 
 J. Bloino, B. G. Janesko, R. Gomperts, B. Mennucci, H. P. Hratchian, 
 J. V. Ortiz, A. F. Izmaylov, J. L. Sonnenberg, D. Williams-Young, 
 F. Ding, F. Lipparini, F. Egidi, J. Goings, B. Peng, A. Petrone, 
 T. Henderson, D. Ranasinghe, V. G. Zakrzewski, J. Gao, N. Rega, 
 G. Zheng, W. Liang, M. Hada, M. Ehara, K. Toyota, R. Fukuda, 
 J. Hasegawa, M. Ishida, T. Nakajima, Y. Honda, O. Kitao, H. Nakai, 
 T. Vreven, K. Throssell, J. A. Montgomery, Jr., J. E. Peralta, 
 F. Ogliaro, M. J. Bearpark, J. J. Heyd, E. N. Brothers, K. N. Kudin, 
 V. N. Staroverov, T. A. Keith, R. Kobayashi, J. Normand, 
 K. Raghavachari, A. P. Rendell, J. C. Burant, S. S. Iyengar, 
 J. Tomasi, M. Cossi, J. M. Millam, M. Klene, C. Adamo, R. Cammi, 
 J. W. Ochterski, R. L. Martin, K. Morokuma, O. Farkas, 
 J. B. Foresman, and D. J. Fox, Gaussian, Inc., Wallingford CT, 2016.
 
 ******************************************
 Gaussian 16:  ES64L-G16RevA.03 25-Dec-2016
                22-Sep-2023 
 ******************************************
 %nprocshared=4
 Will use up to    4 processors via shared memory.
 %mem=4GB
 ----------------------------------------------------------------------
 #p b3lyp/gen scrf=(cpcm,solvent=toluene) pop=hirshfeld empiricaldisper
 sion=gd3bj
 ----------------------------------------------------------------------
 1/38=1,172=1/1;
 2/12=2,17=6,18=5,40=1/2;
 3/5=7,11=2,25=1,30=1,70=2101,72=13,74=-5,124=41/1,2,3;
 4//1;
 5/5=2,38=5,53=13/2;
 6/7=2,8=2,9=2,10=2,28=1,79=1/1;
 99/5=1,9=1/99;
 Leave Link    1 at Fri Sep 22 16:28:41 2023, MaxMem=   536870912 cpu:               0.1 elap:               0.0
 (Enter /share/apps/gaussian/g16/l101.exe)
 ---------------------
 tmpdir/M3_ref_161.gjf
 ---------------------
 Symbolic Z-matrix:
 Charge =  0 Multiplicity = 1
 C                     3.59097  -1.08438  -0.73574 
 N                     4.67627  -0.32734  -0.57445 
 C                     4.82716   0.96048  -1.32507 
 H                     3.51586  -2.06762  -0.23227 
 O                     2.66254  -0.69494  -1.48852 
 H                     5.44762  -0.49096   0.09331 
 H                     5.78544   1.37027  -0.8961 
 H                     4.94848   0.74553  -2.40633 
 H                     3.98042   1.63715  -1.09928 
 
 ITRead=  0  0  0  0  0  0  0  0  0
 MicOpt= -1 -1 -1 -1 -1 -1 -1 -1 -1
 NAtoms=      9 NQM=        9 NQMF=       0 NMMI=      0 NMMIF=      0
                NMic=       0 NMicF=      0.
                    Isotopes and Nuclear Properties:
 (Nuclear quadrupole moments (NQMom) in fm**2, nuclear magnetic moments (NMagM)
  in nuclear magnetons)

  Atom         1           2           3           4           5           6           7           8           9
 IAtWgt=          12          14          12           1          16           1           1           1           1
 AtmWgt=  12.0000000  14.0030740  12.0000000   1.0078250  15.9949146   1.0078250   1.0078250   1.0078250   1.0078250
 NucSpn=           0           2           0           1           0           1           1           1           1
 AtZEff=  -0.0000000  -0.0000000  -0.0000000  -0.0000000  -0.0000000  -0.0000000  -0.0000000  -0.0000000  -0.0000000
 NQMom=    0.0000000   2.0440000   0.0000000   0.0000000   0.0000000   0.0000000   0.0000000   0.0000000   0.0000000
 NMagM=    0.0000000   0.4037610   0.0000000   2.7928460   0.0000000   2.7928460   2.7928460   2.7928460   2.7928460
 AtZNuc=   6.0000000   7.0000000   6.0000000   1.0000000   8.0000000   1.0000000   1.0000000   1.0000000   1.0000000
 Leave Link  101 at Fri Sep 22 16:28:41 2023, MaxMem=   536870912 cpu:               0.3 elap:               0.1
 (Enter /share/apps/gaussian/g16/l202.exe)
                          Input orientation:                          
 ---------------------------------------------------------------------
 Center     Atomic      Atomic             Coordinates (Angstroms)
 Number     Number       Type             X           Y           Z
 ---------------------------------------------------------------------
      1          6           0        3.590969   -1.084377   -0.735736
      2          7           0        4.676274   -0.327336   -0.574446
      3          6           0        4.827158    0.960475   -1.325072
      4          1           0        3.515862   -2.067617   -0.232270
      5          8           0        2.662535   -0.694935   -1.488517
      6          1           0        5.447616   -0.490960    0.093306
      7          1           0        5.785444    1.370271   -0.896103
      8          1           0        4.948478    0.745527   -2.406335
      9          1           0        3.980423    1.637153   -1.099282
 ---------------------------------------------------------------------
                    Distance matrix (angstroms):
                    1          2          3          4          5
     1  C    0.000000
     2  N    1.333046   0.000000
     3  C    2.461077   1.498220   0.000000
     4  H    1.107194   2.119485   3.476069   0.000000
     5  O    1.257113   2.241830   2.729961   2.047090   0.000000
     6  H    2.118158   1.033264   2.122128   2.514661   3.209431
     7  H    3.296473   2.053191   1.127058   4.172619   3.790593
     8  H    2.825293   2.140315   1.109076   3.833109   2.853569
     9  H    2.773187   2.149157   1.107174   3.833125   2.706837
                    6          7          8          9
     6  H    0.000000
     7  H    2.134769   0.000000
     8  H    2.833062   1.836197   0.000000
     9  H    2.846714   1.835921   1.854862   0.000000
 Stoichiometry    C2H5NO
 Framework group  C1[X(C2H5NO)]
 Deg. of freedom    21
 Full point group                 C1      NOp   1
 Largest Abelian subgroup         C1      NOp   1
 Largest concise Abelian subgroup C1      NOp   1
                         Standard orientation:                         
 ---------------------------------------------------------------------
 Center     Atomic      Atomic             Coordinates (Angstroms)
 Number     Number       Type             X           Y           Z
 ---------------------------------------------------------------------
      1          6           0       -0.874777    0.468817    0.010516
      2          7           0        0.440826    0.683329   -0.003133
      3          6           0        1.401848   -0.465996    0.009150
      4          1           0       -1.579106    1.320923    0.071469
      5          8           0       -1.317310   -0.707591   -0.013234
      6          1           0        0.914947    1.597000   -0.092844
      7          1           0        2.394281    0.057908   -0.095068
      8          1           0        1.340893   -0.987780    0.985918
      9          1           0        1.219254   -1.127549   -0.859666
 ---------------------------------------------------------------------
 Rotational constants (GHZ):          18.0928233           6.5355043           4.9665599
 Leave Link  202 at Fri Sep 22 16:28:41 2023, MaxMem=   536870912 cpu:               0.0 elap:               0.0
 (Enter /share/apps/gaussian/g16/l301.exe)
 General basis read from cards:  (5D, 7F)
 Centers:       4      6      7      8      9
 S 3 1.00
     Exponent=  1.2251800000D+01 Coefficients=  2.3337100000D-02
     Exponent=  1.8687100000D+00 Coefficients=  1.5915000000D-01
     Exponent=  4.1820800000D-01 Coefficients=  5.0000000000D-01
 S 1 1.00
     Exponent=  1.0610000000D-01 Coefficients=  1.0000000000D+00
 P 1 1.00
     Exponent=  1.0000000000D+00 Coefficients=  1.0000000000D+00
 ****
 Centers:       1      3
 S 5 1.00
     Exponent=  1.2432000000D+03 Coefficients=  6.0336600000D-03
     Exponent=  1.8714500000D+02 Coefficients=  4.4957600000D-02
     Exponent=  4.2512600000D+01 Coefficients=  1.9790100000D-01
     Exponent=  1.1739300000D+01 Coefficients=  5.0000000000D-01
     Exponent=  3.5054800000D+00 Coefficients=  4.8036400000D-01
 S 2 1.00
     Exponent=  5.3908900000D+00 Coefficients= -7.0398000000D-02
     Exponent=  4.9334100000D-01 Coefficients=  5.0000000000D-01
 S 1 1.00
     Exponent=  1.4974100000D-01 Coefficients=  1.0000000000D+00
 P 3 1.00
     Exponent=  9.1805600000D+00 Coefficients=  4.3170100000D-02
     Exponent=  1.9365800000D+00 Coefficients=  2.2499900000D-01
     Exponent=  5.2629600000D-01 Coefficients=  5.0000000000D-01
 P 1 1.00
     Exponent=  1.3631900000D-01 Coefficients=  1.0000000000D+00
 D 1 1.00
     Exponent=  8.0000000000D-01 Coefficients=  1.0000000000D+00
 ****
 Centers:       2
 S 5 1.00
     Exponent=  1.7263200000D+03 Coefficients=  5.9307700000D-03
     Exponent=  2.5982700000D+02 Coefficients=  4.4253900000D-02
     Exponent=  5.9033500000D+01 Coefficients=  1.9609600000D-01
     Exponent=  1.6350900000D+01 Coefficients=  5.0000000000D-01
     Exponent=  4.9108400000D+00 Coefficients=  4.8298700000D-01
 S 2 1.00
     Exponent=  7.7589400000D+00 Coefficients= -7.0335600000D-02
     Exponent=  7.0557300000D-01 Coefficients=  5.0000000000D-01
 S 1 1.00
     Exponent=  2.0928600000D-01 Coefficients=  1.0000000000D+00
 P 3 1.00
     Exponent=  1.3184400000D+01 Coefficients=  4.4074700000D-02
     Exponent=  2.8186000000D+00 Coefficients=  2.3047800000D-01
     Exponent=  7.6557100000D-01 Coefficients=  5.0000000000D-01
 P 1 1.00
     Exponent=  1.9594900000D-01 Coefficients=  1.0000000000D+00
 D 1 1.00
     Exponent=  9.0000000000D-01 Coefficients=  1.0000000000D+00
 ****
 Centers:       5
 S 5 1.00
     Exponent=  2.2886400000D+03 Coefficients=  5.8546800000D-03
     Exponent=  3.4441600000D+02 Coefficients=  4.3733300000D-02
     Exponent=  7.8253800000D+01 Coefficients=  1.9479600000D-01
     Exponent=  2.1719500000D+01 Coefficients=  5.0000000000D-01
     Exponent=  6.5590700000D+00 Coefficients=  4.8461400000D-01
 S 2 1.00
     Exponent=  1.0465600000D+01 Coefficients= -7.1334300000D-02
     Exponent=  9.6435100000D-01 Coefficients=  5.0000000000D-01
 S 1 1.00
     Exponent=  2.8512700000D-01 Coefficients=  1.0000000000D+00
 P 3 1.00
     Exponent=  1.7059000000D+01 Coefficients=  4.7443900000D-02
     Exponent=  3.6899900000D+00 Coefficients=  2.4268900000D-01
     Exponent=  9.9299600000D-01 Coefficients=  5.0000000000D-01
 P 1 1.00
     Exponent=  2.4492400000D-01 Coefficients=  1.0000000000D+00
 D 1 1.00
     Exponent=  1.0000000000D+00 Coefficients=  1.0000000000D+00
 ****
 Ernie: Thresh=  0.10000D-02 Tol=  0.10000D-05 Strict=F.
 There are    85 symmetry adapted cartesian basis functions of A   symmetry.
 There are    81 symmetry adapted basis functions of A   symmetry.
    81 basis functions,   139 primitive gaussians,    85 cartesian basis functions
    16 alpha electrons       16 beta electrons
       nuclear repulsion energy       120.7702321988 Hartrees.
 IExCor=  402 DFT=T Ex+Corr=B3LYP ExCW=0 ScaHFX=  0.200000
 ScaDFX=  0.800000  0.720000  1.000000  0.810000 ScalE2=  1.000000  1.000000
 IRadAn=      5 IRanWt=     -1 IRanGd=            0 ICorTp=0 IEmpDi=141
 NAtoms=    9 NActive=    9 NUniq=    9 SFac= 1.00D+00 NAtFMM=   60 NAOKFM=F Big=F
 Integral buffers will be    131072 words long.
 Raffenetti 2 integral format.
 Two-electron integral symmetry is turned on.
 R6Disp:  Grimme-D3(BJ) Dispersion energy=       -0.0085671898 Hartrees.
 Nuclear repulsion after empirical dispersion term =      120.7616650091 Hartrees.
 ------------------------------------------------------------------------------
 Polarizable Continuum Model (PCM)
 =================================
 Model                : C-PCM.
 Atomic radii         : UFF (Universal Force Field).
 Polarization charges : Total charges.
 Charge compensation  : None.
 Solution method      : On-the-fly selection.
 Cavity type          : Scaled VdW (van der Waals Surface) (Alpha=1.100).
 Cavity algorithm     : GePol (No added spheres)
                        Default sphere list used, NSphG=    9.
                        Lebedev-Laikov grids with approx.  5.0 points / Ang**2.
                        Smoothing algorithm: York/Karplus (Gamma=1.0000).
                        Polarization charges: spherical gaussians, with
                                              point-specific exponents (IZeta= 3).
                        Self-potential: point-specific (ISelfS= 7).
                        Self-field    : sphere-specific E.n sum rule (ISelfD= 2).
 Solvent              : Toluene, Eps=   2.374100 Eps(inf)=   2.238315
 ------------------------------------------------------------------------------
 Spheres list:
 ISph  on   Nord     Re0    Alpha      Xe            Ye            Ze
    1   C      1    1.9255  1.100     -0.874777      0.468817      0.010516
    2   N      2    1.8300  1.100      0.440826      0.683329     -0.003133
    3   C      3    1.9255  1.100      1.401848     -0.465996      0.009150
    4   H      4    1.4430  1.100     -1.579106      1.320923      0.071469
    5   O      5    1.7500  1.100     -1.317310     -0.707591     -0.013234
    6   H      6    1.4430  1.100      0.914947      1.597000     -0.092844
    7   H      7    1.4430  1.100      2.394281      0.057908     -0.095068
    8   H      8    1.4430  1.100      1.340893     -0.987780      0.985918
    9   H      9    1.4430  1.100      1.219254     -1.127549     -0.859666
 ------------------------------------------------------------------------------
 GePol: Number of generator spheres                  =       9
 GePol: Total number of spheres                      =       9
 GePol: Number of exposed spheres                    =       9 (100.00%)
 GePol: Number of points                             =     879
 GePol: Average weight of points                     =       0.13
 GePol: Minimum weight of points                     =   0.19D-09
 GePol: Maximum weight of points                     =    0.20577
 GePol: Number of points with low weight             =      43
 GePol: Fraction of low-weight points (<1% of avg)   =       4.89%
 GePol: Cavity surface area                          =    117.627 Ang**2
 GePol: Cavity volume                                =    101.456 Ang**3
 Leave Link  301 at Fri Sep 22 16:28:41 2023, MaxMem=   536870912 cpu:               0.4 elap:               0.1
 (Enter /share/apps/gaussian/g16/l302.exe)
 NPDir=0 NMtPBC=     1 NCelOv=     1 NCel=       1 NClECP=     1 NCelD=      1
         NCelK=      1 NCelE2=     1 NClLst=     1 CellRange=     0.0.
 One-electron integrals computed using PRISM.
 One-electron integral symmetry used in STVInt
 NBasis=    81 RedAO= T EigKep=  9.03D-03  NBF=    81
 NBsUse=    81 1.00D-06 EigRej= -1.00D+00 NBFU=    81
 Precomputing XC quadrature grid using
 IXCGrd= 4 IRadAn=           5 IRanWt=          -1 IRanGd=           0 AccXCQ= 0.00D+00.
 Generated NRdTot=       0 NPtTot=           0 NUsed=           0 NTot=          32
 NSgBfM=    85    85    85    85    85 MxSgAt=     9 MxSgA2=     9.
 Leave Link  302 at Fri Sep 22 16:28:41 2023, MaxMem=   536870912 cpu:               0.7 elap:               0.2
 (Enter /share/apps/gaussian/g16/l303.exe)
 DipDrv:  MaxL=1.
 Leave Link  303 at Fri Sep 22 16:28:41 2023, MaxMem=   536870912 cpu:               0.1 elap:               0.0
 (Enter /share/apps/gaussian/g16/l401.exe)
 ExpMin= 1.06D-01 ExpMax= 2.29D+03 ExpMxC= 3.44D+02 IAcc=3 IRadAn=         5 AccDes= 0.00D+00
 Harris functional with IExCor=  402 and IRadAn=       5 diagonalized for initial guess.
 HarFok:  IExCor=  402 AccDes= 0.00D+00 IRadAn=         5 IDoV= 1 UseB2=F ITyADJ=14
 ICtDFT=  3500011 ScaDFX=  1.000000  1.000000  1.000000  1.000000
 FoFCou: FMM=F IPFlag=           0 FMFlag=      100000 FMFlg1=           0
         NFxFlg=           0 DoJE=T BraDBF=F KetDBF=T FulRan=T
         wScrn=  0.000000 ICntrl=       500 IOpCl=  0 I1Cent=   200000004 NGrid=           0
         NMat0=    1 NMatS0=      1 NMatT0=    0 NMatD0=    1 NMtDS0=    0 NMtDT0=    0
 Petite list used in FoFCou.
 Harris En= -209.183522274991    
 JPrj=0 DoOrth=F DoCkMO=F.
 Leave Link  401 at Fri Sep 22 16:28:42 2023, MaxMem=   536870912 cpu:               2.2 elap:               0.6
 (Enter /share/apps/gaussian/g16/l502.exe)
 Keep R1 ints in memory in canonical form, NReq=9152230.
 FoFCou: FMM=F IPFlag=           0 FMFlag=           0 FMFlg1=           0
         NFxFlg=           0 DoJE=F BraDBF=F KetDBF=F FulRan=T
         wScrn=  0.000000 ICntrl=       600 IOpCl=  0 I1Cent=           0 NGrid=           0
         NMat0=    1 NMatS0=   3321 NMatT0=    0 NMatD0=    1 NMtDS0=    0 NMtDT0=    0
 Symmetry not used in FoFCou.
 Two-electron integral symmetry not used.
 Closed shell SCF:
 Using DIIS extrapolation, IDIIS=  1040.
 NGot=   536870912 LenX=   531338690 LenY=   531331024
 Requested convergence on RMS density matrix=1.00D-08 within 128 cycles.
 Requested convergence on MAX density matrix=1.00D-06.
 Requested convergence on             energy=1.00D-06.
 No special actions if energy rises.

 Cycle   1  Pass 1  IDiag  1:
 Inv3:  Mode=1 IEnd=     2317923.
 Iteration    1 A*A^-1 deviation from unit magnitude is 4.33D-15 for    869.
 Iteration    1 A*A^-1 deviation from orthogonality  is 1.92D-15 for    853    428.
 Iteration    1 A^-1*A deviation from unit magnitude is 4.11D-15 for    869.
 Iteration    1 A^-1*A deviation from orthogonality  is 1.81D-15 for    870    608.
 E= -209.053511977925    
 DIIS: error= 3.24D-02 at cycle   1 NSaved=   1.
 NSaved= 1 IEnMin= 1 EnMin= -209.053511977925     IErMin= 1 ErrMin= 3.24D-02
 ErrMax= 3.24D-02  0.00D+00 EMaxC= 1.00D-01 BMatC= 1.39D-01 BMatP= 1.39D-01
 IDIUse=3 WtCom= 6.76D-01 WtEn= 3.24D-01
 Coeff-Com:  0.100D+01
 Coeff-En:   0.100D+01
 Coeff:      0.100D+01
 Gap=     0.249 Goal=   None    Shift=    0.000
 GapD=    0.249 DampG=1.000 DampE=0.500 DampFc=0.5000 IDamp=-1.
 Damping current iteration by 5.00D-01
 RMSDP=1.23D-02 MaxDP=2.44D-01              OVMax= 3.40D-01

 Cycle   2  Pass 1  IDiag  1:
 E= -209.061428528093     Delta-E=       -0.007916550168 Rises=F Damp=T
 DIIS: error= 1.78D-02 at cycle   2 NSaved=   2.
 NSaved= 2 IEnMin= 2 EnMin= -209.061428528093     IErMin= 2 ErrMin= 1.78D-02
 ErrMax= 1.78D-02  0.00D+00 EMaxC= 1.00D-01 BMatC= 3.71D-02 BMatP= 1.39D-01
 IDIUse=3 WtCom= 8.22D-01 WtEn= 1.78D-01
 Coeff-Com:  0.311D+00 0.689D+00
 Coeff-En:   0.473D+00 0.527D+00
 Coeff:      0.340D+00 0.660D+00
 Gap=     0.284 Goal=   None    Shift=    0.000
 RMSDP=3.64D-03 MaxDP=5.31D-02 DE=-7.92D-03 OVMax= 2.13D-01

 Cycle   3  Pass 1  IDiag  1:
 E= -209.160779482167     Delta-E=       -0.099350954074 Rises=F Damp=F
 DIIS: error= 1.41D-02 at cycle   3 NSaved=   3.
 NSaved= 3 IEnMin= 3 EnMin= -209.160779482167     IErMin= 3 ErrMin= 1.41D-02
 ErrMax= 1.41D-02  0.00D+00 EMaxC= 1.00D-01 BMatC= 1.59D-02 BMatP= 3.71D-02
 IDIUse=3 WtCom= 8.59D-01 WtEn= 1.41D-01
 Coeff-Com:  0.137D+00 0.405D+00 0.459D+00
 Coeff-En:   0.000D+00 0.000D+00 0.100D+01
 Coeff:      0.117D+00 0.348D+00 0.535D+00
 Gap=     0.281 Goal=   None    Shift=    0.000
 RMSDP=1.69D-03 MaxDP=3.97D-02 DE=-9.94D-02 OVMax= 6.67D-02

 Cycle   4  Pass 1  IDiag  1:
 E= -209.173185667211     Delta-E=       -0.012406185043 Rises=F Damp=F
 DIIS: error= 5.93D-03 at cycle   4 NSaved=   4.
 NSaved= 4 IEnMin= 4 EnMin= -209.173185667211     IErMin= 4 ErrMin= 5.93D-03
 ErrMax= 5.93D-03  0.00D+00 EMaxC= 1.00D-01 BMatC= 2.79D-03 BMatP= 1.59D-02
 IDIUse=3 WtCom= 9.41D-01 WtEn= 5.93D-02
 Coeff-Com:  0.303D-01 0.919D-01 0.309D+00 0.568D+00
 Coeff-En:   0.000D+00 0.000D+00 0.150D+00 0.850D+00
 Coeff:      0.285D-01 0.864D-01 0.300D+00 0.585D+00
 Gap=     0.269 Goal=   None    Shift=    0.000
 RMSDP=5.52D-04 MaxDP=1.57D-02 DE=-1.24D-02 OVMax= 2.24D-02

 Cycle   5  Pass 1  IDiag  1:
 E= -209.175431559091     Delta-E=       -0.002245891880 Rises=F Damp=F
 DIIS: error= 1.15D-03 at cycle   5 NSaved=   5.
 NSaved= 5 IEnMin= 5 EnMin= -209.175431559091     IErMin= 5 ErrMin= 1.15D-03
 ErrMax= 1.15D-03  0.00D+00 EMaxC= 1.00D-01 BMatC= 1.57D-04 BMatP= 2.79D-03
 IDIUse=3 WtCom= 9.88D-01 WtEn= 1.15D-02
 Coeff-Com:  0.382D-02 0.147D-01 0.114D+00 0.307D+00 0.560D+00
 Coeff-En:   0.000D+00 0.000D+00 0.000D+00 0.000D+00 0.100D+01
 Coeff:      0.377D-02 0.145D-01 0.113D+00 0.303D+00 0.565D+00
 Gap=     0.270 Goal=   None    Shift=    0.000
 RMSDP=1.34D-04 MaxDP=3.59D-03 DE=-2.25D-03 OVMax= 5.16D-03

 Cycle   6  Pass 1  IDiag  1:
 E= -209.175565984151     Delta-E=       -0.000134425060 Rises=F Damp=F
 DIIS: error= 2.25D-04 at cycle   6 NSaved=   6.
 NSaved= 6 IEnMin= 6 EnMin= -209.175565984151     IErMin= 6 ErrMin= 2.25D-04
 ErrMax= 2.25D-04  0.00D+00 EMaxC= 1.00D-01 BMatC= 8.19D-06 BMatP= 1.57D-04
 IDIUse=3 WtCom= 9.98D-01 WtEn= 2.25D-03
 Coeff-Com: -0.980D-03-0.300D-02 0.189D-01 0.654D-01 0.242D+00 0.677D+00
 Coeff-En:   0.000D+00 0.000D+00 0.000D+00 0.000D+00 0.000D+00 0.100D+01
 Coeff:     -0.978D-03-0.299D-02 0.188D-01 0.652D-01 0.242D+00 0.678D+00
 Gap=     0.270 Goal=   None    Shift=    0.000
 RMSDP=2.54D-05 MaxDP=5.12D-04 DE=-1.34D-04 OVMax= 5.02D-04

 Cycle   7  Pass 1  IDiag  1:
 E= -209.175572597395     Delta-E=       -0.000006613244 Rises=F Damp=F
 DIIS: error= 4.05D-05 at cycle   7 NSaved=   7.
 NSaved= 7 IEnMin= 7 EnMin= -209.175572597395     IErMin= 7 ErrMin= 4.05D-05
 ErrMax= 4.05D-05  0.00D+00 EMaxC= 1.00D-01 BMatC= 2.67D-07 BMatP= 8.19D-06
 IDIUse=1 WtCom= 1.00D+00 WtEn= 0.00D+00
 Coeff-Com: -0.208D-03-0.160D-02 0.541D-02 0.175D-01 0.855D-01 0.261D+00
 Coeff-Com:  0.632D+00
 Coeff:     -0.208D-03-0.160D-02 0.541D-02 0.175D-01 0.855D-01 0.261D+00
 Coeff:      0.632D+00
 Gap=     0.270 Goal=   None    Shift=    0.000
 RMSDP=6.92D-06 MaxDP=8.96D-05 DE=-6.61D-06 OVMax= 1.52D-04

 Cycle   8  Pass 1  IDiag  1:
 E= -209.175572817838     Delta-E=       -0.000000220443 Rises=F Damp=F
 DIIS: error= 1.45D-05 at cycle   8 NSaved=   8.
 NSaved= 8 IEnMin= 8 EnMin= -209.175572817838     IErMin= 8 ErrMin= 1.45D-05
 ErrMax= 1.45D-05  0.00D+00 EMaxC= 1.00D-01 BMatC= 3.73D-08 BMatP= 2.67D-07
 IDIUse=1 WtCom= 1.00D+00 WtEn= 0.00D+00
 Coeff-Com:  0.104D-03-0.481D-03 0.123D-03-0.105D-02 0.775D-02 0.224D-01
 Coeff-Com:  0.263D+00 0.708D+00
 Coeff:      0.104D-03-0.481D-03 0.123D-03-0.105D-02 0.775D-02 0.224D-01
 Coeff:      0.263D+00 0.708D+00
 Gap=     0.270 Goal=   None    Shift=    0.000
 RMSDP=1.89D-06 MaxDP=2.76D-05 DE=-2.20D-07 OVMax= 3.77D-05

 Cycle   9  Pass 1  IDiag  1:
 E= -209.175572849959     Delta-E=       -0.000000032121 Rises=F Damp=F
 DIIS: error= 2.66D-06 at cycle   9 NSaved=   9.
 NSaved= 9 IEnMin= 9 EnMin= -209.175572849959     IErMin= 9 ErrMin= 2.66D-06
 ErrMax= 2.66D-06  0.00D+00 EMaxC= 1.00D-01 BMatC= 8.25D-10 BMatP= 3.73D-08
 IDIUse=1 WtCom= 1.00D+00 WtEn= 0.00D+00
 Coeff-Com:  0.371D-04-0.851D-05-0.128D-03-0.855D-03-0.201D-02-0.963D-02
 Coeff-Com: -0.326D-03 0.774D-01 0.935D+00
 Coeff:      0.371D-04-0.851D-05-0.128D-03-0.855D-03-0.201D-02-0.963D-02
 Coeff:     -0.326D-03 0.774D-01 0.935D+00
 Gap=     0.270 Goal=   None    Shift=    0.000
 RMSDP=5.18D-07 MaxDP=8.83D-06 DE=-3.21D-08 OVMax= 1.27D-05

 Cycle  10  Pass 1  IDiag  1:
 E= -209.175572850724     Delta-E=       -0.000000000765 Rises=F Damp=F
 DIIS: error= 2.05D-07 at cycle  10 NSaved=  10.
 NSaved=10 IEnMin=10 EnMin= -209.175572850724     IErMin=10 ErrMin= 2.05D-07
 ErrMax= 2.05D-07  0.00D+00 EMaxC= 1.00D-01 BMatC= 4.26D-12 BMatP= 8.25D-10
 IDIUse=1 WtCom= 1.00D+00 WtEn= 0.00D+00
 Coeff-Com:  0.280D-05 0.505D-05-0.157D-04-0.961D-04-0.366D-03-0.171D-02
 Coeff-Com: -0.406D-02-0.295D-02 0.147D+00 0.863D+00
 Coeff:      0.280D-05 0.505D-05-0.157D-04-0.961D-04-0.366D-03-0.171D-02
 Coeff:     -0.406D-02-0.295D-02 0.147D+00 0.863D+00
 Gap=     0.270 Goal=   None    Shift=    0.000
 RMSDP=3.78D-08 MaxDP=6.15D-07 DE=-7.65D-10 OVMax= 1.38D-06

 Cycle  11  Pass 1  IDiag  1:
 E= -209.175572850728     Delta-E=       -0.000000000004 Rises=F Damp=F
 DIIS: error= 5.98D-08 at cycle  11 NSaved=  11.
 NSaved=11 IEnMin=11 EnMin= -209.175572850728     IErMin=11 ErrMin= 5.98D-08
 ErrMax= 5.98D-08  0.00D+00 EMaxC= 1.00D-01 BMatC= 3.76D-13 BMatP= 4.26D-12
 IDIUse=1 WtCom= 1.00D+00 WtEn= 0.00D+00
 Coeff-Com: -0.373D-06 0.972D-06 0.155D-05 0.304D-05-0.147D-04-0.570D-04
 Coeff-Com: -0.697D-03-0.298D-02-0.314D-02 0.155D+00 0.852D+00
 Coeff:     -0.373D-06 0.972D-06 0.155D-05 0.304D-05-0.147D-04-0.570D-04
 Coeff:     -0.697D-03-0.298D-02-0.314D-02 0.155D+00 0.852D+00
 Gap=     0.270 Goal=   None    Shift=    0.000
 RMSDP=7.74D-09 MaxDP=9.23D-08 DE=-4.43D-12 OVMax= 1.26D-07

 Error on total polarization charges =  0.00390
 SCF Done:  E(RB3LYP) =  -209.175572851     A.U. after   11 cycles
            NFock= 11  Conv=0.77D-08     -V/T= 2.0059
 KE= 2.079474203358D+02 PE=-7.307688698702D+02 EE= 1.928842116745D+02
 Leave Link  502 at Fri Sep 22 16:28:49 2023, MaxMem=   536870912 cpu:              27.6 elap:               7.0
 (Enter /share/apps/gaussian/g16/l601.exe)
 Copying SCF densities to generalized density rwf, IOpCl= 0 IROHF=0.

 **********************************************************************

            Population analysis using the SCF density.

 **********************************************************************

 Orbital symmetries:
       Occupied  (A) (A) (A) (A) (A) (A) (A) (A) (A) (A) (A) (A)
                 (A) (A) (A) (A)
       Virtual   (A) (A) (A) (A) (A) (A) (A) (A) (A) (A) (A) (A)
                 (A) (A) (A) (A) (A) (A) (A) (A) (A) (A) (A) (A)
                 (A) (A) (A) (A) (A) (A) (A) (A) (A) (A) (A) (A)
                 (A) (A) (A) (A) (A) (A) (A) (A) (A) (A) (A) (A)
                 (A) (A) (A) (A) (A) (A) (A) (A) (A) (A) (A) (A)
                 (A) (A) (A) (A) (A)
 The electronic state is 1-A.
 Alpha  occ. eigenvalues --  -19.08587 -14.35366 -10.27809 -10.22274  -1.02713
 Alpha  occ. eigenvalues --   -0.92002  -0.71591  -0.60122  -0.54901  -0.45857
 Alpha  occ. eigenvalues --   -0.45372  -0.40788  -0.39518  -0.37872  -0.26518
 Alpha  occ. eigenvalues --   -0.25889
 Alpha virt. eigenvalues --    0.01132   0.03287   0.06719   0.08488   0.11330
 Alpha virt. eigenvalues --    0.12215   0.15989   0.22312   0.31106   0.39556
 Alpha virt. eigenvalues --    0.40792   0.44107   0.44835   0.45295   0.55808
 Alpha virt. eigenvalues --    0.59324   0.60304   0.61288   0.63458   0.68908
 Alpha virt. eigenvalues --    0.71602   0.73978   0.79619   0.80653   0.92366
 Alpha virt. eigenvalues --    0.95831   1.03547   1.12966   1.29515   1.35395
 Alpha virt. eigenvalues --    1.36065   1.50384   1.59170   1.66996   1.77194
 Alpha virt. eigenvalues --    1.80961   1.81998   1.82701   1.84798   1.85479
 Alpha virt. eigenvalues --    1.87535   1.97928   2.05854   2.08123   2.13907
 Alpha virt. eigenvalues --    2.17617   2.21531   2.29365   2.31248   2.37421
 Alpha virt. eigenvalues --    2.41083   2.45025   2.53426   2.62441   2.69492
 Alpha virt. eigenvalues --    2.77512   2.81890   2.83315   2.98590   3.04450
 Alpha virt. eigenvalues --    3.12642   3.15988   3.17449   3.22847   3.61523
          Condensed to atoms (all electrons):
               1          2          3          4          5          6
     1  C    4.323033   0.332559  -0.040881   0.414399   0.608439  -0.014910
     2  N    0.332559   6.798843   0.263816  -0.075913  -0.112191   0.358740
     3  C   -0.040881   0.263816   4.615944   0.006864   0.006857  -0.029801
     4  H    0.414399  -0.075913   0.006864   0.624825  -0.048374  -0.002310
     5  O    0.608439  -0.112191   0.006857  -0.048374   8.024429   0.004509
     6  H   -0.014910   0.358740  -0.029801  -0.002310   0.004509   0.482251
     7  H    0.009324  -0.027006   0.388235   0.000182   0.001758  -0.011447
     8  H   -0.004736  -0.036745   0.408293  -0.000001   0.003407   0.004448
     9  H   -0.004689  -0.036637   0.405899   0.000342   0.007360   0.004539
               7          8          9
     1  C    0.009324  -0.004736  -0.004689
     2  N   -0.027006  -0.036745  -0.036637
     3  C    0.388235   0.408293   0.405899
     4  H    0.000182  -0.000001   0.000342
     5  O    0.001758   0.003407   0.007360
     6  H   -0.011447   0.004448   0.004539
     7  H    0.594371  -0.024053  -0.023615
     8  H   -0.024053   0.559516  -0.026435
     9  H   -0.023615  -0.026435   0.556336
 Mulliken charges:
               1
     1  C    0.377461
     2  N   -0.465466
     3  C   -0.025225
     4  H    0.079986
     5  O   -0.496194
     6  H    0.203981
     7  H    0.092251
     8  H    0.116306
     9  H    0.116901
 Sum of Mulliken charges =  -0.00000
 Mulliken charges with hydrogens summed into heavy atoms:
               1
     1  C    0.457447
     2  N   -0.261485
     3  C    0.300233
     5  O   -0.496194
 Electronic spatial extent (au):  <R**2>=            275.9165
 Charge=             -0.0000 electrons
 Dipole moment (field-independent basis, Debye):
    X=              3.3882    Y=              3.3919    Z=             -0.0592  Tot=              4.7946
 Quadrupole moment (field-independent basis, Debye-Ang):
   XX=            -24.9889   YY=            -22.7164   ZZ=            -24.8883
   XY=             -2.9980   XZ=             -0.2467   YZ=             -0.2475
 Traceless Quadrupole moment (field-independent basis, Debye-Ang):
   XX=             -0.7910   YY=              1.4814   ZZ=             -0.6904
   XY=             -2.9980   XZ=             -0.2467   YZ=             -0.2475
 Octapole moment (field-independent basis, Debye-Ang**2):
  XXX=              6.5174  YYY=              7.1169  ZZZ=              0.1080  XYY=              3.3203
  XXY=              7.8513  XXZ=             -0.0799  XZZ=             -0.5888  YZZ=             -1.3016
  YYZ=             -0.5334  XYZ=             -0.4214
 Hexadecapole moment (field-independent basis, Debye-Ang**3):
 XXXX=           -228.3811 YYYY=            -85.9479 ZZZZ=            -30.7989 XXXY=             -1.9349
 XXXZ=             -0.8501 YYYX=              4.9929 YYYZ=             -0.4894 ZZZX=              0.2960
 ZZZY=             -0.3232 XXYY=            -50.3042 XXZZ=            -43.6487 YYZZ=            -20.7483
 XXYZ=             -0.3875 YYXZ=             -0.6490 ZZXY=             -0.2016
 N-N= 1.207616650091D+02 E-N=-7.307688683486D+02  KE= 2.079474203358D+02
 There are a total of      200122 grid points.
 ElSum from          density=       32.0000013369
 ElSum from atomic densities=       32.0000005501
 Hirshfeld populations at iteration   1 (CA, CB, DipXYZ):
               1          2          3          4          5
     1  C    2.935754   2.935754   0.023724   0.075175  -0.001003
     2  N    3.536770   3.536770   0.036711  -0.008427  -0.011783
     3  C    3.007981   3.007981  -0.009562   0.023595  -0.000240
     4  H    0.473381   0.473381  -0.096204   0.109030   0.008951
     5  O    4.177928   4.177928   0.104065   0.166842   0.002234
     6  H    0.431896   0.431896   0.098336   0.171101  -0.018700
     7  H    0.478701   0.478701   0.123797   0.071539  -0.013561
     8  H    0.478640   0.478640   0.008444  -0.072233   0.128186
     9  H    0.478949   0.478949  -0.000795  -0.090091  -0.115834
       Tot  16.000001  16.000001   0.288517   0.446531  -0.021751

 Dip from Atomic Chgs              1.044521   0.887931  -0.001552
         Total Dipole              1.333038   1.334462  -0.023303

 Hirshfeld charges, spin densities, dipoles, and CM5 charges using IRadAn=      5:
              Q-H        S-H        Dx         Dy         Dz        Q-CM5   
     1  C    0.128492   0.000000   0.023724   0.075175  -0.001003   0.185977
     2  N   -0.073540   0.000000   0.036711  -0.008427  -0.011783  -0.425200
     3  C   -0.015962   0.000000  -0.009562   0.023595  -0.000240  -0.103331
     4  H    0.053238   0.000000  -0.096204   0.109030   0.008951   0.122300
     5  O   -0.355856   0.000000   0.104065   0.166842   0.002234  -0.401308
     6  H    0.136209   0.000000   0.098336   0.171101  -0.018700   0.317615
     7  H    0.042598   0.000000   0.123797   0.071539  -0.013561   0.100442
     8  H    0.042719   0.000000   0.008444  -0.072233   0.128186   0.101692
     9  H    0.042101   0.000000  -0.000795  -0.090091  -0.115834   0.101812
       Tot  -0.000001   0.000000   0.288517   0.446531  -0.021751  -0.000001
 Hirshfeld charges with hydrogens summed into heavy atoms:
              Q-H       Q-CM5   
     1  C    0.181730   0.308277
     2  N    0.062669  -0.107585
     3  C    0.111456   0.200615
     5  O   -0.355856  -0.401308
 
 EQQ= 0.000000000000E+00 EQD= 0.000000000000E+00 EDD= 0.201587566709E-02
 EQQ+QD+DD= 0.201587566709E-02
 
 No NMR shielding tensors so no spin-rotation constants.
 Leave Link  601 at Fri Sep 22 16:28:49 2023, MaxMem=   536870912 cpu:               1.6 elap:               0.4
 (Enter /share/apps/gaussian/g16/l9999.exe)
 1\1\GINC-NODE74\SP\RB3LYP\Gen\C2H5N1O1\YANZ\22-Sep-2023\0\\#p b3lyp/ge
 n scrf=(cpcm,solvent=toluene) pop=hirshfeld empiricaldispersion=gd3bj\
 \tmpdir/M3_ref_161.gjf\\0,1\C,0,3.590969,-1.084377,-0.73573601\N,0,4.6
 76274,-0.327336,-0.57444602\C,0,4.827158,0.960475,-1.32507205\H,0,3.51
 586221,-2.06761688,-0.23227039\O,0,2.662535,-0.694935,-1.48851705\H,0,
 5.44761621,-0.49095967,0.09330604\H,0,5.78544408,1.37027121,-0.8961029
 5\H,0,4.94847767,0.74552719,-2.40633472\H,0,3.98042348,1.63715277,-1.0
 9928181\\Version=ES64L-G16RevA.03\State=1-A\HF=-209.1755729\RMSD=7.743
 e-09\Dipole=1.6529235,0.1339309,0.8990089\Quadrupole=-2.017604,1.68462
 44,0.3329796,-0.1795154,-0.4513031,-1.4836397\PG=C01 [X(C2H5N1O1)]\\@


 MOM AND DAD WENT TO ALPHA CENTAURI AND ALL
 I GOT WAS THIS DUMB T-SHIRT.
 Job cpu time:       0 days  0 hours  0 minutes 33.4 seconds.
 Elapsed time:       0 days  0 hours  0 minutes  8.6 seconds.
 File lengths (MBytes):  RWF=     13 Int=      0 D2E=      0 Chk=      2 Scr=      1
 Normal termination of Gaussian 16 at Fri Sep 22 16:28:49 2023.
