 Entering Gaussian System, Link 0=g16
 Initial command:
 /share/apps/gaussian/g16/l1.exe "/tmp/55557.mgr/Gau-211341.inp" -scrdir="/tmp/55557.mgr/"
 Entering Link 1 = /share/apps/gaussian/g16/l1.exe PID=    211346.
  
 Copyright (c) 1988,1990,1992,1993,1995,1998,2003,2009,2016,
            Gaussian, Inc.  All Rights Reserved.
  
 This is part of the Gaussian(R) 16 program.  It is based on
 the Gaussian(R) 09 system (copyright 2009, Gaussian, Inc.),
 the Gaussian(R) 03 system (copyright 2003, Gaussian, Inc.),
 the Gaussian(R) 98 system (copyright 1998, Gaussian, Inc.),
 the Gaussian(R) 94 system (copyright 1995, Gaussian, Inc.),
 the Gaussian 92(TM) system (copyright 1992, Gaussian, Inc.),
 the Gaussian 90(TM) system (copyright 1990, Gaussian, Inc.),
 the Gaussian 88(TM) system (copyright 1988, Gaussian, Inc.),
 the Gaussian 86(TM) system (copyright 1986, Carnegie Mellon
 University), and the Gaussian 82(TM) system (copyright 1983,
 Carnegie Mellon University). Gaussian is a federally registered
 trademark of Gaussian, Inc.
  
 This software contains proprietary and confidential information,
 including trade secrets, belonging to Gaussian, Inc.
  
 This software is provided under written license and may be
 used, copied, transmitted, or stored only in accord with that
 written license.
  
 The following legend is applicable only to US Government
 contracts under FAR:
  
                    RESTRICTED RIGHTS LEGEND
  
 Use, reproduction and disclosure by the US Government is
 subject to restrictions as set forth in subparagraphs (a)
 and (c) of the Commercial Computer Software - Restricted
 Rights clause in FAR 52.227-19.
  
 Gaussian, Inc.
 340 Quinnipiac St., Bldg. 40, Wallingford CT 06492
  
  
 ---------------------------------------------------------------
 Warning -- This program may not be used in any manner that
 competes with the business of Gaussian, Inc. or will provide
 assistance to any competitor of Gaussian, Inc.  The licensee
 of this program is prohibited from giving any competitor of
 Gaussian, Inc. access to this program.  By using this program,
 the user acknowledges that Gaussian, Inc. is engaged in the
 business of creating and licensing software in the field of
 computational chemistry and represents and warrants to the
 licensee that it is not a competitor of Gaussian, Inc. and that
 it will not use this program in any manner prohibited above.
 ---------------------------------------------------------------
  

 Cite this work as:
 Gaussian 16, Revision A.03,
 M. J. Frisch, G. W. Trucks, H. B. Schlegel, G. E. Scuseria, 
 M. A. Robb, J. R. Cheeseman, G. Scalmani, V. Barone, 
 G. A. Petersson, H. Nakatsuji, X. Li, M. Caricato, A. V. Marenich, 
 J. Bloino, B. G. Janesko, R. Gomperts, B. Mennucci, H. P. Hratchian, 
 J. V. Ortiz, A. F. Izmaylov, J. L. Sonnenberg, D. Williams-Young, 
 F. Ding, F. Lipparini, F. Egidi, J. Goings, B. Peng, A. Petrone, 
 T. Henderson, D. Ranasinghe, V. G. Zakrzewski, J. Gao, N. Rega, 
 G. Zheng, W. Liang, M. Hada, M. Ehara, K. Toyota, R. Fukuda, 
 J. Hasegawa, M. Ishida, T. Nakajima, Y. Honda, O. Kitao, H. Nakai, 
 T. Vreven, K. Throssell, J. A. Montgomery, Jr., J. E. Peralta, 
 F. Ogliaro, M. J. Bearpark, J. J. Heyd, E. N. Brothers, K. N. Kudin, 
 V. N. Staroverov, T. A. Keith, R. Kobayashi, J. Normand, 
 K. Raghavachari, A. P. Rendell, J. C. Burant, S. S. Iyengar, 
 J. Tomasi, M. Cossi, J. M. Millam, M. Klene, C. Adamo, R. Cammi, 
 J. W. Ochterski, R. L. Martin, K. Morokuma, O. Farkas, 
 J. B. Foresman, and D. J. Fox, Gaussian, Inc., Wallingford CT, 2016.
 
 ******************************************
 Gaussian 16:  ES64L-G16RevA.03 25-Dec-2016
                22-Sep-2023 
 ******************************************
 %nprocshared=4
 Will use up to    4 processors via shared memory.
 %mem=4GB
 ----------------------------------------------------------------------
 #p b3lyp/gen scrf=(cpcm,solvent=toluene) pop=hirshfeld empiricaldisper
 sion=gd3bj
 ----------------------------------------------------------------------
 1/38=1,172=1/1;
 2/12=2,17=6,18=5,40=1/2;
 3/5=7,11=2,25=1,30=1,70=2101,72=13,74=-5,124=41/1,2,3;
 4//1;
 5/5=2,38=5,53=13/2;
 6/7=2,8=2,9=2,10=2,28=1,79=1/1;
 99/5=1,9=1/99;
 Leave Link    1 at Fri Sep 22 16:30:27 2023, MaxMem=   536870912 cpu:               0.1 elap:               0.0
 (Enter /share/apps/gaussian/g16/l101.exe)
 ---------------------
 tmpdir/M3_ref_253.gjf
 ---------------------
 Symbolic Z-matrix:
 Charge = -1 Multiplicity = 1
 Cl                   -0.66313  -3.73548  -0.56904 
 H                     1.43229  -3.02281   0.01072 
 H                     1.94988  -2.71117   0.38749 
 
 ITRead=  0  0  0
 MicOpt= -1 -1 -1
 NAtoms=      3 NQM=        3 NQMF=       0 NMMI=      0 NMMIF=      0
                NMic=       0 NMicF=      0.
                    Isotopes and Nuclear Properties:
 (Nuclear quadrupole moments (NQMom) in fm**2, nuclear magnetic moments (NMagM)
  in nuclear magnetons)

  Atom         1           2           3
 IAtWgt=          35           1           1
 AtmWgt=  34.9688527   1.0078250   1.0078250
 NucSpn=           3           1           1
 AtZEff=  -0.0000000  -0.0000000  -0.0000000
 NQMom=   -8.1650000   0.0000000   0.0000000
 NMagM=    0.8218740   2.7928460   2.7928460
 AtZNuc=  17.0000000   1.0000000   1.0000000
 Leave Link  101 at Fri Sep 22 16:30:27 2023, MaxMem=   536870912 cpu:               0.3 elap:               0.1
 (Enter /share/apps/gaussian/g16/l202.exe)
                          Input orientation:                          
 ---------------------------------------------------------------------
 Center     Atomic      Atomic             Coordinates (Angstroms)
 Number     Number       Type             X           Y           Z
 ---------------------------------------------------------------------
      1         17           0       -0.663125   -3.735475   -0.569037
      2          1           0        1.432288   -3.022811    0.010717
      3          1           0        1.949878   -2.711169    0.387486
 ---------------------------------------------------------------------
                    Distance matrix (angstroms):
                    1          2          3
     1  Cl   0.000000
     2  H    2.287960   0.000000
     3  H    2.965118   0.712021   0.000000
 Stoichiometry    ClH2(1-)
 Framework group  CS[SG(ClH2)]
 Deg. of freedom     3
 Full point group                 CS      NOp   2
 Largest Abelian subgroup         CS      NOp   2
 Largest concise Abelian subgroup C1      NOp   1
                         Standard orientation:                         
 ---------------------------------------------------------------------
 Center     Atomic      Atomic             Coordinates (Angstroms)
 Number     Number       Type             X           Y           Z
 ---------------------------------------------------------------------
      1         17           0       -0.000000    0.276235   -0.000000
      2          1           0        0.109117   -2.009121    0.000000
      3          1           0       -0.109117   -2.686874    0.000000
 ---------------------------------------------------------------------
 Rotational constants (GHZ):       21430.1579416          37.8381132          37.7714222
 Leave Link  202 at Fri Sep 22 16:30:27 2023, MaxMem=   536870912 cpu:               0.0 elap:               0.0
 (Enter /share/apps/gaussian/g16/l301.exe)
 General basis read from cards:  (5D, 7F)
 Centers:       2      3
 S 3 1.00
     Exponent=  1.2251800000D+01 Coefficients=  2.3337100000D-02
     Exponent=  1.8687100000D+00 Coefficients=  1.5915000000D-01
     Exponent=  4.1820800000D-01 Coefficients=  5.0000000000D-01
 S 1 1.00
     Exponent=  1.0610000000D-01 Coefficients=  1.0000000000D+00
 P 1 1.00
     Exponent=  1.0000000000D+00 Coefficients=  1.0000000000D+00
 ****
 Centers:       1
 S 7 1.00
     Exponent=  5.6129500000D+04 Coefficients=  7.3904000000D-04
     Exponent=  8.4203200000D+03 Coefficients=  5.7082000000D-03
     Exponent=  1.9164600000D+03 Coefficients=  2.9214100000D-02
     Exponent=  5.4209900000D+02 Coefficients=  1.1241100000D-01
     Exponent=  1.7574000000D+02 Coefficients=  3.1399900000D-01
     Exponent=  6.2719100000D+01 Coefficients=  5.0000000000D-01
     Exponent=  2.3412300000D+01 Coefficients=  3.0207700000D-01
 S 3 1.00
     Exponent=  5.2206700000D+01 Coefficients= -8.9749600000D-02
     Exponent=  5.6602200000D+00 Coefficients=  5.7300700000D-01
     Exponent=  2.2423000000D+00 Coefficients=  5.0000000000D-01
 S 1 1.00
     Exponent=  4.5648800000D-01 Coefficients=  1.0000000000D+00
 S 1 1.00
     Exponent=  1.5969300000D-01 Coefficients=  1.0000000000D+00
 P 6 1.00
     Exponent=  5.3333300000D+02 Coefficients=  3.7969500000D-03
     Exponent=  1.2541500000D+02 Coefficients=  3.0091400000D-02
     Exponent=  3.9939400000D+01 Coefficients=  1.2973300000D-01
     Exponent=  1.4633400000D+01 Coefficients=  3.4151700000D-01
     Exponent=  5.6483700000D+00 Coefficients=  5.0000000000D-01
     Exponent=  2.1536000000D+00 Coefficients=  2.8933300000D-01
 P 2 1.00
     Exponent=  1.0881000000D+00 Coefficients=  2.5241700000D-01
     Exponent=  3.8716800000D-01 Coefficients=  5.0000000000D-01
 P 1 1.00
     Exponent=  1.2392900000D-01 Coefficients=  1.0000000000D+00
 D 1 1.00
     Exponent=  6.0000000000D-01 Coefficients=  1.0000000000D+00
 ****
 Ernie: Thresh=  0.10000D-02 Tol=  0.10000D-05 Strict=F.
 There are    22 symmetry adapted cartesian basis functions of A'  symmetry.
 There are     7 symmetry adapted cartesian basis functions of A"  symmetry.
 There are    21 symmetry adapted basis functions of A'  symmetry.
 There are     7 symmetry adapted basis functions of A"  symmetry.
    28 basis functions,    59 primitive gaussians,    29 cartesian basis functions
    10 alpha electrons       10 beta electrons
       nuclear repulsion energy         7.7090447399 Hartrees.
 IExCor=  402 DFT=T Ex+Corr=B3LYP ExCW=0 ScaHFX=  0.200000
 ScaDFX=  0.800000  0.720000  1.000000  0.810000 ScalE2=  1.000000  1.000000
 IRadAn=      5 IRanWt=     -1 IRanGd=            0 ICorTp=0 IEmpDi=141
 NAtoms=    3 NActive=    3 NUniq=    3 SFac= 1.00D+00 NAtFMM=   60 NAOKFM=F Big=F
 Integral buffers will be    131072 words long.
 Raffenetti 2 integral format.
 Two-electron integral symmetry is turned on.
 R6Disp:  Grimme-D3(BJ) Dispersion energy=       -0.0010669247 Hartrees.
 Nuclear repulsion after empirical dispersion term =        7.7079778152 Hartrees.
 ------------------------------------------------------------------------------
 Polarizable Continuum Model (PCM)
 =================================
 Model                : C-PCM.
 Atomic radii         : UFF (Universal Force Field).
 Polarization charges : Total charges.
 Charge compensation  : None.
 Solution method      : On-the-fly selection.
 Cavity type          : Scaled VdW (van der Waals Surface) (Alpha=1.100).
 Cavity algorithm     : GePol (No added spheres)
                        Default sphere list used, NSphG=    3.
                        Lebedev-Laikov grids with approx.  5.0 points / Ang**2.
                        Smoothing algorithm: York/Karplus (Gamma=1.0000).
                        Polarization charges: spherical gaussians, with
                                              point-specific exponents (IZeta= 3).
                        Self-potential: point-specific (ISelfS= 7).
                        Self-field    : sphere-specific E.n sum rule (ISelfD= 2).
 Solvent              : Toluene, Eps=   2.374100 Eps(inf)=   2.238315
 ------------------------------------------------------------------------------
 Spheres list:
 ISph  on   Nord     Re0    Alpha      Xe            Ye            Ze
    1  Cl      1    1.9735  1.100     -0.000000      0.276235     -0.000000
    2   H      2    1.4430  1.100      0.109117     -2.009121      0.000000
    3   H      3    1.4430  1.100     -0.109117     -2.686874      0.000000
 ------------------------------------------------------------------------------
 GePol: Number of generator spheres                  =       3
 GePol: Total number of spheres                      =       3
 GePol: Number of exposed spheres                    =       3 (100.00%)
 GePol: Number of points                             =     471
 GePol: Average weight of points                     =       0.17
 GePol: Minimum weight of points                     =   0.33D-05
 GePol: Maximum weight of points                     =    0.21616
 GePol: Number of points with low weight             =      11
 GePol: Fraction of low-weight points (<1% of avg)   =       2.34%
 GePol: Cavity surface area                          =     81.106 Ang**2
 GePol: Cavity volume                                =     59.781 Ang**3
 Leave Link  301 at Fri Sep 22 16:30:27 2023, MaxMem=   536870912 cpu:               0.4 elap:               0.1
 (Enter /share/apps/gaussian/g16/l302.exe)
 NPDir=0 NMtPBC=     1 NCelOv=     1 NCel=       1 NClECP=     1 NCelD=      1
         NCelK=      1 NCelE2=     1 NClLst=     1 CellRange=     0.0.
 One-electron integrals computed using PRISM.
 One-electron integral symmetry used in STVInt
 NBasis=    28 RedAO= T EigKep=  2.92D-02  NBF=    21     7
 NBsUse=    28 1.00D-06 EigRej= -1.00D+00 NBFU=    21     7
 Precomputing XC quadrature grid using
 IXCGrd= 4 IRadAn=           5 IRanWt=          -1 IRanGd=           0 AccXCQ= 0.00D+00.
 Generated NRdTot=       0 NPtTot=           0 NUsed=           0 NTot=          32
 NSgBfM=    29    29    29    29    29 MxSgAt=     3 MxSgA2=     3.
 Leave Link  302 at Fri Sep 22 16:30:27 2023, MaxMem=   536870912 cpu:               0.4 elap:               0.1
 (Enter /share/apps/gaussian/g16/l303.exe)
 DipDrv:  MaxL=1.
 Leave Link  303 at Fri Sep 22 16:30:27 2023, MaxMem=   536870912 cpu:               0.1 elap:               0.0
 (Enter /share/apps/gaussian/g16/l401.exe)
 ExpMin= 1.06D-01 ExpMax= 5.61D+04 ExpMxC= 1.92D+03 IAcc=3 IRadAn=         5 AccDes= 0.00D+00
 Harris functional with IExCor=  402 and IRadAn=       5 diagonalized for initial guess.
 HarFok:  IExCor=  402 AccDes= 0.00D+00 IRadAn=         5 IDoV= 1 UseB2=F ITyADJ=14
 ICtDFT=  3500011 ScaDFX=  1.000000  1.000000  1.000000  1.000000
 FoFCou: FMM=F IPFlag=           0 FMFlag=      100000 FMFlg1=           0
         NFxFlg=           0 DoJE=T BraDBF=F KetDBF=T FulRan=T
         wScrn=  0.000000 ICntrl=       500 IOpCl=  0 I1Cent=   200000004 NGrid=           0
         NMat0=    1 NMatS0=      1 NMatT0=    0 NMatD0=    1 NMtDS0=    0 NMtDT0=    0
 Petite list used in FoFCou.
 Harris En= -461.524213769763    
 JPrj=0 DoOrth=F DoCkMO=F.
 Initial guess orbital symmetries:
       Occupied  (A') (A') (A') (A') (A") (A') (A') (A') (A") (A')
       Virtual   (A') (A') (A') (A") (A') (A') (A') (A") (A') (A")
                 (A') (A') (A") (A') (A') (A") (A') (A')
 The electronic state of the initial guess is 1-A'.
 Leave Link  401 at Fri Sep 22 16:30:27 2023, MaxMem=   536870912 cpu:               0.5 elap:               0.1
 (Enter /share/apps/gaussian/g16/l502.exe)
 Keep R1 ints in memory in symmetry-blocked form, NReq=3533393.
 FoFCou: FMM=F IPFlag=           0 FMFlag=           0 FMFlg1=           0
         NFxFlg=           0 DoJE=F BraDBF=F KetDBF=F FulRan=T
         wScrn=  0.000000 ICntrl=       600 IOpCl=  0 I1Cent=           0 NGrid=           0
         NMat0=    1 NMatS0=    406 NMatT0=    0 NMatD0=    1 NMtDS0=    0 NMtDT0=    0
 Petite list used in FoFCou.
 Closed shell SCF:
 Using DIIS extrapolation, IDIIS=  1040.
 NGot=   536870912 LenX=   536822794 LenY=   536821512
 Requested convergence on RMS density matrix=1.00D-08 within 128 cycles.
 Requested convergence on MAX density matrix=1.00D-06.
 Requested convergence on             energy=1.00D-06.
 No special actions if energy rises.

 Cycle   1  Pass 1  IDiag  1:
 Inv3:  Mode=1 IEnd=      665523.
 Iteration    1 A*A^-1 deviation from unit magnitude is 3.11D-15 for    306.
 Iteration    1 A*A^-1 deviation from orthogonality  is 1.03D-15 for    268    224.
 Iteration    1 A^-1*A deviation from unit magnitude is 2.89D-15 for    306.
 Iteration    1 A^-1*A deviation from orthogonality  is 1.04D-15 for    329     72.
 E= -461.476722045271    
 DIIS: error= 3.01D-02 at cycle   1 NSaved=   1.
 NSaved= 1 IEnMin= 1 EnMin= -461.476722045271     IErMin= 1 ErrMin= 3.01D-02
 ErrMax= 3.01D-02  0.00D+00 EMaxC= 1.00D-01 BMatC= 2.06D-02 BMatP= 2.06D-02
 IDIUse=3 WtCom= 6.99D-01 WtEn= 3.01D-01
 Coeff-Com:  0.100D+01
 Coeff-En:   0.100D+01
 Coeff:      0.100D+01
 Gap=     0.272 Goal=   None    Shift=    0.000
 GapD=    0.272 DampG=1.000 DampE=0.500 DampFc=0.5000 IDamp=-1.
 Damping current iteration by 5.00D-01
 RMSDP=1.66D-02 MaxDP=1.69D-01              OVMax= 1.07D-01

 Cycle   2  Pass 1  IDiag  1:
 E= -461.492412397271     Delta-E=       -0.015690352000 Rises=F Damp=T
 DIIS: error= 8.14D-03 at cycle   2 NSaved=   2.
 NSaved= 2 IEnMin= 2 EnMin= -461.492412397271     IErMin= 2 ErrMin= 8.14D-03
 ErrMax= 8.14D-03  0.00D+00 EMaxC= 1.00D-01 BMatC= 1.60D-03 BMatP= 2.06D-02
 IDIUse=3 WtCom= 9.19D-01 WtEn= 8.14D-02
 Coeff-Com: -0.227D-01 0.102D+01
 Coeff-En:   0.000D+00 0.100D+01
 Coeff:     -0.208D-01 0.102D+01
 Gap=     0.321 Goal=   None    Shift=    0.000
 RMSDP=2.19D-03 MaxDP=1.89D-02 DE=-1.57D-02 OVMax= 5.73D-02

 Cycle   3  Pass 1  IDiag  1:
 E= -461.508371832605     Delta-E=       -0.015959435334 Rises=F Damp=F
 DIIS: error= 1.93D-03 at cycle   3 NSaved=   3.
 NSaved= 3 IEnMin= 3 EnMin= -461.508371832605     IErMin= 3 ErrMin= 1.93D-03
 ErrMax= 1.93D-03  0.00D+00 EMaxC= 1.00D-01 BMatC= 1.15D-04 BMatP= 1.60D-03
 IDIUse=3 WtCom= 9.81D-01 WtEn= 1.93D-02
 Coeff-Com: -0.428D-01 0.202D+00 0.841D+00
 Coeff-En:   0.000D+00 0.000D+00 0.100D+01
 Coeff:     -0.420D-01 0.198D+00 0.844D+00
 Gap=     0.316 Goal=   None    Shift=    0.000
 RMSDP=7.01D-04 MaxDP=5.88D-03 DE=-1.60D-02 OVMax= 6.02D-03

 Cycle   4  Pass 1  IDiag  1:
 E= -461.508534289055     Delta-E=       -0.000162456451 Rises=F Damp=F
 DIIS: error= 1.79D-04 at cycle   4 NSaved=   4.
 NSaved= 4 IEnMin= 4 EnMin= -461.508534289055     IErMin= 4 ErrMin= 1.79D-04
 ErrMax= 1.79D-04  0.00D+00 EMaxC= 1.00D-01 BMatC= 1.59D-06 BMatP= 1.15D-04
 IDIUse=3 WtCom= 9.98D-01 WtEn= 1.79D-03
 Coeff-Com: -0.168D-02 0.944D-02 0.124D+00 0.868D+00
 Coeff-En:   0.000D+00 0.000D+00 0.000D+00 0.100D+01
 Coeff:     -0.168D-02 0.942D-02 0.124D+00 0.868D+00
 Gap=     0.316 Goal=   None    Shift=    0.000
 RMSDP=7.68D-05 MaxDP=5.93D-04 DE=-1.62D-04 OVMax= 7.44D-04

 Cycle   5  Pass 1  IDiag  1:
 E= -461.508536665180     Delta-E=       -0.000002376125 Rises=F Damp=F
 DIIS: error= 5.45D-05 at cycle   5 NSaved=   5.
 NSaved= 5 IEnMin= 5 EnMin= -461.508536665180     IErMin= 5 ErrMin= 5.45D-05
 ErrMax= 5.45D-05  0.00D+00 EMaxC= 1.00D-01 BMatC= 5.42D-08 BMatP= 1.59D-06
 IDIUse=1 WtCom= 1.00D+00 WtEn= 0.00D+00
 Coeff-Com: -0.794D-04 0.110D-02 0.332D-01 0.296D+00 0.669D+00
 Coeff:     -0.794D-04 0.110D-02 0.332D-01 0.296D+00 0.669D+00
 Gap=     0.316 Goal=   None    Shift=    0.000
 RMSDP=8.20D-06 MaxDP=5.04D-05 DE=-2.38D-06 OVMax= 6.80D-05

 Cycle   6  Pass 1  IDiag  1:
 E= -461.508536726623     Delta-E=       -0.000000061443 Rises=F Damp=F
 DIIS: error= 2.79D-06 at cycle   6 NSaved=   6.
 NSaved= 6 IEnMin= 6 EnMin= -461.508536726623     IErMin= 6 ErrMin= 2.79D-06
 ErrMax= 2.79D-06  0.00D+00 EMaxC= 1.00D-01 BMatC= 2.10D-10 BMatP= 5.42D-08
 IDIUse=1 WtCom= 1.00D+00 WtEn= 0.00D+00
 Coeff-Com:  0.870D-04-0.319D-03-0.239D-02-0.543D-02 0.283D-01 0.980D+00
 Coeff:      0.870D-04-0.319D-03-0.239D-02-0.543D-02 0.283D-01 0.980D+00
 Gap=     0.316 Goal=   None    Shift=    0.000
 RMSDP=1.08D-06 MaxDP=7.77D-06 DE=-6.14D-08 OVMax= 5.08D-06

 Cycle   7  Pass 1  IDiag  1:
 E= -461.508536726893     Delta-E=       -0.000000000271 Rises=F Damp=F
 DIIS: error= 3.65D-07 at cycle   7 NSaved=   7.
 NSaved= 7 IEnMin= 7 EnMin= -461.508536726893     IErMin= 7 ErrMin= 3.65D-07
 ErrMax= 3.65D-07  0.00D+00 EMaxC= 1.00D-01 BMatC= 2.65D-12 BMatP= 2.10D-10
 IDIUse=1 WtCom= 1.00D+00 WtEn= 0.00D+00
 Coeff-Com:  0.168D-04-0.593D-04-0.609D-03-0.288D-02-0.909D-03 0.153D+00
 Coeff-Com:  0.851D+00
 Coeff:      0.168D-04-0.593D-04-0.609D-03-0.288D-02-0.909D-03 0.153D+00
 Coeff:      0.851D+00
 Gap=     0.316 Goal=   None    Shift=    0.000
 RMSDP=1.39D-07 MaxDP=1.18D-06 DE=-2.71D-10 OVMax= 1.24D-06

 Cycle   8  Pass 1  IDiag  1:
 E= -461.508536726896     Delta-E=       -0.000000000003 Rises=F Damp=F
 DIIS: error= 2.82D-08 at cycle   8 NSaved=   8.
 NSaved= 8 IEnMin= 8 EnMin= -461.508536726896     IErMin= 8 ErrMin= 2.82D-08
 ErrMax= 2.82D-08  0.00D+00 EMaxC= 1.00D-01 BMatC= 3.25D-14 BMatP= 2.65D-12
 IDIUse=1 WtCom= 1.00D+00 WtEn= 0.00D+00
 Coeff-Com:  0.355D-06 0.711D-06 0.993D-05-0.311D-04-0.468D-03-0.676D-02
 Coeff-Com:  0.275D-01 0.980D+00
 Coeff:      0.355D-06 0.711D-06 0.993D-05-0.311D-04-0.468D-03-0.676D-02
 Coeff:      0.275D-01 0.980D+00
 Gap=     0.316 Goal=   None    Shift=    0.000
 RMSDP=1.58D-08 MaxDP=1.10D-07 DE=-3.18D-12 OVMax= 6.95D-08

 Cycle   9  Pass 1  IDiag  1:
 E= -461.508536726897     Delta-E=       -0.000000000000 Rises=F Damp=F
 DIIS: error= 1.04D-08 at cycle   9 NSaved=   9.
 NSaved= 9 IEnMin= 9 EnMin= -461.508536726897     IErMin= 9 ErrMin= 1.04D-08
 ErrMax= 1.04D-08  0.00D+00 EMaxC= 1.00D-01 BMatC= 1.88D-15 BMatP= 3.25D-14
 IDIUse=1 WtCom= 1.00D+00 WtEn= 0.00D+00
 Coeff-Com: -0.246D-06 0.153D-05 0.164D-04 0.482D-04-0.155D-03-0.574D-02
 Coeff-Com: -0.820D-02 0.330D+00 0.684D+00
 Coeff:     -0.246D-06 0.153D-05 0.164D-04 0.482D-04-0.155D-03-0.574D-02
 Coeff:     -0.820D-02 0.330D+00 0.684D+00
 Gap=     0.316 Goal=   None    Shift=    0.000
 RMSDP=1.83D-09 MaxDP=1.05D-08 DE=-1.71D-13 OVMax= 1.30D-08

 Error on total polarization charges =  0.01172
 SCF Done:  E(RB3LYP) =  -461.508536727     A.U. after    9 cycles
            NFock=  9  Conv=0.18D-08     -V/T= 2.0012
 KE= 4.609439547296D+02 PE=-1.119257910822D+03 EE= 1.890974415502D+02
 Leave Link  502 at Fri Sep 22 16:30:28 2023, MaxMem=   536870912 cpu:               3.6 elap:               0.9
 (Enter /share/apps/gaussian/g16/l601.exe)
 Copying SCF densities to generalized density rwf, IOpCl= 0 IROHF=0.

 **********************************************************************

            Population analysis using the SCF density.

 **********************************************************************

 Orbital symmetries:
       Occupied  (A') (A') (A') (A") (A') (A') (A') (A') (A") (A')
       Virtual   (A') (A') (A") (A') (A') (A') (A') (A") (A') (A")
                 (A') (A') (A") (A') (A') (A") (A') (A')
 The electronic state is 1-A'.
 Alpha  occ. eigenvalues -- -101.30690  -9.24163  -7.00430  -7.00420  -7.00411
 Alpha  occ. eigenvalues --   -0.59260  -0.34478  -0.14424  -0.14410  -0.13972
 Alpha virt. eigenvalues --    0.17658   0.38330   0.50485   0.50571   0.52162
 Alpha virt. eigenvalues --    0.70960   0.85456   0.92283   0.92436   0.92449
 Alpha virt. eigenvalues --    0.92511   0.96959   1.60069   1.61576   2.28777
 Alpha virt. eigenvalues --    2.52524   2.53515   4.20142
          Condensed to atoms (all electrons):
               1          2          3
     1  Cl  17.979877   0.037109  -0.064688
     2  H    0.037109   0.489864   0.399537
     3  H   -0.064688   0.399537   0.786343
 Mulliken charges:
               1
     1  Cl  -0.952298
     2  H    0.073490
     3  H   -0.121192
 Sum of Mulliken charges =  -1.00000
 Mulliken charges with hydrogens summed into heavy atoms:
               1
     1  Cl  -1.000000
 Electronic spatial extent (au):  <R**2>=             87.5040
 Charge=             -1.0000 electrons
 Dipole moment (field-independent basis, Debye):
    X=              0.0597    Y=             -0.6099    Z=              0.0000  Tot=              0.6128
 Quadrupole moment (field-independent basis, Debye-Ang):
   XX=            -18.1507   YY=            -20.9456   ZZ=            -18.1903
   XY=             -0.0956   XZ=             -0.0000   YZ=             -0.0000
 Traceless Quadrupole moment (field-independent basis, Debye-Ang):
   XX=              0.9448   YY=             -1.8501   ZZ=              0.9053
   XY=             -0.0956   XZ=             -0.0000   YZ=             -0.0000
 Octapole moment (field-independent basis, Debye-Ang**2):
  XXX=              0.0516  YYY=              8.4145  ZZZ=             -0.0000  XYY=             -0.0531
  XXY=              0.5018  XXZ=             -0.0000  XZZ=              0.0169  YZZ=              0.5802
  YYZ=             -0.0000  XYZ=             -0.0000
 Hexadecapole moment (field-independent basis, Debye-Ang**3):
 XXXX=            -23.9267 YYYY=           -121.7814 ZZZZ=            -23.8119 XXXY=             -0.4265
 XXXZ=             -0.0000 YYYX=              0.2080 YYYZ=              0.0000 ZZZX=             -0.0000
 ZZZY=              0.0000 XXYY=            -21.4830 XXZZ=             -7.9565 YYZZ=            -21.6659
 XXYZ=              0.0000 YYXZ=             -0.0000 ZZXY=             -0.1418
 N-N= 7.707977815169D+00 E-N=-1.119257910883D+03  KE= 4.609439547296D+02
 Symmetry A'   KE= 4.154260987469D+02
 Symmetry A"   KE= 4.551785598271D+01
 There are a total of       65408 grid points.
 ElSum from          density=       19.9999998177
 ElSum from atomic densities=       18.9999998395

 Hirshfeld populations at iteration   1 (CX, CA, CB, DipXYZ):
               1          2          3          4          5          6
     1  Cl   0.000000   8.937743   8.937743   0.002323  -0.292619  -0.000000
     2  H    0.000000   0.525294   0.525294   0.043218   0.040665   0.000000
     3  H    0.000000   0.536962   0.536962  -0.026855  -0.098402   0.000000
       Tot   0.000000  10.000000  10.000000   0.018686  -0.350357   0.000000

 Dip from Atomic Chgs              0.004812   0.110406  -0.000000
         Total Dipole              0.023498  -0.239951   0.000000

 Hirshfeld charges, spin densities, dipoles, and CM5 charges using IRadAn=      5:
              Q-H        S-H        Dx         Dy         Dz        Q-CM5   
     1  Cl  -0.875487   0.000000   0.002323  -0.292619  -0.000000  -0.880900
     2  H   -0.050589   0.000000   0.043218   0.040665   0.000000  -0.046029
     3  H   -0.073924   0.000000  -0.026855  -0.098402   0.000000  -0.073070
       Tot  -1.000000   0.000000   0.018686  -0.350357   0.000000  -1.000000
 Hirshfeld charges with hydrogens summed into heavy atoms:
              Q-H       Q-CM5   
     1  Cl  -1.000000  -1.000000
 
 EQQ= 0.000000000000E+00 EQD= 0.000000000000E+00 EDD=-0.210176895535E-02
 EQQ+QD+DD=-0.210176895535E-02
 
 No NMR shielding tensors so no spin-rotation constants.
 Leave Link  601 at Fri Sep 22 16:30:28 2023, MaxMem=   536870912 cpu:               0.5 elap:               0.1
 (Enter /share/apps/gaussian/g16/l9999.exe)
 1\1\GINC-NODE74\SP\RB3LYP\Gen\Cl1H2(1-)\YANZ\22-Sep-2023\0\\#p b3lyp/g
 en scrf=(cpcm,solvent=toluene) pop=hirshfeld empiricaldispersion=gd3bj
 \\tmpdir/M3_ref_253.gjf\\-1,1\Cl,0,-0.663125,-3.735475,-0.56903702\H,0
 ,1.432288,-3.022811,0.010717\H,0,1.94987767,-2.71116868,0.38748559\\Ve
 rsion=ES64L-G16RevA.03\State=1-A'\HF=-461.5085367\RMSD=1.827e-09\Dipol
 e=0.2249968,0.0700071,0.051029\Quadrupole=-0.9177093,0.4345504,0.48315
 89,-0.6288484,-0.5913896,-0.2163791\PG=CS [SG(Cl1H2)]\\@


 THE ATTENTION SPAN OF A COMPUTER IS AS LONG
 AS ITS EXTENSION CORD.
 Job cpu time:       0 days  0 hours  0 minutes  6.2 seconds.
 Elapsed time:       0 days  0 hours  0 minutes  1.7 seconds.
 File lengths (MBytes):  RWF=      6 Int=      0 D2E=      0 Chk=      1 Scr=      1
 Normal termination of Gaussian 16 at Fri Sep 22 16:30:28 2023.
