 Entering Gaussian System, Link 0=g16
 Initial command:
 /share/apps/gaussian/g16/l1.exe "/tmp/55557.mgr/Gau-205160.inp" -scrdir="/tmp/55557.mgr/"
 Entering Link 1 = /share/apps/gaussian/g16/l1.exe PID=    205161.
  
 Copyright (c) 1988,1990,1992,1993,1995,1998,2003,2009,2016,
            Gaussian, Inc.  All Rights Reserved.
  
 This is part of the Gaussian(R) 16 program.  It is based on
 the Gaussian(R) 09 system (copyright 2009, Gaussian, Inc.),
 the Gaussian(R) 03 system (copyright 2003, Gaussian, Inc.),
 the Gaussian(R) 98 system (copyright 1998, Gaussian, Inc.),
 the Gaussian(R) 94 system (copyright 1995, Gaussian, Inc.),
 the Gaussian 92(TM) system (copyright 1992, Gaussian, Inc.),
 the Gaussian 90(TM) system (copyright 1990, Gaussian, Inc.),
 the Gaussian 88(TM) system (copyright 1988, Gaussian, Inc.),
 the Gaussian 86(TM) system (copyright 1986, Carnegie Mellon
 University), and the Gaussian 82(TM) system (copyright 1983,
 Carnegie Mellon University). Gaussian is a federally registered
 trademark of Gaussian, Inc.
  
 This software contains proprietary and confidential information,
 including trade secrets, belonging to Gaussian, Inc.
  
 This software is provided under written license and may be
 used, copied, transmitted, or stored only in accord with that
 written license.
  
 The following legend is applicable only to US Government
 contracts under FAR:
  
                    RESTRICTED RIGHTS LEGEND
  
 Use, reproduction and disclosure by the US Government is
 subject to restrictions as set forth in subparagraphs (a)
 and (c) of the Commercial Computer Software - Restricted
 Rights clause in FAR 52.227-19.
  
 Gaussian, Inc.
 340 Quinnipiac St., Bldg. 40, Wallingford CT 06492
  
  
 ---------------------------------------------------------------
 Warning -- This program may not be used in any manner that
 competes with the business of Gaussian, Inc. or will provide
 assistance to any competitor of Gaussian, Inc.  The licensee
 of this program is prohibited from giving any competitor of
 Gaussian, Inc. access to this program.  By using this program,
 the user acknowledges that Gaussian, Inc. is engaged in the
 business of creating and licensing software in the field of
 computational chemistry and represents and warrants to the
 licensee that it is not a competitor of Gaussian, Inc. and that
 it will not use this program in any manner prohibited above.
 ---------------------------------------------------------------
  

 Cite this work as:
 Gaussian 16, Revision A.03,
 M. J. Frisch, G. W. Trucks, H. B. Schlegel, G. E. Scuseria, 
 M. A. Robb, J. R. Cheeseman, G. Scalmani, V. Barone, 
 G. A. Petersson, H. Nakatsuji, X. Li, M. Caricato, A. V. Marenich, 
 J. Bloino, B. G. Janesko, R. Gomperts, B. Mennucci, H. P. Hratchian, 
 J. V. Ortiz, A. F. Izmaylov, J. L. Sonnenberg, D. Williams-Young, 
 F. Ding, F. Lipparini, F. Egidi, J. Goings, B. Peng, A. Petrone, 
 T. Henderson, D. Ranasinghe, V. G. Zakrzewski, J. Gao, N. Rega, 
 G. Zheng, W. Liang, M. Hada, M. Ehara, K. Toyota, R. Fukuda, 
 J. Hasegawa, M. Ishida, T. Nakajima, Y. Honda, O. Kitao, H. Nakai, 
 T. Vreven, K. Throssell, J. A. Montgomery, Jr., J. E. Peralta, 
 F. Ogliaro, M. J. Bearpark, J. J. Heyd, E. N. Brothers, K. N. Kudin, 
 V. N. Staroverov, T. A. Keith, R. Kobayashi, J. Normand, 
 K. Raghavachari, A. P. Rendell, J. C. Burant, S. S. Iyengar, 
 J. Tomasi, M. Cossi, J. M. Millam, M. Klene, C. Adamo, R. Cammi, 
 J. W. Ochterski, R. L. Martin, K. Morokuma, O. Farkas, 
 J. B. Foresman, and D. J. Fox, Gaussian, Inc., Wallingford CT, 2016.
 
 ******************************************
 Gaussian 16:  ES64L-G16RevA.03 25-Dec-2016
                22-Sep-2023 
 ******************************************
 %nprocshared=4
 Will use up to    4 processors via shared memory.
 %mem=4GB
 ----------------------------------------------------------------------
 #p b3lyp/gen scrf=(cpcm,solvent=toluene) pop=hirshfeld empiricaldisper
 sion=gd3bj
 ----------------------------------------------------------------------
 1/38=1,172=1/1;
 2/12=2,17=6,18=5,40=1/2;
 3/5=7,11=2,25=1,30=1,70=2101,72=13,74=-5,124=41/1,2,3;
 4//1;
 5/5=2,38=5,53=13/2;
 6/7=2,8=2,9=2,10=2,28=1,79=1/1;
 99/5=1,9=1/99;
 Leave Link    1 at Fri Sep 22 16:27:01 2023, MaxMem=   536870912 cpu:               0.2 elap:               0.1
 (Enter /share/apps/gaussian/g16/l101.exe)
 --------------------
 tmpdir/M3_ref_54.gjf
 --------------------
 Symbolic Z-matrix:
 Charge =  0 Multiplicity = 1
 H                    -3.09665  -0.63483   4.36613 
 C                    -2.27287  -1.34425   4.51988 
 H                    -1.8138   -1.07344   5.47832 
 H                    -2.64418  -2.38259   4.58316 
 H                    -1.53334  -1.19314   3.69919 
 
 ITRead=  0  0  0  0  0
 MicOpt= -1 -1 -1 -1 -1
 NAtoms=      5 NQM=        5 NQMF=       0 NMMI=      0 NMMIF=      0
                NMic=       0 NMicF=      0.
                    Isotopes and Nuclear Properties:
 (Nuclear quadrupole moments (NQMom) in fm**2, nuclear magnetic moments (NMagM)
  in nuclear magnetons)

  Atom         1           2           3           4           5
 IAtWgt=           1          12           1           1           1
 AtmWgt=   1.0078250  12.0000000   1.0078250   1.0078250   1.0078250
 NucSpn=           1           0           1           1           1
 AtZEff=  -0.0000000  -0.0000000  -0.0000000  -0.0000000  -0.0000000
 NQMom=    0.0000000   0.0000000   0.0000000   0.0000000   0.0000000
 NMagM=    2.7928460   0.0000000   2.7928460   2.7928460   2.7928460
 AtZNuc=   1.0000000   6.0000000   1.0000000   1.0000000   1.0000000
 Leave Link  101 at Fri Sep 22 16:27:01 2023, MaxMem=   536870912 cpu:               0.3 elap:               0.1
 (Enter /share/apps/gaussian/g16/l202.exe)
                          Input orientation:                          
 ---------------------------------------------------------------------
 Center     Atomic      Atomic             Coordinates (Angstroms)
 Number     Number       Type             X           Y           Z
 ---------------------------------------------------------------------
      1          1           0       -3.096654   -0.634828    4.366126
      2          6           0       -2.272865   -1.344247    4.519882
      3          1           0       -1.813802   -1.073438    5.478324
      4          1           0       -2.644182   -2.382593    4.583155
      5          1           0       -1.533337   -1.193138    3.699186
 ---------------------------------------------------------------------
                    Distance matrix (angstroms):
                    1          2          3          4          5
     1  H    0.000000
     2  C    1.097973   0.000000
     3  H    1.753588   1.096671   0.000000
     4  H    1.818383   1.104555   1.790180   0.000000
     5  H    1.788989   1.115024   1.805082   1.852075   0.000000
 Stoichiometry    CH4
 Framework group  C1[X(CH4)]
 Deg. of freedom     9
 Full point group                 C1      NOp   1
 Largest Abelian subgroup         C1      NOp   1
 Largest concise Abelian subgroup C1      NOp   1
                         Standard orientation:                         
 ---------------------------------------------------------------------
 Center     Atomic      Atomic             Coordinates (Angstroms)
 Number     Number       Type             X           Y           Z
 ---------------------------------------------------------------------
      1          1           0        0.270847    0.678640   -0.812759
      2          6           0       -0.004592   -0.009069   -0.002367
      3          1           0       -0.120767    0.610292    0.895175
      4          1           0       -0.963883   -0.514233   -0.213583
      5          1           0        0.841353   -0.720286    0.145370
 ---------------------------------------------------------------------
 Rotational constants (GHZ):         159.4059364         154.1130246         150.0397458
 Leave Link  202 at Fri Sep 22 16:27:01 2023, MaxMem=   536870912 cpu:               0.0 elap:               0.0
 (Enter /share/apps/gaussian/g16/l301.exe)
 General basis read from cards:  (5D, 7F)
 Centers:       1      3      4      5
 S 3 1.00
     Exponent=  1.2251800000D+01 Coefficients=  2.3337100000D-02
     Exponent=  1.8687100000D+00 Coefficients=  1.5915000000D-01
     Exponent=  4.1820800000D-01 Coefficients=  5.0000000000D-01
 S 1 1.00
     Exponent=  1.0610000000D-01 Coefficients=  1.0000000000D+00
 P 1 1.00
     Exponent=  1.0000000000D+00 Coefficients=  1.0000000000D+00
 ****
 Centers:       2
 S 5 1.00
     Exponent=  1.2432000000D+03 Coefficients=  6.0336600000D-03
     Exponent=  1.8714500000D+02 Coefficients=  4.4957600000D-02
     Exponent=  4.2512600000D+01 Coefficients=  1.9790100000D-01
     Exponent=  1.1739300000D+01 Coefficients=  5.0000000000D-01
     Exponent=  3.5054800000D+00 Coefficients=  4.8036400000D-01
 S 2 1.00
     Exponent=  5.3908900000D+00 Coefficients= -7.0398000000D-02
     Exponent=  4.9334100000D-01 Coefficients=  5.0000000000D-01
 S 1 1.00
     Exponent=  1.4974100000D-01 Coefficients=  1.0000000000D+00
 P 3 1.00
     Exponent=  9.1805600000D+00 Coefficients=  4.3170100000D-02
     Exponent=  1.9365800000D+00 Coefficients=  2.2499900000D-01
     Exponent=  5.2629600000D-01 Coefficients=  5.0000000000D-01
 P 1 1.00
     Exponent=  1.3631900000D-01 Coefficients=  1.0000000000D+00
 D 1 1.00
     Exponent=  8.0000000000D-01 Coefficients=  1.0000000000D+00
 ****
 Ernie: Thresh=  0.10000D-02 Tol=  0.10000D-05 Strict=F.
 There are    35 symmetry adapted cartesian basis functions of A   symmetry.
 There are    34 symmetry adapted basis functions of A   symmetry.
    34 basis functions,    54 primitive gaussians,    35 cartesian basis functions
     5 alpha electrons        5 beta electrons
       nuclear repulsion energy        13.2720400618 Hartrees.
 IExCor=  402 DFT=T Ex+Corr=B3LYP ExCW=0 ScaHFX=  0.200000
 ScaDFX=  0.800000  0.720000  1.000000  0.810000 ScalE2=  1.000000  1.000000
 IRadAn=      5 IRanWt=     -1 IRanGd=            0 ICorTp=0 IEmpDi=141
 NAtoms=    5 NActive=    5 NUniq=    5 SFac= 1.00D+00 NAtFMM=   60 NAOKFM=F Big=F
 Integral buffers will be    131072 words long.
 Raffenetti 2 integral format.
 Two-electron integral symmetry is turned on.
 R6Disp:  Grimme-D3(BJ) Dispersion energy=       -0.0019123706 Hartrees.
 Nuclear repulsion after empirical dispersion term =       13.2701276911 Hartrees.
 ------------------------------------------------------------------------------
 Polarizable Continuum Model (PCM)
 =================================
 Model                : C-PCM.
 Atomic radii         : UFF (Universal Force Field).
 Polarization charges : Total charges.
 Charge compensation  : None.
 Solution method      : On-the-fly selection.
 Cavity type          : Scaled VdW (van der Waals Surface) (Alpha=1.100).
 Cavity algorithm     : GePol (No added spheres)
                        Default sphere list used, NSphG=    5.
                        Lebedev-Laikov grids with approx.  5.0 points / Ang**2.
                        Smoothing algorithm: York/Karplus (Gamma=1.0000).
                        Polarization charges: spherical gaussians, with
                                              point-specific exponents (IZeta= 3).
                        Self-potential: point-specific (ISelfS= 7).
                        Self-field    : sphere-specific E.n sum rule (ISelfD= 2).
 Solvent              : Toluene, Eps=   2.374100 Eps(inf)=   2.238315
 ------------------------------------------------------------------------------
 Spheres list:
 ISph  on   Nord     Re0    Alpha      Xe            Ye            Ze
    1   H      1    1.4430  1.100      0.270847      0.678640     -0.812759
    2   C      2    1.9255  1.100     -0.004592     -0.009069     -0.002367
    3   H      3    1.4430  1.100     -0.120767      0.610292      0.895175
    4   H      4    1.4430  1.100     -0.963883     -0.514233     -0.213583
    5   H      5    1.4430  1.100      0.841353     -0.720286      0.145370
 ------------------------------------------------------------------------------
 GePol: Number of generator spheres                  =       5
 GePol: Total number of spheres                      =       5
 GePol: Number of exposed spheres                    =       5 (100.00%)
 GePol: Number of points                             =     506
 GePol: Average weight of points                     =       0.14
 GePol: Minimum weight of points                     =   0.37D-06
 GePol: Maximum weight of points                     =    0.20577
 GePol: Number of points with low weight             =      32
 GePol: Fraction of low-weight points (<1% of avg)   =       6.32%
 GePol: Cavity surface area                          =     70.143 Ang**2
 GePol: Cavity volume                                =     51.781 Ang**3
 Leave Link  301 at Fri Sep 22 16:27:01 2023, MaxMem=   536870912 cpu:               0.4 elap:               0.1
 (Enter /share/apps/gaussian/g16/l302.exe)
 NPDir=0 NMtPBC=     1 NCelOv=     1 NCel=       1 NClECP=     1 NCelD=      1
         NCelK=      1 NCelE2=     1 NClLst=     1 CellRange=     0.0.
 One-electron integrals computed using PRISM.
 One-electron integral symmetry used in STVInt
 NBasis=    34 RedAO= T EigKep=  2.86D-02  NBF=    34
 NBsUse=    34 1.00D-06 EigRej= -1.00D+00 NBFU=    34
 Precomputing XC quadrature grid using
 IXCGrd= 4 IRadAn=           5 IRanWt=          -1 IRanGd=           0 AccXCQ= 0.00D+00.
 Generated NRdTot=       0 NPtTot=           0 NUsed=           0 NTot=          32
 NSgBfM=    35    35    35    35    35 MxSgAt=     5 MxSgA2=     5.
 Leave Link  302 at Fri Sep 22 16:27:01 2023, MaxMem=   536870912 cpu:               0.4 elap:               0.1
 (Enter /share/apps/gaussian/g16/l303.exe)
 DipDrv:  MaxL=1.
 Leave Link  303 at Fri Sep 22 16:27:01 2023, MaxMem=   536870912 cpu:               0.1 elap:               0.0
 (Enter /share/apps/gaussian/g16/l401.exe)
 ExpMin= 1.06D-01 ExpMax= 1.24D+03 ExpMxC= 1.87D+02 IAcc=3 IRadAn=         5 AccDes= 0.00D+00
 Harris functional with IExCor=  402 and IRadAn=       5 diagonalized for initial guess.
 HarFok:  IExCor=  402 AccDes= 0.00D+00 IRadAn=         5 IDoV= 1 UseB2=F ITyADJ=14
 ICtDFT=  3500011 ScaDFX=  1.000000  1.000000  1.000000  1.000000
 FoFCou: FMM=F IPFlag=           0 FMFlag=      100000 FMFlg1=           0
         NFxFlg=           0 DoJE=T BraDBF=F KetDBF=T FulRan=T
         wScrn=  0.000000 ICntrl=       500 IOpCl=  0 I1Cent=   200000004 NGrid=           0
         NMat0=    1 NMatS0=      1 NMatT0=    0 NMatD0=    1 NMtDS0=    0 NMtDT0=    0
 Petite list used in FoFCou.
 Harris En= -40.5492538962771    
 JPrj=0 DoOrth=F DoCkMO=F.
 Leave Link  401 at Fri Sep 22 16:27:01 2023, MaxMem=   536870912 cpu:               0.8 elap:               0.2
 (Enter /share/apps/gaussian/g16/l502.exe)
 Keep R1 ints in memory in canonical form, NReq=3628609.
 FoFCou: FMM=F IPFlag=           0 FMFlag=           0 FMFlg1=           0
         NFxFlg=           0 DoJE=F BraDBF=F KetDBF=F FulRan=T
         wScrn=  0.000000 ICntrl=       600 IOpCl=  0 I1Cent=           0 NGrid=           0
         NMat0=    1 NMatS0=    595 NMatT0=    0 NMatD0=    1 NMtDS0=    0 NMtDT0=    0
 Symmetry not used in FoFCou.
 Two-electron integral symmetry not used.
 Closed shell SCF:
 Using DIIS extrapolation, IDIIS=  1040.
 NGot=   536870912 LenX=   536690353 LenY=   536688687
 Requested convergence on RMS density matrix=1.00D-08 within 128 cycles.
 Requested convergence on MAX density matrix=1.00D-06.
 Requested convergence on             energy=1.00D-06.
 No special actions if energy rises.

 Cycle   1  Pass 1  IDiag  1:
 Inv3:  Mode=1 IEnd=      768108.
 Iteration    1 A*A^-1 deviation from unit magnitude is 3.77D-15 for    492.
 Iteration    1 A*A^-1 deviation from orthogonality  is 1.55D-15 for    492    278.
 Iteration    1 A^-1*A deviation from unit magnitude is 3.77D-15 for    492.
 Iteration    1 A^-1*A deviation from orthogonality  is 9.39D-16 for    359    188.
 E= -40.4277587352468    
 DIIS: error= 4.63D-02 at cycle   1 NSaved=   1.
 NSaved= 1 IEnMin= 1 EnMin= -40.4277587352468     IErMin= 1 ErrMin= 4.63D-02
 ErrMax= 4.63D-02  0.00D+00 EMaxC= 1.00D-01 BMatC= 7.60D-02 BMatP= 7.60D-02
 IDIUse=3 WtCom= 5.37D-01 WtEn= 4.63D-01
 Coeff-Com:  0.100D+01
 Coeff-En:   0.100D+01
 Coeff:      0.100D+01
 Gap=     0.357 Goal=   None    Shift=    0.000
 GapD=    0.357 DampG=1.000 DampE=0.500 DampFc=0.5000 IDamp=-1.
 Damping current iteration by 5.00D-01
 RMSDP=1.45D-02 MaxDP=1.48D-01              OVMax= 1.97D-01

 Cycle   2  Pass 1  IDiag  1:
 E= -40.4662119431497     Delta-E=       -0.038453207903 Rises=F Damp=T
 DIIS: error= 8.12D-03 at cycle   2 NSaved=   2.
 NSaved= 2 IEnMin= 2 EnMin= -40.4662119431497     IErMin= 2 ErrMin= 8.12D-03
 ErrMax= 8.12D-03  0.00D+00 EMaxC= 1.00D-01 BMatC= 1.30D-03 BMatP= 7.60D-02
 IDIUse=3 WtCom= 9.19D-01 WtEn= 8.12D-02
 Coeff-Com:  0.863D-01 0.914D+00
 Coeff-En:   0.142D+00 0.858D+00
 Coeff:      0.908D-01 0.909D+00
 Gap=     0.434 Goal=   None    Shift=    0.000
 RMSDP=1.35D-03 MaxDP=1.12D-02 DE=-3.85D-02 OVMax= 1.04D-01

 Cycle   3  Pass 1  IDiag  1:
 E= -40.5133231446133     Delta-E=       -0.047111201464 Rises=F Damp=F
 DIIS: error= 5.45D-04 at cycle   3 NSaved=   3.
 NSaved= 3 IEnMin= 3 EnMin= -40.5133231446133     IErMin= 3 ErrMin= 5.45D-04
 ErrMax= 5.45D-04  0.00D+00 EMaxC= 1.00D-01 BMatC= 1.10D-05 BMatP= 1.30D-03
 IDIUse=3 WtCom= 9.95D-01 WtEn= 5.45D-03
 Coeff-Com:  0.677D-02-0.459D-01 0.104D+01
 Coeff-En:   0.000D+00 0.000D+00 0.100D+01
 Coeff:      0.674D-02-0.456D-01 0.104D+01
 Gap=     0.442 Goal=   None    Shift=    0.000
 RMSDP=8.62D-05 MaxDP=8.16D-04 DE=-4.71D-02 OVMax= 1.08D-03

 Cycle   4  Pass 1  IDiag  1:
 E= -40.5133329613837     Delta-E=       -0.000009816770 Rises=F Damp=F
 DIIS: error= 1.04D-04 at cycle   4 NSaved=   4.
 NSaved= 4 IEnMin= 4 EnMin= -40.5133329613837     IErMin= 4 ErrMin= 1.04D-04
 ErrMax= 1.04D-04  0.00D+00 EMaxC= 1.00D-01 BMatC= 2.07D-07 BMatP= 1.10D-05
 IDIUse=3 WtCom= 9.99D-01 WtEn= 1.04D-03
 Coeff-Com:  0.204D-02-0.120D-01 0.252D+00 0.758D+00
 Coeff-En:   0.000D+00 0.000D+00 0.000D+00 0.100D+01
 Coeff:      0.204D-02-0.120D-01 0.251D+00 0.759D+00
 Gap=     0.442 Goal=   None    Shift=    0.000
 RMSDP=1.27D-05 MaxDP=1.12D-04 DE=-9.82D-06 OVMax= 1.78D-04

 Cycle   5  Pass 1  IDiag  1:
 E= -40.5133331893212     Delta-E=       -0.000000227938 Rises=F Damp=F
 DIIS: error= 8.65D-06 at cycle   5 NSaved=   5.
 NSaved= 5 IEnMin= 5 EnMin= -40.5133331893212     IErMin= 5 ErrMin= 8.65D-06
 ErrMax= 8.65D-06  0.00D+00 EMaxC= 1.00D-01 BMatC= 2.05D-09 BMatP= 2.07D-07
 IDIUse=1 WtCom= 1.00D+00 WtEn= 0.00D+00
 Coeff-Com:  0.183D-03 0.998D-04 0.268D-02 0.621D-01 0.935D+00
 Coeff:      0.183D-03 0.998D-04 0.268D-02 0.621D-01 0.935D+00
 Gap=     0.442 Goal=   None    Shift=    0.000
 RMSDP=1.61D-06 MaxDP=1.49D-05 DE=-2.28D-07 OVMax= 2.10D-05

 Cycle   6  Pass 1  IDiag  1:
 E= -40.5133331919120     Delta-E=       -0.000000002591 Rises=F Damp=F
 DIIS: error= 7.81D-07 at cycle   6 NSaved=   6.
 NSaved= 6 IEnMin= 6 EnMin= -40.5133331919120     IErMin= 6 ErrMin= 7.81D-07
 ErrMax= 7.81D-07  0.00D+00 EMaxC= 1.00D-01 BMatC= 1.26D-11 BMatP= 2.05D-09
 IDIUse=1 WtCom= 1.00D+00 WtEn= 0.00D+00
 Coeff-Com: -0.108D-04 0.497D-04-0.125D-02-0.169D-02 0.689D-01 0.934D+00
 Coeff:     -0.108D-04 0.497D-04-0.125D-02-0.169D-02 0.689D-01 0.934D+00
 Gap=     0.442 Goal=   None    Shift=    0.000
 RMSDP=1.25D-07 MaxDP=1.29D-06 DE=-2.59D-09 OVMax= 1.61D-06

 Cycle   7  Pass 1  IDiag  1:
 E= -40.5133331919300     Delta-E=       -0.000000000018 Rises=F Damp=F
 DIIS: error= 1.83D-08 at cycle   7 NSaved=   7.
 NSaved= 7 IEnMin= 7 EnMin= -40.5133331919300     IErMin= 7 ErrMin= 1.83D-08
 ErrMax= 1.83D-08  0.00D+00 EMaxC= 1.00D-01 BMatC= 1.17D-14 BMatP= 1.26D-11
 IDIUse=1 WtCom= 1.00D+00 WtEn= 0.00D+00
 Coeff-Com: -0.396D-06 0.326D-06-0.522D-04 0.403D-04 0.259D-02 0.259D-01
 Coeff-Com:  0.972D+00
 Coeff:     -0.396D-06 0.326D-06-0.522D-04 0.403D-04 0.259D-02 0.259D-01
 Coeff:      0.972D+00
 Gap=     0.442 Goal=   None    Shift=    0.000
 RMSDP=4.84D-09 MaxDP=6.16D-08 DE=-1.79D-11 OVMax= 5.43D-08

 Error on total polarization charges =  0.00450
 SCF Done:  E(RB3LYP) =  -40.5133331919     A.U. after    7 cycles
            NFock=  7  Conv=0.48D-08     -V/T= 2.0101
 KE= 4.010956623664D+01 PE=-1.196016452174D+02 EE= 2.570861809766D+01
 Leave Link  502 at Fri Sep 22 16:27:03 2023, MaxMem=   536870912 cpu:               5.0 elap:               1.3
 (Enter /share/apps/gaussian/g16/l601.exe)
 Copying SCF densities to generalized density rwf, IOpCl= 0 IROHF=0.

 **********************************************************************

            Population analysis using the SCF density.

 **********************************************************************

 Orbital symmetries:
       Occupied  (A) (A) (A) (A) (A)
       Virtual   (A) (A) (A) (A) (A) (A) (A) (A) (A) (A) (A) (A)
                 (A) (A) (A) (A) (A) (A) (A) (A) (A) (A) (A) (A)
                 (A) (A) (A) (A) (A)
 The electronic state is 1-A.
 Alpha  occ. eigenvalues --  -10.16558  -0.69172  -0.39790  -0.39051  -0.38641
 Alpha virt. eigenvalues --    0.05575   0.12297   0.12456   0.12556   0.36919
 Alpha virt. eigenvalues --    0.37494   0.38633   0.62927   0.63425   0.63682
 Alpha virt. eigenvalues --    0.67096   0.96056   1.28629   1.29405   1.83153
 Alpha virt. eigenvalues --    1.85015   1.86178   1.87641   1.88485   1.91175
 Alpha virt. eigenvalues --    2.37021   2.40338   2.44788   2.73193   2.74766
 Alpha virt. eigenvalues --    2.90928   3.16614   3.19572   3.21532
          Condensed to atoms (all electrons):
               1          2          3          4          5
     1  H    0.577574   0.402229  -0.023560  -0.019559  -0.022661
     2  C    0.402229   4.750917   0.402258   0.402530   0.400549
     3  H   -0.023560   0.402258   0.579207  -0.022103  -0.020682
     4  H   -0.019559   0.402530  -0.022103   0.562948  -0.018637
     5  H   -0.022661   0.400549  -0.020682  -0.018637   0.568625
 Mulliken charges:
               1
     1  H    0.085977
     2  C   -0.358483
     3  H    0.084880
     4  H    0.094820
     5  H    0.092806
 Sum of Mulliken charges =   0.00000
 Mulliken charges with hydrogens summed into heavy atoms:
               1
     2  C    0.000000
 Electronic spatial extent (au):  <R**2>=             36.2913
 Charge=              0.0000 electrons
 Dipole moment (field-independent basis, Debye):
    X=              0.0109    Y=              0.0546    Z=              0.0103  Tot=              0.0566
 Quadrupole moment (field-independent basis, Debye-Ang):
   XX=             -8.3145   YY=             -8.4865   ZZ=             -8.6182
   XY=              0.0192   XZ=              0.0009   YZ=              0.0036
 Traceless Quadrupole moment (field-independent basis, Debye-Ang):
   XX=              0.1586   YY=             -0.0134   ZZ=             -0.1451
   XY=              0.0192   XZ=              0.0009   YZ=              0.0036
 Octapole moment (field-independent basis, Debye-Ang**2):
  XXX=             -0.2024  YYY=              0.1755  ZZZ=              0.1240  XYY=              0.1702
  XXY=             -0.5878  XXZ=             -0.0897  XZZ=              0.0389  YZZ=              0.5862
  YYZ=             -0.0071  XYZ=             -0.2630
 Hexadecapole moment (field-independent basis, Debye-Ang**3):
 XXXX=            -16.5114 YYYY=            -17.0367 ZZZZ=            -16.3813 XXXY=              0.0889
 XXXZ=              0.2826 YYYX=             -0.0900 YYYZ=             -0.0728 ZZZX=             -0.2415
 ZZZY=              0.0943 XXYY=             -5.2579 XXZZ=             -5.8028 YYZZ=             -5.2070
 XXYZ=             -0.0050 YYXZ=             -0.0308 ZZXY=              0.0942
 N-N= 1.327012769115D+01 E-N=-1.196016450560D+02  KE= 4.010956623664D+01
 There are a total of      109428 grid points.
 ElSum from          density=       10.0000000128
 ElSum from atomic densities=       10.0000000475
 Hirshfeld populations at iteration   1 (CA, CB, DipXYZ):
               1          2          3          4          5
     1  H    0.485656   0.485656   0.037944   0.090470  -0.097318
     2  C    3.060509   3.060509  -0.003242  -0.004255  -0.001298
     3  H    0.485916   0.485916  -0.014631   0.082025   0.109667
     4  H    0.483690   0.483690  -0.125646  -0.060208  -0.024343
     5  H    0.484229   0.484229   0.109829  -0.083279   0.017704
       Tot   5.000000   5.000000   0.004254   0.024753   0.004412

 Dip from Atomic Chgs              0.000037  -0.003279  -0.000371
         Total Dipole              0.004291   0.021473   0.004041

 Hirshfeld charges, spin densities, dipoles, and CM5 charges using IRadAn=      5:
              Q-H        S-H        Dx         Dy         Dz        Q-CM5   
     1  H    0.028688   0.000000   0.037944   0.090470  -0.097318   0.075532
     2  C   -0.121019   0.000000  -0.003242  -0.004255  -0.001298  -0.305852
     3  H    0.028169   0.000000  -0.014631   0.082025   0.109667   0.075163
     4  H    0.032620   0.000000  -0.125646  -0.060208  -0.024343   0.078707
     5  H    0.031541   0.000000   0.109829  -0.083279   0.017704   0.076450
       Tot  -0.000000   0.000000   0.004254   0.024753   0.004412  -0.000000
 Hirshfeld charges with hydrogens summed into heavy atoms:
              Q-H       Q-CM5   
     2  C   -0.000000  -0.000000
 
 EQQ= 0.000000000000E+00 EQD= 0.000000000000E+00 EDD=-0.976193521533E-03
 EQQ+QD+DD=-0.976193521533E-03
 
 No NMR shielding tensors so no spin-rotation constants.
 Leave Link  601 at Fri Sep 22 16:27:03 2023, MaxMem=   536870912 cpu:               0.6 elap:               0.2
 (Enter /share/apps/gaussian/g16/l9999.exe)
 1\1\GINC-NODE74\SP\RB3LYP\Gen\C1H4\YANZ\22-Sep-2023\0\\#p b3lyp/gen sc
 rf=(cpcm,solvent=toluene) pop=hirshfeld empiricaldispersion=gd3bj\\tmp
 dir/M3_ref_54.gjf\\0,1\H,0,-3.096654,-0.634828,4.36612606\C,0,-2.27286
 5,-1.344247,4.5198822\H,0,-1.813802,-1.073438,5.47832394\H,0,-2.644181
 6,-2.38259342,4.58315533\H,0,-1.53333655,-1.19313797,3.69918579\\Versi
 on=ES64L-G16RevA.03\State=1-A\HF=-40.5133332\RMSD=4.836e-09\Dipole=-0.
 0031485,0.0171994,0.0137891\Quadrupole=-0.0618537,0.0747858,-0.012932,
 0.0453161,-0.06519,-0.0440001\PG=C01 [X(C1H4)]\\@


 SCIENCE AND PEACE WILL TRIUMPH OVER IGNORANCE AND WAR

                          -- PASTEUR
 Job cpu time:       0 days  0 hours  0 minutes  8.1 seconds.
 Elapsed time:       0 days  0 hours  0 minutes  2.2 seconds.
 File lengths (MBytes):  RWF=      6 Int=      0 D2E=      0 Chk=      1 Scr=      1
 Normal termination of Gaussian 16 at Fri Sep 22 16:27:03 2023.
