 Entering Gaussian System, Link 0=g16
 Initial command:
 /share/apps/gaussian/g16/l1.exe "/tmp/55557.mgr/Gau-211615.inp" -scrdir="/tmp/55557.mgr/"
 Entering Link 1 = /share/apps/gaussian/g16/l1.exe PID=    211616.
  
 Copyright (c) 1988,1990,1992,1993,1995,1998,2003,2009,2016,
            Gaussian, Inc.  All Rights Reserved.
  
 This is part of the Gaussian(R) 16 program.  It is based on
 the Gaussian(R) 09 system (copyright 2009, Gaussian, Inc.),
 the Gaussian(R) 03 system (copyright 2003, Gaussian, Inc.),
 the Gaussian(R) 98 system (copyright 1998, Gaussian, Inc.),
 the Gaussian(R) 94 system (copyright 1995, Gaussian, Inc.),
 the Gaussian 92(TM) system (copyright 1992, Gaussian, Inc.),
 the Gaussian 90(TM) system (copyright 1990, Gaussian, Inc.),
 the Gaussian 88(TM) system (copyright 1988, Gaussian, Inc.),
 the Gaussian 86(TM) system (copyright 1986, Carnegie Mellon
 University), and the Gaussian 82(TM) system (copyright 1983,
 Carnegie Mellon University). Gaussian is a federally registered
 trademark of Gaussian, Inc.
  
 This software contains proprietary and confidential information,
 including trade secrets, belonging to Gaussian, Inc.
  
 This software is provided under written license and may be
 used, copied, transmitted, or stored only in accord with that
 written license.
  
 The following legend is applicable only to US Government
 contracts under FAR:
  
                    RESTRICTED RIGHTS LEGEND
  
 Use, reproduction and disclosure by the US Government is
 subject to restrictions as set forth in subparagraphs (a)
 and (c) of the Commercial Computer Software - Restricted
 Rights clause in FAR 52.227-19.
  
 Gaussian, Inc.
 340 Quinnipiac St., Bldg. 40, Wallingford CT 06492
  
  
 ---------------------------------------------------------------
 Warning -- This program may not be used in any manner that
 competes with the business of Gaussian, Inc. or will provide
 assistance to any competitor of Gaussian, Inc.  The licensee
 of this program is prohibited from giving any competitor of
 Gaussian, Inc. access to this program.  By using this program,
 the user acknowledges that Gaussian, Inc. is engaged in the
 business of creating and licensing software in the field of
 computational chemistry and represents and warrants to the
 licensee that it is not a competitor of Gaussian, Inc. and that
 it will not use this program in any manner prohibited above.
 ---------------------------------------------------------------
  

 Cite this work as:
 Gaussian 16, Revision A.03,
 M. J. Frisch, G. W. Trucks, H. B. Schlegel, G. E. Scuseria, 
 M. A. Robb, J. R. Cheeseman, G. Scalmani, V. Barone, 
 G. A. Petersson, H. Nakatsuji, X. Li, M. Caricato, A. V. Marenich, 
 J. Bloino, B. G. Janesko, R. Gomperts, B. Mennucci, H. P. Hratchian, 
 J. V. Ortiz, A. F. Izmaylov, J. L. Sonnenberg, D. Williams-Young, 
 F. Ding, F. Lipparini, F. Egidi, J. Goings, B. Peng, A. Petrone, 
 T. Henderson, D. Ranasinghe, V. G. Zakrzewski, J. Gao, N. Rega, 
 G. Zheng, W. Liang, M. Hada, M. Ehara, K. Toyota, R. Fukuda, 
 J. Hasegawa, M. Ishida, T. Nakajima, Y. Honda, O. Kitao, H. Nakai, 
 T. Vreven, K. Throssell, J. A. Montgomery, Jr., J. E. Peralta, 
 F. Ogliaro, M. J. Bearpark, J. J. Heyd, E. N. Brothers, K. N. Kudin, 
 V. N. Staroverov, T. A. Keith, R. Kobayashi, J. Normand, 
 K. Raghavachari, A. P. Rendell, J. C. Burant, S. S. Iyengar, 
 J. Tomasi, M. Cossi, J. M. Millam, M. Klene, C. Adamo, R. Cammi, 
 J. W. Ochterski, R. L. Martin, K. Morokuma, O. Farkas, 
 J. B. Foresman, and D. J. Fox, Gaussian, Inc., Wallingford CT, 2016.
 
 ******************************************
 Gaussian 16:  ES64L-G16RevA.03 25-Dec-2016
                22-Sep-2023 
 ******************************************
 %nprocshared=4
 Will use up to    4 processors via shared memory.
 %mem=4GB
 ----------------------------------------------------------------------
 #p b3lyp/gen scrf=(cpcm,solvent=toluene) pop=hirshfeld empiricaldisper
 sion=gd3bj
 ----------------------------------------------------------------------
 1/38=1,172=1/1;
 2/12=2,17=6,18=5,40=1/2;
 3/5=7,11=2,25=1,30=1,70=2101,72=13,74=-5,124=41/1,2,3;
 4//1;
 5/5=2,38=5,53=13/2;
 6/7=2,8=2,9=2,10=2,28=1,79=1/1;
 99/5=1,9=1/99;
 Leave Link    1 at Fri Sep 22 16:30:37 2023, MaxMem=   536870912 cpu:               0.2 elap:               0.0
 (Enter /share/apps/gaussian/g16/l101.exe)
 ---------------------
 tmpdir/M3_ref_229.gjf
 ---------------------
 Symbolic Z-matrix:
 Charge =  0 Multiplicity = 1
 C                    -5.05272  -2.74534  -1.46253 
 C                    -6.27228  -2.26521  -1.18131 
 C                    -7.10252  -1.41738  -2.10638 
 H                    -4.48037  -2.58958  -2.364 
 H                    -4.53967  -3.34946  -0.71216 
 H                    -6.73979  -2.47757  -0.22031 
 H                    -8.05083  -1.92415  -2.33705 
 H                    -7.3665   -0.46793  -1.61859 
 H                    -6.60999  -1.18856  -3.05568 
 
 ITRead=  0  0  0  0  0  0  0  0  0
 MicOpt= -1 -1 -1 -1 -1 -1 -1 -1 -1
 NAtoms=      9 NQM=        9 NQMF=       0 NMMI=      0 NMMIF=      0
                NMic=       0 NMicF=      0.
                    Isotopes and Nuclear Properties:
 (Nuclear quadrupole moments (NQMom) in fm**2, nuclear magnetic moments (NMagM)
  in nuclear magnetons)

  Atom         1           2           3           4           5           6           7           8           9
 IAtWgt=          12          12          12           1           1           1           1           1           1
 AtmWgt=  12.0000000  12.0000000  12.0000000   1.0078250   1.0078250   1.0078250   1.0078250   1.0078250   1.0078250
 NucSpn=           0           0           0           1           1           1           1           1           1
 AtZEff=  -0.0000000  -0.0000000  -0.0000000  -0.0000000  -0.0000000  -0.0000000  -0.0000000  -0.0000000  -0.0000000
 NQMom=    0.0000000   0.0000000   0.0000000   0.0000000   0.0000000   0.0000000   0.0000000   0.0000000   0.0000000
 NMagM=    0.0000000   0.0000000   0.0000000   2.7928460   2.7928460   2.7928460   2.7928460   2.7928460   2.7928460
 AtZNuc=   6.0000000   6.0000000   6.0000000   1.0000000   1.0000000   1.0000000   1.0000000   1.0000000   1.0000000
 Leave Link  101 at Fri Sep 22 16:30:37 2023, MaxMem=   536870912 cpu:               0.3 elap:               0.1
 (Enter /share/apps/gaussian/g16/l202.exe)
                          Input orientation:                          
 ---------------------------------------------------------------------
 Center     Atomic      Atomic             Coordinates (Angstroms)
 Number     Number       Type             X           Y           Z
 ---------------------------------------------------------------------
      1          6           0       -5.052722   -2.745337   -1.462530
      2          6           0       -6.272276   -2.265206   -1.181312
      3          6           0       -7.102516   -1.417382   -2.106378
      4          1           0       -4.480368   -2.589584   -2.364001
      5          1           0       -4.539669   -3.349459   -0.712157
      6          1           0       -6.739794   -2.477570   -0.220306
      7          1           0       -8.050833   -1.924147   -2.337050
      8          1           0       -7.366498   -0.467927   -1.618593
      9          1           0       -6.609994   -1.188555   -3.055681
 ---------------------------------------------------------------------
                    Distance matrix (angstroms):
                    1          2          3          4          5
     1  C    0.000000
     2  C    1.340493   0.000000
     3  C    2.525799   1.504610   0.000000
     4  H    1.079119   2.171384   2.883763   0.000000
     5  H    1.091442   2.097055   3.499280   1.819207   0.000000
     6  H    2.112115   1.089589   2.193817   3.116566   2.417159
     7  H    3.229212   2.148329   1.099693   3.632046   4.123113
     8  H    3.250309   2.149127   1.099584   3.658799   4.137126
     9  H    2.717866   2.187805   1.093671   2.641328   3.801034
                    6          7          8          9
     6  H    0.000000
     7  H    2.550628   0.000000
     8  H    2.527178   1.762121   0.000000
     9  H    3.117332   1.770182   1.776746   0.000000
 Stoichiometry    C3H6
 Framework group  C1[X(C3H6)]
 Deg. of freedom    21
 Full point group                 C1      NOp   1
 Largest Abelian subgroup         C1      NOp   1
 Largest concise Abelian subgroup C1      NOp   1
                         Standard orientation:                         
 ---------------------------------------------------------------------
 Center     Atomic      Atomic             Coordinates (Angstroms)
 Number     Number       Type             X           Y           Z
 ---------------------------------------------------------------------
      1          6           0        1.286762   -0.222580    0.002682
      2          6           0        0.129714    0.454289   -0.000319
      3          6           0       -1.238521   -0.171638   -0.000751
      4          1           0        1.418019   -1.293572   -0.012989
      5          1           0        2.223516    0.337538    0.000060
      6          1           0        0.128904    1.543871   -0.004087
      7          1           0       -1.795670    0.133276    0.896989
      8          1           0       -1.819379    0.183384   -0.864260
      9          1           0       -1.223124   -1.264923   -0.025385
 ---------------------------------------------------------------------
 Rotational constants (GHZ):          46.5629309           9.1660883           8.0397255
 Leave Link  202 at Fri Sep 22 16:30:37 2023, MaxMem=   536870912 cpu:               0.1 elap:               0.0
 (Enter /share/apps/gaussian/g16/l301.exe)
 General basis read from cards:  (5D, 7F)
 Centers:       4      5      6      7      8      9
 S 3 1.00
     Exponent=  1.2251800000D+01 Coefficients=  2.3337100000D-02
     Exponent=  1.8687100000D+00 Coefficients=  1.5915000000D-01
     Exponent=  4.1820800000D-01 Coefficients=  5.0000000000D-01
 S 1 1.00
     Exponent=  1.0610000000D-01 Coefficients=  1.0000000000D+00
 P 1 1.00
     Exponent=  1.0000000000D+00 Coefficients=  1.0000000000D+00
 ****
 Centers:       1      2      3
 S 5 1.00
     Exponent=  1.2432000000D+03 Coefficients=  6.0336600000D-03
     Exponent=  1.8714500000D+02 Coefficients=  4.4957600000D-02
     Exponent=  4.2512600000D+01 Coefficients=  1.9790100000D-01
     Exponent=  1.1739300000D+01 Coefficients=  5.0000000000D-01
     Exponent=  3.5054800000D+00 Coefficients=  4.8036400000D-01
 S 2 1.00
     Exponent=  5.3908900000D+00 Coefficients= -7.0398000000D-02
     Exponent=  4.9334100000D-01 Coefficients=  5.0000000000D-01
 S 1 1.00
     Exponent=  1.4974100000D-01 Coefficients=  1.0000000000D+00
 P 3 1.00
     Exponent=  9.1805600000D+00 Coefficients=  4.3170100000D-02
     Exponent=  1.9365800000D+00 Coefficients=  2.2499900000D-01
     Exponent=  5.2629600000D-01 Coefficients=  5.0000000000D-01
 P 1 1.00
     Exponent=  1.3631900000D-01 Coefficients=  1.0000000000D+00
 D 1 1.00
     Exponent=  8.0000000000D-01 Coefficients=  1.0000000000D+00
 ****
 Ernie: Thresh=  0.10000D-02 Tol=  0.10000D-05 Strict=F.
 There are    75 symmetry adapted cartesian basis functions of A   symmetry.
 There are    72 symmetry adapted basis functions of A   symmetry.
    72 basis functions,   120 primitive gaussians,    75 cartesian basis functions
    12 alpha electrons       12 beta electrons
       nuclear repulsion energy        70.3778125937 Hartrees.
 IExCor=  402 DFT=T Ex+Corr=B3LYP ExCW=0 ScaHFX=  0.200000
 ScaDFX=  0.800000  0.720000  1.000000  0.810000 ScalE2=  1.000000  1.000000
 IRadAn=      5 IRanWt=     -1 IRanGd=            0 ICorTp=0 IEmpDi=141
 NAtoms=    9 NActive=    9 NUniq=    9 SFac= 1.00D+00 NAtFMM=   60 NAOKFM=F Big=F
 Integral buffers will be    131072 words long.
 Raffenetti 2 integral format.
 Two-electron integral symmetry is turned on.
 R6Disp:  Grimme-D3(BJ) Dispersion energy=       -0.0079924484 Hartrees.
 Nuclear repulsion after empirical dispersion term =       70.3698201452 Hartrees.
 ------------------------------------------------------------------------------
 Polarizable Continuum Model (PCM)
 =================================
 Model                : C-PCM.
 Atomic radii         : UFF (Universal Force Field).
 Polarization charges : Total charges.
 Charge compensation  : None.
 Solution method      : On-the-fly selection.
 Cavity type          : Scaled VdW (van der Waals Surface) (Alpha=1.100).
 Cavity algorithm     : GePol (No added spheres)
                        Default sphere list used, NSphG=    9.
                        Lebedev-Laikov grids with approx.  5.0 points / Ang**2.
                        Smoothing algorithm: York/Karplus (Gamma=1.0000).
                        Polarization charges: spherical gaussians, with
                                              point-specific exponents (IZeta= 3).
                        Self-potential: point-specific (ISelfS= 7).
                        Self-field    : sphere-specific E.n sum rule (ISelfD= 2).
 Solvent              : Toluene, Eps=   2.374100 Eps(inf)=   2.238315
 ------------------------------------------------------------------------------
 Spheres list:
 ISph  on   Nord     Re0    Alpha      Xe            Ye            Ze
    1   C      1    1.9255  1.100      1.286762     -0.222580      0.002682
    2   C      2    1.9255  1.100      0.129714      0.454289     -0.000319
    3   C      3    1.9255  1.100     -1.238521     -0.171638     -0.000751
    4   H      4    1.4430  1.100      1.418019     -1.293572     -0.012989
    5   H      5    1.4430  1.100      2.223516      0.337538      0.000060
    6   H      6    1.4430  1.100      0.128904      1.543871     -0.004087
    7   H      7    1.4430  1.100     -1.795670      0.133276      0.896989
    8   H      8    1.4430  1.100     -1.819379      0.183384     -0.864260
    9   H      9    1.4430  1.100     -1.223124     -1.264923     -0.025385
 ------------------------------------------------------------------------------
 GePol: Number of generator spheres                  =       9
 GePol: Total number of spheres                      =       9
 GePol: Number of exposed spheres                    =       9 (100.00%)
 GePol: Number of points                             =     802
 GePol: Average weight of points                     =       0.14
 GePol: Minimum weight of points                     =   0.55D-06
 GePol: Maximum weight of points                     =    0.20577
 GePol: Number of points with low weight             =      25
 GePol: Fraction of low-weight points (<1% of avg)   =       3.12%
 GePol: Cavity surface area                          =    113.462 Ang**2
 GePol: Cavity volume                                =     95.789 Ang**3
 Leave Link  301 at Fri Sep 22 16:30:37 2023, MaxMem=   536870912 cpu:               0.5 elap:               0.1
 (Enter /share/apps/gaussian/g16/l302.exe)
 NPDir=0 NMtPBC=     1 NCelOv=     1 NCel=       1 NClECP=     1 NCelD=      1
         NCelK=      1 NCelE2=     1 NClLst=     1 CellRange=     0.0.
 One-electron integrals computed using PRISM.
 One-electron integral symmetry used in STVInt
 NBasis=    72 RedAO= T EigKep=  4.00D-03  NBF=    72
 NBsUse=    72 1.00D-06 EigRej= -1.00D+00 NBFU=    72
 Precomputing XC quadrature grid using
 IXCGrd= 4 IRadAn=           5 IRanWt=          -1 IRanGd=           0 AccXCQ= 0.00D+00.
 Generated NRdTot=       0 NPtTot=           0 NUsed=           0 NTot=          32
 NSgBfM=    75    75    75    75    75 MxSgAt=     9 MxSgA2=     9.
 Leave Link  302 at Fri Sep 22 16:30:37 2023, MaxMem=   536870912 cpu:               0.5 elap:               0.1
 (Enter /share/apps/gaussian/g16/l303.exe)
 DipDrv:  MaxL=1.
 Leave Link  303 at Fri Sep 22 16:30:37 2023, MaxMem=   536870912 cpu:               0.1 elap:               0.0
 (Enter /share/apps/gaussian/g16/l401.exe)
 ExpMin= 1.06D-01 ExpMax= 1.24D+03 ExpMxC= 1.87D+02 IAcc=3 IRadAn=         5 AccDes= 0.00D+00
 Harris functional with IExCor=  402 and IRadAn=       5 diagonalized for initial guess.
 HarFok:  IExCor=  402 AccDes= 0.00D+00 IRadAn=         5 IDoV= 1 UseB2=F ITyADJ=14
 ICtDFT=  3500011 ScaDFX=  1.000000  1.000000  1.000000  1.000000
 FoFCou: FMM=F IPFlag=           0 FMFlag=      100000 FMFlg1=           0
         NFxFlg=           0 DoJE=T BraDBF=F KetDBF=T FulRan=T
         wScrn=  0.000000 ICntrl=       500 IOpCl=  0 I1Cent=   200000004 NGrid=           0
         NMat0=    1 NMatS0=      1 NMatT0=    0 NMatD0=    1 NMtDS0=    0 NMtDT0=    0
 Petite list used in FoFCou.
 Harris En= -117.940211909576    
 JPrj=0 DoOrth=F DoCkMO=F.
 Leave Link  401 at Fri Sep 22 16:30:38 2023, MaxMem=   536870912 cpu:               1.8 elap:               0.5
 (Enter /share/apps/gaussian/g16/l502.exe)
 Keep R1 ints in memory in canonical form, NReq=7041253.
 FoFCou: FMM=F IPFlag=           0 FMFlag=           0 FMFlg1=           0
         NFxFlg=           0 DoJE=F BraDBF=F KetDBF=F FulRan=T
         wScrn=  0.000000 ICntrl=       600 IOpCl=  0 I1Cent=           0 NGrid=           0
         NMat0=    1 NMatS0=   2628 NMatT0=    0 NMatD0=    1 NMtDS0=    0 NMtDT0=    0
 Symmetry not used in FoFCou.
 Two-electron integral symmetry not used.
 Closed shell SCF:
 Using DIIS extrapolation, IDIIS=  1040.
 NGot=   536870912 LenX=   533403697 LenY=   533397631
 Requested convergence on RMS density matrix=1.00D-08 within 128 cycles.
 Requested convergence on MAX density matrix=1.00D-06.
 Requested convergence on             energy=1.00D-06.
 No special actions if energy rises.

 Cycle   1  Pass 1  IDiag  1:
 Inv3:  Mode=1 IEnd=     1929612.
 Iteration    1 A*A^-1 deviation from unit magnitude is 4.55D-15 for    802.
 Iteration    1 A*A^-1 deviation from orthogonality  is 2.39D-15 for    789    663.
 Iteration    1 A^-1*A deviation from unit magnitude is 4.66D-15 for    802.
 Iteration    1 A^-1*A deviation from orthogonality  is 2.00D-15 for    668    469.
 E= -117.768567865660    
 DIIS: error= 3.45D-02 at cycle   1 NSaved=   1.
 NSaved= 1 IEnMin= 1 EnMin= -117.768567865660     IErMin= 1 ErrMin= 3.45D-02
 ErrMax= 3.45D-02  0.00D+00 EMaxC= 1.00D-01 BMatC= 1.07D-01 BMatP= 1.07D-01
 IDIUse=3 WtCom= 6.55D-01 WtEn= 3.45D-01
 Coeff-Com:  0.100D+01
 Coeff-En:   0.100D+01
 Coeff:      0.100D+01
 Gap=     0.264 Goal=   None    Shift=    0.000
 GapD=    0.264 DampG=1.000 DampE=0.500 DampFc=0.5000 IDamp=-1.
 Damping current iteration by 5.00D-01
 RMSDP=8.89D-03 MaxDP=1.31D-01              OVMax= 1.71D-01

 Cycle   2  Pass 1  IDiag  1:
 E= -117.828497959740     Delta-E=       -0.059930094080 Rises=F Damp=T
 DIIS: error= 5.53D-03 at cycle   2 NSaved=   2.
 NSaved= 2 IEnMin= 2 EnMin= -117.828497959740     IErMin= 2 ErrMin= 5.53D-03
 ErrMax= 5.53D-03  0.00D+00 EMaxC= 1.00D-01 BMatC= 2.38D-03 BMatP= 1.07D-01
 IDIUse=3 WtCom= 9.45D-01 WtEn= 5.53D-02
 Coeff-Com:  0.539D-01 0.946D+00
 Coeff-En:   0.794D-01 0.921D+00
 Coeff:      0.553D-01 0.945D+00
 Gap=     0.315 Goal=   None    Shift=    0.000
 RMSDP=1.59D-03 MaxDP=1.93D-02 DE=-5.99D-02 OVMax= 9.38D-02

 Cycle   3  Pass 1  IDiag  1:
 E= -117.897509582617     Delta-E=       -0.069011622877 Rises=F Damp=F
 DIIS: error= 1.77D-03 at cycle   3 NSaved=   3.
 NSaved= 3 IEnMin= 3 EnMin= -117.897509582617     IErMin= 3 ErrMin= 1.77D-03
 ErrMax= 1.77D-03  0.00D+00 EMaxC= 1.00D-01 BMatC= 1.84D-04 BMatP= 2.38D-03
 IDIUse=3 WtCom= 9.82D-01 WtEn= 1.77D-02
 Coeff-Com: -0.271D-03 0.157D+00 0.843D+00
 Coeff-En:   0.000D+00 0.000D+00 0.100D+01
 Coeff:     -0.266D-03 0.154D+00 0.846D+00
 Gap=     0.269 Goal=   None    Shift=    0.000
 RMSDP=2.92D-04 MaxDP=4.28D-03 DE=-6.90D-02 OVMax= 8.25D-03

 Cycle   4  Pass 1  IDiag  1:
 E= -117.897582857142     Delta-E=       -0.000073274526 Rises=F Damp=F
 DIIS: error= 1.22D-03 at cycle   4 NSaved=   4.
 NSaved= 4 IEnMin= 4 EnMin= -117.897582857142     IErMin= 4 ErrMin= 1.22D-03
 ErrMax= 1.22D-03  0.00D+00 EMaxC= 1.00D-01 BMatC= 1.03D-04 BMatP= 1.84D-04
 IDIUse=3 WtCom= 9.88D-01 WtEn= 1.22D-02
 Coeff-Com: -0.221D-02 0.428D-01 0.438D+00 0.521D+00
 Coeff-En:   0.000D+00 0.000D+00 0.356D+00 0.644D+00
 Coeff:     -0.219D-02 0.423D-01 0.437D+00 0.523D+00
 Gap=     0.269 Goal=   None    Shift=    0.000
 RMSDP=1.57D-04 MaxDP=4.06D-03 DE=-7.33D-05 OVMax= 7.69D-03

 Cycle   5  Pass 1  IDiag  1:
 E= -117.897671152595     Delta-E=       -0.000088295453 Rises=F Damp=F
 DIIS: error= 5.08D-04 at cycle   5 NSaved=   5.
 NSaved= 5 IEnMin= 5 EnMin= -117.897671152595     IErMin= 5 ErrMin= 5.08D-04
 ErrMax= 5.08D-04  0.00D+00 EMaxC= 1.00D-01 BMatC= 1.75D-05 BMatP= 1.03D-04
 IDIUse=3 WtCom= 9.95D-01 WtEn= 5.08D-03
 Coeff-Com: -0.106D-02-0.180D-02 0.116D+00 0.317D+00 0.569D+00
 Coeff-En:   0.000D+00 0.000D+00 0.000D+00 0.164D+00 0.836D+00
 Coeff:     -0.105D-02-0.179D-02 0.115D+00 0.317D+00 0.571D+00
 Gap=     0.269 Goal=   None    Shift=    0.000
 RMSDP=5.20D-05 MaxDP=1.25D-03 DE=-8.83D-05 OVMax= 2.44D-03

 Cycle   6  Pass 1  IDiag  1:
 E= -117.897689678363     Delta-E=       -0.000018525768 Rises=F Damp=F
 DIIS: error= 2.89D-05 at cycle   6 NSaved=   6.
 NSaved= 6 IEnMin= 6 EnMin= -117.897689678363     IErMin= 6 ErrMin= 2.89D-05
 ErrMax= 2.89D-05  0.00D+00 EMaxC= 1.00D-01 BMatC= 6.74D-08 BMatP= 1.75D-05
 IDIUse=1 WtCom= 1.00D+00 WtEn= 0.00D+00
 Coeff-Com: -0.257D-03-0.117D-02 0.278D-01 0.858D-01 0.173D+00 0.714D+00
 Coeff:     -0.257D-03-0.117D-02 0.278D-01 0.858D-01 0.173D+00 0.714D+00
 Gap=     0.269 Goal=   None    Shift=    0.000
 RMSDP=4.68D-06 MaxDP=6.52D-05 DE=-1.85D-05 OVMax= 9.54D-05

 Cycle   7  Pass 1  IDiag  1:
 E= -117.897689737157     Delta-E=       -0.000000058794 Rises=F Damp=F
 DIIS: error= 1.07D-05 at cycle   7 NSaved=   7.
 NSaved= 7 IEnMin= 7 EnMin= -117.897689737157     IErMin= 7 ErrMin= 1.07D-05
 ErrMax= 1.07D-05  0.00D+00 EMaxC= 1.00D-01 BMatC= 1.34D-08 BMatP= 6.74D-08
 IDIUse=1 WtCom= 1.00D+00 WtEn= 0.00D+00
 Coeff-Com: -0.279D-04-0.497D-03 0.412D-02 0.162D-01 0.381D-01 0.341D+00
 Coeff-Com:  0.601D+00
 Coeff:     -0.279D-04-0.497D-03 0.412D-02 0.162D-01 0.381D-01 0.341D+00
 Coeff:      0.601D+00
 Gap=     0.269 Goal=   None    Shift=    0.000
 RMSDP=1.43D-06 MaxDP=2.81D-05 DE=-5.88D-08 OVMax= 2.88D-05

 Cycle   8  Pass 1  IDiag  1:
 E= -117.897689750612     Delta-E=       -0.000000013455 Rises=F Damp=F
 DIIS: error= 1.31D-06 at cycle   8 NSaved=   8.
 NSaved= 8 IEnMin= 8 EnMin= -117.897689750612     IErMin= 8 ErrMin= 1.31D-06
 ErrMax= 1.31D-06  0.00D+00 EMaxC= 1.00D-01 BMatC= 2.34D-10 BMatP= 1.34D-08
 IDIUse=1 WtCom= 1.00D+00 WtEn= 0.00D+00
 Coeff-Com:  0.137D-04-0.453D-04-0.690D-03-0.114D-02-0.199D-02 0.397D-01
 Coeff-Com:  0.154D+00 0.810D+00
 Coeff:      0.137D-04-0.453D-04-0.690D-03-0.114D-02-0.199D-02 0.397D-01
 Coeff:      0.154D+00 0.810D+00
 Gap=     0.269 Goal=   None    Shift=    0.000
 RMSDP=2.62D-07 MaxDP=2.86D-06 DE=-1.35D-08 OVMax= 4.49D-06

 Cycle   9  Pass 1  IDiag  1:
 E= -117.897689750869     Delta-E=       -0.000000000257 Rises=F Damp=F
 DIIS: error= 1.06D-07 at cycle   9 NSaved=   9.
 NSaved= 9 IEnMin= 9 EnMin= -117.897689750869     IErMin= 9 ErrMin= 1.06D-07
 ErrMax= 1.06D-07  0.00D+00 EMaxC= 1.00D-01 BMatC= 1.52D-12 BMatP= 2.34D-10
 IDIUse=1 WtCom= 1.00D+00 WtEn= 0.00D+00
 Coeff-Com:  0.188D-05 0.241D-05-0.141D-03-0.318D-03-0.849D-03-0.703D-03
 Coeff-Com:  0.808D-02 0.836D-01 0.910D+00
 Coeff:      0.188D-05 0.241D-05-0.141D-03-0.318D-03-0.849D-03-0.703D-03
 Coeff:      0.808D-02 0.836D-01 0.910D+00
 Gap=     0.269 Goal=   None    Shift=    0.000
 RMSDP=2.41D-08 MaxDP=2.78D-07 DE=-2.57D-10 OVMax= 4.39D-07

 Cycle  10  Pass 1  IDiag  1:
 E= -117.897689750870     Delta-E=       -0.000000000000 Rises=F Damp=F
 DIIS: error= 3.08D-08 at cycle  10 NSaved=  10.
 NSaved=10 IEnMin=10 EnMin= -117.897689750870     IErMin=10 ErrMin= 3.08D-08
 ErrMax= 3.08D-08  0.00D+00 EMaxC= 1.00D-01 BMatC= 5.38D-14 BMatP= 1.52D-12
 IDIUse=1 WtCom= 1.00D+00 WtEn= 0.00D+00
 Coeff-Com:  0.676D-07 0.156D-05-0.179D-04-0.447D-04-0.159D-03-0.831D-03
 Coeff-Com: -0.139D-02 0.240D-02 0.194D+00 0.806D+00
 Coeff:      0.676D-07 0.156D-05-0.179D-04-0.447D-04-0.159D-03-0.831D-03
 Coeff:     -0.139D-02 0.240D-02 0.194D+00 0.806D+00
 Gap=     0.269 Goal=   None    Shift=    0.000
 RMSDP=3.49D-09 MaxDP=4.78D-08 DE=-4.26D-13 OVMax= 6.50D-08

 Error on total polarization charges =  0.00599
 SCF Done:  E(RB3LYP) =  -117.897689751     A.U. after   10 cycles
            NFock= 10  Conv=0.35D-08     -V/T= 2.0069
 KE= 1.170874212523D+02 PE=-4.131721066329D+02 EE= 1.078171754846D+02
 Leave Link  502 at Fri Sep 22 16:30:42 2023, MaxMem=   536870912 cpu:              18.9 elap:               4.8
 (Enter /share/apps/gaussian/g16/l601.exe)
 Copying SCF densities to generalized density rwf, IOpCl= 0 IROHF=0.

 **********************************************************************

            Population analysis using the SCF density.

 **********************************************************************

 Orbital symmetries:
       Occupied  (A) (A) (A) (A) (A) (A) (A) (A) (A) (A) (A) (A)
       Virtual   (A) (A) (A) (A) (A) (A) (A) (A) (A) (A) (A) (A)
                 (A) (A) (A) (A) (A) (A) (A) (A) (A) (A) (A) (A)
                 (A) (A) (A) (A) (A) (A) (A) (A) (A) (A) (A) (A)
                 (A) (A) (A) (A) (A) (A) (A) (A) (A) (A) (A) (A)
                 (A) (A) (A) (A) (A) (A) (A) (A) (A) (A) (A) (A)
 The electronic state is 1-A.
 Alpha  occ. eigenvalues --  -10.18489 -10.17342 -10.16997  -0.78846  -0.68811
 Alpha  occ. eigenvalues --   -0.55933  -0.46538  -0.43075  -0.41389  -0.37268
 Alpha  occ. eigenvalues --   -0.34879  -0.26241
 Alpha virt. eigenvalues --    0.00680   0.05565   0.08130   0.09027   0.11908
 Alpha virt. eigenvalues --    0.13077   0.13791   0.22198   0.32023   0.36933
 Alpha virt. eigenvalues --    0.40057   0.40332   0.48187   0.49204   0.53513
 Alpha virt. eigenvalues --    0.53930   0.57976   0.62535   0.62980   0.64114
 Alpha virt. eigenvalues --    0.64766   0.67652   0.72770   0.76242   0.98764
 Alpha virt. eigenvalues --    1.03349   1.13454   1.25832   1.35691   1.41442
 Alpha virt. eigenvalues --    1.50307   1.69061   1.71421   1.76696   1.86378
 Alpha virt. eigenvalues --    1.86735   1.88199   1.92653   1.93883   1.96380
 Alpha virt. eigenvalues --    1.98804   2.12130   2.16041   2.19243   2.30306
 Alpha virt. eigenvalues --    2.30773   2.47370   2.48191   2.52657   2.55273
 Alpha virt. eigenvalues --    2.67844   2.71947   2.75595   2.92522   3.00468
 Alpha virt. eigenvalues --    3.09397   3.21498   3.24860   3.29318   3.52674
          Condensed to atoms (all electrons):
               1          2          3          4          5          6
     1  C    4.777646   0.688676  -0.086476   0.401131   0.388666  -0.030558
     2  C    0.688676   4.916109   0.392690  -0.029527  -0.020239   0.405289
     3  C   -0.086476   0.392690   4.717796  -0.013665   0.009658  -0.047033
     4  H    0.401131  -0.029527  -0.013665   0.586993  -0.045778   0.009006
     5  H    0.388666  -0.020239   0.009658  -0.045778   0.592561  -0.014841
     6  H   -0.030558   0.405289  -0.047033   0.009006  -0.014841   0.598673
     7  H    0.001013  -0.031870   0.390649   0.000127  -0.000363  -0.003393
     8  H    0.002041  -0.031128   0.390318   0.000138  -0.000366  -0.004091
     9  H   -0.007552  -0.028646   0.400065   0.004766   0.000114   0.007668
               7          8          9
     1  C    0.001013   0.002041  -0.007552
     2  C   -0.031870  -0.031128  -0.028646
     3  C    0.390649   0.390318   0.400065
     4  H    0.000127   0.000138   0.004766
     5  H   -0.000363  -0.000366   0.000114
     6  H   -0.003393  -0.004091   0.007668
     7  H    0.590937  -0.025002  -0.024582
     8  H   -0.025002   0.590731  -0.024405
     9  H   -0.024582  -0.024405   0.583554
 Mulliken charges:
               1
     1  C   -0.134586
     2  C   -0.261355
     3  C   -0.154003
     4  H    0.086809
     5  H    0.090589
     6  H    0.079279
     7  H    0.102484
     8  H    0.101765
     9  H    0.089018
 Sum of Mulliken charges =  -0.00000
 Mulliken charges with hydrogens summed into heavy atoms:
               1
     1  C    0.042812
     2  C   -0.182076
     3  C    0.139263
 Electronic spatial extent (au):  <R**2>=            199.7052
 Charge=             -0.0000 electrons
 Dipole moment (field-independent basis, Debye):
    X=             -0.4676    Y=              0.0777    Z=             -0.0104  Tot=              0.4741
 Quadrupole moment (field-independent basis, Debye-Ang):
   XX=            -19.4157   YY=            -19.0053   ZZ=            -22.0759
   XY=             -0.3732   XZ=             -0.0297   YZ=              0.0012
 Traceless Quadrupole moment (field-independent basis, Debye-Ang):
   XX=              0.7500   YY=              1.1603   ZZ=             -1.9103
   XY=             -0.3732   XZ=             -0.0297   YZ=              0.0012
 Octapole moment (field-independent basis, Debye-Ang**2):
  XXX=              1.2322  YYY=             -0.1687  ZZZ=              0.0294  XYY=              0.5308
  XXY=              0.2474  XXZ=             -0.0434  XZZ=             -2.6296  YZZ=              0.1901
  YYZ=             -0.0741  XYZ=              0.0571
 Hexadecapole moment (field-independent basis, Debye-Ang**3):
 XXXX=           -188.9087 YYYY=            -51.9869 ZZZZ=            -32.6205 XXXY=             -0.1207
 XXXZ=             -0.0529 YYYX=             -0.7205 YYYZ=              0.0481 ZZZX=             -0.1310
 ZZZY=             -0.0161 XXYY=            -40.4731 XXZZ=            -38.1654 YYZZ=            -15.6501
 XXYZ=             -0.0366 YYXZ=              0.0025 ZZXY=             -0.7105
 N-N= 7.036982014522D+01 E-N=-4.131721058619D+02  KE= 1.170874212523D+02
 There are a total of      199266 grid points.
 ElSum from          density=       23.9999917009
 ElSum from atomic densities=       23.9999860653
 Hirshfeld populations at iteration   1 (CA, CB, DipXYZ):
               1          2          3          4          5
     1  C    3.048685   3.048685   0.069705  -0.062352  -0.000063
     2  C    3.013083   3.013083  -0.114674   0.041152   0.000147
     3  C    3.038919   3.038919   0.013720   0.009634  -0.000347
     4  H    0.482405   0.482405   0.031758  -0.147276  -0.002942
     5  H    0.486114   0.486114   0.128739   0.072051  -0.000809
     6  H    0.481719   0.481719  -0.009754   0.146753  -0.000996
     7  H    0.482963   0.482963  -0.072434   0.039645   0.109653
     8  H    0.482926   0.482926  -0.075113   0.046936  -0.105255
     9  H    0.483183   0.483183  -0.004018  -0.138114  -0.002360
       Tot  11.999996  11.999996  -0.032071   0.008429  -0.002972

 Dip from Atomic Chgs             -0.151882   0.022122  -0.001136
         Total Dipole             -0.183953   0.030551  -0.004108

 Hirshfeld charges, spin densities, dipoles, and CM5 charges using IRadAn=      5:
              Q-H        S-H        Dx         Dy         Dz        Q-CM5   
     1  C   -0.097370   0.000000   0.069705  -0.062352  -0.000063  -0.199187
     2  C   -0.026166   0.000000  -0.114674   0.041152   0.000147  -0.091359
     3  C   -0.077837   0.000000   0.013720   0.009634  -0.000347  -0.222284
     4  H    0.035190   0.000000   0.031758  -0.147276  -0.002942   0.088126
     5  H    0.027772   0.000000   0.128739   0.072051  -0.000809   0.079457
     6  H    0.036563   0.000000  -0.009754   0.146753  -0.000996   0.091312
     7  H    0.034075   0.000000  -0.072434   0.039645   0.109653   0.084444
     8  H    0.034148   0.000000  -0.075113   0.046936  -0.105255   0.084511
     9  H    0.033633   0.000000  -0.004018  -0.138114  -0.002360   0.084990
       Tot   0.000008   0.000000  -0.032071   0.008429  -0.002972   0.000008
 Hirshfeld charges with hydrogens summed into heavy atoms:
              Q-H       Q-CM5   
     1  C   -0.034408  -0.031604
     2  C    0.010397  -0.000047
     3  C    0.024020   0.031660
 
 EQQ= 0.000000000000E+00 EQD= 0.000000000000E+00 EDD= 0.944871809585E-03
 EQQ+QD+DD= 0.944871809585E-03
 
 No NMR shielding tensors so no spin-rotation constants.
 Leave Link  601 at Fri Sep 22 16:30:43 2023, MaxMem=   536870912 cpu:               1.5 elap:               0.4
 (Enter /share/apps/gaussian/g16/l9999.exe)
 1\1\GINC-NODE74\SP\RB3LYP\Gen\C3H6\YANZ\22-Sep-2023\0\\#p b3lyp/gen sc
 rf=(cpcm,solvent=toluene) pop=hirshfeld empiricaldispersion=gd3bj\\tmp
 dir/M3_ref_229.gjf\\0,1\C,0,-5.052722,-2.745337,-1.46253002\C,0,-6.272
 276,-2.265206,-1.18131196\C,0,-7.102516,-1.417382,-2.10637808\H,0,-4.4
 8036778,-2.58958424,-2.36400109\H,0,-4.539669,-3.349459,-0.71215701\H,
 0,-6.73979415,-2.47757026,-0.22030627\H,0,-8.050833,-1.924147,-2.33704
 996\H,0,-7.366498,-0.467927,-1.61859298\H,0,-6.609994,-1.188555,-3.055
 68099\\Version=ES64L-G16RevA.03\State=1-A\HF=-117.8976898\RMSD=3.493e-
 09\Dipole=-0.1592741,0.0945921,-0.0217666\Quadrupole=0.4855238,-0.8548
 178,0.369294,-0.6545558,-0.5848408,-0.5400658\PG=C01 [X(C3H6)]\\@


 SOME PHYSICISTS WOULD PREFER TO COME BACK TO THE IDEA OF AN OBJECTIVE
 REAL WORLD WHOSE SMALLEST PARTS EXIST OBJECTIVELY IN THE SAME SENSE AS
 STONES OR TREES EXIST INDEPENDENTLY OF WHETHER WE OBSERVE THEM.
 THIS, HOWEVER, IS IMPOSSIBLE.  -- WERNER HEISENBERG
 Job cpu time:       0 days  0 hours  0 minutes 24.0 seconds.
 Elapsed time:       0 days  0 hours  0 minutes  6.2 seconds.
 File lengths (MBytes):  RWF=     12 Int=      0 D2E=      0 Chk=      2 Scr=      1
 Normal termination of Gaussian 16 at Fri Sep 22 16:30:43 2023.
