 Entering Gaussian System, Link 0=g16
 Initial command:
 /share/apps/gaussian/g16/l1.exe "/tmp/55557.mgr/Gau-207820.inp" -scrdir="/tmp/55557.mgr/"
 Entering Link 1 = /share/apps/gaussian/g16/l1.exe PID=    207821.
  
 Copyright (c) 1988,1990,1992,1993,1995,1998,2003,2009,2016,
            Gaussian, Inc.  All Rights Reserved.
  
 This is part of the Gaussian(R) 16 program.  It is based on
 the Gaussian(R) 09 system (copyright 2009, Gaussian, Inc.),
 the Gaussian(R) 03 system (copyright 2003, Gaussian, Inc.),
 the Gaussian(R) 98 system (copyright 1998, Gaussian, Inc.),
 the Gaussian(R) 94 system (copyright 1995, Gaussian, Inc.),
 the Gaussian 92(TM) system (copyright 1992, Gaussian, Inc.),
 the Gaussian 90(TM) system (copyright 1990, Gaussian, Inc.),
 the Gaussian 88(TM) system (copyright 1988, Gaussian, Inc.),
 the Gaussian 86(TM) system (copyright 1986, Carnegie Mellon
 University), and the Gaussian 82(TM) system (copyright 1983,
 Carnegie Mellon University). Gaussian is a federally registered
 trademark of Gaussian, Inc.
  
 This software contains proprietary and confidential information,
 including trade secrets, belonging to Gaussian, Inc.
  
 This software is provided under written license and may be
 used, copied, transmitted, or stored only in accord with that
 written license.
  
 The following legend is applicable only to US Government
 contracts under FAR:
  
                    RESTRICTED RIGHTS LEGEND
  
 Use, reproduction and disclosure by the US Government is
 subject to restrictions as set forth in subparagraphs (a)
 and (c) of the Commercial Computer Software - Restricted
 Rights clause in FAR 52.227-19.
  
 Gaussian, Inc.
 340 Quinnipiac St., Bldg. 40, Wallingford CT 06492
  
  
 ---------------------------------------------------------------
 Warning -- This program may not be used in any manner that
 competes with the business of Gaussian, Inc. or will provide
 assistance to any competitor of Gaussian, Inc.  The licensee
 of this program is prohibited from giving any competitor of
 Gaussian, Inc. access to this program.  By using this program,
 the user acknowledges that Gaussian, Inc. is engaged in the
 business of creating and licensing software in the field of
 computational chemistry and represents and warrants to the
 licensee that it is not a competitor of Gaussian, Inc. and that
 it will not use this program in any manner prohibited above.
 ---------------------------------------------------------------
  

 Cite this work as:
 Gaussian 16, Revision A.03,
 M. J. Frisch, G. W. Trucks, H. B. Schlegel, G. E. Scuseria, 
 M. A. Robb, J. R. Cheeseman, G. Scalmani, V. Barone, 
 G. A. Petersson, H. Nakatsuji, X. Li, M. Caricato, A. V. Marenich, 
 J. Bloino, B. G. Janesko, R. Gomperts, B. Mennucci, H. P. Hratchian, 
 J. V. Ortiz, A. F. Izmaylov, J. L. Sonnenberg, D. Williams-Young, 
 F. Ding, F. Lipparini, F. Egidi, J. Goings, B. Peng, A. Petrone, 
 T. Henderson, D. Ranasinghe, V. G. Zakrzewski, J. Gao, N. Rega, 
 G. Zheng, W. Liang, M. Hada, M. Ehara, K. Toyota, R. Fukuda, 
 J. Hasegawa, M. Ishida, T. Nakajima, Y. Honda, O. Kitao, H. Nakai, 
 T. Vreven, K. Throssell, J. A. Montgomery, Jr., J. E. Peralta, 
 F. Ogliaro, M. J. Bearpark, J. J. Heyd, E. N. Brothers, K. N. Kudin, 
 V. N. Staroverov, T. A. Keith, R. Kobayashi, J. Normand, 
 K. Raghavachari, A. P. Rendell, J. C. Burant, S. S. Iyengar, 
 J. Tomasi, M. Cossi, J. M. Millam, M. Klene, C. Adamo, R. Cammi, 
 J. W. Ochterski, R. L. Martin, K. Morokuma, O. Farkas, 
 J. B. Foresman, and D. J. Fox, Gaussian, Inc., Wallingford CT, 2016.
 
 ******************************************
 Gaussian 16:  ES64L-G16RevA.03 25-Dec-2016
                22-Sep-2023 
 ******************************************
 %nprocshared=4
 Will use up to    4 processors via shared memory.
 %mem=4GB
 ----------------------------------------------------------------------
 #p b3lyp/gen scrf=(cpcm,solvent=toluene) pop=hirshfeld empiricaldisper
 sion=gd3bj
 ----------------------------------------------------------------------
 1/38=1,172=1/1;
 2/12=2,17=6,18=5,40=1/2;
 3/5=7,11=2,25=1,30=1,70=2101,72=13,74=-5,124=41/1,2,3;
 4//1;
 5/5=2,38=5,53=13/2;
 6/7=2,8=2,9=2,10=2,28=1,79=1/1;
 99/5=1,9=1/99;
 Leave Link    1 at Fri Sep 22 16:28:07 2023, MaxMem=   536870912 cpu:               0.2 elap:               0.0
 (Enter /share/apps/gaussian/g16/l101.exe)
 ---------------------
 tmpdir/M3_ref_127.gjf
 ---------------------
 Symbolic Z-matrix:
 Charge =  0 Multiplicity = 1
 C                     4.82716   0.96048  -1.32507 
 C                     3.65745   1.89526  -1.01316 
 C                     3.14336   2.7375   -1.97405 
 C                     3.12218   1.95558   0.30472 
 C                     2.12485   3.6791   -1.67328 
 H                     3.50567   2.70149  -2.99779 
 C                     2.15655   2.87429   0.63849 
 H                     3.45514   1.2478    1.05984 
 C                     1.64048   3.77672  -0.33098 
 C                     1.5704    4.52966  -2.6678 
 H                     1.75941   2.90044   1.6526 
 C                     0.65469   4.75079  -0.02392 
 C                     0.59265   5.44354  -2.34526 
 H                     1.93209   4.44613  -3.69195 
 C                     0.13939   5.56203  -1.00952 
 H                     0.32576   4.85519   1.00663 
 H                     0.17023   6.08548  -3.11614 
 H                    -0.61747   6.30455  -0.76476 
 H                     5.78544   1.37027  -0.8961 
 H                     4.70856  -0.05176  -0.73507 
 H                     4.94848   0.74553  -2.40633 
 
 ITRead=  0  0  0  0  0  0  0  0  0  0  0  0  0  0  0  0  0  0  0  0
 ITRead=  0
 MicOpt= -1 -1 -1 -1 -1 -1 -1 -1 -1 -1 -1 -1 -1 -1 -1 -1 -1 -1 -1 -1
 MicOpt= -1
 NAtoms=     21 NQM=       21 NQMF=       0 NMMI=      0 NMMIF=      0
                NMic=       0 NMicF=      0.
                    Isotopes and Nuclear Properties:
 (Nuclear quadrupole moments (NQMom) in fm**2, nuclear magnetic moments (NMagM)
  in nuclear magnetons)

  Atom         1           2           3           4           5           6           7           8           9          10
 IAtWgt=          12          12          12          12          12           1          12           1          12          12
 AtmWgt=  12.0000000  12.0000000  12.0000000  12.0000000  12.0000000   1.0078250  12.0000000   1.0078250  12.0000000  12.0000000
 NucSpn=           0           0           0           0           0           1           0           1           0           0
 AtZEff=  -0.0000000  -0.0000000  -0.0000000  -0.0000000  -0.0000000  -0.0000000  -0.0000000  -0.0000000  -0.0000000  -0.0000000
 NQMom=    0.0000000   0.0000000   0.0000000   0.0000000   0.0000000   0.0000000   0.0000000   0.0000000   0.0000000   0.0000000
 NMagM=    0.0000000   0.0000000   0.0000000   0.0000000   0.0000000   2.7928460   0.0000000   2.7928460   0.0000000   0.0000000
 AtZNuc=   6.0000000   6.0000000   6.0000000   6.0000000   6.0000000   1.0000000   6.0000000   1.0000000   6.0000000   6.0000000

  Atom        11          12          13          14          15          16          17          18          19          20
 IAtWgt=           1          12          12           1          12           1           1           1           1           1
 AtmWgt=   1.0078250  12.0000000  12.0000000   1.0078250  12.0000000   1.0078250   1.0078250   1.0078250   1.0078250   1.0078250
 NucSpn=           1           0           0           1           0           1           1           1           1           1
 AtZEff=  -0.0000000  -0.0000000  -0.0000000  -0.0000000  -0.0000000  -0.0000000  -0.0000000  -0.0000000  -0.0000000  -0.0000000
 NQMom=    0.0000000   0.0000000   0.0000000   0.0000000   0.0000000   0.0000000   0.0000000   0.0000000   0.0000000   0.0000000
 NMagM=    2.7928460   0.0000000   0.0000000   2.7928460   0.0000000   2.7928460   2.7928460   2.7928460   2.7928460   2.7928460
 AtZNuc=   1.0000000   6.0000000   6.0000000   1.0000000   6.0000000   1.0000000   1.0000000   1.0000000   1.0000000   1.0000000

  Atom        21
 IAtWgt=           1
 AtmWgt=   1.0078250
 NucSpn=           1
 AtZEff=  -0.0000000
 NQMom=    0.0000000
 NMagM=    2.7928460
 AtZNuc=   1.0000000
 Leave Link  101 at Fri Sep 22 16:28:08 2023, MaxMem=   536870912 cpu:               0.4 elap:               0.1
 (Enter /share/apps/gaussian/g16/l202.exe)
                          Input orientation:                          
 ---------------------------------------------------------------------
 Center     Atomic      Atomic             Coordinates (Angstroms)
 Number     Number       Type             X           Y           Z
 ---------------------------------------------------------------------
      1          6           0        4.827158    0.960475   -1.325072
      2          6           0        3.657451    1.895260   -1.013158
      3          6           0        3.143360    2.737497   -1.974051
      4          6           0        3.122181    1.955584    0.304718
      5          6           0        2.124849    3.679104   -1.673284
      6          1           0        3.505671    2.701494   -2.997790
      7          6           0        2.156554    2.874293    0.638489
      8          1           0        3.455140    1.247799    1.059839
      9          6           0        1.640478    3.776720   -0.330975
     10          6           0        1.570398    4.529661   -2.667798
     11          1           0        1.759414    2.900438    1.652595
     12          6           0        0.654688    4.750794   -0.023924
     13          6           0        0.592651    5.443536   -2.345265
     14          1           0        1.932092    4.446134   -3.691949
     15          6           0        0.139387    5.562027   -1.009519
     16          1           0        0.325761    4.855187    1.006630
     17          1           0        0.170231    6.085484   -3.116139
     18          1           0       -0.617473    6.304547   -0.764759
     19          1           0        5.785444    1.370271   -0.896103
     20          1           0        4.708562   -0.051759   -0.735072
     21          1           0        4.948478    0.745527   -2.406335
 ---------------------------------------------------------------------
                    Distance matrix (angstroms):
                    1          2          3          4          5
     1  C    0.000000
     2  C    1.529486   0.000000
     3  C    2.532619   1.377305   0.000000
     4  C    2.559962   1.423710   2.409279   0.000000
     5  C    3.848983   2.442690   1.419313   2.806721   0.000000
     6  H    2.752355   2.147514   1.086558   3.407346   2.148652
     7  C    3.827584   2.437034   2.796044   1.373996   2.448065
     8  H    2.766368   2.181158   3.394244   1.087212   3.892413
     9  C    4.367424   2.841381   2.457303   2.432300   1.430363
    10  C    5.014827   3.746157   2.483414   4.227263   1.421239
    11  H    4.694786   3.423327   3.885154   2.136973   3.435307
    12  C    5.785241   4.260193   3.748313   3.742957   2.455663
    13  C    6.250574   4.874194   3.737187   5.058334   2.431545
    14  H    5.112077   4.081635   2.708834   4.857211   2.168063
    15  C    6.576401   5.081532   4.234636   4.861143   2.815678
    16  H    6.392823   4.892941   4.616052   4.089052   3.435379
    17  H    7.152664   5.843048   4.620917   6.121466   3.419507
    18  H    7.649645   6.146421   5.322603   5.834576   3.903678
    19  H    1.127058   2.194919   3.164157   2.979519   4.397121
    20  H    1.177617   2.230033   3.429996   2.761737   4.634129
    21  H    1.109076   2.220265   2.722731   3.485599   4.137163
                    6          7          8          9         10
     6  H    0.000000
     7  C    3.882332   0.000000
     8  H    4.310468   2.123522   0.000000
     9  C    3.427384   1.421467   3.409223   0.000000
    10  C    2.682605   3.743709   5.312076   2.456130   0.000000
    11  H    4.971426   1.089410   2.440914   2.171766   4.621243
    12  C    4.601262   2.493120   4.613897   1.419466   2.806687
    13  C    4.053427   4.236696   6.114964   2.816661   1.376657
    14  H    2.449852   4.612349   5.926931   3.439375   1.089350
    15  C    4.844351   3.742834   5.821428   2.429201   2.421459
    16  H    5.548477   2.722365   4.775887   2.163506   3.893136
    17  H    4.752952   5.324890   7.185584   3.905017   2.140575
    18  H    5.913437   4.629360   6.744334   3.417078   3.399788
    19  H    3.374405   4.217333   3.044836   4.826086   5.557631
    20  H    3.761282   4.118396   2.545903   4.922771   5.879873
    21  H    2.501463   4.647304   3.807453   4.943492   5.079316
                   11         12         13         14         15
    11  H    0.000000
    12  C    2.730376   0.000000
    13  C    4.879710   2.423296   0.000000
    14  H    5.566250   3.896022   2.145337   0.000000
    15  C    4.098218   1.376601   1.415523   3.413860   0.000000
    16  H    2.508720   1.086799   3.413588   4.982396   2.144578
    17  H    5.950701   3.402630   1.088477   2.474506   2.170900
    18  H    4.804285   2.140415   2.168810   4.303768   1.088155
    19  H    5.004617   6.205908   6.756971   5.667981   7.032897
    20  H    4.807691   6.324882   7.052071   6.056645   7.243429
    21  H    5.593628   6.336771   6.406890   4.944277   6.948174
                   16         17         18         19         20
    16  H    0.000000
    17  H    4.305234   0.000000
    18  H    2.475511   2.489469   0.000000
    19  H    6.750790   7.661097   8.084657   0.000000
    20  H    6.805922   7.995728   8.292777   1.791026   0.000000
    21  H    7.064499   7.200736   8.035999   1.836197   1.867176
                   21
    21  H    0.000000
 Stoichiometry    C11H10
 Framework group  C1[X(C11H10)]
 Deg. of freedom    57
 Full point group                 C1      NOp   1
 Largest Abelian subgroup         C1      NOp   1
 Largest concise Abelian subgroup C1      NOp   1
                         Standard orientation:                         
 ---------------------------------------------------------------------
 Center     Atomic      Atomic             Coordinates (Angstroms)
 Number     Number       Type             X           Y           Z
 ---------------------------------------------------------------------
      1          6           0       -3.536087   -0.678823    0.078495
      2          6           0       -2.093386   -0.181805   -0.025991
      3          6           0       -1.034570   -1.062606   -0.017841
      4          6           0       -1.819472    1.214700   -0.067141
      5          6           0        0.311172   -0.611586   -0.015022
      6          1           0       -1.203027   -2.136023   -0.015620
      7          6           0       -0.529734    1.687426   -0.035991
      8          1           0       -2.636401    1.926775   -0.154351
      9          6           0        0.574928    0.794024    0.010102
     10          6           0        1.406957   -1.516413   -0.036615
     11          1           0       -0.343701    2.760255   -0.071284
     12          6           0        1.921256    1.241085    0.059270
     13          6           0        2.702600   -1.051432   -0.019666
     14          1           0        1.204524   -2.586345   -0.067448
     15          6           0        2.960953    0.339038    0.039926
     16          1           0        2.115825    2.308078    0.128569
     17          1           0        3.534396   -1.753105   -0.043167
     18          1           0        3.989830    0.691446    0.075998
     19          1           0       -3.936004   -0.514498    1.119323
     20          1           0       -4.249039    0.000502   -0.567259
     21          1           0       -3.664107   -1.738733   -0.221922
 ---------------------------------------------------------------------
 Rotational constants (GHZ):           2.7913260           0.8192131           0.6364258
 Leave Link  202 at Fri Sep 22 16:28:08 2023, MaxMem=   536870912 cpu:               0.0 elap:               0.0
 (Enter /share/apps/gaussian/g16/l301.exe)
 General basis read from cards:  (5D, 7F)
 Centers:       6      8     11     14     16     17     18     19     20     21
 S 3 1.00
     Exponent=  1.2251800000D+01 Coefficients=  2.3337100000D-02
     Exponent=  1.8687100000D+00 Coefficients=  1.5915000000D-01
     Exponent=  4.1820800000D-01 Coefficients=  5.0000000000D-01
 S 1 1.00
     Exponent=  1.0610000000D-01 Coefficients=  1.0000000000D+00
 P 1 1.00
     Exponent=  1.0000000000D+00 Coefficients=  1.0000000000D+00
 ****
 Centers:       1      2      3      4      5      7      9     10     12     13
 Centers:      15
 S 5 1.00
     Exponent=  1.2432000000D+03 Coefficients=  6.0336600000D-03
     Exponent=  1.8714500000D+02 Coefficients=  4.4957600000D-02
     Exponent=  4.2512600000D+01 Coefficients=  1.9790100000D-01
     Exponent=  1.1739300000D+01 Coefficients=  5.0000000000D-01
     Exponent=  3.5054800000D+00 Coefficients=  4.8036400000D-01
 S 2 1.00
     Exponent=  5.3908900000D+00 Coefficients= -7.0398000000D-02
     Exponent=  4.9334100000D-01 Coefficients=  5.0000000000D-01
 S 1 1.00
     Exponent=  1.4974100000D-01 Coefficients=  1.0000000000D+00
 P 3 1.00
     Exponent=  9.1805600000D+00 Coefficients=  4.3170100000D-02
     Exponent=  1.9365800000D+00 Coefficients=  2.2499900000D-01
     Exponent=  5.2629600000D-01 Coefficients=  5.0000000000D-01
 P 1 1.00
     Exponent=  1.3631900000D-01 Coefficients=  1.0000000000D+00
 D 1 1.00
     Exponent=  8.0000000000D-01 Coefficients=  1.0000000000D+00
 ****
 Ernie: Thresh=  0.10000D-02 Tol=  0.10000D-05 Strict=F.
 There are   215 symmetry adapted cartesian basis functions of A   symmetry.
 There are   204 symmetry adapted basis functions of A   symmetry.
   204 basis functions,   356 primitive gaussians,   215 cartesian basis functions
    38 alpha electrons       38 beta electrons
       nuclear repulsion energy       539.6303124782 Hartrees.
 IExCor=  402 DFT=T Ex+Corr=B3LYP ExCW=0 ScaHFX=  0.200000
 ScaDFX=  0.800000  0.720000  1.000000  0.810000 ScalE2=  1.000000  1.000000
 IRadAn=      5 IRanWt=     -1 IRanGd=            0 ICorTp=0 IEmpDi=141
 NAtoms=   21 NActive=   21 NUniq=   21 SFac= 1.00D+00 NAtFMM=   60 NAOKFM=F Big=F
 Integral buffers will be    131072 words long.
 Raffenetti 2 integral format.
 Two-electron integral symmetry is turned on.
 R6Disp:  Grimme-D3(BJ) Dispersion energy=       -0.0417471005 Hartrees.
 Nuclear repulsion after empirical dispersion term =      539.5885653777 Hartrees.
 ------------------------------------------------------------------------------
 Polarizable Continuum Model (PCM)
 =================================
 Model                : C-PCM.
 Atomic radii         : UFF (Universal Force Field).
 Polarization charges : Total charges.
 Charge compensation  : None.
 Solution method      : On-the-fly selection.
 Cavity type          : Scaled VdW (van der Waals Surface) (Alpha=1.100).
 Cavity algorithm     : GePol (No added spheres)
                        Default sphere list used, NSphG=   21.
                        Lebedev-Laikov grids with approx.  5.0 points / Ang**2.
                        Smoothing algorithm: York/Karplus (Gamma=1.0000).
                        Polarization charges: spherical gaussians, with
                                              point-specific exponents (IZeta= 3).
                        Self-potential: point-specific (ISelfS= 7).
                        Self-field    : sphere-specific E.n sum rule (ISelfD= 2).
 Solvent              : Toluene, Eps=   2.374100 Eps(inf)=   2.238315
 ------------------------------------------------------------------------------
 GePol: Number of generator spheres                  =      21
 GePol: Total number of spheres                      =      21
 GePol: Number of exposed spheres                    =      21 (100.00%)
 GePol: Number of points                             =    1674
 GePol: Average weight of points                     =       0.13
 GePol: Minimum weight of points                     =   0.34D-09
 GePol: Maximum weight of points                     =    0.20577
 GePol: Number of points with low weight             =     100
 GePol: Fraction of low-weight points (<1% of avg)   =       5.97%
 GePol: Cavity surface area                          =    218.966 Ang**2
 GePol: Cavity volume                                =    224.733 Ang**3
 Leave Link  301 at Fri Sep 22 16:28:08 2023, MaxMem=   536870912 cpu:               0.4 elap:               0.1
 (Enter /share/apps/gaussian/g16/l302.exe)
 NPDir=0 NMtPBC=     1 NCelOv=     1 NCel=       1 NClECP=     1 NCelD=      1
         NCelK=      1 NCelE2=     1 NClLst=     1 CellRange=     0.0.
 One-electron integrals computed using PRISM.
 One-electron integral symmetry used in STVInt
 NBasis=   204 RedAO= T EigKep=  2.05D-04  NBF=   204
 NBsUse=   204 1.00D-06 EigRej= -1.00D+00 NBFU=   204
 Precomputing XC quadrature grid using
 IXCGrd= 4 IRadAn=           5 IRanWt=          -1 IRanGd=           0 AccXCQ= 0.00D+00.
 Generated NRdTot=       0 NPtTot=           0 NUsed=           0 NTot=          32
 NSgBfM=   214   214   214   214   214 MxSgAt=    21 MxSgA2=    21.
 Leave Link  302 at Fri Sep 22 16:28:08 2023, MaxMem=   536870912 cpu:               1.2 elap:               0.3
 (Enter /share/apps/gaussian/g16/l303.exe)
 DipDrv:  MaxL=1.
 Leave Link  303 at Fri Sep 22 16:28:08 2023, MaxMem=   536870912 cpu:               0.1 elap:               0.1
 (Enter /share/apps/gaussian/g16/l401.exe)
 ExpMin= 1.06D-01 ExpMax= 1.24D+03 ExpMxC= 1.87D+02 IAcc=3 IRadAn=         5 AccDes= 0.00D+00
 Harris functional with IExCor=  402 and IRadAn=       5 diagonalized for initial guess.
 HarFok:  IExCor=  402 AccDes= 0.00D+00 IRadAn=         5 IDoV= 1 UseB2=F ITyADJ=14
 ICtDFT=  3500011 ScaDFX=  1.000000  1.000000  1.000000  1.000000
 FoFCou: FMM=F IPFlag=           0 FMFlag=      100000 FMFlg1=           0
         NFxFlg=           0 DoJE=T BraDBF=F KetDBF=T FulRan=T
         wScrn=  0.000000 ICntrl=       500 IOpCl=  0 I1Cent=   200000004 NGrid=           0
         NMat0=    1 NMatS0=      1 NMatT0=    0 NMatD0=    1 NMtDS0=    0 NMtDT0=    0
 Petite list used in FoFCou.
 Harris En= -425.196298991369    
 JPrj=0 DoOrth=F DoCkMO=F.
 Leave Link  401 at Fri Sep 22 16:28:11 2023, MaxMem=   536870912 cpu:               9.8 elap:               2.5
 (Enter /share/apps/gaussian/g16/l502.exe)
 Keep R1 ints in memory in canonical form, NReq=223664683.
 FoFCou: FMM=F IPFlag=           0 FMFlag=           0 FMFlg1=           0
         NFxFlg=           0 DoJE=F BraDBF=F KetDBF=F FulRan=T
         wScrn=  0.000000 ICntrl=       600 IOpCl=  0 I1Cent=           0 NGrid=           0
         NMat0=    1 NMatS0=  20910 NMatT0=    0 NMatD0=    1 NMtDS0=    0 NMtDT0=    0
 Symmetry not used in FoFCou.
 Two-electron integral symmetry not used.
 Closed shell SCF:
 Using DIIS extrapolation, IDIIS=  1040.
 NGot=   536870912 LenX=   318150254 LenY=   318103588
 Requested convergence on RMS density matrix=1.00D-08 within 128 cycles.
 Requested convergence on MAX density matrix=1.00D-06.
 Requested convergence on             energy=1.00D-06.
 No special actions if energy rises.

 Cycle   1  Pass 1  IDiag  1:
 Inv3:  Mode=1 IEnd=     8406828.
 Iteration    1 A*A^-1 deviation from unit magnitude is 6.88D-15 for    402.
 Iteration    1 A*A^-1 deviation from orthogonality  is 2.74D-15 for    723    411.
 Iteration    1 A^-1*A deviation from unit magnitude is 7.11D-15 for    402.
 Iteration    1 A^-1*A deviation from orthogonality  is 1.22D-15 for   1674    581.
 E= -424.927668016693    
 DIIS: error= 3.46D-02 at cycle   1 NSaved=   1.
 NSaved= 1 IEnMin= 1 EnMin= -424.927668016693     IErMin= 1 ErrMin= 3.46D-02
 ErrMax= 3.46D-02  0.00D+00 EMaxC= 1.00D-01 BMatC= 1.97D-01 BMatP= 1.97D-01
 IDIUse=3 WtCom= 6.54D-01 WtEn= 3.46D-01
 Coeff-Com:  0.100D+01
 Coeff-En:   0.100D+01
 Coeff:      0.100D+01
 Gap=     0.176 Goal=   None    Shift=    0.000
 GapD=    0.176 DampG=1.000 DampE=0.500 DampFc=0.5000 IDamp=-1.
 Damping current iteration by 5.00D-01
 RMSDP=6.46D-03 MaxDP=1.20D-01              OVMax= 1.44D-01

 Cycle   2  Pass 1  IDiag  1:
 E= -425.048297598549     Delta-E=       -0.120629581857 Rises=F Damp=T
 DIIS: error= 4.59D-03 at cycle   2 NSaved=   2.
 NSaved= 2 IEnMin= 2 EnMin= -425.048297598549     IErMin= 2 ErrMin= 4.59D-03
 ErrMax= 4.59D-03  0.00D+00 EMaxC= 1.00D-01 BMatC= 6.34D-03 BMatP= 1.97D-01
 IDIUse=3 WtCom= 9.54D-01 WtEn= 4.59D-02
 Coeff-Com: -0.118D-01 0.101D+01
 Coeff-En:   0.000D+00 0.100D+01
 Coeff:     -0.112D-01 0.101D+01
 Gap=     0.177 Goal=   None    Shift=    0.000
 RMSDP=1.81D-03 MaxDP=3.81D-02 DE=-1.21D-01 OVMax= 8.07D-02

 Cycle   3  Pass 1  IDiag  1:
 E= -425.172326115631     Delta-E=       -0.124028517082 Rises=F Damp=F
 DIIS: error= 1.89D-03 at cycle   3 NSaved=   3.
 NSaved= 3 IEnMin= 3 EnMin= -425.172326115631     IErMin= 3 ErrMin= 1.89D-03
 ErrMax= 1.89D-03  0.00D+00 EMaxC= 1.00D-01 BMatC= 1.22D-03 BMatP= 6.34D-03
 IDIUse=3 WtCom= 9.81D-01 WtEn= 1.89D-02
 Coeff-Com: -0.308D-01 0.267D+00 0.764D+00
 Coeff-En:   0.000D+00 0.000D+00 0.100D+01
 Coeff:     -0.302D-01 0.262D+00 0.768D+00
 Gap=     0.175 Goal=   None    Shift=    0.000
 RMSDP=3.91D-04 MaxDP=8.61D-03 DE=-1.24D-01 OVMax= 9.56D-03

 Cycle   4  Pass 1  IDiag  1:
 E= -425.173164427119     Delta-E=       -0.000838311488 Rises=F Damp=F
 DIIS: error= 8.76D-04 at cycle   4 NSaved=   4.
 NSaved= 4 IEnMin= 4 EnMin= -425.173164427119     IErMin= 4 ErrMin= 8.76D-04
 ErrMax= 8.76D-04  0.00D+00 EMaxC= 1.00D-01 BMatC= 3.79D-04 BMatP= 1.22D-03
 IDIUse=3 WtCom= 9.91D-01 WtEn= 8.76D-03
 Coeff-Com: -0.158D-01 0.823D-01 0.397D+00 0.536D+00
 Coeff-En:   0.000D+00 0.000D+00 0.191D+00 0.809D+00
 Coeff:     -0.157D-01 0.816D-01 0.395D+00 0.539D+00
 Gap=     0.175 Goal=   None    Shift=    0.000
 RMSDP=1.23D-04 MaxDP=4.82D-03 DE=-8.38D-04 OVMax= 7.13D-03

 Cycle   5  Pass 1  IDiag  1:
 E= -425.173522548158     Delta-E=       -0.000358121039 Rises=F Damp=F
 DIIS: error= 2.58D-04 at cycle   5 NSaved=   5.
 NSaved= 5 IEnMin= 5 EnMin= -425.173522548158     IErMin= 5 ErrMin= 2.58D-04
 ErrMax= 2.58D-04  0.00D+00 EMaxC= 1.00D-01 BMatC= 3.20D-05 BMatP= 3.79D-04
 IDIUse=3 WtCom= 9.97D-01 WtEn= 2.58D-03
 Coeff-Com: -0.439D-02 0.965D-02 0.101D+00 0.267D+00 0.627D+00
 Coeff-En:   0.000D+00 0.000D+00 0.000D+00 0.200D-01 0.980D+00
 Coeff:     -0.438D-02 0.962D-02 0.101D+00 0.266D+00 0.628D+00
 Gap=     0.175 Goal=   None    Shift=    0.000
 RMSDP=3.96D-05 MaxDP=1.37D-03 DE=-3.58D-04 OVMax= 2.72D-03

 Cycle   6  Pass 1  IDiag  1:
 E= -425.173552111788     Delta-E=       -0.000029563631 Rises=F Damp=F
 DIIS: error= 1.13D-04 at cycle   6 NSaved=   6.
 NSaved= 6 IEnMin= 6 EnMin= -425.173552111788     IErMin= 6 ErrMin= 1.13D-04
 ErrMax= 1.13D-04  0.00D+00 EMaxC= 1.00D-01 BMatC= 4.82D-06 BMatP= 3.20D-05
 IDIUse=3 WtCom= 9.99D-01 WtEn= 1.13D-03
 Coeff-Com: -0.194D-02 0.163D-02 0.431D-01 0.140D+00 0.391D+00 0.427D+00
 Coeff-En:   0.000D+00 0.000D+00 0.000D+00 0.000D+00 0.693D-01 0.931D+00
 Coeff:     -0.194D-02 0.163D-02 0.431D-01 0.139D+00 0.391D+00 0.427D+00
 Gap=     0.175 Goal=   None    Shift=    0.000
 RMSDP=1.31D-05 MaxDP=4.86D-04 DE=-2.96D-05 OVMax= 8.84D-04

 Cycle   7  Pass 1  IDiag  1:
 E= -425.173557367734     Delta-E=       -0.000005255946 Rises=F Damp=F
 DIIS: error= 1.53D-05 at cycle   7 NSaved=   7.
 NSaved= 7 IEnMin= 7 EnMin= -425.173557367734     IErMin= 7 ErrMin= 1.53D-05
 ErrMax= 1.53D-05  0.00D+00 EMaxC= 1.00D-01 BMatC= 8.18D-08 BMatP= 4.82D-06
 IDIUse=1 WtCom= 1.00D+00 WtEn= 0.00D+00
 Coeff-Com: -0.379D-03-0.982D-04 0.854D-02 0.313D-01 0.956D-01 0.165D+00
 Coeff-Com:  0.700D+00
 Coeff:     -0.379D-03-0.982D-04 0.854D-02 0.313D-01 0.956D-01 0.165D+00
 Coeff:      0.700D+00
 Gap=     0.175 Goal=   None    Shift=    0.000
 RMSDP=2.50D-06 MaxDP=6.93D-05 DE=-5.26D-06 OVMax= 1.59D-04

 Cycle   8  Pass 1  IDiag  1:
 E= -425.173557439534     Delta-E=       -0.000000071800 Rises=F Damp=F
 DIIS: error= 6.59D-06 at cycle   8 NSaved=   8.
 NSaved= 8 IEnMin= 8 EnMin= -425.173557439534     IErMin= 8 ErrMin= 6.59D-06
 ErrMax= 6.59D-06  0.00D+00 EMaxC= 1.00D-01 BMatC= 1.98D-08 BMatP= 8.18D-08
 IDIUse=1 WtCom= 1.00D+00 WtEn= 0.00D+00
 Coeff-Com: -0.529D-04-0.255D-03 0.133D-02 0.687D-02 0.239D-01 0.610D-01
 Coeff-Com:  0.402D+00 0.506D+00
 Coeff:     -0.529D-04-0.255D-03 0.133D-02 0.687D-02 0.239D-01 0.610D-01
 Coeff:      0.402D+00 0.506D+00
 Gap=     0.175 Goal=   None    Shift=    0.000
 RMSDP=8.47D-07 MaxDP=2.87D-05 DE=-7.18D-08 OVMax= 6.16D-05

 Cycle   9  Pass 1  IDiag  1:
 E= -425.173557460214     Delta-E=       -0.000000020679 Rises=F Damp=F
 DIIS: error= 1.29D-06 at cycle   9 NSaved=   9.
 NSaved= 9 IEnMin= 9 EnMin= -425.173557460214     IErMin= 9 ErrMin= 1.29D-06
 ErrMax= 1.29D-06  0.00D+00 EMaxC= 1.00D-01 BMatC= 7.95D-10 BMatP= 1.98D-08
 IDIUse=1 WtCom= 1.00D+00 WtEn= 0.00D+00
 Coeff-Com:  0.890D-06-0.108D-03 0.347D-04 0.102D-02 0.436D-02 0.158D-01
 Coeff-Com:  0.131D+00 0.226D+00 0.623D+00
 Coeff:      0.890D-06-0.108D-03 0.347D-04 0.102D-02 0.436D-02 0.158D-01
 Coeff:      0.131D+00 0.226D+00 0.623D+00
 Gap=     0.175 Goal=   None    Shift=    0.000
 RMSDP=2.50D-07 MaxDP=7.70D-06 DE=-2.07D-08 OVMax= 1.56D-05

 Cycle  10  Pass 1  IDiag  1:
 E= -425.173557460875     Delta-E=       -0.000000000661 Rises=F Damp=F
 DIIS: error= 6.59D-07 at cycle  10 NSaved=  10.
 NSaved=10 IEnMin=10 EnMin= -425.173557460875     IErMin=10 ErrMin= 6.59D-07
 ErrMax= 6.59D-07  0.00D+00 EMaxC= 1.00D-01 BMatC= 2.15D-10 BMatP= 7.95D-10
 IDIUse=1 WtCom= 1.00D+00 WtEn= 0.00D+00
 Coeff-Com:  0.736D-05-0.234D-04-0.173D-03-0.355D-03-0.717D-03 0.111D-02
 Coeff-Com:  0.249D-01 0.670D-01 0.376D+00 0.533D+00
 Coeff:      0.736D-05-0.234D-04-0.173D-03-0.355D-03-0.717D-03 0.111D-02
 Coeff:      0.249D-01 0.670D-01 0.376D+00 0.533D+00
 Gap=     0.175 Goal=   None    Shift=    0.000
 RMSDP=9.16D-08 MaxDP=2.35D-06 DE=-6.61D-10 OVMax= 6.27D-06

 Cycle  11  Pass 1  IDiag  1:
 E= -425.173557461130     Delta-E=       -0.000000000255 Rises=F Damp=F
 DIIS: error= 1.37D-07 at cycle  11 NSaved=  11.
 NSaved=11 IEnMin=11 EnMin= -425.173557461130     IErMin=11 ErrMin= 1.37D-07
 ErrMax= 1.37D-07  0.00D+00 EMaxC= 1.00D-01 BMatC= 4.82D-12 BMatP= 2.15D-10
 IDIUse=1 WtCom= 1.00D+00 WtEn= 0.00D+00
 Coeff-Com:  0.228D-05-0.168D-05-0.651D-04-0.183D-03-0.498D-03-0.627D-03
 Coeff-Com:  0.716D-03 0.102D-01 0.102D+00 0.207D+00 0.681D+00
 Coeff:      0.228D-05-0.168D-05-0.651D-04-0.183D-03-0.498D-03-0.627D-03
 Coeff:      0.716D-03 0.102D-01 0.102D+00 0.207D+00 0.681D+00
 Gap=     0.175 Goal=   None    Shift=    0.000
 RMSDP=2.00D-08 MaxDP=6.52D-07 DE=-2.55D-10 OVMax= 1.26D-06

 Cycle  12  Pass 1  IDiag  1:
 E= -425.173557461123     Delta-E=        0.000000000006 Rises=F Damp=F
 DIIS: error= 1.02D-07 at cycle  12 NSaved=  12.
 NSaved=12 IEnMin=11 EnMin= -425.173557461130     IErMin=12 ErrMin= 1.02D-07
 ErrMax= 1.02D-07  0.00D+00 EMaxC= 1.00D-01 BMatC= 1.71D-12 BMatP= 4.82D-12
 IDIUse=1 WtCom= 1.00D+00 WtEn= 0.00D+00
 Coeff-Com:  0.802D-06 0.133D-05-0.278D-04-0.912D-04-0.274D-03-0.571D-03
 Coeff-Com: -0.232D-02-0.564D-03 0.278D-01 0.804D-01 0.429D+00 0.467D+00
 Coeff:      0.802D-06 0.133D-05-0.278D-04-0.912D-04-0.274D-03-0.571D-03
 Coeff:     -0.232D-02-0.564D-03 0.278D-01 0.804D-01 0.429D+00 0.467D+00
 Gap=     0.175 Goal=   None    Shift=    0.000
 RMSDP=7.89D-09 MaxDP=3.17D-07 DE= 6.25D-12 OVMax= 5.28D-07

 Error on total polarization charges =  0.00912
 SCF Done:  E(RB3LYP) =  -425.173557461     A.U. after   12 cycles
            NFock= 12  Conv=0.79D-08     -V/T= 2.0058
 KE= 4.227114625259D+02 PE=-2.064392523850D+03 EE= 6.769189384848D+02
 Leave Link  502 at Fri Sep 22 16:29:03 2023, MaxMem=   536870912 cpu:             197.0 elap:              52.2
 (Enter /share/apps/gaussian/g16/l601.exe)
 Copying SCF densities to generalized density rwf, IOpCl= 0 IROHF=0.

 **********************************************************************

            Population analysis using the SCF density.

 **********************************************************************

 Orbital symmetries:
       Occupied  (A) (A) (A) (A) (A) (A) (A) (A) (A) (A) (A) (A)
                 (A) (A) (A) (A) (A) (A) (A) (A) (A) (A) (A) (A)
                 (A) (A) (A) (A) (A) (A) (A) (A) (A) (A) (A) (A)
                 (A) (A)
       Virtual   (A) (A) (A) (A) (A) (A) (A) (A) (A) (A) (A) (A)
                 (A) (A) (A) (A) (A) (A) (A) (A) (A) (A) (A) (A)
                 (A) (A) (A) (A) (A) (A) (A) (A) (A) (A) (A) (A)
                 (A) (A) (A) (A) (A) (A) (A) (A) (A) (A) (A) (A)
                 (A) (A) (A) (A) (A) (A) (A) (A) (A) (A) (A) (A)
                 (A) (A) (A) (A) (A) (A) (A) (A) (A) (A) (A) (A)
                 (A) (A) (A) (A) (A) (A) (A) (A) (A) (A) (A) (A)
                 (A) (A) (A) (A) (A) (A) (A) (A) (A) (A) (A) (A)
                 (A) (A) (A) (A) (A) (A) (A) (A) (A) (A) (A) (A)
                 (A) (A) (A) (A) (A) (A) (A) (A) (A) (A) (A) (A)
                 (A) (A) (A) (A) (A) (A) (A) (A) (A) (A) (A) (A)
                 (A) (A) (A) (A) (A) (A) (A) (A) (A) (A) (A) (A)
                 (A) (A) (A) (A) (A) (A) (A) (A) (A) (A) (A) (A)
                 (A) (A) (A) (A) (A) (A) (A) (A) (A) (A)
 The electronic state is 1-A.
 Alpha  occ. eigenvalues --  -10.19545 -10.19234 -10.19155 -10.19031 -10.18591
 Alpha  occ. eigenvalues --  -10.18542 -10.18532 -10.18475 -10.18420 -10.18383
 Alpha  occ. eigenvalues --  -10.18128  -0.88550  -0.83566  -0.78488  -0.76358
 Alpha  occ. eigenvalues --   -0.73321  -0.68760  -0.62971  -0.60545  -0.60353
 Alpha  occ. eigenvalues --   -0.52121  -0.51312  -0.49142  -0.45522  -0.44928
 Alpha  occ. eigenvalues --   -0.43060  -0.42363  -0.41861  -0.40145  -0.39338
 Alpha  occ. eigenvalues --   -0.38370  -0.37100  -0.34566  -0.33863  -0.32875
 Alpha  occ. eigenvalues --   -0.29494  -0.25054  -0.22584
 Alpha virt. eigenvalues --   -0.05069  -0.02440   0.01346   0.04814   0.05454
 Alpha virt. eigenvalues --    0.06402   0.07247   0.08236   0.09488   0.11046
 Alpha virt. eigenvalues --    0.11419   0.12525   0.14366   0.15287   0.18042
 Alpha virt. eigenvalues --    0.18984   0.22982   0.24890   0.26647   0.27199
 Alpha virt. eigenvalues --    0.28524   0.30398   0.31516   0.37203   0.38222
 Alpha virt. eigenvalues --    0.38792   0.40083   0.41016   0.43024   0.43958
 Alpha virt. eigenvalues --    0.44383   0.46358   0.46506   0.46674   0.48125
 Alpha virt. eigenvalues --    0.50202   0.50425   0.50922   0.51121   0.51501
 Alpha virt. eigenvalues --    0.52010   0.52704   0.53168   0.54659   0.55487
 Alpha virt. eigenvalues --    0.58826   0.59342   0.60302   0.61167   0.61375
 Alpha virt. eigenvalues --    0.62994   0.63459   0.64189   0.64787   0.66149
 Alpha virt. eigenvalues --    0.67534   0.68964   0.69794   0.71366   0.71922
 Alpha virt. eigenvalues --    0.82167   0.86362   0.88573   0.90567   0.91190
 Alpha virt. eigenvalues --    0.91781   0.94567   0.95356   0.97957   1.00835
 Alpha virt. eigenvalues --    1.05647   1.05730   1.09315   1.16191   1.21261
 Alpha virt. eigenvalues --    1.22718   1.23654   1.24699   1.27766   1.28954
 Alpha virt. eigenvalues --    1.30665   1.31875   1.33577   1.35430   1.36371
 Alpha virt. eigenvalues --    1.37428   1.38587   1.41501   1.51895   1.56225
 Alpha virt. eigenvalues --    1.63355   1.65286   1.66148   1.67626   1.71875
 Alpha virt. eigenvalues --    1.73847   1.74969   1.77032   1.79262   1.80293
 Alpha virt. eigenvalues --    1.81257   1.83644   1.84106   1.86906   1.87239
 Alpha virt. eigenvalues --    1.88441   1.88627   1.91057   1.91217   1.92421
 Alpha virt. eigenvalues --    1.94474   1.96184   1.98601   2.04107   2.07764
 Alpha virt. eigenvalues --    2.12167   2.15884   2.16435   2.17936   2.19732
 Alpha virt. eigenvalues --    2.20888   2.22164   2.23558   2.24313   2.26027
 Alpha virt. eigenvalues --    2.26304   2.27794   2.29223   2.31009   2.31774
 Alpha virt. eigenvalues --    2.34194   2.35459   2.36589   2.42156   2.43364
 Alpha virt. eigenvalues --    2.46760   2.48591   2.49629   2.52056   2.55005
 Alpha virt. eigenvalues --    2.55930   2.59493   2.60908   2.63830   2.65402
 Alpha virt. eigenvalues --    2.68383   2.70298   2.70678   2.73468   2.86037
 Alpha virt. eigenvalues --    2.90722   2.92409   3.02619   3.04465   3.05772
 Alpha virt. eigenvalues --    3.05894   3.10663   3.11694   3.15337   3.18909
 Alpha virt. eigenvalues --    3.24839   3.30943   3.33369   3.35459   3.64595
 Alpha virt. eigenvalues --    3.78235
          Condensed to atoms (all electrons):
               1          2          3          4          5          6
     1  C    4.701648   0.412031  -0.089789  -0.081789   0.010505  -0.014473
     2  C    0.412031   5.368040   0.428259   0.375261  -0.017292  -0.058779
     3  C   -0.089789   0.428259   4.996662  -0.044356   0.452553   0.430112
     4  C   -0.081789   0.375261  -0.044356   4.933489  -0.063775   0.012309
     5  C    0.010505  -0.017292   0.452553  -0.063775   5.294917  -0.042084
     6  H   -0.014473  -0.058779   0.430112   0.012309  -0.042084   0.644055
     7  C    0.007915  -0.024494  -0.066162   0.510076  -0.080463  -0.001998
     8  H   -0.012861  -0.059582   0.012833   0.421851  -0.001101  -0.000098
     9  C   -0.000315  -0.073916  -0.083102  -0.024221   0.315991   0.015554
    10  C   -0.000314   0.013619  -0.103099  -0.002400   0.445873  -0.021094
    11  H   -0.000261   0.013131  -0.001327  -0.047577   0.013850   0.000064
    12  C    0.000048  -0.001223   0.011514   0.010994  -0.079470  -0.000203
    13  C    0.000003  -0.001453   0.012930   0.000345  -0.024767   0.001207
    14  H   -0.000012   0.001586  -0.020403  -0.000099  -0.046212   0.000311
    15  C   -0.000001   0.000224  -0.001758  -0.001003  -0.069664  -0.000100
    16  H   -0.000000  -0.000113  -0.000207   0.000805   0.015059   0.000014
    17  H   -0.000000   0.000007  -0.000449   0.000000   0.013250   0.000014
    18  H    0.000000  -0.000000   0.000080   0.000007  -0.000807  -0.000002
    19  H    0.387401  -0.032492  -0.004709  -0.003810  -0.000312   0.000198
    20  H    0.381271  -0.031409   0.006436  -0.007788  -0.000407   0.000205
    21  H    0.391328  -0.020215  -0.009555   0.007670   0.000779   0.002383
               7          8          9         10         11         12
     1  C    0.007915  -0.012861  -0.000315  -0.000314  -0.000261   0.000048
     2  C   -0.024494  -0.059582  -0.073916   0.013619   0.013131  -0.001223
     3  C   -0.066162   0.012833  -0.083102  -0.103099  -0.001327   0.011514
     4  C    0.510076   0.421851  -0.024221  -0.002400  -0.047577   0.010994
     5  C   -0.080463  -0.001101   0.315991   0.445873   0.013850  -0.079470
     6  H   -0.001998  -0.000098   0.015554  -0.021094   0.000064  -0.000203
     7  C    4.949642  -0.039503   0.422290   0.013069   0.423522  -0.099050
     8  H   -0.039503   0.633388   0.014982   0.000064  -0.015985  -0.000419
     9  C    0.422290   0.014982   5.343510  -0.079946  -0.050013   0.445976
    10  C    0.013069   0.000064  -0.079946   4.976220  -0.000198  -0.066621
    11  H    0.423522  -0.015985  -0.050013  -0.000198   0.632764  -0.018577
    12  C   -0.099050  -0.000419   0.445976  -0.066621  -0.018577   4.955416
    13  C   -0.001875   0.000002  -0.068095   0.476508  -0.000077  -0.035972
    14  H   -0.000158  -0.000003   0.014479   0.427814   0.000014  -0.001911
    15  C    0.012624   0.000008  -0.027156  -0.037777   0.000819   0.482424
    16  H   -0.020712   0.000014  -0.043512  -0.001778   0.000664   0.425451
    17  H    0.000071   0.000000  -0.000864  -0.042499  -0.000002   0.011630
    18  H   -0.000433  -0.000000   0.013077   0.011733   0.000004  -0.042815
    19  H    0.000099   0.000179   0.000097   0.000025   0.000011  -0.000002
    20  H    0.000828   0.002045  -0.000059   0.000022   0.000005  -0.000001
    21  H   -0.000455   0.000186  -0.000010  -0.000013   0.000013  -0.000001
              13         14         15         16         17         18
     1  C    0.000003  -0.000012  -0.000001  -0.000000  -0.000000   0.000000
     2  C   -0.001453   0.001586   0.000224  -0.000113   0.000007  -0.000000
     3  C    0.012930  -0.020403  -0.001758  -0.000207  -0.000449   0.000080
     4  C    0.000345  -0.000099  -0.001003   0.000805   0.000000   0.000007
     5  C   -0.024767  -0.046212  -0.069664   0.015059   0.013250  -0.000807
     6  H    0.001207   0.000311  -0.000100   0.000014   0.000014  -0.000002
     7  C   -0.001875  -0.000158   0.012624  -0.020712   0.000071  -0.000433
     8  H    0.000002  -0.000003   0.000008   0.000014   0.000000  -0.000000
     9  C   -0.068095   0.014479  -0.027156  -0.043512  -0.000864   0.013077
    10  C    0.476508   0.427814  -0.037777  -0.001778  -0.042499   0.011733
    11  H   -0.000077   0.000014   0.000819   0.000664  -0.000002   0.000004
    12  C   -0.035972  -0.001911   0.482424   0.425451   0.011630  -0.042815
    13  C    4.949163  -0.053988   0.411090   0.011706   0.418357  -0.053495
    14  H   -0.053988   0.634531   0.011874   0.000062  -0.014757  -0.000150
    15  C    0.411090   0.011874   4.951578  -0.053254  -0.053797   0.418428
    16  H    0.011706   0.000062  -0.053254   0.634365  -0.000143  -0.014683
    17  H    0.418357  -0.014757  -0.053797  -0.000143   0.619847  -0.014813
    18  H   -0.053495  -0.000150   0.418428  -0.014683  -0.014813   0.619892
    19  H   -0.000001   0.000001  -0.000000  -0.000000   0.000000  -0.000000
    20  H   -0.000000   0.000001  -0.000000  -0.000000   0.000000  -0.000000
    21  H    0.000000   0.000009  -0.000000   0.000000  -0.000000   0.000000
              19         20         21
     1  C    0.387401   0.381271   0.391328
     2  C   -0.032492  -0.031409  -0.020215
     3  C   -0.004709   0.006436  -0.009555
     4  C   -0.003810  -0.007788   0.007670
     5  C   -0.000312  -0.000407   0.000779
     6  H    0.000198   0.000205   0.002383
     7  C    0.000099   0.000828  -0.000455
     8  H    0.000179   0.002045   0.000186
     9  C    0.000097  -0.000059  -0.000010
    10  C    0.000025   0.000022  -0.000013
    11  H    0.000011   0.000005   0.000013
    12  C   -0.000002  -0.000001  -0.000001
    13  C   -0.000001  -0.000000   0.000000
    14  H    0.000001   0.000001   0.000009
    15  C   -0.000000  -0.000000  -0.000000
    16  H   -0.000000  -0.000000   0.000000
    17  H    0.000000   0.000000  -0.000000
    18  H   -0.000000  -0.000000   0.000000
    19  H    0.583707  -0.028997  -0.020629
    20  H   -0.028997   0.596717  -0.023352
    21  H   -0.020629  -0.023352   0.568007
 Mulliken charges:
               1
     1  C   -0.092334
     2  C   -0.291189
     3  C    0.073535
     4  C    0.004012
     5  C   -0.136424
     6  H    0.032404
     7  C   -0.004833
     8  H    0.044000
     9  C   -0.134747
    10  C   -0.009208
    11  H    0.049155
    12  C    0.002810
    13  C   -0.041589
    14  H    0.047014
    15  C   -0.044560
    16  H    0.046262
    17  H    0.064146
    18  H    0.063975
    19  H    0.119232
    20  H    0.104483
    21  H    0.103856
 Sum of Mulliken charges =  -0.00000
 Mulliken charges with hydrogens summed into heavy atoms:
               1
     1  C    0.235236
     2  C   -0.291189
     3  C    0.105939
     4  C    0.048013
     5  C   -0.136424
     7  C    0.044321
     9  C   -0.134747
    10  C    0.037806
    12  C    0.049073
    13  C    0.022557
    15  C    0.019415
 Electronic spatial extent (au):  <R**2>=           1784.3414
 Charge=             -0.0000 electrons
 Dipole moment (field-independent basis, Debye):
    X=             -0.5185    Y=             -0.0232    Z=              0.0992  Tot=              0.5284
 Quadrupole moment (field-independent basis, Debye-Ang):
   XX=            -56.9664   YY=            -58.1956   ZZ=            -71.7865
   XY=              0.0244   XZ=             -0.1412   YZ=              0.0982
 Traceless Quadrupole moment (field-independent basis, Debye-Ang):
   XX=              5.3498   YY=              4.1206   ZZ=             -9.4704
   XY=              0.0244   XZ=             -0.1412   YZ=              0.0982
 Octapole moment (field-independent basis, Debye-Ang**2):
  XXX=              2.8663  YYY=              0.7381  ZZZ=              1.0480  XYY=              1.5585
  XXY=              0.5355  XXZ=              1.6116  XZZ=             -4.6010  YZZ=             -0.4277
  YYZ=             -0.9719  XYZ=              1.1733
 Hexadecapole moment (field-independent basis, Debye-Ang**3):
 XXXX=          -1703.8657 YYYY=           -539.5943 ZZZZ=            -94.6858 XXXY=            -12.3912
 XXXZ=             -1.9402 YYYX=              0.5873 YYYZ=              1.4988 ZZZX=             -3.7549
 ZZZY=             -0.3227 XXYY=           -376.9391 XXZZ=           -345.9878 YYZZ=           -127.1718
 XXYZ=              0.4186 YYXZ=              3.2616 ZZXY=              1.8375
 N-N= 5.395885653777D+02 E-N=-2.064392524510D+03  KE= 4.227114625259D+02
 There are a total of      474720 grid points.
 ElSum from          density=       76.0000059034
 ElSum from atomic densities=       76.0000374026
 Hirshfeld populations at iteration   1 (CA, CB, DipXYZ):
               1          2          3          4          5
     1  C    3.035017   3.035017   0.023612  -0.006972   0.003558
     2  C    2.999043   2.999043  -0.074452   0.003576   0.007197
     3  C    3.025068   3.025068   0.015041  -0.045858   0.003075
     4  C    3.022860   3.022860  -0.057338   0.007377   0.000768
     5  C    3.003787   3.003787   0.001525   0.001990   0.000155
     6  H    0.480317   0.480317  -0.020922  -0.146769   0.000031
     7  C    3.020457   3.020457   0.035726   0.042912   0.000450
     8  H    0.479710   0.479710  -0.108866   0.103402  -0.012547
     9  C    3.004944   3.004944  -0.000623  -0.000161   0.000284
    10  C    3.021164   3.021164  -0.033012  -0.041219  -0.000771
    11  H    0.478628   0.478628   0.021678   0.150040  -0.005285
    12  C    3.020781   3.020781  -0.014576   0.051197   0.001885
    13  C    3.021389   3.021389   0.056963  -0.013590  -0.001096
    14  H    0.479039   0.479039  -0.024206  -0.149257  -0.004242
    15  C    3.022154   3.022154   0.056286  -0.007907   0.001065
    16  H    0.478905   0.478905   0.030675   0.148112   0.010295
    17  H    0.478901   0.478901   0.118169  -0.098331  -0.003266
    18  H    0.479226   0.479226   0.145626   0.048622   0.005160
    19  H    0.483212   0.483212  -0.057348   0.024243   0.123858
    20  H    0.484023   0.484023  -0.084974   0.078996  -0.061737
    21  H    0.481379   0.481379  -0.020128  -0.138781  -0.035973
       Tot  38.000003  38.000003   0.008854   0.011623   0.032865

 Dip from Atomic Chgs             -0.212853  -0.020767   0.006163
         Total Dipole             -0.203999  -0.009144   0.039028

 Hirshfeld charges, spin densities, dipoles, and CM5 charges using IRadAn=      5:
              Q-H        S-H        Dx         Dy         Dz        Q-CM5   
     1  C   -0.070034   0.000000   0.023612  -0.006972   0.003558  -0.199210
     2  C    0.001915   0.000000  -0.074452   0.003576   0.007197  -0.013838
     3  C   -0.050136   0.000000   0.015041  -0.045858   0.003075  -0.100686
     4  C   -0.045719   0.000000  -0.057338   0.007377   0.000768  -0.098935
     5  C   -0.007574   0.000000   0.001525   0.001990   0.000155  -0.014951
     6  H    0.039365   0.000000  -0.020922  -0.146769   0.000031   0.096627
     7  C   -0.040915   0.000000   0.035726   0.042912   0.000450  -0.093427
     8  H    0.040580   0.000000  -0.108866   0.103402  -0.012547   0.096730
     9  C   -0.009888   0.000000  -0.000623  -0.000161   0.000284  -0.017184
    10  C   -0.042328   0.000000  -0.033012  -0.041219  -0.000771  -0.094879
    11  H    0.042743   0.000000   0.021678   0.150040  -0.005285   0.098673
    12  C   -0.041561   0.000000  -0.014576   0.051197   0.001885  -0.094315
    13  C   -0.042778   0.000000   0.056963  -0.013590  -0.001096  -0.097745
    14  H    0.041923   0.000000  -0.024206  -0.149257  -0.004242   0.097860
    15  C   -0.044307   0.000000   0.056286  -0.007907   0.001065  -0.099299
    16  H    0.042190   0.000000   0.030675   0.148112   0.010295   0.098445
    17  H    0.042198   0.000000   0.118169  -0.098331  -0.003266   0.097363
    18  H    0.041547   0.000000   0.145626   0.048622   0.005160   0.096771
    19  H    0.033577   0.000000  -0.057348   0.024243   0.123858   0.081040
    20  H    0.031955   0.000000  -0.084974   0.078996  -0.061737   0.074215
    21  H    0.037242   0.000000  -0.020128  -0.138781  -0.035973   0.086740
       Tot  -0.000006   0.000000   0.008854   0.011623   0.032865  -0.000006
 Hirshfeld charges with hydrogens summed into heavy atoms:
              Q-H       Q-CM5   
     1  C    0.032740   0.042785
     2  C    0.001915  -0.013838
     3  C   -0.010771  -0.004059
     4  C   -0.005139  -0.002205
     5  C   -0.007574  -0.014951
     7  C    0.001828   0.005246
     9  C   -0.009888  -0.017184
    10  C   -0.000405   0.002981
    12  C    0.000629   0.004129
    13  C   -0.000580  -0.000382
    15  C   -0.002760  -0.002528
 
 EQQ= 0.000000000000E+00 EQD= 0.000000000000E+00 EDD= 0.679209991083E-02
 EQQ+QD+DD= 0.679209991083E-02
 
 No NMR shielding tensors so no spin-rotation constants.
 Leave Link  601 at Fri Sep 22 16:29:05 2023, MaxMem=   536870912 cpu:               7.8 elap:               2.0
 (Enter /share/apps/gaussian/g16/l9999.exe)
 1\1\GINC-NODE74\SP\RB3LYP\Gen\C11H10\YANZ\22-Sep-2023\0\\#p b3lyp/gen 
 scrf=(cpcm,solvent=toluene) pop=hirshfeld empiricaldispersion=gd3bj\\t
 mpdir/M3_ref_127.gjf\\0,1\C,0,4.827158,0.960475,-1.32507205\C,0,3.6574
 51,1.89526,-1.01315796\C,0,3.14336,2.737497,-1.974051\C,0,3.122181,1.9
 55584,0.30471799\C,0,2.124849,3.679104,-1.67328405\H,0,3.505671,2.7014
 94,-2.9977901\C,0,2.156554,2.874293,0.63848901\H,0,3.45514,1.247799,1.
 05983901\C,0,1.640478,3.77672,-0.330975\C,0,1.570398,4.529661,-2.66779
 804\H,0,1.759414,2.900438,1.65259504\C,0,0.654688,4.750794,-0.023924\C
 ,0,0.592651,5.443536,-2.34526491\H,0,1.932092,4.446134,-3.69194889\C,0
 ,0.139387,5.562027,-1.00951898\H,0,0.325761,4.855187,1.00662994\H,0,0.
 170231,6.085484,-3.11613894\H,0,-0.617473,6.304547,-0.764759\H,0,5.785
 44408,1.37027121,-0.89610295\H,0,4.70856152,-0.05175861,-0.73507173\H,
 0,4.94847767,0.74552719,-2.40633472\\Version=ES64L-G16RevA.03\State=1-
 A\HF=-425.1735575\RMSD=7.894e-09\Dipole=0.1682309,-0.1203986,0.0205434
 \Quadrupole=-1.3111237,-1.3063425,2.6174662,-5.2804965,-1.4223673,-1.5
 368396\PG=C01 [X(C11H10)]\\@


 SOME THINGS ARE EASY, THEY ARE ONLY HARD TO DO.
            -- A. EINSTEIN TO J. O. HIRSCHFELDER
 THE ONLY TROUBLE WITH A SURE THING IS THE UNCERTAINTY.
     -- FROM A TEABAG (BELONGING TO W.H.?)
 Job cpu time:       0 days  0 hours  3 minutes 37.0 seconds.
 Elapsed time:       0 days  0 hours  0 minutes 57.3 seconds.
 File lengths (MBytes):  RWF=     42 Int=      0 D2E=      0 Chk=      4 Scr=      1
 Normal termination of Gaussian 16 at Fri Sep 22 16:29:05 2023.
