This job is running on host node107
Current directory: /share/home/Liaoyt/system-test/bnts-ome/ynets-vs
Wed Mar  6 14:45:56 CST 2024
/tmp/85954.mgr/run
 Entering Gaussian System, Link 0=g16
 Initial command:
 /share/apps/gaussian/g16/l1.exe "/tmp/85954.mgr/run/Gau-80831.inp" -scrdir="/tmp/85954.mgr/run/"
 Entering Link 1 = /share/apps/gaussian/g16/l1.exe PID=     80832.
  
 Copyright (c) 1988,1990,1992,1993,1995,1998,2003,2009,2016,
            Gaussian, Inc.  All Rights Reserved.
  
 This is part of the Gaussian(R) 16 program.  It is based on
 the Gaussian(R) 09 system (copyright 2009, Gaussian, Inc.),
 the Gaussian(R) 03 system (copyright 2003, Gaussian, Inc.),
 the Gaussian(R) 98 system (copyright 1998, Gaussian, Inc.),
 the Gaussian(R) 94 system (copyright 1995, Gaussian, Inc.),
 the Gaussian 92(TM) system (copyright 1992, Gaussian, Inc.),
 the Gaussian 90(TM) system (copyright 1990, Gaussian, Inc.),
 the Gaussian 88(TM) system (copyright 1988, Gaussian, Inc.),
 the Gaussian 86(TM) system (copyright 1986, Carnegie Mellon
 University), and the Gaussian 82(TM) system (copyright 1983,
 Carnegie Mellon University). Gaussian is a federally registered
 trademark of Gaussian, Inc.
  
 This software contains proprietary and confidential information,
 including trade secrets, belonging to Gaussian, Inc.
  
 This software is provided under written license and may be
 used, copied, transmitted, or stored only in accord with that
 written license.
  
 The following legend is applicable only to US Government
 contracts under FAR:
  
                    RESTRICTED RIGHTS LEGEND
  
 Use, reproduction and disclosure by the US Government is
 subject to restrictions as set forth in subparagraphs (a)
 and (c) of the Commercial Computer Software - Restricted
 Rights clause in FAR 52.227-19.
  
 Gaussian, Inc.
 340 Quinnipiac St., Bldg. 40, Wallingford CT 06492
  
  
 ---------------------------------------------------------------
 Warning -- This program may not be used in any manner that
 competes with the business of Gaussian, Inc. or will provide
 assistance to any competitor of Gaussian, Inc.  The licensee
 of this program is prohibited from giving any competitor of
 Gaussian, Inc. access to this program.  By using this program,
 the user acknowledges that Gaussian, Inc. is engaged in the
 business of creating and licensing software in the field of
 computational chemistry and represents and warrants to the
 licensee that it is not a competitor of Gaussian, Inc. and that
 it will not use this program in any manner prohibited above.
 ---------------------------------------------------------------
  

 Cite this work as:
 Gaussian 16, Revision A.03,
 M. J. Frisch, G. W. Trucks, H. B. Schlegel, G. E. Scuseria, 
 M. A. Robb, J. R. Cheeseman, G. Scalmani, V. Barone, 
 G. A. Petersson, H. Nakatsuji, X. Li, M. Caricato, A. V. Marenich, 
 J. Bloino, B. G. Janesko, R. Gomperts, B. Mennucci, H. P. Hratchian, 
 J. V. Ortiz, A. F. Izmaylov, J. L. Sonnenberg, D. Williams-Young, 
 F. Ding, F. Lipparini, F. Egidi, J. Goings, B. Peng, A. Petrone, 
 T. Henderson, D. Ranasinghe, V. G. Zakrzewski, J. Gao, N. Rega, 
 G. Zheng, W. Liang, M. Hada, M. Ehara, K. Toyota, R. Fukuda, 
 J. Hasegawa, M. Ishida, T. Nakajima, Y. Honda, O. Kitao, H. Nakai, 
 T. Vreven, K. Throssell, J. A. Montgomery, Jr., J. E. Peralta, 
 F. Ogliaro, M. J. Bearpark, J. J. Heyd, E. N. Brothers, K. N. Kudin, 
 V. N. Staroverov, T. A. Keith, R. Kobayashi, J. Normand, 
 K. Raghavachari, A. P. Rendell, J. C. Burant, S. S. Iyengar, 
 J. Tomasi, M. Cossi, J. M. Millam, M. Klene, C. Adamo, R. Cammi, 
 J. W. Ochterski, R. L. Martin, K. Morokuma, O. Farkas, 
 J. B. Foresman, and D. J. Fox, Gaussian, Inc., Wallingford CT, 2016.
 
 ******************************************
 Gaussian 16:  ES64L-G16RevA.03 25-Dec-2016
                 6-Mar-2024 
 ******************************************
 %chk=Bnts-OMe_TS-prod.chk
 %nprocshared=24
 Will use up to   24 processors via shared memory.
 %mem=24GB
 ----------------------------------------------------------------------
 # b3lyp/6-31g(d) geom=connectivity em=gd3 opt=(noeigen,maxstep=10) opt
 cyc=60
 ----------------------------------------------------------------------
 1/6=60,8=10,11=1,18=20,19=15,26=3,38=1,57=2/1,3;
 2/9=110,12=2,17=6,18=5,40=1/2;
 3/5=1,6=6,7=1,11=2,25=1,30=1,71=1,74=-5,124=31/1,2,3;
 4//1;
 5/5=2,38=5/2;
 6/7=2,8=2,9=2,10=2,28=1/1;
 7//1,2,3,16;
 1/6=60,8=10,11=1,18=20,19=15,26=3/3(2);
 2/9=110/2;
 99//99;
 2/9=110/2;
 3/5=1,6=6,7=1,11=2,25=1,30=1,71=1,74=-5,124=31/1,2,3;
 4/5=5,16=3,69=1/1;
 5/5=2,38=5/2;
 7//1,2,3,16;
 1/6=60,8=10,11=1,18=20,19=15,26=3/3(-5);
 2/9=110/2;
 6/7=2,8=2,9=2,10=2,19=2,28=1/1;
 99/9=1/99;
 -----
 title
 -----
 Symbolic Z-matrix:
 Charge =  0 Multiplicity = 1
 C                     4.02767   0.84654   0.45233 
 C                     4.1921   -0.49676   1.21967 
 C                     3.97127  -1.81706   0.44784 
 C                     2.5191   -2.33393   0.37609 
 C                     2.69089   1.61424   0.57995 
 C                     1.60982   1.29196  -0.47913 
 H                     4.26652   0.69429  -0.6101 
 H                     3.56215  -0.48652   2.1208 
 H                     4.36081  -1.70761  -0.57324 
 H                     4.80656   1.5215    0.82834 
 H                     5.22588  -0.52233   1.58714 
 H                     4.57325  -2.60434   0.92169 
 H                     2.48266  -3.25991  -0.20925 
 H                     2.16981  -2.59939   1.38437 
 H                     2.90489   2.68841   0.51263 
 H                     2.24625   1.44514   1.56829 
 H                     2.00488   1.53347  -1.48141 
 C                     1.29896  -0.14302  -0.42258 
 C                     1.61806  -1.31334  -0.18471 
 N                    -0.68291  -0.40283  -1.55893 
 N                    -0.70572  -1.64323  -1.36061 
 N                    -0.04695  -2.52104  -0.96492 
 C                    -1.95948   0.33457  -1.6051 
 H                    -1.65017   1.37791  -1.68916 
 H                    -2.49826   0.07289  -2.5253 
 C                    -2.85566   0.13658  -0.39807 
 C                    -2.4623    0.60515   0.86391 
 C                    -4.08174  -0.52447  -0.52547 
 C                    -3.28548   0.41332   1.97239 
 H                    -1.50803   1.11488   0.96491 
 C                    -4.90811  -0.71458   0.5846 
 H                    -4.39374  -0.89314  -1.50056 
 C                    -4.51062  -0.24607   1.83659 
 H                    -2.97221   0.78097   2.94635 
 H                    -5.85846  -1.22945   0.46957 
 H                    -5.15049  -0.39318   2.70282 
 O                     0.42997   2.07483  -0.26408 
 C                     0.53664   3.42502  -0.67679 
 H                    -0.46248   3.85943  -0.58576 
 H                     1.2276    4.00843  -0.05196 
 H                     0.86522   3.50074  -1.72534 
 
 Add virtual bond connecting atoms N20        and C18        Dist= 4.34D+00.
 Add virtual bond connecting atoms N22        and C19        Dist= 4.16D+00.

 GradGradGradGradGradGradGradGradGradGradGradGradGradGradGradGradGradGrad
 Berny optimization.
 Initialization pass.
                           ----------------------------
                           !    Initial Parameters    !
                           ! (Angstroms and Degrees)  !
 --------------------------                            --------------------------
 ! Name  Definition              Value          Derivative Info.                !
 --------------------------------------------------------------------------------
 ! R1    R(1,2)                  1.5557         estimate D2E/DX2                !
 ! R2    R(1,5)                  1.5468         estimate D2E/DX2                !
 ! R3    R(1,7)                  1.0995         estimate D2E/DX2                !
 ! R4    R(1,10)                 1.0971         estimate D2E/DX2                !
 ! R5    R(2,3)                  1.5452         estimate D2E/DX2                !
 ! R6    R(2,8)                  1.0995         estimate D2E/DX2                !
 ! R7    R(2,11)                 1.0974         estimate D2E/DX2                !
 ! R8    R(3,4)                  1.5431         estimate D2E/DX2                !
 ! R9    R(3,9)                  1.0983         estimate D2E/DX2                !
 ! R10   R(3,12)                 1.0985         estimate D2E/DX2                !
 ! R11   R(4,13)                 1.0961         estimate D2E/DX2                !
 ! R12   R(4,14)                 1.0996         estimate D2E/DX2                !
 ! R13   R(4,19)                 1.4724         estimate D2E/DX2                !
 ! R14   R(5,6)                  1.5473         estimate D2E/DX2                !
 ! R15   R(5,15)                 1.0973         estimate D2E/DX2                !
 ! R16   R(5,16)                 1.0969         estimate D2E/DX2                !
 ! R17   R(6,17)                 1.1041         estimate D2E/DX2                !
 ! R18   R(6,18)                 1.4694         estimate D2E/DX2                !
 ! R19   R(6,37)                 1.4322         estimate D2E/DX2                !
 ! R20   R(18,19)                1.2361         estimate D2E/DX2                !
 ! R21   R(18,20)                2.2993         estimate D2E/DX2                !
 ! R22   R(19,22)                2.1999         estimate D2E/DX2                !
 ! R23   R(20,21)                1.2564         estimate D2E/DX2                !
 ! R24   R(20,23)                1.475          estimate D2E/DX2                !
 ! R25   R(21,22)                1.1667         estimate D2E/DX2                !
 ! R26   R(23,24)                1.0915         estimate D2E/DX2                !
 ! R27   R(23,25)                1.098          estimate D2E/DX2                !
 ! R28   R(23,26)                1.5163         estimate D2E/DX2                !
 ! R29   R(26,27)                1.4025         estimate D2E/DX2                !
 ! R30   R(26,28)                1.3987         estimate D2E/DX2                !
 ! R31   R(27,29)                1.394          estimate D2E/DX2                !
 ! R32   R(27,30)                1.0866         estimate D2E/DX2                !
 ! R33   R(28,31)                1.3969         estimate D2E/DX2                !
 ! R34   R(28,32)                1.0881         estimate D2E/DX2                !
 ! R35   R(29,33)                1.3979         estimate D2E/DX2                !
 ! R36   R(29,34)                1.0872         estimate D2E/DX2                !
 ! R37   R(31,33)                1.3946         estimate D2E/DX2                !
 ! R38   R(31,35)                1.087          estimate D2E/DX2                !
 ! R39   R(33,36)                1.0869         estimate D2E/DX2                !
 ! R40   R(37,38)                1.4159         estimate D2E/DX2                !
 ! R41   R(38,39)                1.0933         estimate D2E/DX2                !
 ! R42   R(38,40)                1.0992         estimate D2E/DX2                !
 ! R43   R(38,41)                1.1014         estimate D2E/DX2                !
 ! A1    A(2,1,5)              118.6324         estimate D2E/DX2                !
 ! A2    A(2,1,7)              109.5163         estimate D2E/DX2                !
 ! A3    A(2,1,10)             106.6858         estimate D2E/DX2                !
 ! A4    A(5,1,7)              109.644          estimate D2E/DX2                !
 ! A5    A(5,1,10)             106.2562         estimate D2E/DX2                !
 ! A6    A(7,1,10)             105.1967         estimate D2E/DX2                !
 ! A7    A(1,2,3)              118.4438         estimate D2E/DX2                !
 ! A8    A(1,2,8)              109.6113         estimate D2E/DX2                !
 ! A9    A(1,2,11)             106.5491         estimate D2E/DX2                !
 ! A10   A(3,2,8)              109.5997         estimate D2E/DX2                !
 ! A11   A(3,2,11)             106.3773         estimate D2E/DX2                !
 ! A12   A(8,2,11)             105.3959         estimate D2E/DX2                !
 ! A13   A(2,3,4)              116.3546         estimate D2E/DX2                !
 ! A14   A(2,3,9)              109.1801         estimate D2E/DX2                !
 ! A15   A(2,3,12)             108.578          estimate D2E/DX2                !
 ! A16   A(4,3,9)              108.9            estimate D2E/DX2                !
 ! A17   A(4,3,12)             107.1998         estimate D2E/DX2                !
 ! A18   A(9,3,12)             106.1452         estimate D2E/DX2                !
 ! A19   A(3,4,13)             109.8221         estimate D2E/DX2                !
 ! A20   A(3,4,14)             109.7039         estimate D2E/DX2                !
 ! A21   A(3,4,19)             111.188          estimate D2E/DX2                !
 ! A22   A(13,4,14)            105.9728         estimate D2E/DX2                !
 ! A23   A(13,4,19)            111.2128         estimate D2E/DX2                !
 ! A24   A(14,4,19)            108.7957         estimate D2E/DX2                !
 ! A25   A(1,5,6)              116.3565         estimate D2E/DX2                !
 ! A26   A(1,5,15)             108.1943         estimate D2E/DX2                !
 ! A27   A(1,5,16)             110.3748         estimate D2E/DX2                !
 ! A28   A(6,5,15)             107.3456         estimate D2E/DX2                !
 ! A29   A(6,5,16)             107.5415         estimate D2E/DX2                !
 ! A30   A(15,5,16)            106.5738         estimate D2E/DX2                !
 ! A31   A(5,6,17)             109.0135         estimate D2E/DX2                !
 ! A32   A(5,6,18)             108.9583         estimate D2E/DX2                !
 ! A33   A(5,6,37)             111.0356         estimate D2E/DX2                !
 ! A34   A(17,6,18)            108.9213         estimate D2E/DX2                !
 ! A35   A(17,6,37)            108.1507         estimate D2E/DX2                !
 ! A36   A(18,6,37)            110.7178         estimate D2E/DX2                !
 ! A37   A(6,18,19)            151.3294         estimate D2E/DX2                !
 ! A38   A(6,18,20)            105.8842         estimate D2E/DX2                !
 ! A39   A(19,18,20)           102.1593         estimate D2E/DX2                !
 ! A40   A(4,19,18)            152.5605         estimate D2E/DX2                !
 ! A41   A(4,19,22)            102.5747         estimate D2E/DX2                !
 ! A42   A(18,19,22)           104.8403         estimate D2E/DX2                !
 ! A43   A(18,20,21)            92.8201         estimate D2E/DX2                !
 ! A44   A(18,20,23)           134.829          estimate D2E/DX2                !
 ! A45   A(21,20,23)           118.8695         estimate D2E/DX2                !
 ! A46   A(20,21,22)           141.8261         estimate D2E/DX2                !
 ! A47   A(19,22,21)            97.7351         estimate D2E/DX2                !
 ! A48   A(20,23,24)           103.5936         estimate D2E/DX2                !
 ! A49   A(20,23,25)           109.3768         estimate D2E/DX2                !
 ! A50   A(20,23,26)           114.9188         estimate D2E/DX2                !
 ! A51   A(24,23,25)           107.5981         estimate D2E/DX2                !
 ! A52   A(24,23,26)           110.7085         estimate D2E/DX2                !
 ! A53   A(25,23,26)           110.243          estimate D2E/DX2                !
 ! A54   A(23,26,27)           120.457          estimate D2E/DX2                !
 ! A55   A(23,26,28)           120.4821         estimate D2E/DX2                !
 ! A56   A(27,26,28)           119.0593         estimate D2E/DX2                !
 ! A57   A(26,27,29)           120.2607         estimate D2E/DX2                !
 ! A58   A(26,27,30)           119.1243         estimate D2E/DX2                !
 ! A59   A(29,27,30)           120.6146         estimate D2E/DX2                !
 ! A60   A(26,28,31)           120.6972         estimate D2E/DX2                !
 ! A61   A(26,28,32)           119.5426         estimate D2E/DX2                !
 ! A62   A(31,28,32)           119.7602         estimate D2E/DX2                !
 ! A63   A(27,29,33)           120.3447         estimate D2E/DX2                !
 ! A64   A(27,29,34)           119.7156         estimate D2E/DX2                !
 ! A65   A(33,29,34)           119.9395         estimate D2E/DX2                !
 ! A66   A(28,31,33)           119.9382         estimate D2E/DX2                !
 ! A67   A(28,31,35)           119.8417         estimate D2E/DX2                !
 ! A68   A(33,31,35)           120.2199         estimate D2E/DX2                !
 ! A69   A(29,33,31)           119.6997         estimate D2E/DX2                !
 ! A70   A(29,33,36)           120.1552         estimate D2E/DX2                !
 ! A71   A(31,33,36)           120.1451         estimate D2E/DX2                !
 ! A72   A(6,37,38)            114.5461         estimate D2E/DX2                !
 ! A73   A(37,38,39)           106.6061         estimate D2E/DX2                !
 ! A74   A(37,38,40)           112.8185         estimate D2E/DX2                !
 ! A75   A(37,38,41)           111.4399         estimate D2E/DX2                !
 ! A76   A(39,38,40)           108.4364         estimate D2E/DX2                !
 ! A77   A(39,38,41)           108.9395         estimate D2E/DX2                !
 ! A78   A(40,38,41)           108.4897         estimate D2E/DX2                !
 ! D1    D(5,1,2,3)             98.4603         estimate D2E/DX2                !
 ! D2    D(5,1,2,8)            -28.2664         estimate D2E/DX2                !
 ! D3    D(5,1,2,11)          -141.8377         estimate D2E/DX2                !
 ! D4    D(7,1,2,3)            -28.4            estimate D2E/DX2                !
 ! D5    D(7,1,2,8)           -155.1266         estimate D2E/DX2                !
 ! D6    D(7,1,2,11)            91.302          estimate D2E/DX2                !
 ! D7    D(10,1,2,3)          -141.7644         estimate D2E/DX2                !
 ! D8    D(10,1,2,8)            91.509          estimate D2E/DX2                !
 ! D9    D(10,1,2,11)          -22.0624         estimate D2E/DX2                !
 ! D10   D(2,1,5,6)            -91.3746         estimate D2E/DX2                !
 ! D11   D(2,1,5,15)           147.7564         estimate D2E/DX2                !
 ! D12   D(2,1,5,16)            31.5012         estimate D2E/DX2                !
 ! D13   D(7,1,5,6)             35.425          estimate D2E/DX2                !
 ! D14   D(7,1,5,15)           -85.444          estimate D2E/DX2                !
 ! D15   D(7,1,5,16)           158.3008         estimate D2E/DX2                !
 ! D16   D(10,1,5,6)           148.629          estimate D2E/DX2                !
 ! D17   D(10,1,5,15)           27.76           estimate D2E/DX2                !
 ! D18   D(10,1,5,16)          -88.4951         estimate D2E/DX2                !
 ! D19   D(1,2,3,4)            -86.7535         estimate D2E/DX2                !
 ! D20   D(1,2,3,9)             36.9617         estimate D2E/DX2                !
 ! D21   D(1,2,3,12)           152.2717         estimate D2E/DX2                !
 ! D22   D(8,2,3,4)             39.9787         estimate D2E/DX2                !
 ! D23   D(8,2,3,9)            163.6939         estimate D2E/DX2                !
 ! D24   D(8,2,3,12)           -80.9961         estimate D2E/DX2                !
 ! D25   D(11,2,3,4)           153.4556         estimate D2E/DX2                !
 ! D26   D(11,2,3,9)           -82.8292         estimate D2E/DX2                !
 ! D27   D(11,2,3,12)           32.4809         estimate D2E/DX2                !
 ! D28   D(2,3,4,13)           178.8721         estimate D2E/DX2                !
 ! D29   D(2,3,4,14)           -65.0371         estimate D2E/DX2                !
 ! D30   D(2,3,4,19)            55.3518         estimate D2E/DX2                !
 ! D31   D(9,3,4,13)            55.0125         estimate D2E/DX2                !
 ! D32   D(9,3,4,14)           171.1033         estimate D2E/DX2                !
 ! D33   D(9,3,4,19)           -68.5078         estimate D2E/DX2                !
 ! D34   D(12,3,4,13)          -59.4225         estimate D2E/DX2                !
 ! D35   D(12,3,4,14)           56.6682         estimate D2E/DX2                !
 ! D36   D(12,3,4,19)          177.0572         estimate D2E/DX2                !
 ! D37   D(3,4,19,18)          -26.0506         estimate D2E/DX2                !
 ! D38   D(3,4,19,22)          156.4062         estimate D2E/DX2                !
 ! D39   D(13,4,19,18)        -148.7732         estimate D2E/DX2                !
 ! D40   D(13,4,19,22)          33.6836         estimate D2E/DX2                !
 ! D41   D(14,4,19,18)          94.8734         estimate D2E/DX2                !
 ! D42   D(14,4,19,22)         -82.6698         estimate D2E/DX2                !
 ! D43   D(1,5,6,17)           -60.2631         estimate D2E/DX2                !
 ! D44   D(1,5,6,18)            58.4893         estimate D2E/DX2                !
 ! D45   D(1,5,6,37)          -179.311          estimate D2E/DX2                !
 ! D46   D(15,5,6,17)           61.0568         estimate D2E/DX2                !
 ! D47   D(15,5,6,18)          179.8092         estimate D2E/DX2                !
 ! D48   D(15,5,6,37)          -57.9911         estimate D2E/DX2                !
 ! D49   D(16,5,6,17)          175.3964         estimate D2E/DX2                !
 ! D50   D(16,5,6,18)          -65.8512         estimate D2E/DX2                !
 ! D51   D(16,5,6,37)           56.3485         estimate D2E/DX2                !
 ! D52   D(5,6,18,19)          -28.1908         estimate D2E/DX2                !
 ! D53   D(5,6,18,20)          164.1635         estimate D2E/DX2                !
 ! D54   D(17,6,18,19)          90.6193         estimate D2E/DX2                !
 ! D55   D(17,6,18,20)         -77.0264         estimate D2E/DX2                !
 ! D56   D(37,6,18,19)        -150.5823         estimate D2E/DX2                !
 ! D57   D(37,6,18,20)          41.7721         estimate D2E/DX2                !
 ! D58   D(5,6,37,38)           76.3146         estimate D2E/DX2                !
 ! D59   D(17,6,37,38)         -43.2501         estimate D2E/DX2                !
 ! D60   D(18,6,37,38)        -162.5141         estimate D2E/DX2                !
 ! D61   D(6,18,19,4)           11.6111         estimate D2E/DX2                !
 ! D62   D(6,18,19,22)        -170.8695         estimate D2E/DX2                !
 ! D63   D(20,18,19,4)         179.4588         estimate D2E/DX2                !
 ! D64   D(20,18,19,22)         -3.0218         estimate D2E/DX2                !
 ! D65   D(6,18,20,21)        -179.8827         estimate D2E/DX2                !
 ! D66   D(6,18,20,23)         -42.9486         estimate D2E/DX2                !
 ! D67   D(19,18,20,21)          6.1448         estimate D2E/DX2                !
 ! D68   D(19,18,20,23)        143.079          estimate D2E/DX2                !
 ! D69   D(4,19,22,21)         178.8981         estimate D2E/DX2                !
 ! D70   D(18,19,22,21)          0.069          estimate D2E/DX2                !
 ! D71   D(18,20,21,22)         -9.9615         estimate D2E/DX2                !
 ! D72   D(23,20,21,22)       -156.3881         estimate D2E/DX2                !
 ! D73   D(18,20,23,24)         45.8771         estimate D2E/DX2                !
 ! D74   D(18,20,23,25)        160.3822         estimate D2E/DX2                !
 ! D75   D(18,20,23,26)        -75.0194         estimate D2E/DX2                !
 ! D76   D(21,20,23,24)        174.7263         estimate D2E/DX2                !
 ! D77   D(21,20,23,25)        -70.7687         estimate D2E/DX2                !
 ! D78   D(21,20,23,26)         53.8298         estimate D2E/DX2                !
 ! D79   D(20,21,22,19)          8.5761         estimate D2E/DX2                !
 ! D80   D(20,23,26,27)         66.0417         estimate D2E/DX2                !
 ! D81   D(20,23,26,28)       -113.4879         estimate D2E/DX2                !
 ! D82   D(24,23,26,27)        -50.8747         estimate D2E/DX2                !
 ! D83   D(24,23,26,28)        129.5956         estimate D2E/DX2                !
 ! D84   D(25,23,26,27)       -169.816          estimate D2E/DX2                !
 ! D85   D(25,23,26,28)         10.6544         estimate D2E/DX2                !
 ! D86   D(23,26,27,29)       -179.5861         estimate D2E/DX2                !
 ! D87   D(23,26,27,30)          0.1909         estimate D2E/DX2                !
 ! D88   D(28,26,27,29)         -0.0498         estimate D2E/DX2                !
 ! D89   D(28,26,27,30)        179.7272         estimate D2E/DX2                !
 ! D90   D(23,26,28,31)        179.7128         estimate D2E/DX2                !
 ! D91   D(23,26,28,32)         -0.3342         estimate D2E/DX2                !
 ! D92   D(27,26,28,31)          0.1767         estimate D2E/DX2                !
 ! D93   D(27,26,28,32)       -179.8703         estimate D2E/DX2                !
 ! D94   D(26,27,29,33)         -0.0718         estimate D2E/DX2                !
 ! D95   D(26,27,29,34)       -179.9462         estimate D2E/DX2                !
 ! D96   D(30,27,29,33)       -179.8454         estimate D2E/DX2                !
 ! D97   D(30,27,29,34)          0.2802         estimate D2E/DX2                !
 ! D98   D(26,28,31,33)         -0.1818         estimate D2E/DX2                !
 ! D99   D(26,28,31,35)        179.9468         estimate D2E/DX2                !
 ! D100  D(32,28,31,33)        179.8653         estimate D2E/DX2                !
 ! D101  D(32,28,31,35)         -0.0061         estimate D2E/DX2                !
 ! D102  D(27,29,33,31)          0.0679         estimate D2E/DX2                !
 ! D103  D(27,29,33,36)       -179.9446         estimate D2E/DX2                !
 ! D104  D(34,29,33,31)        179.942          estimate D2E/DX2                !
 ! D105  D(34,29,33,36)         -0.0705         estimate D2E/DX2                !
 ! D106  D(28,31,33,29)          0.058          estimate D2E/DX2                !
 ! D107  D(28,31,33,36)       -179.9295         estimate D2E/DX2                !
 ! D108  D(35,31,33,29)        179.929          estimate D2E/DX2                !
 ! D109  D(35,31,33,36)         -0.0586         estimate D2E/DX2                !
 ! D110  D(6,37,38,39)         172.3055         estimate D2E/DX2                !
 ! D111  D(6,37,38,40)         -68.7793         estimate D2E/DX2                !
 ! D112  D(6,37,38,41)          53.5554         estimate D2E/DX2                !
 --------------------------------------------------------------------------------
 Trust Radius=1.00D-01 FncErr=1.00D-07 GrdErr=1.00D-06 EigMax=2.50D+02 EigMin=1.00D-04
 Number of steps in this run=     60 maximum allowed number of steps=    246.
 GradGradGradGradGradGradGradGradGradGradGradGradGradGradGradGradGradGrad

                          Input orientation:                          
 ---------------------------------------------------------------------
 Center     Atomic      Atomic             Coordinates (Angstroms)
 Number     Number       Type             X           Y           Z
 ---------------------------------------------------------------------
      1          6           0        4.027670    0.846537    0.452327
      2          6           0        4.192101   -0.496757    1.219672
      3          6           0        3.971273   -1.817057    0.447844
      4          6           0        2.519099   -2.333933    0.376089
      5          6           0        2.690893    1.614241    0.579950
      6          6           0        1.609821    1.291962   -0.479130
      7          1           0        4.266519    0.694290   -0.610098
      8          1           0        3.562147   -0.486515    2.120803
      9          1           0        4.360814   -1.707613   -0.573240
     10          1           0        4.806562    1.521495    0.828342
     11          1           0        5.225875   -0.522329    1.587138
     12          1           0        4.573248   -2.604340    0.921686
     13          1           0        2.482657   -3.259910   -0.209253
     14          1           0        2.169814   -2.599387    1.384373
     15          1           0        2.904885    2.688412    0.512625
     16          1           0        2.246247    1.445135    1.568287
     17          1           0        2.004885    1.533473   -1.481410
     18          6           0        1.298958   -0.143020   -0.422582
     19          6           0        1.618059   -1.313337   -0.184712
     20          7           0       -0.682907   -0.402831   -1.558934
     21          7           0       -0.705721   -1.643230   -1.360614
     22          7           0       -0.046953   -2.521043   -0.964919
     23          6           0       -1.959480    0.334571   -1.605097
     24          1           0       -1.650165    1.377907   -1.689160
     25          1           0       -2.498258    0.072890   -2.525295
     26          6           0       -2.855664    0.136584   -0.398069
     27          6           0       -2.462304    0.605153    0.863905
     28          6           0       -4.081736   -0.524469   -0.525465
     29          6           0       -3.285483    0.413318    1.972387
     30          1           0       -1.508025    1.114877    0.964911
     31          6           0       -4.908111   -0.714582    0.584597
     32          1           0       -4.393737   -0.893144   -1.500556
     33          6           0       -4.510623   -0.246073    1.836587
     34          1           0       -2.972206    0.780968    2.946353
     35          1           0       -5.858456   -1.229447    0.469572
     36          1           0       -5.150487   -0.393184    2.702821
     37          8           0        0.429965    2.074830   -0.264084
     38          6           0        0.536642    3.425016   -0.676786
     39          1           0       -0.462482    3.859426   -0.585764
     40          1           0        1.227601    4.008426   -0.051961
     41          1           0        0.865224    3.500742   -1.725343
 ---------------------------------------------------------------------
                    Distance matrix (angstroms):
                    1          2          3          4          5
     1  C    0.000000
     2  C    1.555730   0.000000
     3  C    2.664195   1.545211   0.000000
     4  C    3.520936   2.624078   1.543087   0.000000
     5  C    1.546813   2.668180   3.664783   3.957164   0.000000
     6  C    2.629070   3.571220   4.012697   3.834749   1.547330
     7  H    1.099534   2.184534   2.741035   3.632654   2.178330
     8  H    2.185761   1.099538   2.176354   2.746803   2.747087
     9  H    2.772446   2.170062   1.098332   2.164582   3.892711
    10  H    1.097100   2.145703   3.462429   4.505701   2.132218
    11  H    2.144128   1.097440   2.132683   3.474937   3.464894
    12  H    3.525125   2.162400   1.098506   2.142504   4.632113
    13  H    4.437078   3.549513   2.174759   1.096078   4.942019
    14  H    4.024268   2.921956   2.175863   1.099592   4.321259
    15  H    2.157959   3.507441   4.630403   5.038990   1.097346
    16  H    2.185670   2.771069   3.856553   3.972045   1.096867
    17  H    2.881472   4.025120   4.337598   4.321059   2.174014
    18  C    3.031593   3.345505   3.271285   2.631866   2.455712
    19  C    3.298045   3.043812   2.488268   1.472409   3.210357
    20  N    5.272156   5.612056   5.261994   4.210263   4.475034
    21  N    5.647184   5.653400   5.017470   3.727287   5.090569
    22  N    5.472818   5.180709   4.317133   2.901368   5.194516
    23  C    6.351462   6.819998   6.634599   5.577067   5.295088
    24  H    6.091480   6.790268   6.809930   5.951955   4.904029
    25  H    7.214742   7.688314   7.366565   6.275723   6.240641
    26  C    6.971907   7.258733   7.151178   5.965807   5.822739
    27  C    6.507490   6.754397   6.887026   5.804358   5.258738
    28  C    8.282403   8.455924   8.213956   6.903476   7.187804
    29  C    7.482010   7.570276   7.743340   6.617305   6.252853
    30  H    5.565848   5.929056   6.235888   5.334672   4.245995
    31  C    9.072087   9.124945   8.948610   7.604553   7.947849
    32  H    8.818182   9.015175   8.638476   7.306502   7.797914
    33  C    8.718510   8.728163   8.737228   7.477246   7.543324
    34  H    7.431200   7.479392   7.823310   6.816399   6.193940
    35  H   10.101757  10.105107   9.847301   8.450565   9.010556
    36  H    9.531012   9.460148   9.503623   8.246377   8.368009
    37  O    3.868518   4.792521   5.309848   4.920518   2.456895
    38  C    4.484498   5.686760   6.367167   6.180953   3.082059
    39  H    5.506051   6.625788   7.276606   6.940654   4.042712
    40  H    4.253497   5.540937   6.458622   6.486656   2.876223
    41  H    4.667774   5.976723   6.530641   6.418314   3.493756
                    6          7          8          9         10
     6  C    0.000000
     7  H    2.726244   0.000000
     8  H    3.705969   3.057493   0.000000
     9  H    4.071151   2.404036   3.063791   0.000000
    10  H    3.461405   1.745000   2.692792   3.548276   0.000000
    11  H    4.542792   2.688563   1.747590   2.611601   2.220093
    12  H    5.091695   3.649850   2.635411   1.756147   4.133481
    13  H    4.642652   4.356436   3.779706   2.463653   5.416546
    14  H    4.350728   4.384335   2.635365   3.070503   4.923746
    15  H    2.147287   2.662908   3.619170   4.756455   2.253386
    16  H    2.149515   3.064413   2.401695   4.358595   2.666189
    17  H    1.104069   2.564839   4.413769   4.108505   3.631046
    18  C    1.469356   3.089121   3.421815   3.441745   4.079057
    19  C    2.621895   3.350501   3.127061   2.798055   4.385100
    20  N    3.048754   5.157595   5.618536   5.302185   6.287797
    21  N    3.841107   5.545308   5.627873   5.127756   6.722520
    22  N    4.185678   5.391689   5.165906   4.499277   6.566164
    23  C    3.863199   6.315258   6.711548   6.721708   7.287643
    24  H    3.478371   6.053004   6.720125   6.848181   6.931649
    25  H    4.748604   7.058068   7.656871   7.350345   8.167358
    26  C    4.613245   7.147131   6.922519   7.450457   7.882371
    27  C    4.342540   6.888954   6.250243   7.346374   7.326483
    28  C    5.974562   8.437174   8.089074   8.525184   9.220662
    29  C    5.544903   7.986295   6.908094   8.333332   8.247308
    30  H    3.440578   6.000242   5.441249   6.691459   6.329139
    31  C    6.902258   9.358742   8.611458   9.393597   9.971676
    32  H    6.469985   8.849457   8.750753   8.841122   9.792842
    33  C    6.722197   9.160173   8.081349   9.308370   9.536812
    34  H    5.743694   8.065668   6.707147   8.506101   8.095899
    35  H    7.939314  10.362508   9.593033  10.283461  11.019937
    36  H    7.659392  10.041814   8.732551  10.145203  10.311280
    37  O    1.432197   4.092037   4.696673   5.463884   4.544687
    38  C    2.395976   4.623126   5.681572   6.401476   4.911315
    39  H    3.301164   5.690530   6.512323   7.365885   5.935355
    40  H    2.776282   4.531008   5.511398   6.539255   4.446203
    41  H    2.643138   4.548489   6.161530   6.377574   5.096359
                   11         12         13         14         15
    11  H    0.000000
    12  H    2.281122   0.000000
    13  H    4.271606   2.465637   0.000000
    14  H    3.700648   2.447570   1.753227   0.000000
    15  H    4.104928   5.564530   6.006823   5.409352   0.000000
    16  H    3.570638   4.715005   5.035175   4.049423   1.758967
    17  H    4.900723   5.430732   4.982286   5.031943   2.473875
    18  C    4.427587   4.311163   3.340906   3.171311   3.386830
    19  C    4.096521   3.409391   2.130089   2.102471   4.261009
    20  N    6.695204   6.215085   4.472732   4.650369   5.169080
    21  N    6.717849   5.830964   3.755668   4.088752   5.942106
    22  N    6.189553   4.991240   2.741511   3.231001   6.167245
    23  C    7.909107   7.595944   5.882283   5.881846   5.804081
    24  H    7.850156   7.836177   6.385898   6.313296   5.226257
    25  H    8.770896   8.309960   6.425039   6.649621   6.727843
    26  C    8.347843   8.027649   6.330047   5.993168   6.365934
    27  C    7.803998   7.733251   6.367340   5.656543   5.768022
    28  C    9.544355   9.018251   7.118559   6.858181   7.759711
    29  C    8.571293   8.483507   7.177994   6.259586   6.754822
    30  H    6.957946   7.128557   6.036801   5.243873   4.706841
    31  C   10.185270   9.673726   7.856993   7.368117   8.522233
    32  H   10.109812   9.444695   7.386057   7.369822   8.375579
    33  C    9.743610   9.429485   7.885090   7.097241   8.084172
    34  H    8.411574   8.514309   7.486125   6.348776   6.640902
    35  H   11.162946  10.531628   8.611489   8.195530   9.599355
    36  H   10.436969  10.129791   8.658128   7.758379   8.898439
    37  O    5.759602   6.361405   5.716293   5.252884   2.665518
    38  C    6.534202   7.429834   6.978094   6.573360   2.750611
    39  H    7.501912   8.331342   7.713660   7.247530   3.730535
    40  H    6.261037   7.474625   7.377575   6.827446   2.207822
    41  H    6.795065   7.617626   7.114846   6.970213   3.135059
                   16         17         18         19         20
    16  H    0.000000
    17  H    3.060508   0.000000
    18  C    2.717196   2.104775   0.000000
    19  C    3.328182   3.152045   1.236143   0.000000
    20  N    4.666308   3.313534   2.299258   2.830539   0.000000
    21  N    5.179824   4.177729   2.673812   2.625172   1.256360
    22  N    5.235119   4.573391   2.785785   2.199896   2.290003
    23  C    5.384409   4.143532   3.499122   4.187109   1.474968
    24  H    5.079125   3.664253   3.551727   4.493044   2.030659
    25  H    6.414889   4.847813   4.345902   4.933966   2.110844
    26  C    5.622131   5.172027   4.164092   4.707652   2.521795
    27  C    4.834478   5.130113   4.044985   4.629208   3.170557
    28  C    6.950288   6.495838   5.395179   5.764208   3.554559
    29  C    5.641629   6.416499   5.202162   5.628422   4.462032
    30  H    3.816764   4.301191   3.374403   4.121924   3.058439
    31  C    7.537696   7.557225   6.314174   6.598579   4.748080
    32  H    7.679501   6.843333   5.842216   6.168444   3.743538
    33  C    6.970471   7.525140   6.234236   6.541058   5.119135
    34  H    5.438054   6.703938   5.517818   5.938031   5.190364
    35  H    8.605044   8.559918   7.294165   7.505558   5.620003
    36  H    7.705729   8.509944   7.171197   7.416046   6.174295
    37  O    2.655745   2.062843   2.387285   3.591315   3.008974
    38  C    3.447177   2.526082   3.657407   4.885037   4.113137
    39  H    4.219710   3.507155   4.375943   5.589899   4.377497
    40  H    3.198954   2.961906   4.168568   5.337719   5.037876
    41  H    4.120770   2.286586   3.893881   5.110348   4.202652
                   21         22         23         24         25
    21  N    0.000000
    22  N    1.166664   0.000000
    23  C    2.354438   3.496015   0.000000
    24  H    3.182324   4.277455   1.091463   0.000000
    25  H    2.741302   3.895145   1.097963   1.766763   0.000000
    26  C    2.952369   3.908089   1.516331   2.158941   2.157982
    27  C    3.617913   4.353346   2.534170   2.788343   3.430929
    28  C    3.653297   4.523152   2.531309   3.299357   2.619840
    29  C    4.689718   5.265579   3.816134   4.124515   4.578729
    30  H    3.695797   4.367939   2.723533   2.670858   3.774631
    31  C    4.722956   5.412500   3.819674   4.490289   4.012347
    32  H    3.766122   4.672418   2.728337   3.566571   2.361388
    33  C    5.162501   5.740059   4.323270   4.821869   4.814288
    34  H    5.437247   5.895628   4.684077   4.857171   5.537593
    35  H    5.483746   6.123688   4.685341   5.400753   4.685749
    36  H    6.150615   6.635221   5.410204   5.888847   5.880879
    37  O    4.039323   4.673400   3.245961   2.616005   4.206582
    38  C    5.262908   5.981573   4.079612   3.161911   4.885115
    39  H    5.562264   6.405217   3.962909   2.964120   4.716357
    40  H    6.114861   6.715054   5.105578   4.228663   5.957168
    41  H    5.390857   6.137769   4.244767   3.291644   4.868583
                   26         27         28         29         30
    26  C    0.000000
    27  C    1.402450   0.000000
    28  C    1.398740   2.414323   0.000000
    29  C    2.424951   1.393972   2.784372   0.000000
    30  H    2.151953   1.086586   3.395978   2.160220   0.000000
    31  C    2.429538   2.793150   1.396881   2.414755   3.879709
    32  H    2.154411   3.400883   1.088149   3.872519   4.293950
    33  C    2.806956   2.422046   2.416762   1.397929   3.409926
    34  H    3.407928   2.151163   3.871530   1.087161   2.486249
    35  H    3.411100   3.880091   2.154954   3.402546   4.966635
    36  H    3.893891   3.406555   3.403130   2.159217   4.308377
    37  O    3.817081   3.434753   5.213456   4.644026   2.487518
    38  C    4.732780   4.395342   6.078712   5.540495   3.494649
    39  H    4.429684   4.085477   5.685171   5.137035   3.321190
    40  H    5.637730   5.102595   6.997171   6.114795   4.109782
    41  H    5.188856   5.114791   6.489564   6.358755   4.308379
                   31         32         33         34         35
    31  C    0.000000
    32  H    2.155070   0.000000
    33  C    1.394624   3.401307   0.000000
    34  H    3.400337   4.959678   2.157109   0.000000
    35  H    1.086956   2.477883   2.156944   4.301936   0.000000
    36  H    2.156134   4.300117   1.086936   2.486534   2.487560
    37  O    6.082445   5.797054   5.848831   4.853427   7.141480
    38  C    6.955048   6.605584   6.728211   5.694747   7.992211
    39  H    6.484976   6.235265   6.253827   5.315211   7.491789
    40  H    7.769104   7.597582   7.388815   6.086440   8.827203
    41  H    7.512401   6.856634   7.458264   6.629312   8.508831
                   36         37         38         39         40
    36  H    0.000000
    37  O    6.784914   0.000000
    38  C    7.638313   1.415876   0.000000
    39  H    7.132803   2.021070   1.093273   0.000000
    40  H    8.224537   2.102383   1.099181   1.778631   0.000000
    41  H    8.423780   2.087571   1.101441   1.786084   1.785852
                   41
    41  H    0.000000
 Stoichiometry    C16H21N3O
 Framework group  C1[X(C16H21N3O)]
 Deg. of freedom   117
 Full point group                 C1      NOp   1
 Largest Abelian subgroup         C1      NOp   1
 Largest concise Abelian subgroup C1      NOp   1
                         Standard orientation:                         
 ---------------------------------------------------------------------
 Center     Atomic      Atomic             Coordinates (Angstroms)
 Number     Number       Type             X           Y           Z
 ---------------------------------------------------------------------
      1          6           0        4.027670    0.846537    0.452327
      2          6           0        4.192101   -0.496757    1.219672
      3          6           0        3.971273   -1.817057    0.447844
      4          6           0        2.519099   -2.333933    0.376089
      5          6           0        2.690893    1.614241    0.579950
      6          6           0        1.609821    1.291962   -0.479130
      7          1           0        4.266519    0.694290   -0.610098
      8          1           0        3.562147   -0.486515    2.120803
      9          1           0        4.360814   -1.707613   -0.573240
     10          1           0        4.806562    1.521495    0.828342
     11          1           0        5.225875   -0.522329    1.587138
     12          1           0        4.573248   -2.604340    0.921686
     13          1           0        2.482657   -3.259910   -0.209253
     14          1           0        2.169814   -2.599387    1.384373
     15          1           0        2.904885    2.688412    0.512625
     16          1           0        2.246247    1.445135    1.568287
     17          1           0        2.004885    1.533473   -1.481410
     18          6           0        1.298958   -0.143020   -0.422582
     19          6           0        1.618059   -1.313337   -0.184712
     20          7           0       -0.682907   -0.402831   -1.558934
     21          7           0       -0.705721   -1.643230   -1.360614
     22          7           0       -0.046953   -2.521043   -0.964919
     23          6           0       -1.959480    0.334571   -1.605097
     24          1           0       -1.650165    1.377907   -1.689160
     25          1           0       -2.498258    0.072890   -2.525295
     26          6           0       -2.855664    0.136584   -0.398069
     27          6           0       -2.462304    0.605153    0.863905
     28          6           0       -4.081736   -0.524469   -0.525465
     29          6           0       -3.285483    0.413318    1.972387
     30          1           0       -1.508025    1.114877    0.964911
     31          6           0       -4.908111   -0.714582    0.584597
     32          1           0       -4.393737   -0.893144   -1.500556
     33          6           0       -4.510623   -0.246073    1.836587
     34          1           0       -2.972206    0.780968    2.946353
     35          1           0       -5.858456   -1.229447    0.469572
     36          1           0       -5.150487   -0.393184    2.702821
     37          8           0        0.429965    2.074830   -0.264084
     38          6           0        0.536642    3.425016   -0.676786
     39          1           0       -0.462482    3.859426   -0.585764
     40          1           0        1.227601    4.008426   -0.051961
     41          1           0        0.865224    3.500742   -1.725343
 ---------------------------------------------------------------------
 Rotational constants (GHZ):           0.5401753           0.2028890           0.1784966
 Standard basis: 6-31G(d) (6D, 7F)
 There are   342 symmetry adapted cartesian basis functions of A   symmetry.
 There are   342 symmetry adapted basis functions of A   symmetry.
   342 basis functions,   644 primitive gaussians,   342 cartesian basis functions
    73 alpha electrons       73 beta electrons
       nuclear repulsion energy      1530.1324370510 Hartrees.
 NAtoms=   41 NActive=   41 NUniq=   41 SFac= 1.00D+00 NAtFMM=   60 NAOKFM=F Big=F
 Integral buffers will be    131072 words long.
 Raffenetti 2 integral format.
 Two-electron integral symmetry is turned on.
 Nuclear repulsion after empirical dispersion term =     1530.0899898630 Hartrees.
 One-electron integrals computed using PRISM.
 NBasis=   342 RedAO= T EigKep=  4.63D-04  NBF=   342
 NBsUse=   342 1.00D-06 EigRej= -1.00D+00 NBFU=   342
 ExpMin= 1.61D-01 ExpMax= 5.48D+03 ExpMxC= 8.25D+02 IAcc=3 IRadAn=         5 AccDes= 0.00D+00
 Harris functional with IExCor=  402 and IRadAn=       5 diagonalized for initial guess.
 HarFok:  IExCor=  402 AccDes= 0.00D+00 IRadAn=         5 IDoV= 1 UseB2=F ITyADJ=14
 ICtDFT=  3500011 ScaDFX=  1.000000  1.000000  1.000000  1.000000
 FoFCou: FMM=F IPFlag=           0 FMFlag=      100000 FMFlg1=           0
         NFxFlg=           0 DoJE=T BraDBF=F KetDBF=T FulRan=T
         wScrn=  0.000000 ICntrl=       500 IOpCl=  0 I1Cent=   200000004 NGrid=           0
         NMat0=    1 NMatS0=      1 NMatT0=    0 NMatD0=    1 NMtDS0=    0 NMtDT0=    0
 Petite list used in FoFCou.
 Requested convergence on RMS density matrix=1.00D-08 within 128 cycles.
 Requested convergence on MAX density matrix=1.00D-06.
 Requested convergence on             energy=1.00D-06.
 No special actions if energy rises.
 Integral accuracy reduced to 1.0D-05 until final iterations.
 Initial convergence to 1.0D-05 achieved.  Increase integral accuracy.
 SCF Done:  E(RB3LYP) =  -861.686509285     A.U. after   18 cycles
            NFock= 18  Conv=0.81D-08     -V/T= 2.0098

 **********************************************************************

            Population analysis using the SCF density.

 **********************************************************************

 Orbital symmetries:
       Occupied  (A) (A) (A) (A) (A) (A) (A) (A) (A) (A) (A) (A)
                 (A) (A) (A) (A) (A) (A) (A) (A) (A) (A) (A) (A)
                 (A) (A) (A) (A) (A) (A) (A) (A) (A) (A) (A) (A)
                 (A) (A) (A) (A) (A) (A) (A) (A) (A) (A) (A) (A)
                 (A) (A) (A) (A) (A) (A) (A) (A) (A) (A) (A) (A)
                 (A) (A) (A) (A) (A) (A) (A) (A) (A) (A) (A) (A)
                 (A)
       Virtual   (A) (A) (A) (A) (A) (A) (A) (A) (A) (A) (A) (A)
                 (A) (A) (A) (A) (A) (A) (A) (A) (A) (A) (A) (A)
                 (A) (A) (A) (A) (A) (A) (A) (A) (A) (A) (A) (A)
                 (A) (A) (A) (A) (A) (A) (A) (A) (A) (A) (A) (A)
                 (A) (A) (A) (A) (A) (A) (A) (A) (A) (A) (A) (A)
                 (A) (A) (A) (A) (A) (A) (A) (A) (A) (A) (A) (A)
                 (A) (A) (A) (A) (A) (A) (A) (A) (A) (A) (A) (A)
                 (A) (A) (A) (A) (A) (A) (A) (A) (A) (A) (A) (A)
                 (A) (A) (A) (A) (A) (A) (A) (A) (A) (A) (A) (A)
                 (A) (A) (A) (A) (A) (A) (A) (A) (A) (A) (A) (A)
                 (A) (A) (A) (A) (A) (A) (A) (A) (A) (A) (A) (A)
                 (A) (A) (A) (A) (A) (A) (A) (A) (A) (A) (A) (A)
                 (A) (A) (A) (A) (A) (A) (A) (A) (A) (A) (A) (A)
                 (A) (A) (A) (A) (A) (A) (A) (A) (A) (A) (A) (A)
                 (A) (A) (A) (A) (A) (A) (A) (A) (A) (A) (A) (A)
                 (A) (A) (A) (A) (A) (A) (A) (A) (A) (A) (A) (A)
                 (A) (A) (A) (A) (A) (A) (A) (A) (A) (A) (A) (A)
                 (A) (A) (A) (A) (A) (A) (A) (A) (A) (A) (A) (A)
                 (A) (A) (A) (A) (A) (A) (A) (A) (A) (A) (A) (A)
                 (A) (A) (A) (A) (A) (A) (A) (A) (A) (A) (A) (A)
                 (A) (A) (A) (A) (A) (A) (A) (A) (A) (A) (A) (A)
                 (A) (A) (A) (A) (A) (A) (A) (A) (A) (A) (A) (A)
                 (A) (A) (A) (A) (A)
 The electronic state is 1-A.
 Alpha  occ. eigenvalues --  -19.15495 -14.45423 -14.38277 -14.37215 -10.25385
 Alpha  occ. eigenvalues --  -10.23267 -10.22275 -10.19552 -10.18977 -10.18589
 Alpha  occ. eigenvalues --  -10.18564 -10.18473 -10.18425 -10.18378 -10.18362
 Alpha  occ. eigenvalues --  -10.18281 -10.18230 -10.18148 -10.17959 -10.17810
 Alpha  occ. eigenvalues --   -1.09812  -1.03482  -0.92737  -0.84650  -0.81827
 Alpha  occ. eigenvalues --   -0.78007  -0.76700  -0.76213  -0.73640  -0.70185
 Alpha  occ. eigenvalues --   -0.69747  -0.68028  -0.65054  -0.59925  -0.59199
 Alpha  occ. eigenvalues --   -0.58904  -0.57269  -0.52923  -0.51242  -0.50508
 Alpha  occ. eigenvalues --   -0.49330  -0.49129  -0.47366  -0.46869  -0.46093
 Alpha  occ. eigenvalues --   -0.45384  -0.44656  -0.44418  -0.43315  -0.42722
 Alpha  occ. eigenvalues --   -0.42051  -0.41211  -0.40429  -0.40317  -0.39038
 Alpha  occ. eigenvalues --   -0.38966  -0.38436  -0.37818  -0.35402  -0.35079
 Alpha  occ. eigenvalues --   -0.34347  -0.33688  -0.33128  -0.32518  -0.31867
 Alpha  occ. eigenvalues --   -0.31395  -0.28558  -0.26545  -0.24726  -0.24357
 Alpha  occ. eigenvalues --   -0.24259  -0.23155  -0.22880
 Alpha virt. eigenvalues --   -0.03664   0.00084   0.00617   0.02110   0.03839
 Alpha virt. eigenvalues --    0.05549   0.08512   0.09328   0.10282   0.11282
 Alpha virt. eigenvalues --    0.12169   0.13143   0.13358   0.13850   0.14555
 Alpha virt. eigenvalues --    0.15262   0.15520   0.16009   0.16633   0.17108
 Alpha virt. eigenvalues --    0.17246   0.17496   0.18342   0.18607   0.19464
 Alpha virt. eigenvalues --    0.19817   0.20199   0.21949   0.22232   0.22695
 Alpha virt. eigenvalues --    0.23619   0.24562   0.25486   0.25545   0.26508
 Alpha virt. eigenvalues --    0.28659   0.31151   0.31780   0.31915   0.32513
 Alpha virt. eigenvalues --    0.32960   0.33475   0.35308   0.37431   0.45337
 Alpha virt. eigenvalues --    0.45574   0.46734   0.47563   0.50226   0.51047
 Alpha virt. eigenvalues --    0.51265   0.53139   0.53504   0.53761   0.54612
 Alpha virt. eigenvalues --    0.55168   0.55384   0.56675   0.57340   0.57467
 Alpha virt. eigenvalues --    0.57924   0.59176   0.60220   0.60657   0.60953
 Alpha virt. eigenvalues --    0.61248   0.61937   0.62102   0.63162   0.63362
 Alpha virt. eigenvalues --    0.64366   0.66090   0.66484   0.67082   0.68063
 Alpha virt. eigenvalues --    0.68618   0.69684   0.70807   0.71688   0.73149
 Alpha virt. eigenvalues --    0.73899   0.74666   0.75754   0.76349   0.77775
 Alpha virt. eigenvalues --    0.78102   0.78339   0.79573   0.81390   0.82734
 Alpha virt. eigenvalues --    0.83388   0.83819   0.84457   0.84614   0.85451
 Alpha virt. eigenvalues --    0.85566   0.85984   0.86896   0.87434   0.87654
 Alpha virt. eigenvalues --    0.88852   0.89098   0.89632   0.89999   0.90988
 Alpha virt. eigenvalues --    0.91986   0.92756   0.94223   0.94604   0.94938
 Alpha virt. eigenvalues --    0.95244   0.95911   0.96543   0.97015   0.97654
 Alpha virt. eigenvalues --    0.98038   0.99301   0.99750   1.01331   1.02272
 Alpha virt. eigenvalues --    1.03372   1.03890   1.08334   1.10632   1.12552
 Alpha virt. eigenvalues --    1.13555   1.14341   1.17329   1.17739   1.19501
 Alpha virt. eigenvalues --    1.21397   1.21911   1.25606   1.26471   1.28055
 Alpha virt. eigenvalues --    1.28684   1.30562   1.33953   1.34712   1.38978
 Alpha virt. eigenvalues --    1.39551   1.41658   1.42590   1.43803   1.44520
 Alpha virt. eigenvalues --    1.46159   1.47787   1.48789   1.49268   1.50100
 Alpha virt. eigenvalues --    1.50717   1.52046   1.53007   1.54240   1.56317
 Alpha virt. eigenvalues --    1.57514   1.60557   1.63147   1.65277   1.66115
 Alpha virt. eigenvalues --    1.66449   1.69010   1.70418   1.74391   1.75981
 Alpha virt. eigenvalues --    1.76320   1.78730   1.80316   1.81864   1.82086
 Alpha virt. eigenvalues --    1.83142   1.84548   1.85079   1.86387   1.88174
 Alpha virt. eigenvalues --    1.90118   1.90814   1.91104   1.92512   1.92586
 Alpha virt. eigenvalues --    1.93026   1.96225   1.97825   1.98010   1.99514
 Alpha virt. eigenvalues --    2.01916   2.02637   2.03142   2.05269   2.06534
 Alpha virt. eigenvalues --    2.06886   2.07602   2.08961   2.09607   2.10892
 Alpha virt. eigenvalues --    2.12415   2.13246   2.15001   2.15549   2.16919
 Alpha virt. eigenvalues --    2.17623   2.19565   2.21510   2.21847   2.24117
 Alpha virt. eigenvalues --    2.26594   2.28371   2.29214   2.29553   2.31112
 Alpha virt. eigenvalues --    2.32308   2.35100   2.35517   2.35895   2.36990
 Alpha virt. eigenvalues --    2.39554   2.40139   2.43494   2.44610   2.46183
 Alpha virt. eigenvalues --    2.49278   2.51361   2.53525   2.58580   2.59189
 Alpha virt. eigenvalues --    2.59624   2.64124   2.65252   2.66249   2.66866
 Alpha virt. eigenvalues --    2.68916   2.72108   2.72832   2.73876   2.74228
 Alpha virt. eigenvalues --    2.74901   2.76881   2.77360   2.79078   2.81445
 Alpha virt. eigenvalues --    2.86132   2.88540   2.96400   2.99027   3.06139
 Alpha virt. eigenvalues --    3.07191   3.14680   3.39155   3.41638   3.60482
 Alpha virt. eigenvalues --    3.83384   3.99242   4.09777   4.11037   4.11620
 Alpha virt. eigenvalues --    4.13148   4.16609   4.19055   4.23337   4.28544
 Alpha virt. eigenvalues --    4.33689   4.35780   4.38188   4.43879   4.45609
 Alpha virt. eigenvalues --    4.53588   4.60799   4.71166   4.79104
          Condensed to atoms (all electrons):
               1          2          3          4          5          6
     1  C    5.040014   0.366944  -0.032085  -0.001967   0.331043  -0.024609
     2  C    0.366944   5.007574   0.371128  -0.037031  -0.030541  -0.002215
     3  C   -0.032085   0.371128   5.023719   0.370145   0.001437   0.000745
     4  C   -0.001967  -0.037031   0.370145   5.059270   0.000807   0.000420
     5  C    0.331043  -0.030541   0.001437   0.000807   5.145522   0.360971
     6  C   -0.024609  -0.002215   0.000745   0.000420   0.360971   4.854787
     7  H    0.373267  -0.040905  -0.008285  -0.000016  -0.044785  -0.006034
     8  H   -0.042038   0.372663  -0.042173  -0.005265  -0.007959  -0.000155
     9  H   -0.007907  -0.043248   0.373502  -0.036116  -0.000105   0.000035
    10  H    0.365252  -0.037271   0.004056  -0.000061  -0.032326   0.003511
    11  H   -0.037158   0.369741  -0.036282   0.004394   0.003823  -0.000011
    12  H    0.004184  -0.034545   0.358864  -0.036234  -0.000110  -0.000006
    13  H   -0.000144   0.004652  -0.037596   0.356918  -0.000011  -0.000107
    14  H    0.000045  -0.005804  -0.034754   0.365099  -0.000009   0.000129
    15  H   -0.033298   0.003845  -0.000107  -0.000017   0.352762  -0.034521
    16  H   -0.036487  -0.007432  -0.000108  -0.000079   0.361287  -0.029127
    17  H   -0.000173   0.000059  -0.000054   0.000011  -0.062722   0.357326
    18  C   -0.003791   0.003181  -0.005711  -0.081636  -0.055753   0.404531
    19  C    0.003381  -0.004108  -0.050389   0.399457  -0.006879  -0.079154
    20  N   -0.000004   0.000001  -0.000024   0.000968   0.000719  -0.009433
    21  N    0.000000   0.000003  -0.000071  -0.000565  -0.000046  -0.000333
    22  N   -0.000000  -0.000011   0.000822  -0.010711  -0.000020   0.001339
    23  C   -0.000000  -0.000000   0.000000  -0.000010  -0.000004  -0.000007
    24  H   -0.000001  -0.000000   0.000000  -0.000001   0.000028   0.000458
    25  H   -0.000000   0.000000  -0.000000   0.000001   0.000001  -0.000044
    26  C    0.000000  -0.000000   0.000000   0.000001  -0.000008   0.000107
    27  C   -0.000000   0.000000  -0.000000   0.000001   0.000024   0.000225
    28  C    0.000000  -0.000000   0.000000   0.000000  -0.000000   0.000002
    29  C   -0.000000   0.000000   0.000000  -0.000000   0.000001  -0.000003
    30  H    0.000002   0.000000  -0.000000  -0.000000  -0.000100  -0.001190
    31  C   -0.000000   0.000000  -0.000000   0.000000   0.000000   0.000000
    32  H    0.000000   0.000000  -0.000000   0.000000  -0.000000  -0.000000
    33  C    0.000000  -0.000000   0.000000  -0.000000  -0.000000  -0.000000
    34  H   -0.000000   0.000000  -0.000000   0.000000   0.000000   0.000000
    35  H    0.000000  -0.000000  -0.000000  -0.000000  -0.000000   0.000000
    36  H   -0.000000   0.000000  -0.000000   0.000000   0.000000  -0.000000
    37  O    0.002966  -0.000036  -0.000001  -0.000028  -0.041095   0.188378
    38  C    0.000065  -0.000001  -0.000000   0.000002  -0.005209  -0.029470
    39  H    0.000003   0.000000  -0.000000  -0.000000  -0.000072   0.004940
    40  H   -0.000482   0.000001  -0.000000  -0.000000   0.002492  -0.003300
    41  H    0.000079   0.000000  -0.000000  -0.000000  -0.001000  -0.012166
               7          8          9         10         11         12
     1  C    0.373267  -0.042038  -0.007907   0.365252  -0.037158   0.004184
     2  C   -0.040905   0.372663  -0.043248  -0.037271   0.369741  -0.034545
     3  C   -0.008285  -0.042173   0.373502   0.004056  -0.036282   0.358864
     4  C   -0.000016  -0.005265  -0.036116  -0.000061   0.004394  -0.036234
     5  C   -0.044785  -0.007959  -0.000105  -0.032326   0.003823  -0.000110
     6  C   -0.006034  -0.000155   0.000035   0.003511  -0.000011  -0.000006
     7  H    0.601852   0.004950   0.006919  -0.036747   0.001884   0.000163
     8  H    0.004950   0.601849   0.005392   0.001874  -0.036304   0.000349
     9  H    0.006919   0.005392   0.600777   0.000268   0.000081  -0.035723
    10  H   -0.036747   0.001874   0.000268   0.615749  -0.010735  -0.000194
    11  H    0.001884  -0.036304   0.000081  -0.010735   0.615105  -0.007749
    12  H    0.000163   0.000349  -0.035723  -0.000194  -0.007749   0.616653
    13  H   -0.000013   0.000081  -0.004800   0.000003  -0.000143  -0.000851
    14  H    0.000026   0.004502   0.005522   0.000007  -0.000028  -0.004059
    15  H    0.000957   0.000186  -0.000008  -0.008373  -0.000209   0.000003
    16  H    0.005009   0.006306   0.000025   0.000554   0.000269  -0.000010
    17  H    0.005139   0.000010  -0.000052  -0.000152   0.000009  -0.000002
    18  C   -0.000562   0.000041  -0.000118   0.000310  -0.000012   0.000397
    19  C    0.000394  -0.000578  -0.004405   0.000057   0.000294   0.006930
    20  N   -0.000003   0.000000  -0.000001   0.000000  -0.000000   0.000000
    21  N    0.000000   0.000000  -0.000001   0.000000   0.000000   0.000001
    22  N   -0.000000  -0.000002   0.000006  -0.000000   0.000000  -0.000016
    23  C   -0.000000  -0.000000   0.000000   0.000000  -0.000000  -0.000000
    24  H   -0.000000   0.000000   0.000000   0.000000  -0.000000  -0.000000
    25  H   -0.000000   0.000000  -0.000000   0.000000  -0.000000   0.000000
    26  C    0.000000   0.000000  -0.000000  -0.000000   0.000000   0.000000
    27  C   -0.000000  -0.000000  -0.000000   0.000000  -0.000000   0.000000
    28  C    0.000000  -0.000000  -0.000000  -0.000000   0.000000  -0.000000
    29  C   -0.000000  -0.000000  -0.000000   0.000000  -0.000000  -0.000000
    30  H    0.000000  -0.000000  -0.000000  -0.000000   0.000000  -0.000000
    31  C   -0.000000  -0.000000  -0.000000   0.000000  -0.000000   0.000000
    32  H    0.000000   0.000000   0.000000  -0.000000   0.000000  -0.000000
    33  C    0.000000  -0.000000   0.000000  -0.000000   0.000000  -0.000000
    34  H   -0.000000   0.000000   0.000000   0.000000  -0.000000   0.000000
    35  H   -0.000000  -0.000000   0.000000   0.000000   0.000000   0.000000
    36  H    0.000000   0.000000  -0.000000  -0.000000   0.000000  -0.000000
    37  O    0.000054  -0.000003   0.000000  -0.000063   0.000000   0.000000
    38  C   -0.000003  -0.000000  -0.000000  -0.000009   0.000000  -0.000000
    39  H    0.000000  -0.000000  -0.000000  -0.000000   0.000000   0.000000
    40  H   -0.000002   0.000000   0.000000   0.000035  -0.000000   0.000000
    41  H    0.000013  -0.000000  -0.000000  -0.000003  -0.000000  -0.000000
              13         14         15         16         17         18
     1  C   -0.000144   0.000045  -0.033298  -0.036487  -0.000173  -0.003791
     2  C    0.004652  -0.005804   0.003845  -0.007432   0.000059   0.003181
     3  C   -0.037596  -0.034754  -0.000107  -0.000108  -0.000054  -0.005711
     4  C    0.356918   0.365099  -0.000017  -0.000079   0.000011  -0.081636
     5  C   -0.000011  -0.000009   0.352762   0.361287  -0.062722  -0.055753
     6  C   -0.000107   0.000129  -0.034521  -0.029127   0.357326   0.404531
     7  H   -0.000013   0.000026   0.000957   0.005009   0.005139  -0.000562
     8  H    0.000081   0.004502   0.000186   0.006306   0.000010   0.000041
     9  H   -0.004800   0.005522  -0.000008   0.000025  -0.000052  -0.000118
    10  H    0.000003   0.000007  -0.008373   0.000554  -0.000152   0.000310
    11  H   -0.000143  -0.000028  -0.000209   0.000269   0.000009  -0.000012
    12  H   -0.000851  -0.004059   0.000003  -0.000010  -0.000002   0.000397
    13  H    0.577282  -0.035771   0.000000   0.000005   0.000015   0.003194
    14  H   -0.035771   0.578481  -0.000002  -0.000055  -0.000015  -0.001574
    15  H    0.000000  -0.000002   0.617936  -0.035696  -0.004246   0.007377
    16  H    0.000005  -0.000055  -0.035696   0.585023   0.006625  -0.007567
    17  H    0.000015  -0.000015  -0.004246   0.006625   0.648659  -0.048073
    18  C    0.003194  -0.001574   0.007377  -0.007567  -0.048073   4.976224
    19  C   -0.029507  -0.035705   0.000462  -0.000252  -0.000791   0.737146
    20  N    0.000050  -0.000018  -0.000015   0.000001   0.000061   0.057035
    21  N    0.000497  -0.000012   0.000001   0.000000   0.000024  -0.032920
    22  N    0.000613   0.000599   0.000000  -0.000001  -0.000036  -0.011807
    23  C   -0.000002   0.000001  -0.000000  -0.000001   0.000015  -0.002193
    24  H   -0.000000   0.000000  -0.000000  -0.000001  -0.000151  -0.000782
    25  H    0.000000  -0.000000  -0.000000   0.000000   0.000001   0.000338
    26  C    0.000000   0.000000   0.000000   0.000000   0.000014  -0.000301
    27  C    0.000000   0.000000   0.000001  -0.000063  -0.000047   0.000279
    28  C   -0.000000  -0.000000  -0.000000   0.000000   0.000000   0.000004
    29  C   -0.000000   0.000000  -0.000000   0.000001   0.000000   0.000006
    30  H    0.000000  -0.000002  -0.000008   0.000334   0.000210   0.000983
    31  C    0.000000  -0.000000   0.000000  -0.000000  -0.000000  -0.000000
    32  H    0.000000  -0.000000  -0.000000   0.000000   0.000000   0.000001
    33  C   -0.000000  -0.000000  -0.000000   0.000000   0.000000   0.000000
    34  H   -0.000000   0.000000   0.000000  -0.000001  -0.000000   0.000000
    35  H    0.000000   0.000000   0.000000  -0.000000  -0.000000  -0.000000
    36  H    0.000000  -0.000000  -0.000000   0.000000   0.000000   0.000000
    37  O    0.000000   0.000002  -0.001537   0.001623  -0.041263  -0.037189
    38  C   -0.000000  -0.000000   0.000893   0.000178  -0.009269   0.005146
    39  H    0.000000   0.000000  -0.000006  -0.000040  -0.000093  -0.000062
    40  H    0.000000   0.000000   0.003587   0.000021  -0.001718  -0.000200
    41  H    0.000000  -0.000000   0.000102   0.000158   0.016573  -0.000072
              19         20         21         22         23         24
     1  C    0.003381  -0.000004   0.000000  -0.000000  -0.000000  -0.000001
     2  C   -0.004108   0.000001   0.000003  -0.000011  -0.000000  -0.000000
     3  C   -0.050389  -0.000024  -0.000071   0.000822   0.000000   0.000000
     4  C    0.399457   0.000968  -0.000565  -0.010711  -0.000010  -0.000001
     5  C   -0.006879   0.000719  -0.000046  -0.000020  -0.000004   0.000028
     6  C   -0.079154  -0.009433  -0.000333   0.001339  -0.000007   0.000458
     7  H    0.000394  -0.000003   0.000000  -0.000000  -0.000000  -0.000000
     8  H   -0.000578   0.000000   0.000000  -0.000002  -0.000000   0.000000
     9  H   -0.004405  -0.000001  -0.000001   0.000006   0.000000   0.000000
    10  H    0.000057   0.000000   0.000000  -0.000000   0.000000   0.000000
    11  H    0.000294  -0.000000   0.000000   0.000000  -0.000000  -0.000000
    12  H    0.006930   0.000000   0.000001  -0.000016  -0.000000  -0.000000
    13  H   -0.029507   0.000050   0.000497   0.000613  -0.000002  -0.000000
    14  H   -0.035705  -0.000018  -0.000012   0.000599   0.000001   0.000000
    15  H    0.000462  -0.000015   0.000001   0.000000  -0.000000  -0.000000
    16  H   -0.000252   0.000001   0.000000  -0.000001  -0.000001  -0.000001
    17  H   -0.000791   0.000061   0.000024  -0.000036   0.000015  -0.000151
    18  C    0.737146   0.057035  -0.032920  -0.011807  -0.002193  -0.000782
    19  C    5.034899  -0.023255  -0.031838   0.065657   0.001558  -0.000039
    20  N   -0.023255   7.029311   0.248889  -0.119026   0.234176  -0.046792
    21  N   -0.031838   0.248889   6.137215   0.467462  -0.035148   0.006481
    22  N    0.065657  -0.119026   0.467462   6.823656   0.004815  -0.000076
    23  C    0.001558   0.234176  -0.035148   0.004815   5.086210   0.367304
    24  H   -0.000039  -0.046792   0.006481  -0.000076   0.367304   0.551285
    25  H   -0.000003  -0.031308  -0.007609  -0.000157   0.345687  -0.034484
    26  C    0.000030  -0.056731  -0.006860   0.000728   0.339226  -0.027214
    27  C   -0.000010   0.001554  -0.000678  -0.000125  -0.062491  -0.006819
    28  C    0.000001  -0.001623   0.002612   0.000020  -0.046218   0.003334
    29  C   -0.000003   0.000005  -0.000049   0.000000   0.005837   0.000065
    30  H    0.000098   0.001574   0.000097  -0.000041  -0.008979   0.001661
    31  C   -0.000000  -0.000067  -0.000068   0.000001   0.006132  -0.000200
    32  H    0.000000   0.000109   0.000066  -0.000009  -0.010320   0.000082
    33  C    0.000000   0.000010   0.000003   0.000000   0.000351   0.000010
    34  H    0.000000   0.000003   0.000000  -0.000000  -0.000177  -0.000000
    35  H   -0.000000   0.000001   0.000000  -0.000000  -0.000167   0.000003
    36  H    0.000000   0.000000  -0.000000   0.000000   0.000007  -0.000000
    37  O    0.001080   0.000902   0.000257   0.000000  -0.001456   0.008072
    38  C   -0.000102   0.000108  -0.000004   0.000000  -0.000158   0.000562
    39  H    0.000003  -0.000016  -0.000000  -0.000000   0.000049   0.000042
    40  H    0.000006   0.000003   0.000000   0.000000   0.000004   0.000108
    41  H   -0.000006  -0.000042  -0.000001  -0.000000   0.000083  -0.000274
              25         26         27         28         29         30
     1  C   -0.000000   0.000000  -0.000000   0.000000  -0.000000   0.000002
     2  C    0.000000  -0.000000   0.000000  -0.000000   0.000000   0.000000
     3  C   -0.000000   0.000000  -0.000000   0.000000   0.000000  -0.000000
     4  C    0.000001   0.000001   0.000001   0.000000  -0.000000  -0.000000
     5  C    0.000001  -0.000008   0.000024  -0.000000   0.000001  -0.000100
     6  C   -0.000044   0.000107   0.000225   0.000002  -0.000003  -0.001190
     7  H   -0.000000   0.000000  -0.000000   0.000000  -0.000000   0.000000
     8  H    0.000000   0.000000  -0.000000  -0.000000  -0.000000  -0.000000
     9  H   -0.000000  -0.000000  -0.000000  -0.000000  -0.000000  -0.000000
    10  H    0.000000  -0.000000   0.000000  -0.000000   0.000000  -0.000000
    11  H   -0.000000   0.000000  -0.000000   0.000000  -0.000000   0.000000
    12  H    0.000000   0.000000   0.000000  -0.000000  -0.000000  -0.000000
    13  H    0.000000   0.000000   0.000000  -0.000000  -0.000000   0.000000
    14  H   -0.000000   0.000000   0.000000  -0.000000   0.000000  -0.000002
    15  H   -0.000000   0.000000   0.000001  -0.000000  -0.000000  -0.000008
    16  H    0.000000   0.000000  -0.000063   0.000000   0.000001   0.000334
    17  H    0.000001   0.000014  -0.000047   0.000000   0.000000   0.000210
    18  C    0.000338  -0.000301   0.000279   0.000004   0.000006   0.000983
    19  C   -0.000003   0.000030  -0.000010   0.000001  -0.000003   0.000098
    20  N   -0.031308  -0.056731   0.001554  -0.001623   0.000005   0.001574
    21  N   -0.007609  -0.006860  -0.000678   0.002612  -0.000049   0.000097
    22  N   -0.000157   0.000728  -0.000125   0.000020   0.000000  -0.000041
    23  C    0.345687   0.339226  -0.062491  -0.046218   0.005837  -0.008979
    24  H   -0.034484  -0.027214  -0.006819   0.003334   0.000065   0.001661
    25  H    0.605060  -0.039388   0.006382  -0.007355  -0.000131   0.000135
    26  C   -0.039388   4.716550   0.541379   0.542292  -0.020335  -0.040023
    27  C    0.006382   0.541379   5.002642  -0.049386   0.515416   0.340893
    28  C   -0.007355   0.542292  -0.049386   4.975233  -0.046791   0.005885
    29  C   -0.000131  -0.020335   0.515416  -0.046791   4.885233  -0.042984
    30  H    0.000135  -0.040023   0.340893   0.005885  -0.042984   0.557409
    31  C    0.000146  -0.020113  -0.045683   0.522641  -0.025561   0.000267
    32  H    0.008039  -0.043937   0.006445   0.351327   0.000335  -0.000159
    33  C   -0.000012  -0.035546  -0.033402  -0.035212   0.542680   0.004450
    34  H    0.000003   0.003634  -0.040055   0.000870   0.357056  -0.005035
    35  H   -0.000006   0.003925   0.000724  -0.040340   0.004671   0.000015
    36  H   -0.000000   0.000649   0.004614   0.004821  -0.043541  -0.000154
    37  O    0.000173  -0.002568  -0.004813  -0.000015   0.000157   0.020441
    38  C   -0.000010   0.000078   0.000197   0.000001  -0.000010  -0.000897
    39  H   -0.000010   0.000094   0.000222   0.000001  -0.000010  -0.000293
    40  H    0.000000  -0.000008   0.000016  -0.000000   0.000001  -0.000031
    41  H   -0.000002   0.000013  -0.000046   0.000000   0.000000   0.000177
              31         32         33         34         35         36
     1  C   -0.000000   0.000000   0.000000  -0.000000   0.000000  -0.000000
     2  C    0.000000   0.000000  -0.000000   0.000000  -0.000000   0.000000
     3  C   -0.000000  -0.000000   0.000000  -0.000000  -0.000000  -0.000000
     4  C    0.000000   0.000000  -0.000000   0.000000  -0.000000   0.000000
     5  C    0.000000  -0.000000  -0.000000   0.000000  -0.000000   0.000000
     6  C    0.000000  -0.000000  -0.000000   0.000000   0.000000  -0.000000
     7  H   -0.000000   0.000000   0.000000  -0.000000  -0.000000   0.000000
     8  H   -0.000000   0.000000  -0.000000   0.000000  -0.000000   0.000000
     9  H   -0.000000   0.000000   0.000000   0.000000   0.000000  -0.000000
    10  H    0.000000  -0.000000  -0.000000   0.000000   0.000000  -0.000000
    11  H   -0.000000   0.000000   0.000000  -0.000000   0.000000   0.000000
    12  H    0.000000  -0.000000  -0.000000   0.000000   0.000000  -0.000000
    13  H    0.000000   0.000000  -0.000000  -0.000000   0.000000   0.000000
    14  H   -0.000000  -0.000000  -0.000000   0.000000   0.000000  -0.000000
    15  H    0.000000  -0.000000  -0.000000   0.000000   0.000000  -0.000000
    16  H   -0.000000   0.000000   0.000000  -0.000001  -0.000000   0.000000
    17  H   -0.000000   0.000000   0.000000  -0.000000  -0.000000   0.000000
    18  C   -0.000000   0.000001   0.000000   0.000000  -0.000000   0.000000
    19  C   -0.000000   0.000000   0.000000   0.000000  -0.000000   0.000000
    20  N   -0.000067   0.000109   0.000010   0.000003   0.000001   0.000000
    21  N   -0.000068   0.000066   0.000003   0.000000   0.000000  -0.000000
    22  N    0.000001  -0.000009   0.000000  -0.000000  -0.000000   0.000000
    23  C    0.006132  -0.010320   0.000351  -0.000177  -0.000167   0.000007
    24  H   -0.000200   0.000082   0.000010  -0.000000   0.000003  -0.000000
    25  H    0.000146   0.008039  -0.000012   0.000003  -0.000006  -0.000000
    26  C   -0.020113  -0.043937  -0.035546   0.003634   0.003925   0.000649
    27  C   -0.045683   0.006445  -0.033402  -0.040055   0.000724   0.004614
    28  C    0.522641   0.351327  -0.035212   0.000870  -0.040340   0.004821
    29  C   -0.025561   0.000335   0.542680   0.357056   0.004671  -0.043541
    30  H    0.000267  -0.000159   0.004450  -0.005035   0.000015  -0.000154
    31  C    4.864792  -0.045622   0.552891   0.004643   0.356779  -0.043470
    32  H   -0.045622   0.610861   0.004795   0.000018  -0.005610  -0.000182
    33  C    0.552891   0.004795   4.855245  -0.043958  -0.043477   0.358824
    34  H    0.004643   0.000018  -0.043958   0.601180  -0.000187  -0.005621
    35  H    0.356779  -0.005610  -0.043477  -0.000187   0.601647  -0.005661
    36  H   -0.043470  -0.000182   0.358824  -0.005621  -0.005661   0.602661
    37  O   -0.000000   0.000000   0.000000  -0.000005  -0.000000   0.000000
    38  C    0.000000  -0.000000  -0.000000   0.000000   0.000000  -0.000000
    39  H   -0.000000  -0.000000  -0.000000   0.000000   0.000000  -0.000000
    40  H    0.000000  -0.000000  -0.000000   0.000000   0.000000  -0.000000
    41  H   -0.000000   0.000000   0.000000  -0.000000  -0.000000   0.000000
              37         38         39         40         41
     1  C    0.002966   0.000065   0.000003  -0.000482   0.000079
     2  C   -0.000036  -0.000001   0.000000   0.000001   0.000000
     3  C   -0.000001  -0.000000  -0.000000  -0.000000  -0.000000
     4  C   -0.000028   0.000002  -0.000000  -0.000000  -0.000000
     5  C   -0.041095  -0.005209  -0.000072   0.002492  -0.001000
     6  C    0.188378  -0.029470   0.004940  -0.003300  -0.012166
     7  H    0.000054  -0.000003   0.000000  -0.000002   0.000013
     8  H   -0.000003  -0.000000  -0.000000   0.000000  -0.000000
     9  H    0.000000  -0.000000  -0.000000   0.000000  -0.000000
    10  H   -0.000063  -0.000009  -0.000000   0.000035  -0.000003
    11  H    0.000000   0.000000   0.000000  -0.000000  -0.000000
    12  H    0.000000  -0.000000   0.000000   0.000000  -0.000000
    13  H    0.000000  -0.000000   0.000000   0.000000   0.000000
    14  H    0.000002  -0.000000   0.000000   0.000000  -0.000000
    15  H   -0.001537   0.000893  -0.000006   0.003587   0.000102
    16  H    0.001623   0.000178  -0.000040   0.000021   0.000158
    17  H   -0.041263  -0.009269  -0.000093  -0.001718   0.016573
    18  C   -0.037189   0.005146  -0.000062  -0.000200  -0.000072
    19  C    0.001080  -0.000102   0.000003   0.000006  -0.000006
    20  N    0.000902   0.000108  -0.000016   0.000003  -0.000042
    21  N    0.000257  -0.000004  -0.000000   0.000000  -0.000001
    22  N    0.000000   0.000000  -0.000000   0.000000  -0.000000
    23  C   -0.001456  -0.000158   0.000049   0.000004   0.000083
    24  H    0.008072   0.000562   0.000042   0.000108  -0.000274
    25  H    0.000173  -0.000010  -0.000010   0.000000  -0.000002
    26  C   -0.002568   0.000078   0.000094  -0.000008   0.000013
    27  C   -0.004813   0.000197   0.000222   0.000016  -0.000046
    28  C   -0.000015   0.000001   0.000001  -0.000000   0.000000
    29  C    0.000157  -0.000010  -0.000010   0.000001   0.000000
    30  H    0.020441  -0.000897  -0.000293  -0.000031   0.000177
    31  C   -0.000000   0.000000  -0.000000   0.000000  -0.000000
    32  H    0.000000  -0.000000  -0.000000  -0.000000   0.000000
    33  C    0.000000  -0.000000  -0.000000  -0.000000   0.000000
    34  H   -0.000005   0.000000   0.000000   0.000000  -0.000000
    35  H   -0.000000   0.000000   0.000000   0.000000  -0.000000
    36  H    0.000000  -0.000000  -0.000000  -0.000000   0.000000
    37  O    8.245112   0.240179  -0.034580  -0.038019  -0.036300
    38  C    0.240179   4.892198   0.385442   0.361744   0.360151
    39  H   -0.034580   0.385442   0.550011  -0.036338  -0.031063
    40  H   -0.038019   0.361744  -0.036338   0.623468  -0.050848
    41  H   -0.036300   0.360151  -0.031063  -0.050848   0.620050
 Mulliken charges:
               1
     1  C   -0.267103
     2  C   -0.256643
     3  C   -0.256777
     4  C   -0.347754
     5  C   -0.272163
     6  C    0.053982
     7  H    0.136727
     8  H    0.136271
     9  H    0.139956
    10  H    0.134260
    11  H    0.133031
    12  H    0.131955
    13  H    0.165633
    14  H    0.163395
    15  H    0.129928
    16  H    0.149502
    17  H    0.134106
    18  C    0.094130
    19  C    0.015572
    20  N   -0.287123
    21  N    0.252597
    22  N   -0.223680
    23  C   -0.224123
    24  H    0.177341
    25  H    0.154552
    26  C    0.144312
    27  C   -0.177398
    28  C   -0.182103
    29  C   -0.132048
    30  H    0.165268
    31  C   -0.127508
    32  H    0.123759
    33  C   -0.127654
    34  H    0.127633
    35  H    0.127685
    36  H    0.127052
    37  O   -0.470427
    38  C   -0.201801
    39  H    0.161778
    40  H    0.139459
    41  H    0.134423
 Sum of Mulliken charges =  -0.00000
 Mulliken charges with hydrogens summed into heavy atoms:
               1
     1  C    0.003884
     2  C    0.012659
     3  C    0.015133
     4  C   -0.018726
     5  C    0.007267
     6  C    0.188087
    18  C    0.094130
    19  C    0.015572
    20  N   -0.287123
    21  N    0.252597
    22  N   -0.223680
    23  C    0.107769
    26  C    0.144312
    27  C   -0.012130
    28  C   -0.058343
    29  C   -0.004415
    31  C    0.000176
    33  C   -0.000602
    37  O   -0.470427
    38  C    0.233859
 Electronic spatial extent (au):  <R**2>=           6534.3380
 Charge=             -0.0000 electrons
 Dipole moment (field-independent basis, Debye):
    X=              1.1294    Y=              2.4600    Z=              0.1834  Tot=              2.7131
 Quadrupole moment (field-independent basis, Debye-Ang):
   XX=           -107.1447   YY=           -116.1439   ZZ=           -114.3248
   XY=              2.4166   XZ=              2.0445   YZ=             -3.5174
 Traceless Quadrupole moment (field-independent basis, Debye-Ang):
   XX=              5.3931   YY=             -3.6061   ZZ=             -1.7870
[...]
    19  C   -0.031403  -0.031855   0.000328   0.001189   0.002529   0.507325
    20  N    0.000056  -0.000018  -0.000108  -0.000107  -0.008434   0.249154
    21  N   -0.000138  -0.000175   0.000001  -0.000004   0.000013  -0.083449
    22  N    0.004354   0.002389  -0.000000  -0.000001  -0.000147  -0.033283
    23  C    0.000001  -0.000004   0.000001  -0.000011  -0.000662  -0.042213
    24  H    0.000000   0.000001   0.000005   0.000000   0.001614  -0.007092
    25  H   -0.000000   0.000000  -0.000000   0.000000  -0.000054   0.003607
    26  C    0.000000  -0.000000   0.000000   0.000001   0.000482   0.001728
    27  C   -0.000000   0.000000   0.000000  -0.000005  -0.000260   0.001137
    28  C    0.000000   0.000000   0.000000   0.000000   0.000006  -0.000166
    29  C   -0.000000  -0.000000  -0.000000  -0.000000  -0.000002  -0.000011
    30  H    0.000000  -0.000001  -0.000004   0.000024   0.000476   0.001007
    31  C   -0.000000   0.000000   0.000000  -0.000000  -0.000000   0.000002
    32  H    0.000000   0.000000   0.000000   0.000000   0.000001   0.000002
    33  C   -0.000000   0.000000  -0.000000   0.000000   0.000000   0.000001
    34  H    0.000000   0.000000   0.000000  -0.000000  -0.000000   0.000001
    35  H    0.000000   0.000000   0.000000  -0.000000  -0.000000  -0.000000
    36  H   -0.000000  -0.000000   0.000000   0.000000   0.000000   0.000000
    37  O    0.000000   0.000017  -0.002064   0.001602  -0.046122  -0.051043
    38  C   -0.000000  -0.000002   0.001380   0.000145  -0.008910   0.005738
    39  H    0.000000   0.000000  -0.000079  -0.000021  -0.000083  -0.000111
    40  H    0.000000   0.000000   0.003942  -0.000010  -0.001899  -0.000163
    41  H   -0.000000  -0.000000   0.000096   0.000078   0.015701  -0.000143
              19         20         21         22         23         24
     1  C    0.003231  -0.000205   0.000008  -0.000016  -0.000007  -0.000008
     2  C   -0.004441   0.000006   0.000004   0.000013   0.000000  -0.000000
     3  C   -0.035325   0.000039  -0.000041  -0.001214   0.000004  -0.000000
     4  C    0.376603   0.005880   0.007378  -0.067217  -0.000126  -0.000006
     5  C   -0.010461   0.003863  -0.000100  -0.000109   0.000310   0.000219
     6  C   -0.051473  -0.057952   0.004897   0.007217  -0.000648   0.004780
     7  H    0.001646  -0.000362  -0.000001  -0.000023   0.000000   0.000002
     8  H   -0.000056  -0.000001   0.000000  -0.000003   0.000000   0.000000
     9  H   -0.003602  -0.000078  -0.000091   0.001455  -0.000001   0.000000
    10  H    0.000008   0.000002  -0.000000  -0.000000   0.000000   0.000000
    11  H   -0.000048   0.000000  -0.000000   0.000001  -0.000000   0.000000
    12  H    0.004452   0.000000   0.000002   0.000010  -0.000000  -0.000000
    13  H   -0.031403   0.000056  -0.000138   0.004354   0.000001   0.000000
    14  H   -0.031855  -0.000018  -0.000175   0.002389  -0.000004   0.000001
    15  H    0.000328  -0.000108   0.000001  -0.000000   0.000001   0.000005
    16  H    0.001189  -0.000107  -0.000004  -0.000001  -0.000011   0.000000
    17  H    0.002529  -0.008434   0.000013  -0.000147  -0.000662   0.001614
    18  C    0.507325   0.249154  -0.083449  -0.033283  -0.042213  -0.007092
    19  C    4.848376  -0.034905  -0.093253   0.358220   0.005846  -0.000129
    20  N   -0.034905   6.964527   0.184674  -0.112770   0.251333  -0.033947
    21  N   -0.093253   0.184674   6.766971   0.326075  -0.049307   0.003977
    22  N    0.358220  -0.112770   0.326075   6.839505   0.007025  -0.000339
    23  C    0.005846   0.251333  -0.049307   0.007025   5.130405   0.358177
    24  H   -0.000129  -0.033947   0.003977  -0.000339   0.358177   0.558001
    25  H   -0.000120  -0.035487   0.001780   0.000060   0.356850  -0.031928
    26  C   -0.000161  -0.058969   0.002603   0.000092   0.332552  -0.027071
    27  C   -0.000202  -0.001471   0.000152  -0.000060  -0.062843  -0.004823
    28  C    0.000014  -0.000357   0.000515  -0.000003  -0.046203   0.001682
    29  C   -0.000002  -0.000011  -0.000053  -0.000001   0.006746  -0.000005
    30  H    0.000091   0.000852   0.000004  -0.000040  -0.009420   0.001148
    31  C   -0.000000  -0.000081  -0.000018   0.000000   0.006626  -0.000206
    32  H   -0.000000   0.000136   0.000033   0.000000  -0.011364   0.000157
    33  C   -0.000000   0.000009   0.000004   0.000000   0.000269   0.000024
    34  H   -0.000000   0.000002   0.000000  -0.000000  -0.000185  -0.000000
    35  H    0.000000   0.000001   0.000000  -0.000000  -0.000176   0.000003
    36  H   -0.000000   0.000000  -0.000000   0.000000   0.000008  -0.000000
    37  O   -0.000870  -0.002297  -0.000025  -0.000027   0.006306   0.000752
    38  C   -0.000034   0.000374   0.000003   0.000002  -0.000902   0.000604
    39  H    0.000005  -0.000005  -0.000000  -0.000000  -0.000041  -0.000021
    40  H    0.000001  -0.000011  -0.000000  -0.000000   0.000073   0.000002
    41  H   -0.000009  -0.000018   0.000000   0.000000  -0.000691   0.001187
              25         26         27         28         29         30
     1  C    0.000000   0.000000  -0.000000   0.000000  -0.000000  -0.000001
     2  C    0.000000  -0.000000  -0.000000  -0.000000   0.000000   0.000000
     3  C   -0.000000   0.000000  -0.000000  -0.000000   0.000000   0.000000
     4  C    0.000002   0.000002   0.000001   0.000000   0.000000  -0.000001
     5  C    0.000005  -0.000030   0.000006  -0.000000   0.000000   0.000064
     6  C   -0.000151   0.000004   0.000286   0.000004   0.000005  -0.001898
     7  H   -0.000001   0.000000  -0.000000   0.000000  -0.000000  -0.000000
     8  H    0.000000  -0.000000   0.000000  -0.000000  -0.000000  -0.000000
     9  H    0.000000  -0.000000  -0.000000   0.000000  -0.000000  -0.000000
    10  H   -0.000000  -0.000000  -0.000000  -0.000000   0.000000   0.000000
    11  H   -0.000000   0.000000  -0.000000   0.000000  -0.000000  -0.000000
    12  H    0.000000  -0.000000   0.000000  -0.000000  -0.000000  -0.000000
    13  H   -0.000000   0.000000  -0.000000   0.000000  -0.000000   0.000000
    14  H    0.000000  -0.000000   0.000000   0.000000  -0.000000  -0.000001
    15  H   -0.000000   0.000000   0.000000   0.000000  -0.000000  -0.000004
    16  H    0.000000   0.000001  -0.000005   0.000000  -0.000000   0.000024
    17  H   -0.000054   0.000482  -0.000260   0.000006  -0.000002   0.000476
    18  C    0.003607   0.001728   0.001137  -0.000166  -0.000011   0.001007
    19  C   -0.000120  -0.000161  -0.000202   0.000014  -0.000002   0.000091
    20  N   -0.035487  -0.058969  -0.001471  -0.000357  -0.000011   0.000852
    21  N    0.001780   0.002603   0.000152   0.000515  -0.000053   0.000004
    22  N    0.000060   0.000092  -0.000060  -0.000003  -0.000001  -0.000040
    23  C    0.356850   0.332552  -0.062843  -0.046203   0.006746  -0.009420
    24  H   -0.031928  -0.027071  -0.004823   0.001682  -0.000005   0.001148
    25  H    0.556809  -0.037281   0.005385  -0.005915  -0.000104   0.000081
    26  C   -0.037281   4.672468   0.543658   0.550741  -0.017518  -0.040607
    27  C    0.005385   0.543658   5.004078  -0.045185   0.513295   0.343116
    28  C   -0.005915   0.550741  -0.045185   4.959782  -0.047846   0.005694
    29  C   -0.000104  -0.017518   0.513295  -0.047846   4.880992  -0.040583
    30  H    0.000081  -0.040607   0.343116   0.005694  -0.040583   0.549613
    31  C    0.000149  -0.019235  -0.046518   0.524057  -0.024592   0.000323
    32  H    0.007867  -0.042439   0.006349   0.352219   0.000322  -0.000159
    33  C   -0.000011  -0.035772  -0.033411  -0.034660   0.542214   0.004314
    34  H    0.000003   0.003512  -0.040556   0.000894   0.357921  -0.004867
    35  H   -0.000009   0.003885   0.000765  -0.039888   0.004612   0.000015
    36  H   -0.000000   0.000691   0.004653   0.004763  -0.043120  -0.000157
    37  O    0.000143  -0.004845  -0.005037  -0.000036   0.000372   0.021186
    38  C    0.000005   0.000249   0.001107   0.000001  -0.000040  -0.002422
    39  H   -0.000001   0.000121   0.001021   0.000000  -0.000029  -0.000909
    40  H    0.000001  -0.000023   0.000007  -0.000000   0.000002   0.000155
    41  H   -0.000033   0.000388  -0.000456   0.000011  -0.000018   0.000526
              31         32         33         34         35         36
     1  C   -0.000000  -0.000000   0.000000  -0.000000  -0.000000  -0.000000
     2  C   -0.000000   0.000000  -0.000000   0.000000  -0.000000   0.000000
     3  C   -0.000000  -0.000000  -0.000000  -0.000000  -0.000000   0.000000
     4  C    0.000000  -0.000000  -0.000000  -0.000000  -0.000000   0.000000
     5  C    0.000000  -0.000000  -0.000000  -0.000000   0.000000  -0.000000
     6  C    0.000000   0.000000  -0.000000   0.000000   0.000000  -0.000000
     7  H   -0.000000   0.000000   0.000000  -0.000000  -0.000000  -0.000000
     8  H    0.000000  -0.000000   0.000000   0.000000   0.000000  -0.000000
     9  H   -0.000000   0.000000   0.000000   0.000000   0.000000  -0.000000
    10  H   -0.000000   0.000000  -0.000000   0.000000  -0.000000   0.000000
    11  H    0.000000  -0.000000   0.000000  -0.000000  -0.000000  -0.000000
    12  H    0.000000   0.000000  -0.000000   0.000000   0.000000  -0.000000
    13  H   -0.000000   0.000000  -0.000000   0.000000   0.000000  -0.000000
    14  H    0.000000   0.000000   0.000000   0.000000   0.000000  -0.000000
    15  H    0.000000   0.000000  -0.000000   0.000000   0.000000   0.000000
    16  H   -0.000000   0.000000   0.000000  -0.000000  -0.000000   0.000000
    17  H   -0.000000   0.000001   0.000000  -0.000000  -0.000000   0.000000
    18  C    0.000002   0.000002   0.000001   0.000001  -0.000000   0.000000
    19  C   -0.000000  -0.000000  -0.000000  -0.000000   0.000000  -0.000000
    20  N   -0.000081   0.000136   0.000009   0.000002   0.000001   0.000000
    21  N   -0.000018   0.000033   0.000004   0.000000   0.000000  -0.000000
    22  N    0.000000   0.000000   0.000000  -0.000000  -0.000000   0.000000
    23  C    0.006626  -0.011364   0.000269  -0.000185  -0.000176   0.000008
    24  H   -0.000206   0.000157   0.000024  -0.000000   0.000003  -0.000000
    25  H    0.000149   0.007867  -0.000011   0.000003  -0.000009  -0.000000
    26  C   -0.019235  -0.042439  -0.035772   0.003512   0.003885   0.000691
    27  C   -0.046518   0.006349  -0.033411  -0.040556   0.000765   0.004653
    28  C    0.524057   0.352219  -0.034660   0.000894  -0.039888   0.004763
    29  C   -0.024592   0.000322   0.542214   0.357921   0.004612  -0.043120
    30  H    0.000323  -0.000159   0.004314  -0.004867   0.000015  -0.000157
    31  C    4.861898  -0.044866   0.552227   0.004593   0.357260  -0.043244
    32  H   -0.044866   0.604874   0.004768   0.000017  -0.005539  -0.000179
    33  C    0.552227   0.004768   4.853701  -0.043344  -0.043116   0.358938
    34  H    0.004593   0.000017  -0.043344   0.597912  -0.000186  -0.005536
    35  H    0.357260  -0.005539  -0.043116  -0.000186   0.597497  -0.005608
    36  H   -0.043244  -0.000179   0.358938  -0.005536  -0.005608   0.599403
    37  O    0.000000  -0.000000  -0.000001  -0.000003   0.000000   0.000000
    38  C    0.000000  -0.000000  -0.000001   0.000003   0.000000  -0.000000
    39  H   -0.000000  -0.000000  -0.000000   0.000005   0.000000  -0.000000
    40  H    0.000000  -0.000000  -0.000000   0.000000   0.000000  -0.000000
    41  H   -0.000001   0.000000   0.000001  -0.000001  -0.000000   0.000000
              37         38         39         40         41
     1  C    0.002799   0.000053   0.000003  -0.000471   0.000079
     2  C   -0.000046  -0.000001  -0.000000   0.000004  -0.000000
     3  C   -0.000005   0.000000  -0.000000   0.000000  -0.000000
     4  C   -0.000037  -0.000000   0.000000  -0.000000  -0.000000
     5  C   -0.037535  -0.005941  -0.000105   0.002727  -0.000748
     6  C    0.199468  -0.030211   0.005250  -0.003086  -0.012432
     7  H    0.000154  -0.000003   0.000000  -0.000003   0.000011
     8  H    0.000001  -0.000000   0.000000   0.000000  -0.000000
     9  H    0.000000  -0.000000   0.000000   0.000000  -0.000000
    10  H   -0.000067  -0.000004  -0.000000   0.000033  -0.000005
    11  H    0.000000   0.000000   0.000000  -0.000000   0.000000
    12  H    0.000000  -0.000000   0.000000   0.000000  -0.000000
    13  H    0.000000  -0.000000   0.000000   0.000000  -0.000000
    14  H    0.000017  -0.000002   0.000000   0.000000  -0.000000
    15  H   -0.002064   0.001380  -0.000079   0.003942   0.000096
    16  H    0.001602   0.000145  -0.000021  -0.000010   0.000078
    17  H   -0.046122  -0.008910  -0.000083  -0.001899   0.015701
    18  C   -0.051043   0.005738  -0.000111  -0.000163  -0.000143
    19  C   -0.000870  -0.000034   0.000005   0.000001  -0.000009
    20  N   -0.002297   0.000374  -0.000005  -0.000011  -0.000018
    21  N   -0.000025   0.000003  -0.000000  -0.000000   0.000000
    22  N   -0.000027   0.000002  -0.000000  -0.000000   0.000000
    23  C    0.006306  -0.000902  -0.000041   0.000073  -0.000691
    24  H    0.000752   0.000604  -0.000021   0.000002   0.001187
    25  H    0.000143   0.000005  -0.000001   0.000001  -0.000033
    26  C   -0.004845   0.000249   0.000121  -0.000023   0.000388
    27  C   -0.005037   0.001107   0.001021   0.000007  -0.000456
    28  C   -0.000036   0.000001   0.000000  -0.000000   0.000011
    29  C    0.000372  -0.000040  -0.000029   0.000002  -0.000018
    30  H    0.021186  -0.002422  -0.000909   0.000155   0.000526
    31  C    0.000000   0.000000  -0.000000   0.000000  -0.000001
    32  H   -0.000000  -0.000000  -0.000000  -0.000000   0.000000
    33  C   -0.000001  -0.000001  -0.000000  -0.000000   0.000001
    34  H   -0.000003   0.000003   0.000005   0.000000  -0.000001
    35  H    0.000000   0.000000   0.000000   0.000000  -0.000000
    36  H    0.000000  -0.000000  -0.000000  -0.000000   0.000000
    37  O    8.257758   0.241350  -0.033605  -0.037145  -0.038908
    38  C    0.241350   4.892644   0.386314   0.362403   0.359761
    39  H   -0.033605   0.386314   0.539092  -0.034584  -0.031270
    40  H   -0.037145   0.362403  -0.034584   0.617144  -0.051043
    41  H   -0.038908   0.359761  -0.031270  -0.051043   0.625789
 Mulliken charges:
               1
     1  C   -0.271757
     2  C   -0.263065
     3  C   -0.253175
     4  C   -0.345367
     5  C   -0.283136
     6  C    0.062272
     7  H    0.141691
     8  H    0.131472
     9  H    0.145206
    10  H    0.137938
    11  H    0.133575
    12  H    0.136011
    13  H    0.169348
    14  H    0.145616
    15  H    0.139434
    16  H    0.157463
    17  H    0.123252
    18  C    0.331255
    19  C    0.188485
    20  N   -0.313316
    21  N   -0.072439
    22  N   -0.331167
    23  C   -0.237729
    24  H    0.173241
    25  H    0.178349
    26  C    0.170773
    27  C   -0.184189
    28  C   -0.180123
    29  C   -0.132547
    30  H    0.172379
    31  C   -0.128375
    32  H    0.127800
    33  C   -0.126152
    34  H    0.129817
    35  H    0.130483
    36  H    0.129387
    37  O   -0.472189
    38  C   -0.203665
    39  H    0.169053
    40  H    0.141943
    41  H    0.132146
 Sum of Mulliken charges =  -0.00000
 Mulliken charges with hydrogens summed into heavy atoms:
               1
     1  C    0.007872
     2  C    0.001982
     3  C    0.028042
     4  C   -0.030403
     5  C    0.013761
     6  C    0.185524
    18  C    0.331255
    19  C    0.188485
    20  N   -0.313316
    21  N   -0.072439
    22  N   -0.331167
    23  C    0.113862
    26  C    0.170773
    27  C   -0.011809
    28  C   -0.052323
    29  C   -0.002730
    31  C    0.002109
    33  C    0.003235
    37  O   -0.472189
    38  C    0.239477
 Electronic spatial extent (au):  <R**2>=           6311.3239
 Charge=             -0.0000 electrons
 Dipole moment (field-independent basis, Debye):
    X=              0.9341    Y=              4.9385    Z=             -1.4752  Tot=              5.2381
 Quadrupole moment (field-independent basis, Debye-Ang):
   XX=           -106.5215   YY=           -125.3737   ZZ=           -113.7849
   XY=              1.5188   XZ=              0.8675   YZ=              0.4206
 Traceless Quadrupole moment (field-independent basis, Debye-Ang):
   XX=              8.7052   YY=            -10.1470   ZZ=              1.4418
   XY=              1.5188   XZ=              0.8675   YZ=              0.4206
 Octapole moment (field-independent basis, Debye-Ang**2):
  XXX=            -17.4409  YYY=             66.5728  ZZZ=             -1.7563  XYY=              9.1169
  XXY=            -11.2844  XXZ=              8.9849  XZZ=             -7.9798  YZZ=              1.4011
  YYZ=             -2.5314  XYZ=            -12.4048
 Hexadecapole moment (field-independent basis, Debye-Ang**3):
 XXXX=          -6032.3150 YYYY=          -1650.4792 ZZZZ=           -585.8729 XXXY=             72.5165
 XXXZ=            -39.5546 YYYX=              4.3568 YYYZ=              3.8167 ZZZX=              3.3630
 ZZZY=             17.9245 XXYY=          -1347.8709 XXZZ=          -1115.3432 YYZZ=           -369.3043
 XXYZ=             35.3082 YYXZ=              5.0040 ZZXY=             -5.9552
 N-N= 1.579437911000D+03 E-N=-5.158957778542D+03  KE= 8.536290705228D+02
 1\1\GINC-NODE107\FOpt\RB3LYP\6-31G(d)\C16H21N3O1\LIAOYT\06-Mar-2024\0\
 \# b3lyp/6-31g(d) geom=connectivity em=gd3 opt=(noeigen,maxstep=10) op
 tcyc=60\\title\\0,1\C,3.8055709304,0.6874222515,-0.5440471741\C,4.6580
 802606,-0.4046385508,0.1253811501\C,3.9872859513,-1.7728187046,0.32030
 74693\C,2.703878518,-1.7958266311,1.1830352065\C,2.7432007471,1.340446
 779,0.3774713177\C,1.2991526655,1.1139877504,-0.0805969668\H,3.3209662
 925,0.2654745849,-1.4358271293\H,5.0086385897,-0.031295523,1.098970541
 \H,3.7564216286,-2.2130991783,-0.6588174858\H,4.4794206905,1.469107112
 1,-0.9139463359\H,5.5606145637,-0.5602408772,-0.4806962962\H,4.7243769
 122,-2.4376797858,0.7893337243\H,2.5713763384,-2.8073020871,1.58064371
 06\H,2.8246998499,-1.1356468897,2.0506603109\H,2.9032354844,2.42304254
 04,0.4169098274\H,2.8359129143,0.9872089997,1.4090252372\H,1.210431255
 1,1.485053017,-1.1179340665\C,0.8770405946,-0.3241670129,-0.0579553072
 \C,1.43088429,-1.4923477607,0.4437785646\N,-0.2900533503,-0.7401454693
 ,-0.6402324055\N,-0.4482928124,-2.0705076629,-0.5137353335\N,0.5891878
 642,-2.526040403,0.1327080118\C,-1.3520229812,0.0416227027,-1.27506292
 34\H,-0.9600509173,1.0493136958,-1.4304807464\H,-1.5397218291,-0.40188
 11439,-2.2567522277\C,-2.6309760406,0.0833710089,-0.4612819021\C,-2.62
 81736157,0.5753449663,0.8505277036\C,-3.831341047,-0.3550396166,-1.026
 1355454\C,-3.8146302072,0.6260712853,1.5804176212\H,-1.6932768901,0.90
 82428104,1.2902807137\C,-5.0209556347,-0.2975637269,-0.2966304806\H,-3
 .836415622,-0.751500284,-2.038834702\C,-5.0146314059,0.1931682997,1.00
 89364331\H,-3.8033922212,1.0044032275,2.5993729528\H,-5.9474605442,-0.
 6443878027,-0.7463879456\H,-5.9377519872,0.2338702834,1.5810756778\O,0
 .3680297289,1.8391751552,0.7370397554\C,0.2163879417,3.2058670576,0.39
 71915114\H,-0.5763245589,3.5997831548,1.0379484641\H,1.1328539843,3.78
 83786475,0.5681976218\H,-0.0840153306,3.3298257806,-0.656061552\\Versi
 on=ES64L-G16RevA.03\State=1-A\HF=-861.8257951\RMSD=3.896e-09\RMSF=8.39
 3e-06\Dipole=0.5148703,1.9585353,-0.3822226\Quadrupole=6.5441275,-7.60
 08556,1.0567281,0.0258771,0.7411402,-0.5970259\PG=C01 [X(C16H21N3O1)]\
 \@


 WE THE UNWILLING
 LED BY THE UNQUALIFIED
 HAVE BEEN DOING THE UNBELIEVABLE SO LONG WITH SO LITTLE
 THAT WE NOW ATTEMPT THE IMPOSSIBLE WITH NOTHING.

                                    -- ANONYMOUS
 Job cpu time:       0 days  5 hours 59 minutes 31.2 seconds.
 Elapsed time:       0 days  0 hours 15 minutes  9.9 seconds.
 File lengths (MBytes):  RWF=     79 Int=      0 D2E=      0 Chk=     11 Scr=      1
 Normal termination of Gaussian 16 at Wed Mar  6 15:01:08 2024.
Wed Mar  6 15:01:08 CST 2024
