This job is running on host node107
Current directory: /share/home/Liaoyt/system-test/bnts-ome/20240229TS-RE-SP
Tue Mar  5 10:29:04 CST 2024
/tmp/85877.mgr
 Entering Gaussian System, Link 0=g16
 Initial command:
 /share/apps/gaussian/g16/l1.exe "/tmp/85877.mgr/Gau-56398.inp" -scrdir="/tmp/85877.mgr/"
 Entering Link 1 = /share/apps/gaussian/g16/l1.exe PID=     56399.
  
 Copyright (c) 1988,1990,1992,1993,1995,1998,2003,2009,2016,
            Gaussian, Inc.  All Rights Reserved.
  
 This is part of the Gaussian(R) 16 program.  It is based on
 the Gaussian(R) 09 system (copyright 2009, Gaussian, Inc.),
 the Gaussian(R) 03 system (copyright 2003, Gaussian, Inc.),
 the Gaussian(R) 98 system (copyright 1998, Gaussian, Inc.),
 the Gaussian(R) 94 system (copyright 1995, Gaussian, Inc.),
 the Gaussian 92(TM) system (copyright 1992, Gaussian, Inc.),
 the Gaussian 90(TM) system (copyright 1990, Gaussian, Inc.),
 the Gaussian 88(TM) system (copyright 1988, Gaussian, Inc.),
 the Gaussian 86(TM) system (copyright 1986, Carnegie Mellon
 University), and the Gaussian 82(TM) system (copyright 1983,
 Carnegie Mellon University). Gaussian is a federally registered
 trademark of Gaussian, Inc.
  
 This software contains proprietary and confidential information,
 including trade secrets, belonging to Gaussian, Inc.
  
 This software is provided under written license and may be
 used, copied, transmitted, or stored only in accord with that
 written license.
  
 The following legend is applicable only to US Government
 contracts under FAR:
  
                    RESTRICTED RIGHTS LEGEND
  
 Use, reproduction and disclosure by the US Government is
 subject to restrictions as set forth in subparagraphs (a)
 and (c) of the Commercial Computer Software - Restricted
 Rights clause in FAR 52.227-19.
  
 Gaussian, Inc.
 340 Quinnipiac St., Bldg. 40, Wallingford CT 06492
  
  
 ---------------------------------------------------------------
 Warning -- This program may not be used in any manner that
 competes with the business of Gaussian, Inc. or will provide
 assistance to any competitor of Gaussian, Inc.  The licensee
 of this program is prohibited from giving any competitor of
 Gaussian, Inc. access to this program.  By using this program,
 the user acknowledges that Gaussian, Inc. is engaged in the
 business of creating and licensing software in the field of
 computational chemistry and represents and warrants to the
 licensee that it is not a competitor of Gaussian, Inc. and that
 it will not use this program in any manner prohibited above.
 ---------------------------------------------------------------
  

 Cite this work as:
 Gaussian 16, Revision A.03,
 M. J. Frisch, G. W. Trucks, H. B. Schlegel, G. E. Scuseria, 
 M. A. Robb, J. R. Cheeseman, G. Scalmani, V. Barone, 
 G. A. Petersson, H. Nakatsuji, X. Li, M. Caricato, A. V. Marenich, 
 J. Bloino, B. G. Janesko, R. Gomperts, B. Mennucci, H. P. Hratchian, 
 J. V. Ortiz, A. F. Izmaylov, J. L. Sonnenberg, D. Williams-Young, 
 F. Ding, F. Lipparini, F. Egidi, J. Goings, B. Peng, A. Petrone, 
 T. Henderson, D. Ranasinghe, V. G. Zakrzewski, J. Gao, N. Rega, 
 G. Zheng, W. Liang, M. Hada, M. Ehara, K. Toyota, R. Fukuda, 
 J. Hasegawa, M. Ishida, T. Nakajima, Y. Honda, O. Kitao, H. Nakai, 
 T. Vreven, K. Throssell, J. A. Montgomery, Jr., J. E. Peralta, 
 F. Ogliaro, M. J. Bearpark, J. J. Heyd, E. N. Brothers, K. N. Kudin, 
 V. N. Staroverov, T. A. Keith, R. Kobayashi, J. Normand, 
 K. Raghavachari, A. P. Rendell, J. C. Burant, S. S. Iyengar, 
 J. Tomasi, M. Cossi, J. M. Millam, M. Klene, C. Adamo, R. Cammi, 
 J. W. Ochterski, R. L. Martin, K. Morokuma, O. Farkas, 
 J. B. Foresman, and D. J. Fox, Gaussian, Inc., Wallingford CT, 2016.
 
 ******************************************
 Gaussian 16:  ES64L-G16RevA.03 25-Dec-2016
                 5-Mar-2024 
 ******************************************
 %chk=bnts-OMe-ts-no-disp.chk
 %nprocshared=24
 Will use up to   24 processors via shared memory.
 %mem=24GB
 ----------------------------------------------------------------------
 # b3lyp/6-31g(d) freq=hpmodes geom=check guess=read opt=(noeigen,addre
 dundant,maxstep=10) optcyc=60
 ----------------------------------------------------------------------
 1/6=60,8=10,11=1,18=120,19=15,26=3,29=2,38=1/1,3;
 2/9=110,12=2,40=1/2;
 3/5=1,6=6,7=1,11=2,14=-4,25=1,30=1,71=1,74=-5,116=-2/1,2,3;
 4/5=1/1;
 5/5=2,38=6/2;
 6/7=2,8=2,9=2,10=2,28=1/1;
 7//1,2,3,16;
 1/6=60,8=10,11=1,18=20,19=15,26=3/3(2);
 2/9=110/2;
 99//99;
 2/9=110/2;
 3/5=1,6=6,7=1,11=2,14=-2,25=1,30=1,71=1,74=-5/1,2,3;
 4/5=5,16=3,69=1/1;
 5/5=2,38=5/2;
 7//1,2,3,16;
 1/6=60,8=10,11=1,18=20,19=15,26=3/3(-5);
 2/9=110/2;
 6/7=2,8=2,9=2,10=2,19=2,28=1/1;
 99/9=1/99;
 -----
 title
 -----
 Structure from the checkpoint file:  "bnts-OMe-ts-no-disp.chk"
 Charge =  0 Multiplicity = 1
 Redundant internal coordinates found in file.  (old form).
 C,0,4.0371265276,0.844291069,0.4290467791
 C,0,4.2072771905,-0.4926801796,1.2064624695
 C,0,3.982263444,-1.8179838707,0.4444789686
 C,0,2.529222723,-2.334412953,0.3861508197
 C,0,2.7040305644,1.6164001943,0.5707072799
 C,0,1.6088954089,1.289785921,-0.4726582131
 H,0,4.2580912113,0.6810027019,-0.6355177926
 H,0,3.5807628277,-0.4760147452,2.1095696388
 H,0,4.3647699375,-1.7145331104,-0.5798490918
 H,0,4.8240062179,1.5201554636,0.7861864321
 H,0,5.2426053512,-0.5152709373,1.5695682808
 H,0,4.5873005572,-2.6024581133,0.9190574522
 H,0,2.4875094553,-3.2633224557,-0.1941087505
 H,0,2.1876634889,-2.5942027891,1.3985857961
 H,0,2.9191010368,2.6897601711,0.4947122115
 H,0,2.2723181464,1.4531681474,1.5657827224
 H,0,1.9895432072,1.5319968169,-1.4804112561
 C,0,1.3034844294,-0.1460666642,-0.4107286388
 C,0,1.6244403274,-1.3157711896,-0.1725170369
 N,0,-0.6792636654,-0.4098497751,-1.5446223434
 N,0,-0.7012178298,-1.6500602968,-1.3447167388
 N,0,-0.0412664881,-2.5261827771,-0.9470274178
 C,0,-1.9557374369,0.3262989095,-1.6025526836
 H,0,-1.6466184854,1.3695233957,-1.6896931149
 H,0,-2.4883298301,0.060316977,-2.5251171263
 C,0,-2.8602232014,0.1341069172,-0.4007009574
 C,0,-2.473349533,0.6040131447,0.8628083621
 C,0,-4.0886013564,-0.5211032275,-0.5351602236
 C,0,-3.305563459,0.4197024069,1.9658411455
 H,0,-1.5168486516,1.1084671901,0.9691509114
 C,0,-4.9238768078,-0.7038866083,0.5694885261
 H,0,-4.3954125773,-0.8908705832,-1.5114703419
 C,0,-4.5331218192,-0.2336408492,1.8229351246
 H,0,-2.9974289891,0.7884493083,2.941030627
 H,0,-5.8760436531,-1.2141409321,0.4491481076
 H,0,-5.1800738646,-0.3748225417,2.684887396
 O,0,0.4287403508,2.0675524355,-0.2421928752
 C,0,0.5270704968,3.4211473366,-0.6458790406
 H,0,-0.4746486869,3.8488445163,-0.5517068738
 H,0,1.2146122697,4.0043604556,-0.0172323617
 H,0,0.8549521653,3.5059831206,-1.6939391721
 Recover connectivity data from disk.
 The following ModRedundant input section has been read:
 B      18      20 A                                                           
 B      19      22 A                                                           
 

 GradGradGradGradGradGradGradGradGradGradGradGradGradGradGradGradGradGrad
 Berny optimization.
 Initialization pass.
                           ----------------------------
                           !    Initial Parameters    !
                           ! (Angstroms and Degrees)  !
 --------------------------                            --------------------------
 ! Name  Definition              Value          Derivative Info.                !
 --------------------------------------------------------------------------------
 ! R1    R(1,2)                  1.5559         estimate D2E/DX2                !
 ! R2    R(1,5)                  1.5471         estimate D2E/DX2                !
 ! R3    R(1,7)                  1.0994         estimate D2E/DX2                !
 ! R4    R(1,10)                 1.0971         estimate D2E/DX2                !
 ! R5    R(2,3)                  1.5452         estimate D2E/DX2                !
 ! R6    R(2,8)                  1.0993         estimate D2E/DX2                !
 ! R7    R(2,11)                 1.0974         estimate D2E/DX2                !
 ! R8    R(3,4)                  1.5432         estimate D2E/DX2                !
 ! R9    R(3,9)                  1.0983         estimate D2E/DX2                !
 ! R10   R(3,12)                 1.0985         estimate D2E/DX2                !
 ! R11   R(4,13)                 1.096          estimate D2E/DX2                !
 ! R12   R(4,14)                 1.0996         estimate D2E/DX2                !
 ! R13   R(4,19)                 1.4725         estimate D2E/DX2                !
 ! R14   R(5,6)                  1.5475         estimate D2E/DX2                !
 ! R15   R(5,15)                 1.0973         estimate D2E/DX2                !
 ! R16   R(5,16)                 1.0969         estimate D2E/DX2                !
 ! R17   R(6,17)                 1.1041         estimate D2E/DX2                !
 ! R18   R(6,18)                 1.4693         estimate D2E/DX2                !
 ! R19   R(6,37)                 1.4321         estimate D2E/DX2                !
 ! R20   R(18,19)                1.2361         estimate D2E/DX2                !
 ! R21   R(18,20)                2.2993         estimate D2E/DX2                !
 ! R22   R(19,22)                2.1999         estimate D2E/DX2                !
 ! R23   R(20,21)                1.2564         estimate D2E/DX2                !
 ! R24   R(20,23)                1.4747         estimate D2E/DX2                !
 ! R25   R(21,22)                1.1667         estimate D2E/DX2                !
 ! R26   R(23,24)                1.0915         estimate D2E/DX2                !
 ! R27   R(23,25)                1.098          estimate D2E/DX2                !
 ! R28   R(23,26)                1.5164         estimate D2E/DX2                !
 ! R29   R(26,27)                1.4025         estimate D2E/DX2                !
 ! R30   R(26,28)                1.3987         estimate D2E/DX2                !
 ! R31   R(27,29)                1.394          estimate D2E/DX2                !
 ! R32   R(27,30)                1.0866         estimate D2E/DX2                !
 ! R33   R(28,31)                1.3969         estimate D2E/DX2                !
 ! R34   R(28,32)                1.0881         estimate D2E/DX2                !
 ! R35   R(29,33)                1.3979         estimate D2E/DX2                !
 ! R36   R(29,34)                1.0872         estimate D2E/DX2                !
 ! R37   R(31,33)                1.3946         estimate D2E/DX2                !
 ! R38   R(31,35)                1.087          estimate D2E/DX2                !
 ! R39   R(33,36)                1.0869         estimate D2E/DX2                !
 ! R40   R(37,38)                1.4159         estimate D2E/DX2                !
 ! R41   R(38,39)                1.0933         estimate D2E/DX2                !
 ! R42   R(38,40)                1.0991         estimate D2E/DX2                !
 ! R43   R(38,41)                1.1014         estimate D2E/DX2                !
 ! A1    A(2,1,5)              118.5119         estimate D2E/DX2                !
 ! A2    A(2,1,7)              109.5242         estimate D2E/DX2                !
 ! A3    A(2,1,10)             106.7554         estimate D2E/DX2                !
 ! A4    A(5,1,7)              109.6315         estimate D2E/DX2                !
 ! A5    A(5,1,10)             106.3073         estimate D2E/DX2                !
 ! A6    A(7,1,10)             105.222          estimate D2E/DX2                !
 ! A7    A(1,2,3)              118.3387         estimate D2E/DX2                !
 ! A8    A(1,2,8)              109.581          estimate D2E/DX2                !
 ! A9    A(1,2,11)             106.63           estimate D2E/DX2                !
 ! A10   A(3,2,8)              109.5808         estimate D2E/DX2                !
 ! A11   A(3,2,11)             106.4331         estimate D2E/DX2                !
 ! A12   A(8,2,11)             105.4371         estimate D2E/DX2                !
 ! A13   A(2,3,4)              116.2812         estimate D2E/DX2                !
 ! A14   A(2,3,9)              109.1724         estimate D2E/DX2                !
 ! A15   A(2,3,12)             108.6178         estimate D2E/DX2                !
 ! A16   A(4,3,9)              108.9169         estimate D2E/DX2                !
 ! A17   A(4,3,12)             107.2148         estimate D2E/DX2                !
 ! A18   A(9,3,12)             106.163          estimate D2E/DX2                !
 ! A19   A(3,4,13)             109.8443         estimate D2E/DX2                !
 ! A20   A(3,4,14)             109.6778         estimate D2E/DX2                !
 ! A21   A(3,4,19)             111.1853         estimate D2E/DX2                !
 ! A22   A(13,4,14)            105.985          estimate D2E/DX2                !
 ! A23   A(13,4,19)            111.2252         estimate D2E/DX2                !
 ! A24   A(14,4,19)            108.777          estimate D2E/DX2                !
 ! A25   A(1,5,6)              116.2794         estimate D2E/DX2                !
 ! A26   A(1,5,15)             108.2373         estimate D2E/DX2                !
 ! A27   A(1,5,16)             110.3615         estimate D2E/DX2                !
 ! A28   A(6,5,15)             107.3655         estimate D2E/DX2                !
 ! A29   A(6,5,16)             107.5606         estimate D2E/DX2                !
 ! A30   A(15,5,16)            106.5902         estimate D2E/DX2                !
 ! A31   A(5,6,17)             108.9722         estimate D2E/DX2                !
 ! A32   A(5,6,18)             108.9626         estimate D2E/DX2                !
 ! A33   A(5,6,37)             111.1047         estimate D2E/DX2                !
 ! A34   A(17,6,18)            108.9356         estimate D2E/DX2                !
 ! A35   A(17,6,37)            108.1706         estimate D2E/DX2                !
 ! A36   A(18,6,37)            110.6507         estimate D2E/DX2                !
 ! A37   A(6,18,19)            151.5101         estimate D2E/DX2                !
 ! A38   A(6,18,20)            105.6987         estimate D2E/DX2                !
 ! A39   A(19,18,20)           102.1447         estimate D2E/DX2                !
 ! A40   A(4,19,18)            152.5295         estimate D2E/DX2                !
 ! A41   A(4,19,22)            102.6029         estimate D2E/DX2                !
 ! A42   A(18,19,22)           104.8451         estimate D2E/DX2                !
 ! A43   A(18,20,21)            92.8573         estimate D2E/DX2                !
 ! A44   A(18,20,23)           135.1167         estimate D2E/DX2                !
 ! A45   A(21,20,23)           118.9394         estimate D2E/DX2                !
 ! A46   A(20,21,22)           141.7745         estimate D2E/DX2                !
 ! A47   A(19,22,21)            97.766          estimate D2E/DX2                !
 ! A48   A(20,23,24)           103.5976         estimate D2E/DX2                !
 ! A49   A(20,23,25)           109.3875         estimate D2E/DX2                !
 ! A50   A(20,23,26)           114.9545         estimate D2E/DX2                !
 ! A51   A(24,23,25)           107.5668         estimate D2E/DX2                !
 ! A52   A(24,23,26)           110.6906         estimate D2E/DX2                !
 ! A53   A(25,23,26)           110.238          estimate D2E/DX2                !
 ! A54   A(23,26,27)           120.4664         estimate D2E/DX2                !
 ! A55   A(23,26,28)           120.4658         estimate D2E/DX2                !
 ! A56   A(27,26,28)           119.0668         estimate D2E/DX2                !
 ! A57   A(26,27,29)           120.2574         estimate D2E/DX2                !
 ! A58   A(26,27,30)           119.1138         estimate D2E/DX2                !
 ! A59   A(29,27,30)           120.6283         estimate D2E/DX2                !
 ! A60   A(26,28,31)           120.6918         estimate D2E/DX2                !
 ! A61   A(26,28,32)           119.5426         estimate D2E/DX2                !
 ! A62   A(31,28,32)           119.7656         estimate D2E/DX2                !
 ! A63   A(27,29,33)           120.3411         estimate D2E/DX2                !
 ! A64   A(27,29,34)           119.7175         estimate D2E/DX2                !
 ! A65   A(33,29,34)           119.9413         estimate D2E/DX2                !
 ! A66   A(28,31,33)           119.9391         estimate D2E/DX2                !
 ! A67   A(28,31,35)           119.8463         estimate D2E/DX2                !
 ! A68   A(33,31,35)           120.2145         estimate D2E/DX2                !
 ! A69   A(29,33,31)           119.7036         estimate D2E/DX2                !
 ! A70   A(29,33,36)           120.1527         estimate D2E/DX2                !
 ! A71   A(31,33,36)           120.1437         estimate D2E/DX2                !
 ! A72   A(6,37,38)            114.5879         estimate D2E/DX2                !
 ! A73   A(37,38,39)           106.6066         estimate D2E/DX2                !
 ! A74   A(37,38,40)           112.8075         estimate D2E/DX2                !
 ! A75   A(37,38,41)           111.4443         estimate D2E/DX2                !
 ! A76   A(39,38,40)           108.4398         estimate D2E/DX2                !
 ! A77   A(39,38,41)           108.9409         estimate D2E/DX2                !
 ! A78   A(40,38,41)           108.4912         estimate D2E/DX2                !
 ! D1    D(5,1,2,3)             99.0118         estimate D2E/DX2                !
 ! D2    D(5,1,2,8)            -27.5708         estimate D2E/DX2                !
 ! D3    D(5,1,2,11)          -141.2175         estimate D2E/DX2                !
 ! D4    D(7,1,2,3)            -27.7357         estimate D2E/DX2                !
 ! D5    D(7,1,2,8)           -154.3183         estimate D2E/DX2                !
 ! D6    D(7,1,2,11)            92.035          estimate D2E/DX2                !
 ! D7    D(10,1,2,3)          -141.1694         estimate D2E/DX2                !
 ! D8    D(10,1,2,8)            92.2481         estimate D2E/DX2                !
 ! D9    D(10,1,2,11)          -21.3987         estimate D2E/DX2                !
 ! D10   D(2,1,5,6)            -91.5692         estimate D2E/DX2                !
 ! D11   D(2,1,5,15)           147.555          estimate D2E/DX2                !
 ! D12   D(2,1,5,16)            31.2627         estimate D2E/DX2                !
 ! D13   D(7,1,5,6)             35.1271         estimate D2E/DX2                !
 ! D14   D(7,1,5,15)           -85.7486         estimate D2E/DX2                !
 ! D15   D(7,1,5,16)           157.959          estimate D2E/DX2                !
 ! D16   D(10,1,5,6)           148.3809         estimate D2E/DX2                !
 ! D17   D(10,1,5,15)           27.5051         estimate D2E/DX2                !
 ! D18   D(10,1,5,16)          -88.7872         estimate D2E/DX2                !
 ! D19   D(1,2,3,4)            -86.7696         estimate D2E/DX2                !
 ! D20   D(1,2,3,9)             36.907          estimate D2E/DX2                !
 ! D21   D(1,2,3,12)           152.2556         estimate D2E/DX2                !
 ! D22   D(8,2,3,4)             39.8131         estimate D2E/DX2                !
 ! D23   D(8,2,3,9)            163.4896         estimate D2E/DX2                !
 ! D24   D(8,2,3,12)           -81.1618         estimate D2E/DX2                !
 ! D25   D(11,2,3,4)           153.3577         estimate D2E/DX2                !
 ! D26   D(11,2,3,9)           -82.9657         estimate D2E/DX2                !
 ! D27   D(11,2,3,12)           32.3829         estimate D2E/DX2                !
 ! D28   D(2,3,4,13)           178.7811         estimate D2E/DX2                !
 ! D29   D(2,3,4,14)           -65.1156         estimate D2E/DX2                !
 ! D30   D(2,3,4,19)            55.2312         estimate D2E/DX2                !
 ! D31   D(9,3,4,13)            54.9725         estimate D2E/DX2                !
 ! D32   D(9,3,4,14)           171.0759         estimate D2E/DX2                !
 ! D33   D(9,3,4,19)           -68.5774         estimate D2E/DX2                !
 ! D34   D(12,3,4,13)          -59.4994         estimate D2E/DX2                !
 ! D35   D(12,3,4,14)           56.6039         estimate D2E/DX2                !
 ! D36   D(12,3,4,19)          176.9507         estimate D2E/DX2                !
 ! D37   D(3,4,19,18)          -26.3143         estimate D2E/DX2                !
 ! D38   D(3,4,19,22)          156.0384         estimate D2E/DX2                !
 ! D39   D(13,4,19,18)        -149.0724         estimate D2E/DX2                !
 ! D40   D(13,4,19,22)          33.2803         estimate D2E/DX2                !
 ! D41   D(14,4,19,18)          94.5634         estimate D2E/DX2                !
 ! D42   D(14,4,19,22)         -83.0839         estimate D2E/DX2                !
 ! D43   D(1,5,6,17)           -60.6894         estimate D2E/DX2                !
 ! D44   D(1,5,6,18)            58.0589         estimate D2E/DX2                !
 ! D45   D(1,5,6,37)          -179.7778         estimate D2E/DX2                !
 ! D46   D(15,5,6,17)           60.6503         estimate D2E/DX2                !
 ! D47   D(15,5,6,18)          179.3985         estimate D2E/DX2                !
 ! D48   D(15,5,6,37)          -58.4382         estimate D2E/DX2                !
 ! D49   D(16,5,6,17)          175.0278         estimate D2E/DX2                !
 ! D50   D(16,5,6,18)          -66.224          estimate D2E/DX2                !
 ! D51   D(16,5,6,37)           55.9394         estimate D2E/DX2                !
 ! D52   D(5,6,18,19)          -27.6602         estimate D2E/DX2                !
 ! D53   D(5,6,18,20)          164.9152         estimate D2E/DX2                !
 ! D54   D(17,6,18,19)          91.1109         estimate D2E/DX2                !
 ! D55   D(17,6,18,20)         -76.3136         estimate D2E/DX2                !
 ! D56   D(37,6,18,19)        -150.0975         estimate D2E/DX2                !
 ! D57   D(37,6,18,20)          42.478          estimate D2E/DX2                !
 ! D58   D(5,6,37,38)           75.7713         estimate D2E/DX2                !
 ! D59   D(17,6,37,38)         -43.7965         estimate D2E/DX2                !
 ! D60   D(18,6,37,38)        -163.0509         estimate D2E/DX2                !
 ! D61   D(6,18,19,4)           11.6424         estimate D2E/DX2                !
 ! D62   D(6,18,19,22)        -170.7329         estimate D2E/DX2                !
 ! D63   D(20,18,19,4)         179.2619         estimate D2E/DX2                !
 ! D64   D(20,18,19,22)         -3.1134         estimate D2E/DX2                !
 ! D65   D(6,18,20,21)        -179.897          estimate D2E/DX2                !
 ! D66   D(6,18,20,23)         -42.4475         estimate D2E/DX2                !
 ! D67   D(19,18,20,21)          6.2013         estimate D2E/DX2                !
 ! D68   D(19,18,20,23)        143.6507         estimate D2E/DX2                !
 ! D69   D(4,19,22,21)         179.0912         estimate D2E/DX2                !
 ! D70   D(18,19,22,21)          0.2137         estimate D2E/DX2                !
 ! D71   D(18,20,21,22)         -9.8497         estimate D2E/DX2                !
 ! D72   D(23,20,21,22)       -156.8054         estimate D2E/DX2                !
 ! D73   D(18,20,23,24)         45.4621         estimate D2E/DX2                !
 ! D74   D(18,20,23,25)        159.9379         estimate D2E/DX2                !
 ! D75   D(18,20,23,26)        -75.4349         estimate D2E/DX2                !
 ! D76   D(21,20,23,24)        174.9491         estimate D2E/DX2                !
 ! D77   D(21,20,23,25)        -70.5751         estimate D2E/DX2                !
 ! D78   D(21,20,23,26)         54.0521         estimate D2E/DX2                !
 ! D79   D(20,21,22,19)          8.4126         estimate D2E/DX2                !
 ! D80   D(20,23,26,27)         65.7609         estimate D2E/DX2                !
 ! D81   D(20,23,26,28)       -113.8694         estimate D2E/DX2                !
 ! D82   D(24,23,26,27)        -51.1714         estimate D2E/DX2                !
 ! D83   D(24,23,26,28)        129.1983         estimate D2E/DX2                !
 ! D84   D(25,23,26,27)       -170.0594         estimate D2E/DX2                !
 ! D85   D(25,23,26,28)         10.3103         estimate D2E/DX2                !
 ! D86   D(23,26,27,29)       -179.7134         estimate D2E/DX2                !
 ! D87   D(23,26,27,30)          0.0428         estimate D2E/DX2                !
 ! D88   D(28,26,27,29)         -0.0779         estimate D2E/DX2                !
 ! D89   D(28,26,27,30)        179.6783         estimate D2E/DX2                !
 ! D90   D(23,26,28,31)        179.8279         estimate D2E/DX2                !
 ! D91   D(23,26,28,32)         -0.2238         estimate D2E/DX2                !
 ! D92   D(27,26,28,31)          0.1924         estimate D2E/DX2                !
 ! D93   D(27,26,28,32)       -179.8593         estimate D2E/DX2                !
 ! D94   D(26,27,29,33)         -0.0573         estimate D2E/DX2                !
 ! D95   D(26,27,29,34)       -179.9352         estimate D2E/DX2                !
 ! D96   D(30,27,29,33)       -179.8097         estimate D2E/DX2                !
 ! D97   D(30,27,29,34)          0.3123         estimate D2E/DX2                !
 ! D98   D(26,28,31,33)         -0.1714         estimate D2E/DX2                !
 ! D99   D(26,28,31,35)        179.938          estimate D2E/DX2                !
 ! D100  D(32,28,31,33)        179.8804         estimate D2E/DX2                !
 ! D101  D(32,28,31,35)         -0.0102         estimate D2E/DX2                !
 ! D102  D(27,29,33,31)          0.0796         estimate D2E/DX2                !
 ! D103  D(27,29,33,36)       -179.9394         estimate D2E/DX2                !
 ! D104  D(34,29,33,31)        179.9573         estimate D2E/DX2                !
 ! D105  D(34,29,33,36)         -0.0617         estimate D2E/DX2                !
 ! D106  D(28,31,33,29)          0.0339         estimate D2E/DX2                !
 ! D107  D(28,31,33,36)       -179.9471         estimate D2E/DX2                !
 ! D108  D(35,31,33,29)        179.9241         estimate D2E/DX2                !
 ! D109  D(35,31,33,36)         -0.0569         estimate D2E/DX2                !
 ! D110  D(6,37,38,39)         171.8066         estimate D2E/DX2                !
 ! D111  D(6,37,38,40)         -69.28           estimate D2E/DX2                !
 ! D112  D(6,37,38,41)          53.052          estimate D2E/DX2                !
 --------------------------------------------------------------------------------
 Trust Radius=1.00D-01 FncErr=1.00D-07 GrdErr=1.00D-06 EigMax=2.50D+02 EigMin=1.00D-04
 Number of steps in this run=     60 maximum allowed number of steps=    246.
 GradGradGradGradGradGradGradGradGradGradGradGradGradGradGradGradGradGrad

                          Input orientation:                          
 ---------------------------------------------------------------------
 Center     Atomic      Atomic             Coordinates (Angstroms)
 Number     Number       Type             X           Y           Z
 ---------------------------------------------------------------------
      1          6           0        4.037127    0.844291    0.429047
      2          6           0        4.207277   -0.492680    1.206462
      3          6           0        3.982263   -1.817984    0.444479
      4          6           0        2.529223   -2.334413    0.386151
      5          6           0        2.704031    1.616400    0.570707
      6          6           0        1.608895    1.289786   -0.472658
      7          1           0        4.258091    0.681003   -0.635518
      8          1           0        3.580763   -0.476015    2.109570
      9          1           0        4.364770   -1.714533   -0.579849
     10          1           0        4.824006    1.520155    0.786186
     11          1           0        5.242605   -0.515271    1.569568
     12          1           0        4.587301   -2.602458    0.919057
     13          1           0        2.487509   -3.263322   -0.194109
     14          1           0        2.187663   -2.594203    1.398586
     15          1           0        2.919101    2.689760    0.494712
     16          1           0        2.272318    1.453168    1.565783
     17          1           0        1.989543    1.531997   -1.480411
     18          6           0        1.303484   -0.146067   -0.410729
     19          6           0        1.624440   -1.315771   -0.172517
     20          7           0       -0.679264   -0.409850   -1.544622
     21          7           0       -0.701218   -1.650060   -1.344717
     22          7           0       -0.041266   -2.526183   -0.947027
     23          6           0       -1.955737    0.326299   -1.602553
     24          1           0       -1.646618    1.369523   -1.689693
     25          1           0       -2.488330    0.060317   -2.525117
     26          6           0       -2.860223    0.134107   -0.400701
     27          6           0       -2.473350    0.604013    0.862808
     28          6           0       -4.088601   -0.521103   -0.535160
     29          6           0       -3.305563    0.419702    1.965841
     30          1           0       -1.516849    1.108467    0.969151
     31          6           0       -4.923877   -0.703887    0.569489
     32          1           0       -4.395413   -0.890871   -1.511470
     33          6           0       -4.533122   -0.233641    1.822935
     34          1           0       -2.997429    0.788449    2.941031
     35          1           0       -5.876044   -1.214141    0.449148
     36          1           0       -5.180074   -0.374823    2.684887
     37          8           0        0.428740    2.067552   -0.242193
     38          6           0        0.527070    3.421147   -0.645879
     39          1           0       -0.474649    3.848845   -0.551707
     40          1           0        1.214612    4.004360   -0.017232
     41          1           0        0.854952    3.505983   -1.693939
 ---------------------------------------------------------------------
                    Distance matrix (angstroms):
                    1          2          3          4          5
     1  C    0.000000
     2  C    1.555898   0.000000
     3  C    2.662885   1.545212   0.000000
     4  C    3.518490   2.623120   1.543188   0.000000
     5  C    1.547050   2.666862   3.666716   3.958983   0.000000
     6  C    2.628278   3.570465   4.016497   3.836583   1.547453
     7  H    1.099448   2.184721   2.736313   3.622917   2.178314
     8  H    2.185322   1.099273   2.175916   2.744003   2.741342
     9  H    2.769982   2.169940   1.098299   2.164865   3.895761
    10  H    1.097051   2.146740   3.459548   4.503749   2.133071
    11  H    2.145315   1.097388   2.133389   3.474507   3.462096
    12  H    3.524611   2.162911   1.098496   2.142784   4.633230
    13  H    4.434199   3.549036   2.175106   1.096045   4.944039
    14  H    4.022904   2.920984   2.175644   1.099626   4.322175
    15  H    2.158715   3.506268   4.631695   5.040447   1.097330
    16  H    2.185738   2.767581   3.857677   3.975337   1.096903
    17  H    2.882979   4.029510   4.347241   4.327174   2.173638
    18  C    3.026356   3.341775   3.271474   2.631789   2.455817
    19  C    3.293752   3.041399   2.488419   1.472539   3.211779
    20  N    5.264274   5.608352   5.260152   4.210251   4.475152
    21  N    5.640916   5.651669   5.016415   3.728269   5.092576
    22  N    5.466897   5.179071   4.315858   2.901991   5.196265
    23  C    6.349026   6.822319   6.636877   5.581147   5.301024
    24  H    6.088504   6.791437   6.811696   5.955327   4.909023
    25  H    7.205781   7.685157   7.363090   6.275830   6.242286
    26  C    6.983285   7.274984   7.165515   5.979871   5.839670
    27  C    6.529332   6.778762   6.907677   5.821278   5.283514
    28  C    8.295869   8.476772   8.232888   6.923330   7.206366
    29  C    7.513795   7.606042   7.773944   6.642688   6.284402
    30  H    5.586425   5.948580   6.251370   5.344531   4.269962
    31  C    9.094842   9.155781   8.976423   7.631574   7.972998
    32  H    8.825197   9.030614   8.652788   7.323616   7.811784
    33  C    8.749515   8.765941   8.770523   7.506950   7.574107
    34  H    7.469816   7.520493   7.857631   6.842774   6.229814
    35  H   10.124648  10.137425   9.876784   8.479828   9.035730
    36  H    9.567227   9.503788   9.542042   8.279942   8.402013
    37  O    3.868770   4.788605   5.310032   4.917737   2.457904
    38  C    4.485103   5.682705   6.369909   6.180629   3.078368
    39  H    5.508660   6.622720   7.278008   6.937975   4.043219
    40  H    4.260492   5.538668   6.463185   6.486214   2.875134
    41  H    4.660248   5.969901   6.534335   6.421852   3.481126
                    6          7          8          9         10
     6  C    0.000000
     7  H    2.723119   0.000000
     8  H    3.697866   3.054991   0.000000
     9  H    4.078268   2.398556   3.062935   0.000000
    10  H    3.460448   1.745188   2.698461   3.541209   0.000000
    11  H    4.542331   2.694948   1.747817   2.613201   2.220782
    12  H    5.094834   3.647766   2.636702   1.756318   4.131541
    13  H    4.645465   4.345975   3.777727   2.464072   5.413119
    14  H    4.349930   4.376211   2.633048   3.070475   4.924762
    15  H    2.147643   2.665600   3.614926   4.758407   2.254240
    16  H    2.149899   3.063537   2.393633   4.360782   2.668964
    17  H    1.104140   2.565998   4.410448   4.122217   3.629296
    18  C    1.469280   3.076406   3.412736   3.443858   4.074675
    19  C    2.622833   3.337303   3.120947   2.798989   4.381645
    20  N    3.045249   5.137500   5.612960   5.298609   6.280412
    21  N    3.839245   5.525537   5.625463   5.123808   6.717077
    22  N    4.184457   5.372853   5.163823   4.495192   6.561079
    23  C    3.861551   6.298622   6.713896   6.720099   7.286720
    24  H    3.476478   6.037462   6.720560   6.846893   6.929766
    25  H    4.744622   7.033494   7.655185   7.341603   8.158806
    26  C    4.616686   7.143153   6.939741   7.459899   7.897925
    27  C    4.349538   6.896608   6.274803   7.363205   7.355038
    28  C    5.978687   8.433410   8.112692   8.537316   9.238359
    29  C    5.554748   8.002763   6.945823   8.358799   8.288093
    30  H    3.447023   6.008961   5.458643   6.705384   6.356839
    31  C    6.909263   9.363680   8.645963   9.413891  10.000727
    32  H    6.471948   8.838620   8.769459   8.848002   9.802548
    33  C    6.731638   9.174202   8.122563   9.334821   9.576351
    34  H    5.755244   8.089859   6.750023   8.536011   8.145772
    35  H    7.946300  10.366714   9.629798  10.304537  11.049029
    36  H    7.670145  10.060756   8.780290  10.176314  10.357491
    37  O    1.432062   4.091595   4.683563   5.469050   4.547040
    38  C    2.396467   4.629148   5.666163   6.411514   4.912050
    39  H    3.300937   5.695707   6.498705   7.373733   5.940412
    40  H    2.780609   4.548598   5.495063   6.553303   4.454714
    41  H    2.640357   4.547760   6.144349   6.388568   5.084085
                   11         12         13         14         15
    11  H    0.000000
    12  H    2.282310   0.000000
    13  H    4.272341   2.466780   0.000000
    14  H    3.699171   2.447095   1.753370   0.000000
    15  H    4.101977   5.565118   6.008322   5.410384   0.000000
    16  H    3.563337   4.714393   5.038731   4.051707   1.759170
    17  H    4.906740   5.440543   4.989753   5.035216   2.470953
    18  C    4.424315   4.311106   3.341575   3.169978   3.387027
    19  C    4.094726   3.409639   2.130331   2.102373   4.262115
    20  N    6.691624   6.214012   4.471537   4.653294   5.168626
    21  N    6.716386   5.830966   3.754264   4.094234   5.943421
    22  N    6.188402   4.991165   2.739520   3.236457   6.168343
    23  C    7.911178   7.599176   5.883157   5.891004   5.809348
    24  H    7.850901   7.838620   6.386787   6.320626   5.230721
    25  H    8.767275   8.307662   6.421772   6.656338   6.728570
    26  C    8.364179   8.043392   6.339042   6.013507   6.382297
    27  C    7.828682   7.754831   6.378360   5.678088   5.793476
    28  C    9.565633   9.039804   7.133114   6.886844   7.776771
    29  C    8.608275   8.516250   7.196510   6.291339   6.787034
    30  H    6.977625   7.143816   6.041573   5.255244   4.733205
    31  C   10.217294   9.705116   7.877972   7.405046   8.546036
    32  H   10.125476   9.461825   7.398553   7.396395   8.387359
    33  C    9.783065   9.466277   7.908015   7.135915   8.114559
    34  H    8.454511   8.550716   7.505365   6.380177   6.678681
    35  H   11.196790  10.565501   8.634926   8.235859   9.622738
    36  H   10.483125  10.172616   8.684693   7.801524   8.932254
    37  O    5.755584   6.360120   5.714811   5.245753   2.670593
    38  C    6.529921   7.430903   6.980656   6.566722   2.749125
    39  H    7.498820   8.331013   7.712663   7.239089   3.735774
    40  H    6.258573   7.476745   7.380431   6.818534   2.212587
    41  H    6.787670   7.620448   7.123077   6.967934   3.117230
                   16         17         18         19         20
    16  H    0.000000
    17  H    3.060306   0.000000
    18  C    2.720806   2.104945   0.000000
    19  C    3.332935   3.154944   1.236109   0.000000
    20  N    4.675178   3.301124   2.299258   2.830268   0.000000
    21  N    5.190660   4.169424   2.674540   2.625736   1.256410
    22  N    5.244247   4.569191   2.785844   2.199896   2.289765
    23  C    5.402281   4.127210   3.502299   4.190354   1.474672
    24  H    5.095408   3.645801   3.554697   4.495827   2.030515
    25  H    6.429562   4.827898   4.346388   4.933885   2.110722
    26  C    5.652430   5.161405   4.173135   4.718731   2.522108
    27  C    4.872022   5.125353   4.055736   4.642128   3.168972
    28  C    6.983767   6.484795   5.406545   5.779434   3.557383
    29  C    5.686903   6.414983   5.216464   5.647068   4.461946
    30  H    3.851308   4.298199   3.381154   4.128926   3.053832
    31  C    7.578305   7.549612   6.328666   6.618567   4.751070
    32  H    7.708608   6.829269   5.851820   6.181583   3.747298
    33  C    7.016086   7.521618   6.250032   6.562652   5.120910
    34  H    5.486656   6.706109   5.532221   5.956811   5.189498
    35  H    8.646225   8.551721   7.309295   7.526889   5.623925
    36  H    7.754489   8.508177   7.188303   7.439863   6.176348
    37  O    2.654246   2.063034   2.386146   3.589071   3.010235
    38  C    3.436609   2.530644   3.658296   4.885355   4.115765
    39  H    4.215312   3.507494   4.375037   5.587774   4.377696
    40  H    3.183278   2.975566   4.169986   5.338153   5.040331
    41  H    4.104724   2.286813   3.896829   5.114309   4.208309
                   21         22         23         24         25
    21  N    0.000000
    22  N    1.166740   0.000000
    23  C    2.355057   3.497365   0.000000
    24  H    3.182872   4.278462   1.091543   0.000000
    25  H    2.740895   3.894672   1.097965   1.766475   0.000000
    26  C    2.955626   3.914349   1.516404   2.158840   2.157984
    27  C    3.618627   4.357598   2.534374   2.790117   3.431307
    28  C    3.661187   4.535515   2.531112   3.297074   2.618940
    29  C    4.693221   5.274341   3.816306   4.125190   4.578836
    30  H    3.691708   4.365749   2.723613   2.674779   3.775222
    31  C    4.731836   5.427750   3.819541   4.488135   4.011543
    32  H    3.775083   4.685235   2.727969   3.563287   2.359916
    33  C    5.169502   5.753712   4.323241   4.820850   4.813849
    34  H    5.439352   5.902769   4.684320   4.858594   5.537881
    35  H    5.494251   6.141285   4.685214   5.397963   4.684773
    36  H    6.158254   6.650301   5.410181   5.887699   5.880389
    37  O    4.038937   4.671199   3.250889   2.624808   4.213079
    38  C    5.264429   5.982009   4.081378   3.166012   4.890742
    39  H    5.560409   6.401958   3.963108   2.969101   4.722521
    40  H    6.115970   6.714890   5.108081   4.233926   5.962948
    41  H    5.397074   6.143949   4.244846   3.289732   4.872474
                   26         27         28         29         30
    26  C    0.000000
    27  C    1.402476   0.000000
    28  C    1.398675   2.414382   0.000000
    29  C    2.424957   1.393998   2.784470   0.000000
    30  H    2.151866   1.086589   3.395933   2.160391   0.000000
    31  C    2.429438   2.793156   1.396905   2.414786   3.879716
    32  H    2.154343   3.400912   1.088137   3.872605   4.293829
    33  C    2.806846   2.422018   2.416784   1.397920   3.410001
    34  H    3.407955   2.151205   3.871626   1.087159   2.486532
    35  H    3.411039   3.880094   2.155021   3.402524   4.966638
    36  H    3.893786   3.406530   3.403148   2.159187   4.308494
    37  O    3.818457   3.432943   5.214724   4.640673   2.484455
    38  C    4.726363   4.383481   6.071081   5.524386   3.483449
    39  H    4.417357   4.065045   5.670747   5.109906   3.302856
    40  H    5.632956   5.092926   6.990862   6.100356   4.101223
    41  H    5.181172   5.102546   6.480657   6.342634   4.297158
                   31         32         33         34         35
    31  C    0.000000
    32  H    2.155140   0.000000
    33  C    1.394614   3.401349   0.000000
    34  H    3.400365   4.959762   2.157118   0.000000
    35  H    1.086951   2.478063   2.156875   4.301891   0.000000
    36  H    2.156115   4.300165   1.086941   2.486514   2.487440
    37  O    6.081958   5.799636   5.846394   4.848469   7.141272
    38  C    6.943043   6.601029   6.712531   5.676189   7.980279
    39  H    6.463751   6.225627   6.227103   5.284851   7.470649
    40  H    7.758407   7.593972   7.374505   6.069159   8.816330
    41  H    7.499398   6.850690   7.442079   6.611261   8.495805
                   36         37         38         39         40
    36  H    0.000000
    37  O    6.781725   0.000000
    38  C    7.620688   1.415927   0.000000
    39  H    7.103234   2.021117   1.093268   0.000000
    40  H    8.207966   2.102243   1.099112   1.778609   0.000000
    41  H    8.405731   2.087656   1.101423   1.786081   1.785800
                   41
    41  H    0.000000
 Stoichiometry    C16H21N3O
 Framework group  C1[X(C16H21N3O)]
 Deg. of freedom   117
 Full point group                 C1      NOp   1
 Largest Abelian subgroup         C1      NOp   1
 Largest concise Abelian subgroup C1      NOp   1
                         Standard orientation:                         
 ---------------------------------------------------------------------
 Center     Atomic      Atomic             Coordinates (Angstroms)
 Number     Number       Type             X           Y           Z
 ---------------------------------------------------------------------
      1          6           0        4.035686    0.854871    0.421723
      2          6           0        4.208182   -0.476908    1.207488
      3          6           0        3.985578   -1.807349    0.453794
      4          6           0        2.533465   -2.326728    0.398631
      5          6           0        2.701205    1.625468    0.558495
      6          6           0        1.606713    1.290382   -0.482856
      7          1           0        4.257001    0.685326   -0.641791
      8          1           0        3.581589   -0.455717    2.110446
      9          1           0        4.367956   -1.709620   -0.571144
     10          1           0        4.821337    1.534359    0.774665
     11          1           0        5.243529   -0.495379    1.570774
     12          1           0        4.591989   -2.587759    0.933294
     13          1           0        2.493443   -3.259320   -0.175812
     14          1           0        2.192315   -2.580794    1.412655
     15          1           0        2.914362    2.698714    0.475802
     16          1           0        2.269730    1.467688    1.554553
     17          1           0        1.986983    1.526968   -1.492087
     18          6           0        1.303864   -0.145599   -0.411966
     19          6           0        1.626896   -1.313216   -0.166433
     20          7           0       -0.678347   -0.420007   -1.544276
     21          7           0       -0.698097   -1.658981   -1.336623
     22          7           0       -0.036604   -2.531420   -0.933435
     23          6           0       -1.956131    0.313483   -1.606863
     24          1           0       -1.648871    1.356693   -1.700509
     25          1           0       -2.488196    0.040789   -2.527770
     26          6           0       -2.860338    0.127192   -0.403873
     27          6           0       -2.474374    0.605678    0.856691
     28          6           0       -4.087537   -0.531039   -0.534288
     29          6           0       -3.306319    0.426779    1.960818
     30          1           0       -1.518782    1.112495    0.959920
     31          6           0       -4.922545   -0.708406    0.571445
     32          1           0       -4.393633   -0.907450   -1.508281
     33          6           0       -4.532700   -0.229637    1.821945
     34          1           0       -2.998897    0.802164    2.933697
     35          1           0       -5.873792   -1.221103    0.454254
     36          1           0       -5.179446   -0.366583    2.684734
     37          8           0        0.425158    2.067464   -0.257309
     38          6           0        0.521092    3.418682   -0.669445
     39          1           0       -0.481395    3.845170   -0.577992
     40          1           0        1.207556    4.007041   -0.044426
     41          1           0        0.848879    3.497551   -1.718000
 ---------------------------------------------------------------------
 Rotational constants (GHZ):           0.5432210           0.2021689           0.1776523
 Standard basis: 6-31G(d) (6D, 7F)
 There are   342 symmetry adapted cartesian basis functions of A   symmetry.
 There are   342 symmetry adapted basis functions of A   symmetry.
   342 basis functions,   644 primitive gaussians,   342 cartesian basis functions
    73 alpha electrons       73 beta electrons
       nuclear repulsion energy      1529.6214622651 Hartrees.
 NAtoms=   41 NActive=   41 NUniq=   41 SFac= 1.00D+00 NAtFMM=   60 NAOKFM=F Big=F
 Integral buffers will be    131072 words long.
 Raffenetti 2 integral format.
 Two-electron integral symmetry is turned on.
 One-electron integrals computed using PRISM.
 NBasis=   342 RedAO= T EigKep=  4.63D-04  NBF=   342
 NBsUse=   342 1.00D-06 EigRej= -1.00D+00 NBFU=   342
 Initial guess from the checkpoint file:  "bnts-OMe-ts-no-disp.chk"
 B after Tr=    -0.000000   -0.000000    0.000000
         Rot=    1.000000    0.000000    0.000000    0.000000 Ang=   0.00 deg.
 Requested convergence on RMS density matrix=1.00D-08 within 128 cycles.
 Requested convergence on MAX density matrix=1.00D-06.
 Requested convergence on             energy=1.00D-06.
 No special actions if energy rises.
 SCF Done:  E(RB3LYP) =  -861.644066706     A.U. after    1 cycles
            NFock=  1  Conv=0.23D-08     -V/T= 2.0097

 **********************************************************************

            Population analysis using the SCF density.

 **********************************************************************

 Orbital symmetries:
       Occupied  (A) (A) (A) (A) (A) (A) (A) (A) (A) (A) (A) (A)
                 (A) (A) (A) (A) (A) (A) (A) (A) (A) (A) (A) (A)
                 (A) (A) (A) (A) (A) (A) (A) (A) (A) (A) (A) (A)
                 (A) (A) (A) (A) (A) (A) (A) (A) (A) (A) (A) (A)
                 (A) (A) (A) (A) (A) (A) (A) (A) (A) (A) (A) (A)
                 (A) (A) (A) (A) (A) (A) (A) (A) (A) (A) (A) (A)
                 (A)
       Virtual   (A) (A) (A) (A) (A) (A) (A) (A) (A) (A) (A) (A)
                 (A) (A) (A) (A) (A) (A) (A) (A) (A) (A) (A) (A)
                 (A) (A) (A) (A) (A) (A) (A) (A) (A) (A) (A) (A)
                 (A) (A) (A) (A) (A) (A) (A) (A) (A) (A) (A) (A)
                 (A) (A) (A) (A) (A) (A) (A) (A) (A) (A) (A) (A)
                 (A) (A) (A) (A) (A) (A) (A) (A) (A) (A) (A) (A)
                 (A) (A) (A) (A) (A) (A) (A) (A) (A) (A) (A) (A)
                 (A) (A) (A) (A) (A) (A) (A) (A) (A) (A) (A) (A)
                 (A) (A) (A) (A) (A) (A) (A) (A) (A) (A) (A) (A)
                 (A) (A) (A) (A) (A) (A) (A) (A) (A) (A) (A) (A)
                 (A) (A) (A) (A) (A) (A) (A) (A) (A) (A) (A) (A)
                 (A) (A) (A) (A) (A) (A) (A) (A) (A) (A) (A) (A)
                 (A) (A) (A) (A) (A) (A) (A) (A) (A) (A) (A) (A)
                 (A) (A) (A) (A) (A) (A) (A) (A) (A) (A) (A) (A)
                 (A) (A) (A) (A) (A) (A) (A) (A) (A) (A) (A) (A)
                 (A) (A) (A) (A) (A) (A) (A) (A) (A) (A) (A) (A)
                 (A) (A) (A) (A) (A) (A) (A) (A) (A) (A) (A) (A)
                 (A) (A) (A) (A) (A) (A) (A) (A) (A) (A) (A) (A)
                 (A) (A) (A) (A) (A) (A) (A) (A) (A) (A) (A) (A)
                 (A) (A) (A) (A) (A) (A) (A) (A) (A) (A) (A) (A)
                 (A) (A) (A) (A) (A) (A) (A) (A) (A) (A) (A) (A)
                 (A) (A) (A) (A) (A) (A) (A) (A) (A) (A) (A) (A)
                 (A) (A) (A) (A) (A)
 The electronic state is 1-A.
 Alpha  occ. eigenvalues --  -19.15495 -14.45418 -14.38270 -14.37205 -10.25391
 Alpha  occ. eigenvalues --  -10.23265 -10.22283 -10.19557 -10.18978 -10.18587
 Alpha  occ. eigenvalues --  -10.18567 -10.18472 -10.18424 -10.18377 -10.18363
 Alpha  occ. eigenvalues --  -10.18280 -10.18223 -10.18161 -10.17971 -10.17806
 Alpha  occ. eigenvalues --   -1.09803  -1.03483  -0.92725  -0.84649  -0.81834
 Alpha  occ. eigenvalues --   -0.78010  -0.76702  -0.76209  -0.73638  -0.70191
 Alpha  occ. eigenvalues --   -0.69751  -0.68028  -0.65049  -0.59926  -0.59196
 Alpha  occ. eigenvalues --   -0.58902  -0.57287  -0.52925  -0.51245  -0.50506
 Alpha  occ. eigenvalues --   -0.49335  -0.49136  -0.47366  -0.46867  -0.46093
 Alpha  occ. eigenvalues --   -0.45377  -0.44657  -0.44422  -0.43319  -0.42724
 Alpha  occ. eigenvalues --   -0.42042  -0.41209  -0.40425  -0.40316  -0.39046
 Alpha  occ. eigenvalues --   -0.38972  -0.38445  -0.37818  -0.35395  -0.35081
 Alpha  occ. eigenvalues --   -0.34349  -0.33688  -0.33133  -0.32519  -0.31868
 Alpha  occ. eigenvalues --   -0.31385  -0.28549  -0.26543  -0.24727  -0.24358
 Alpha  occ. eigenvalues --   -0.24273  -0.23158  -0.22874
 Alpha virt. eigenvalues --   -0.03673   0.00086   0.00621   0.02113   0.03836
 Alpha virt. eigenvalues --    0.05549   0.08518   0.09328   0.10288   0.11273
 Alpha virt. eigenvalues --    0.12173   0.13137   0.13347   0.13853   0.14557
 Alpha virt. eigenvalues --    0.15288   0.15523   0.16008   0.16609   0.17087
 Alpha virt. eigenvalues --    0.17265   0.17495   0.18284   0.18604   0.19471
 Alpha virt. eigenvalues --    0.19819   0.20204   0.21959   0.22249   0.22743
 Alpha virt. eigenvalues --    0.23620   0.24528   0.25500   0.25517   0.26510
 Alpha virt. eigenvalues --    0.28659   0.31160   0.31784   0.31913   0.32506
 Alpha virt. eigenvalues --    0.32974   0.33455   0.35307   0.37430   0.45352
 Alpha virt. eigenvalues --    0.45598   0.46726   0.47568   0.50273   0.51052
 Alpha virt. eigenvalues --    0.51284   0.53135   0.53480   0.53744   0.54617
 Alpha virt. eigenvalues --    0.55149   0.55386   0.56717   0.57340   0.57495
 Alpha virt. eigenvalues --    0.57943   0.59190   0.60220   0.60644   0.60980
 Alpha virt. eigenvalues --    0.61248   0.61944   0.62093   0.63141   0.63372
 Alpha virt. eigenvalues --    0.64377   0.66059   0.66477   0.67096   0.68055
 Alpha virt. eigenvalues --    0.68607   0.69680   0.70813   0.71708   0.73103
 Alpha virt. eigenvalues --    0.73882   0.74674   0.75745   0.76335   0.77760
 Alpha virt. eigenvalues --    0.78074   0.78348   0.79553   0.81376   0.82736
 Alpha virt. eigenvalues --    0.83365   0.83837   0.84486   0.84625   0.85461
 Alpha virt. eigenvalues --    0.85569   0.86002   0.86875   0.87480   0.87642
 Alpha virt. eigenvalues --    0.88862   0.89117   0.89612   0.89964   0.90983
 Alpha virt. eigenvalues --    0.91889   0.92728   0.94208   0.94565   0.94923
 Alpha virt. eigenvalues --    0.95241   0.95942   0.96511   0.97025   0.97643
 Alpha virt. eigenvalues --    0.98042   0.99287   0.99728   1.01298   1.02254
 Alpha virt. eigenvalues --    1.03322   1.03959   1.08355   1.10642   1.12562
 Alpha virt. eigenvalues --    1.13595   1.14331   1.17324   1.17707   1.19502
 Alpha virt. eigenvalues --    1.21398   1.21916   1.25575   1.26434   1.28170
 Alpha virt. eigenvalues --    1.28667   1.30479   1.33991   1.34675   1.38962
 Alpha virt. eigenvalues --    1.39579   1.41606   1.42623   1.43891   1.44529
 Alpha virt. eigenvalues --    1.46183   1.47768   1.48773   1.49235   1.50081
 Alpha virt. eigenvalues --    1.50706   1.52047   1.53071   1.54256   1.56255
 Alpha virt. eigenvalues --    1.57380   1.60501   1.63216   1.65390   1.66112
 Alpha virt. eigenvalues --    1.66536   1.69091   1.70368   1.74388   1.75962
 Alpha virt. eigenvalues --    1.76330   1.78609   1.80297   1.81883   1.82073
 Alpha virt. eigenvalues --    1.83161   1.84567   1.85018   1.86396   1.88194
 Alpha virt. eigenvalues --    1.90152   1.90790   1.91096   1.92522   1.92576
 Alpha virt. eigenvalues --    1.93017   1.96206   1.97845   1.98038   1.99514
 Alpha virt. eigenvalues --    2.01891   2.02646   2.03125   2.05272   2.06538
 Alpha virt. eigenvalues --    2.06866   2.07684   2.08990   2.09596   2.10922
 Alpha virt. eigenvalues --    2.12426   2.13259   2.14996   2.15542   2.16926
 Alpha virt. eigenvalues --    2.17576   2.19539   2.21499   2.21844   2.24074
 Alpha virt. eigenvalues --    2.26552   2.28408   2.29204   2.29528   2.31136
 Alpha virt. eigenvalues --    2.32313   2.35101   2.35539   2.35907   2.37026
 Alpha virt. eigenvalues --    2.39607   2.40134   2.43481   2.44638   2.46266
 Alpha virt. eigenvalues --    2.49280   2.51310   2.53447   2.58572   2.59180
 Alpha virt. eigenvalues --    2.59620   2.64085   2.65236   2.66229   2.66836
 Alpha virt. eigenvalues --    2.68937   2.72112   2.72834   2.73880   2.74236
 Alpha virt. eigenvalues --    2.74890   2.76908   2.77367   2.79136   2.81373
 Alpha virt. eigenvalues --    2.86175   2.88551   2.96397   2.99011   3.06147
 Alpha virt. eigenvalues --    3.07215   3.14663   3.39209   3.41636   3.60475
 Alpha virt. eigenvalues --    3.83292   3.99221   4.09768   4.10985   4.11641
 Alpha virt. eigenvalues --    4.13099   4.16568   4.19041   4.23351   4.28527
 Alpha virt. eigenvalues --    4.33671   4.35728   4.38200   4.43863   4.45589
 Alpha virt. eigenvalues --    4.53591   4.60828   4.71149   4.79155
          Condensed to atoms (all electrons):
               1          2          3          4          5          6
     1  C    5.040168   0.366665  -0.032056  -0.001995   0.331311  -0.024586
     2  C    0.366665   5.008019   0.371083  -0.037070  -0.030499  -0.002233
     3  C   -0.032056   0.371083   5.023517   0.370180   0.001466   0.000738
     4  C   -0.001995  -0.037070   0.370180   5.058808   0.000805   0.000442
     5  C    0.331311  -0.030499   0.001466   0.000805   5.146157   0.360831
     6  C   -0.024586  -0.002233   0.000738   0.000442   0.360831   4.854429
     7  H    0.373498  -0.040995  -0.008308  -0.000018  -0.044809  -0.005987
     8  H   -0.042200   0.372870  -0.042184  -0.005277  -0.007997  -0.000155
     9  H   -0.007974  -0.043277   0.373592  -0.036089  -0.000098   0.000032
    10  H    0.365278  -0.037248   0.004028  -0.000061  -0.032295   0.003489
    11  H   -0.037108   0.369791  -0.036212   0.004389   0.003795  -0.000010
    12  H    0.004183  -0.034526   0.358920  -0.036203  -0.000110  -0.000006
    13  H   -0.000144   0.004657  -0.037614   0.356943  -0.000011  -0.000108
    14  H    0.000044  -0.005812  -0.034717   0.365162  -0.000010   0.000129
    15  H   -0.033308   0.003839  -0.000107  -0.000017   0.352871  -0.034414
    16  H   -0.036508  -0.007496  -0.000102  -0.000082   0.361144  -0.029096
    17  H   -0.000160   0.000059  -0.000053   0.000010  -0.062863   0.356898
    18  C   -0.003816   0.003153  -0.005711  -0.081238  -0.055747   0.404540
    19  C    0.003360  -0.004125  -0.050382   0.399604  -0.006921  -0.079711
    20  N   -0.000004   0.000001  -0.000024   0.000962   0.000729  -0.009415
    21  N    0.000000   0.000003  -0.000071  -0.000549  -0.000047  -0.000342
    22  N   -0.000000  -0.000011   0.000818  -0.010718  -0.000020   0.001336
    23  C   -0.000000  -0.000000   0.000000  -0.000010  -0.000003  -0.000018
    24  H   -0.000001  -0.000000   0.000000  -0.000001   0.000028   0.000474
    25  H   -0.000000   0.000000  -0.000000   0.000001   0.000001  -0.000044
    26  C    0.000000  -0.000000   0.000000   0.000001  -0.000008   0.000105
    27  C   -0.000000   0.000000  -0.000000   0.000001   0.000023   0.000225
    28  C    0.000000  -0.000000   0.000000   0.000000  -0.000000   0.000002
    29  C   -0.000000   0.000000   0.000000  -0.000000   0.000001  -0.000003
    30  H    0.000002   0.000000  -0.000000  -0.000000  -0.000093  -0.001176
    31  C   -0.000000   0.000000  -0.000000   0.000000   0.000000   0.000000
    32  H    0.000000   0.000000  -0.000000   0.000000  -0.000000  -0.000000
    33  C    0.000000  -0.000000   0.000000  -0.000000  -0.000000  -0.000000
    34  H   -0.000000   0.000000  -0.000000   0.000000   0.000000   0.000000
    35  H    0.000000  -0.000000  -0.000000  -0.000000  -0.000000   0.000000
    36  H   -0.000000   0.000000  -0.000000   0.000000   0.000000  -0.000000
    37  O    0.002955  -0.000036  -0.000001  -0.000027  -0.041230   0.189306
    38  C    0.000066  -0.000001  -0.000000   0.000002  -0.005117  -0.029647
    39  H    0.000003   0.000000  -0.000000  -0.000000  -0.000066   0.004920
    40  H   -0.000470   0.000001  -0.000000  -0.000000   0.002491  -0.003262
    41  H    0.000078   0.000000  -0.000000  -0.000000  -0.001048  -0.012169
               7          8          9         10         11         12
     1  C    0.373498  -0.042200  -0.007974   0.365278  -0.037108   0.004183
     2  C   -0.040995   0.372870  -0.043277  -0.037248   0.369791  -0.034526
     3  C   -0.008308  -0.042184   0.373592   0.004028  -0.036212   0.358920
     4  C   -0.000018  -0.005277  -0.036089  -0.000061   0.004389  -0.036203
     5  C   -0.044809  -0.007997  -0.000098  -0.032295   0.003795  -0.000110
     6  C   -0.005987  -0.000155   0.000032   0.003489  -0.000010  -0.000006
     7  H    0.601304   0.004930   0.006943  -0.036708   0.001961   0.000166
     8  H    0.004930   0.601500   0.005389   0.001953  -0.036250   0.000358
     9  H    0.006943   0.005389   0.600597   0.000277   0.000099  -0.035717
    10  H   -0.036708   0.001953   0.000277   0.615556  -0.010757  -0.000193
    11  H    0.001961  -0.036250   0.000099  -0.010757   0.614755  -0.007722
    12  H    0.000166   0.000358  -0.035717  -0.000193  -0.007722   0.616494
    13  H   -0.000014   0.000083  -0.004797   0.000003  -0.000142  -0.000839
    14  H    0.000027   0.004507   0.005519   0.000007  -0.000029  -0.004077
    15  H    0.000979   0.000191  -0.000008  -0.008346  -0.000210   0.000003
    16  H    0.004999   0.006354   0.000025   0.000586   0.000278  -0.000010
    17  H    0.005099   0.000010  -0.000051  -0.000155   0.000009  -0.000002
    18  C   -0.000566   0.000042  -0.000127   0.000322  -0.000010   0.000397
    19  C    0.000400  -0.000583  -0.004402   0.000062   0.000297   0.006918
    20  N   -0.000003   0.000000  -0.000001   0.000000  -0.000000   0.000000
    21  N    0.000001   0.000000  -0.000001   0.000000   0.000000   0.000001
    22  N   -0.000000  -0.000002   0.000007  -0.000000   0.000000  -0.000016
    23  C   -0.000000  -0.000000   0.000000   0.000000  -0.000000  -0.000000
    24  H   -0.000000   0.000000   0.000000   0.000000  -0.000000  -0.000000
    25  H   -0.000000   0.000000  -0.000000   0.000000  -0.000000   0.000000
    26  C    0.000000   0.000000  -0.000000  -0.000000   0.000000   0.000000
    27  C   -0.000000  -0.000000  -0.000000   0.000000  -0.000000   0.000000
    28  C    0.000000  -0.000000  -0.000000  -0.000000   0.000000  -0.000000
    29  C   -0.000000  -0.000000  -0.000000   0.000000  -0.000000  -0.000000
    30  H    0.000000  -0.000000  -0.000000  -0.000000   0.000000  -0.000000
    31  C   -0.000000  -0.000000  -0.000000   0.000000  -0.000000   0.000000
    32  H    0.000000   0.000000   0.000000  -0.000000   0.000000  -0.000000
    33  C    0.000000  -0.000000   0.000000  -0.000000   0.000000  -0.000000
    34  H   -0.000000   0.000000   0.000000   0.000000  -0.000000   0.000000
    35  H   -0.000000  -0.000000   0.000000   0.000000   0.000000   0.000000
    36  H    0.000000   0.000000  -0.000000  -0.000000   0.000000  -0.000000
    37  O    0.000055  -0.000003   0.000000  -0.000062   0.000000   0.000000
    38  C   -0.000003  -0.000000  -0.000000  -0.000009   0.000000  -0.000000
    39  H    0.000000  -0.000000   0.000000  -0.000000  -0.000000   0.000000
    40  H   -0.000002   0.000000   0.000000   0.000034  -0.000000   0.000000
    41  H    0.000013  -0.000000  -0.000000  -0.000003  -0.000000  -0.000000
              13         14         15         16         17         18
     1  C   -0.000144   0.000044  -0.033308  -0.036508  -0.000160  -0.003816
     2  C    0.004657  -0.005812   0.003839  -0.007496   0.000059   0.003153
     3  C   -0.037614  -0.034717  -0.000107  -0.000102  -0.000053  -0.005711
     4  C    0.356943   0.365162  -0.000017  -0.000082   0.000010  -0.081238
     5  C   -0.000011  -0.000010   0.352871   0.361144  -0.062863  -0.055747
     6  C   -0.000108   0.000129  -0.034414  -0.029096   0.356898   0.404540
     7  H   -0.000014   0.000027   0.000979   0.004999   0.005099  -0.000566
     8  H    0.000083   0.004507   0.000191   0.006354   0.000010   0.000042
     9  H   -0.004797   0.005519  -0.000008   0.000025  -0.000051  -0.000127
    10  H    0.000003   0.000007  -0.008346   0.000586  -0.000155   0.000322
    11  H   -0.000142  -0.000029  -0.000210   0.000278   0.000009  -0.000010
    12  H   -0.000839  -0.004077   0.000003  -0.000010  -0.000002   0.000397
    13  H    0.577167  -0.035759   0.000000   0.000005   0.000014   0.003195
    14  H   -0.035759   0.578497  -0.000002  -0.000054  -0.000015  -0.001613
    15  H    0.000000  -0.000002   0.617789  -0.035737  -0.004296   0.007364
    16  H    0.000005  -0.000054  -0.035737   0.585031   0.006636  -0.007549
    17  H    0.000014  -0.000015  -0.004296   0.006636   0.648971  -0.047823
    18  C    0.003195  -0.001613   0.007364  -0.007549  -0.047823   4.973673
    19  C   -0.029543  -0.035779   0.000460  -0.000234  -0.000686   0.736750
    20  N    0.000051  -0.000018  -0.000015   0.000000   0.000059   0.057083
    21  N    0.000498  -0.000014   0.000001   0.000000   0.000026  -0.032921
    22  N    0.000639   0.000599   0.000000  -0.000001  -0.000037  -0.011751
    23  C   -0.000002   0.000001  -0.000000  -0.000001   0.000018  -0.002184
    24  H   -0.000000   0.000000  -0.000000  -0.000001  -0.000161  -0.000780
    25  H    0.000000  -0.000000  -0.000000   0.000000   0.000001   0.000335
    26  C    0.000000   0.000000   0.000000   0.000000   0.000016  -0.000287
    27  C    0.000000   0.000000   0.000001  -0.000057  -0.000048   0.000259
    28  C    0.000000  -0.000000  -0.000000   0.000000   0.000000   0.000003
    29  C   -0.000000   0.000000  -0.000000   0.000001   0.000000   0.000006
    30  H    0.000000  -0.000002  -0.000008   0.000304   0.000211   0.000970
    31  C    0.000000  -0.000000   0.000000  -0.000000  -0.000000  -0.000000
    32  H    0.000000  -0.000000  -0.000000   0.000000   0.000000   0.000001
    33  C   -0.000000  -0.000000  -0.000000   0.000000   0.000000   0.000000
    34  H   -0.000000   0.000000   0.000000  -0.000000  -0.000000   0.000000
    35  H    0.000000   0.000000   0.000000  -0.000000  -0.000000  -0.000000
    36  H    0.000000  -0.000000  -0.000000   0.000000   0.000000   0.000000
    37  O    0.000000   0.000002  -0.001538   0.001699  -0.041315  -0.037263
    38  C   -0.000000  -0.000000   0.000969   0.000156  -0.009363   0.005184
    39  H    0.000000   0.000000  -0.000003  -0.000041  -0.000094  -0.000060
    40  H    0.000000   0.000000   0.003466   0.000022  -0.001709  -0.000204
    41  H    0.000000  -0.000000   0.000105   0.000168   0.016676  -0.000073
              19         20         21         22         23         24
     1  C    0.003360  -0.000004   0.000000  -0.000000  -0.000000  -0.000001
     2  C   -0.004125   0.000001   0.000003  -0.000011  -0.000000  -0.000000
     3  C   -0.050382  -0.000024  -0.000071   0.000818   0.000000   0.000000
     4  C    0.399604   0.000962  -0.000549  -0.010718  -0.000010  -0.000001
     5  C   -0.006921   0.000729  -0.000047  -0.000020  -0.000003   0.000028
     6  C   -0.079711  -0.009415  -0.000342   0.001336  -0.000018   0.000474
     7  H    0.000400  -0.000003   0.000001  -0.000000  -0.000000  -0.000000
     8  H   -0.000583   0.000000   0.000000  -0.000002  -0.000000   0.000000
     9  H   -0.004402  -0.000001  -0.000001   0.000007   0.000000   0.000000
    10  H    0.000062   0.000000   0.000000  -0.000000   0.000000   0.000000
    11  H    0.000297  -0.000000   0.000000   0.000000  -0.000000  -0.000000
    12  H    0.006918   0.000000   0.000001  -0.000016  -0.000000  -0.000000
    13  H   -0.029543   0.000051   0.000498   0.000639  -0.000002  -0.000000
    14  H   -0.035779  -0.000018  -0.000014   0.000599   0.000001   0.000000
    15  H    0.000460  -0.000015   0.000001   0.000000  -0.000000  -0.000000
    16  H   -0.000234   0.000000   0.000000  -0.000001  -0.000001  -0.000001
    17  H   -0.000686   0.000059   0.000026  -0.000037   0.000018  -0.000161
    18  C    0.736750   0.057083  -0.032921  -0.011751  -0.002184  -0.000780
    19  C    5.037717  -0.023312  -0.031761   0.065684   0.001560  -0.000041
    20  N   -0.023312   7.028955   0.249137  -0.119001   0.234428  -0.046829
    21  N   -0.031761   0.249137   6.137311   0.467351  -0.035166   0.006480
    22  N    0.065684  -0.119001   0.467351   6.823622   0.004826  -0.000077
    23  C    0.001560   0.234428  -0.035166   0.004826   5.085861   0.367378
    24  H   -0.000041  -0.046829   0.006480  -0.000077   0.367378   0.551837
    25  H   -0.000003  -0.031267  -0.007609  -0.000153   0.345743  -0.034528
    26  C    0.000030  -0.056714  -0.006743   0.000710   0.339009  -0.027294
    27  C   -0.000010   0.001521  -0.000677  -0.000124  -0.062533  -0.006809
    28  C    0.000001  -0.001547   0.002549   0.000017  -0.046106   0.003303
    29  C   -0.000003   0.000006  -0.000048   0.000000   0.005841   0.000064
    30  H    0.000093   0.001611   0.000099  -0.000041  -0.009006   0.001640
    31  C   -0.000000  -0.000067  -0.000067   0.000001   0.006136  -0.000200
    32  H    0.000000   0.000108   0.000063  -0.000008  -0.010339   0.000083
    33  C    0.000000   0.000010   0.000003   0.000000   0.000350   0.000010
    34  H    0.000000   0.000003   0.000000  -0.000000  -0.000177  -0.000000
    35  H   -0.000000   0.000001   0.000000  -0.000000  -0.000167   0.000003
    36  H    0.000000   0.000000  -0.000000   0.000000   0.000007  -0.000000
    37  O    0.001045   0.000862   0.000252   0.000000  -0.001291   0.007907
    38  C   -0.000100   0.000107  -0.000004   0.000000  -0.000162   0.000582
    39  H    0.000003  -0.000015  -0.000000  -0.000000   0.000045   0.000032
    40  H    0.000006   0.000003   0.000000   0.000000   0.000005   0.000105
    41  H   -0.000006  -0.000042  -0.000001  -0.000000   0.000081  -0.000271
              25         26         27         28         29         30
     1  C   -0.000000   0.000000  -0.000000   0.000000  -0.000000   0.000002
     2  C    0.000000  -0.000000   0.000000  -0.000000   0.000000   0.000000
     3  C   -0.000000   0.000000  -0.000000   0.000000   0.000000  -0.000000
     4  C    0.000001   0.000001   0.000001   0.000000  -0.000000  -0.000000
     5  C    0.000001  -0.000008   0.000023  -0.000000   0.000001  -0.000093
     6  C   -0.000044   0.000105   0.000225   0.000002  -0.000003  -0.001176
     7  H   -0.000000   0.000000  -0.000000   0.000000  -0.000000   0.000000
     8  H    0.000000   0.000000  -0.000000  -0.000000  -0.000000  -0.000000
     9  H   -0.000000  -0.000000  -0.000000  -0.000000  -0.000000  -0.000000
    10  H    0.000000  -0.000000   0.000000  -0.000000   0.000000  -0.000000
    11  H   -0.000000   0.000000  -0.000000   0.000000  -0.000000   0.000000
    12  H    0.000000   0.000000   0.000000  -0.000000  -0.000000  -0.000000
    13  H    0.000000   0.000000   0.000000   0.000000  -0.000000   0.000000
    14  H   -0.000000   0.000000   0.000000  -0.000000   0.000000  -0.000002
    15  H   -0.000000   0.000000   0.000001  -0.000000  -0.000000  -0.000008
    16  H    0.000000   0.000000  -0.000057   0.000000   0.000001   0.000304
    17  H    0.000001   0.000016  -0.000048   0.000000   0.000000   0.000211
    18  C    0.000335  -0.000287   0.000259   0.000003   0.000006   0.000970
    19  C   -0.000003   0.000030  -0.000010   0.000001  -0.000003   0.000093
    20  N   -0.031267  -0.056714   0.001521  -0.001547   0.000006   0.001611
    21  N   -0.007609  -0.006743  -0.000677   0.002549  -0.000048   0.000099
    22  N   -0.000153   0.000710  -0.000124   0.000017   0.000000  -0.000041
    23  C    0.345743   0.339009  -0.062533  -0.046106   0.005841  -0.009006
    24  H   -0.034528  -0.027294  -0.006809   0.003303   0.000064   0.001640
    25  H    0.605015  -0.039462   0.006386  -0.007330  -0.000130   0.000136
    26  C   -0.039462   4.716439   0.541355   0.542276  -0.020320  -0.039974
    27  C    0.006386   0.541355   5.003165  -0.049403   0.515335   0.340932
    28  C   -0.007330   0.542276  -0.049403   4.975456  -0.046821   0.005882
    29  C   -0.000130  -0.020320   0.515335  -0.046821   4.885338  -0.042963
    30  H    0.000136  -0.039974   0.340932   0.005882  -0.042963   0.556859
    31  C    0.000147  -0.020117  -0.045694   0.522568  -0.025536   0.000268
    32  H    0.008071  -0.043925   0.006448   0.351304   0.000335  -0.000159
    33  C   -0.000012  -0.035539  -0.033400  -0.035205   0.542635   0.004443
    34  H    0.000003   0.003628  -0.040059   0.000870   0.357075  -0.005022
    35  H   -0.000006   0.003924   0.000723  -0.040343   0.004672   0.000015
    36  H   -0.000000   0.000649   0.004616   0.004822  -0.043544  -0.000154
    37  O    0.000170  -0.002584  -0.004821  -0.000015   0.000159   0.020489
    38  C   -0.000009   0.000079   0.000202   0.000001  -0.000010  -0.000926
    39  H   -0.000010   0.000100   0.000242   0.000001  -0.000011  -0.000305
    40  H    0.000000  -0.000008   0.000016  -0.000000   0.000001  -0.000030
    41  H   -0.000002   0.000013  -0.000047   0.000000   0.000000   0.000181
              31         32         33         34         35         36
     1  C   -0.000000   0.000000   0.000000  -0.000000   0.000000  -0.000000
     2  C    0.000000   0.000000  -0.000000   0.000000  -0.000000   0.000000
     3  C   -0.000000  -0.000000   0.000000  -0.000000  -0.000000  -0.000000
     4  C    0.000000   0.000000  -0.000000   0.000000  -0.000000   0.000000
     5  C    0.000000  -0.000000  -0.000000   0.000000  -0.000000   0.000000
     6  C    0.000000  -0.000000  -0.000000   0.000000   0.000000  -0.000000
     7  H   -0.000000   0.000000   0.000000  -0.000000  -0.000000   0.000000
     8  H   -0.000000   0.000000  -0.000000   0.000000  -0.000000   0.000000
     9  H   -0.000000   0.000000   0.000000   0.000000   0.000000  -0.000000
    10  H    0.000000  -0.000000  -0.000000   0.000000   0.000000  -0.000000
    11  H   -0.000000   0.000000   0.000000  -0.000000   0.000000   0.000000
    12  H    0.000000  -0.000000  -0.000000   0.000000   0.000000  -0.000000
    13  H    0.000000   0.000000  -0.000000  -0.000000   0.000000   0.000000
    14  H   -0.000000  -0.000000  -0.000000   0.000000   0.000000  -0.000000
    15  H    0.000000  -0.000000  -0.000000   0.000000   0.000000  -0.000000
    16  H   -0.000000   0.000000   0.000000  -0.000000  -0.000000   0.000000
    17  H   -0.000000   0.000000   0.000000  -0.000000  -0.000000   0.000000
    18  C   -0.000000   0.000001   0.000000   0.000000  -0.000000   0.000000
    19  C   -0.000000   0.000000   0.000000   0.000000  -0.000000   0.000000
    20  N   -0.000067   0.000108   0.000010   0.000003   0.000001   0.000000
    21  N   -0.000067   0.000063   0.000003   0.000000   0.000000  -0.000000
    22  N    0.000001  -0.000008   0.000000  -0.000000  -0.000000   0.000000
    23  C    0.006136  -0.010339   0.000350  -0.000177  -0.000167   0.000007
    24  H   -0.000200   0.000083   0.000010  -0.000000   0.000003  -0.000000
    25  H    0.000147   0.008071  -0.000012   0.000003  -0.000006  -0.000000
    26  C   -0.020117  -0.043925  -0.035539   0.003628   0.003924   0.000649
    27  C   -0.045694   0.006448  -0.033400  -0.040059   0.000723   0.004616
    28  C    0.522568   0.351304  -0.035205   0.000870  -0.040343   0.004822
    29  C   -0.025536   0.000335   0.542635   0.357075   0.004672  -0.043544
    30  H    0.000268  -0.000159   0.004443  -0.005022   0.000015  -0.000154
    31  C    4.864853  -0.045631   0.552914   0.004643   0.356778  -0.043474
    32  H   -0.045631   0.610893   0.004794   0.000018  -0.005607  -0.000182
    33  C    0.552914   0.004794   4.855265  -0.043953  -0.043478   0.358825
    34  H    0.004643   0.000018  -0.043953   0.601110  -0.000187  -0.005620
    35  H    0.356778  -0.005607  -0.043478  -0.000187   0.601671  -0.005664
    36  H   -0.043474  -0.000182   0.358825  -0.005620  -0.005664   0.602678
    37  O   -0.000000   0.000000   0.000000  -0.000005  -0.000000   0.000000
    38  C    0.000000  -0.000000  -0.000000   0.000000   0.000000  -0.000000
    39  H   -0.000000  -0.000000  -0.000000   0.000000   0.000000  -0.000000
    40  H    0.000000  -0.000000  -0.000000   0.000000   0.000000  -0.000000
    41  H   -0.000000   0.000000   0.000000  -0.000000  -0.000000   0.000000
              37         38         39         40         41
     1  C    0.002955   0.000066   0.000003  -0.000470   0.000078
     2  C   -0.000036  -0.000001   0.000000   0.000001   0.000000
     3  C   -0.000001  -0.000000  -0.000000  -0.000000  -0.000000
     4  C   -0.000027   0.000002  -0.000000  -0.000000  -0.000000
     5  C   -0.041230  -0.005117  -0.000066   0.002491  -0.001048
     6  C    0.189306  -0.029647   0.004920  -0.003262  -0.012169
     7  H    0.000055  -0.000003   0.000000  -0.000002   0.000013
     8  H   -0.000003  -0.000000  -0.000000   0.000000  -0.000000
     9  H    0.000000  -0.000000   0.000000   0.000000  -0.000000
    10  H   -0.000062  -0.000009  -0.000000   0.000034  -0.000003
    11  H    0.000000   0.000000  -0.000000  -0.000000  -0.000000
    12  H    0.000000  -0.000000   0.000000   0.000000  -0.000000
    13  H    0.000000  -0.000000   0.000000   0.000000   0.000000
    14  H    0.000002  -0.000000   0.000000   0.000000  -0.000000
    15  H   -0.001538   0.000969  -0.000003   0.003466   0.000105
    16  H    0.001699   0.000156  -0.000041   0.000022   0.000168
    17  H   -0.041315  -0.009363  -0.000094  -0.001709   0.016676
    18  C   -0.037263   0.005184  -0.000060  -0.000204  -0.000073
    19  C    0.001045  -0.000100   0.000003   0.000006  -0.000006
    20  N    0.000862   0.000107  -0.000015   0.000003  -0.000042
    21  N    0.000252  -0.000004  -0.000000   0.000000  -0.000001
    22  N    0.000000   0.000000  -0.000000   0.000000  -0.000000
    23  C   -0.001291  -0.000162   0.000045   0.000005   0.000081
    24  H    0.007907   0.000582   0.000032   0.000105  -0.000271
    25  H    0.000170  -0.000009  -0.000010   0.000000  -0.000002
    26  C   -0.002584   0.000079   0.000100  -0.000008   0.000013
    27  C   -0.004821   0.000202   0.000242   0.000016  -0.000047
    28  C   -0.000015   0.000001   0.000001  -0.000000   0.000000
    29  C    0.000159  -0.000010  -0.000011   0.000001   0.000000
    30  H    0.020489  -0.000926  -0.000305  -0.000030   0.000181
    31  C   -0.000000   0.000000  -0.000000   0.000000  -0.000000
    32  H    0.000000  -0.000000  -0.000000  -0.000000   0.000000
    33  C    0.000000  -0.000000  -0.000000  -0.000000   0.000000
    34  H   -0.000005   0.000000   0.000000   0.000000  -0.000000
    35  H   -0.000000   0.000000   0.000000   0.000000  -0.000000
    36  H    0.000000  -0.000000  -0.000000  -0.000000   0.000000
    37  O    8.244625   0.240101  -0.034630  -0.038043  -0.036217
    38  C    0.240101   4.892156   0.385433   0.362035   0.359940
    39  H   -0.034630   0.385433   0.550089  -0.036444  -0.031030
    40  H   -0.038043   0.362035  -0.036444   0.623153  -0.050796
    41  H   -0.036217   0.359940  -0.031030  -0.050796   0.620304
 Mulliken charges:
               1
     1  C   -0.267282
     2  C   -0.256811
     3  C   -0.256798
     4  C   -0.347953
     5  C   -0.272660
     6  C    0.054488
     7  H    0.137036
     8  H    0.136463
     9  H    0.140062
    10  H    0.134244
    11  H    0.133074
    12  H    0.131981
    13  H    0.165719
    14  H    0.163407
    15  H    0.129970
    16  H    0.149562
    17  H    0.134119
    18  C    0.096446
    19  C    0.013613
    20  N   -0.287361
    21  N    0.252246
    22  N   -0.223649
    23  C   -0.224123
    24  H    0.177069
    25  H    0.154557
    26  C    0.144642
    27  C   -0.177768
    28  C   -0.182285
    29  C   -0.132079
    30  H    0.165724
    31  C   -0.127520
    32  H    0.123735
    33  C   -0.127662
    34  H    0.127675
    35  H    0.127666
    36  H    0.127040
    37  O   -0.470545
    38  C   -0.201660
    39  H    0.161842
    40  H    0.139629
    41  H    0.134147
 Sum of Mulliken charges =  -0.00000
 Mulliken charges with hydrogens summed into heavy atoms:
               1
     1  C    0.003999
     2  C    0.012727
     3  C    0.015245
     4  C   -0.018827
     5  C    0.006872
     6  C    0.188607
    18  C    0.096446
    19  C    0.013613
    20  N   -0.287361
    21  N    0.252246
    22  N   -0.223649
    23  C    0.107503
    26  C    0.144642
    27  C   -0.012043
    28  C   -0.058551
    29  C   -0.004404
    31  C    0.000145
    33  C   -0.000622
    37  O   -0.470545
    38  C    0.233957
 Electronic spatial extent (au):  <R**2>=           6551.0894
 Charge=              0.0000 electrons
 Dipole moment (field-independent basis, Debye):
    X=              1.1245    Y=              2.4730    Z=              0.1452  Tot=              2.7206
 Quadrupole moment (field-independent basis, Debye-Ang):
   XX=           -107.1089   YY=           -116.2128   ZZ=           -114.2682
   XY=              2.3996   XZ=              2.0340   YZ=             -3.4122
 Traceless Quadrupole moment (field-independent basis, Debye-Ang):
   XX=              5.4210   YY=             -3.6828   ZZ=             -1.7382
   XY=              2.3996   XZ=              2.0340   YZ=             -3.4122
 Octapole moment (field-independent basis, Debye-Ang**2):
  XXX=             -1.5968  YYY=             42.3818  ZZZ=              0.8624  XYY=             18.4745
  XXY=            -20.2384  XXZ=              2.4353  XZZ=            -13.7375  YZZ=              5.9026
  YYZ=             -4.2534  XYZ=             -5.1027
 Hexadecapole moment (field-independent basis, Debye-Ang**3):
 XXXX=          -5964.4807 YYYY=          -1789.3445 ZZZZ=           -900.3518 XXXY=            119.9500
 XXXZ=            -11.8018 YYYX=             -5.1084 YYYZ=            -36.0374 ZZZX=            -15.8852
 ZZZY=              4.4259 XXYY=          -1325.0857 XXZZ=          -1119.0937 YYZZ=           -460.7678
[...]
 00005296,-0.00005071,0.00004171,-0.07137678,0.44170190,-0.00198826,-0.
 00231332,-0.00248279,-0.00040891,-0.00015413,0.00027808,-0.00015480,-0
 .00011583,-0.00032624,-0.00008461,-0.00015822,0.00003520,-0.01860174,0
 .01266765,0.00690185,0.02491863,0.00614532,-0.07136648,-0.00062685,0.0
 0031014,0.00023281,0.00011073,-0.00003746,0.00003833,-0.00001976,0.000
 02353,0.00005073,-0.00122725,0.00052304,0.00015330,-0.00003308,0.00026
 222,-0.00007787,0.00002750,0.00009246,0.00005035,0.00006924,0.00003546
 ,0.00001387,0.00009012,-0.00012972,0.00007982,0.00100469,-0.00001992,0
 .00082459,0.00124827,0.00074360,0.00320780,0.03150537,-0.01715806,-0.0
 0442047,-0.00452133,-0.00021223,0.00298948,0.00076740,0.00224338,0.000
 41585,-0.00072994,-0.00023903,0.00007245,0.00115587,0.00049497,0.00049
 167,-0.00051897,-0.00037561,-0.00027190,-0.00051046,0.00084402,-0.0010
 1795,0.00019844,-0.00110182,-0.00013677,-0.00010690,-0.00040420,0.0001
 5029,0.00052556,-0.00008927,-0.00042942,-0.00063199,-0.00042926,-0.000
 23495,-0.00005607,0.00002014,0.00032549,0.00037351,0.00025169,0.000230
 64,0.00055763,0.00030154,-0.00040959,0.00004452,0.00007851,0.00001901,
 0.00010291,0.00004707,0.00005937,-0.00003952,-0.00003279,-0.00003961,-
 0.00005233,-0.00001398,0.00005235,0.00000483,0.00001113,0.00003189,0.0
 0006893,0.00002972,-0.00000052,-0.05943199,-0.06570764,0.13702382,-0.0
 0012606,-0.00035557,-0.00042661,-0.00000112,0.00001153,0.00001679,0.00
 005418,0.00008645,-0.00001443,0.00008082,-0.00014312,-0.00000426,-0.00
 164161,0.00267306,0.00036616,-0.00086945,0.03324885,-0.00978323,0.0001
 3010,-0.00002349,0.00001405,0.00001093,0.00000810,0.00000973,-0.000004
 77,-0.00001490,0.00000593,-0.00017027,0.00003483,-0.00000016,-0.000010
 73,-0.00001132,-0.00000357,-0.00006039,-0.00001807,-0.00002264,-0.0000
 3516,0.00002961,-0.00001408,-0.00005048,0.00006668,-0.00002141,-0.0014
 2023,0.00087153,-0.00039158,0.00012212,0.00005153,-0.00014756,0.000217
 45,0.00205001,-0.00117674,-0.00397875,0.00215457,-0.00011600,0.0007654
 9,0.00128197,0.00016570,-0.00024151,-0.00028806,-0.00023428,0.00065603
 ,0.00028424,0.00040994,-0.00059281,-0.00005856,-0.00042205,0.00013939,
 -0.00034813,0.00018019,-0.00010379,-0.00041120,-0.00034686,0.00002596,
 0.00009627,-0.00000062,-0.00006593,0.00001203,0.00005962,-0.00004254,0
 .00020243,0.00021648,-0.00001348,-0.00002260,-0.00006755,-0.00014099,-
 0.00000958,-0.00003580,0.00035800,-0.00024191,-0.00021487,-0.00000221,
 -0.00000777,-0.00000891,-0.00001041,-0.00000883,-0.00000034,-0.0000136
 4,-0.00000168,0.00005050,0.00001467,-0.00001571,0.00000567,0.00001135,
 0.00000508,-0.00000254,-0.00000030,-0.00001287,-0.00000775,-0.09086246
 ,-0.02913842,0.02041813,0.61366621,-0.00109585,-0.00129558,-0.00137061
 ,-0.00011224,-0.00019841,0.00003810,0.00011958,0.00013482,-0.00011108,
 0.00012007,-0.00049969,0.00006548,-0.00147066,0.00606199,0.00183009,0.
 01219467,-0.03775329,0.00478632,0.00028495,0.00001076,0.00006918,0.000
 09796,0.00005268,0.00001078,0.00001815,-0.00005593,0.00003292,-0.00088
 275,0.00025084,-0.00011893,-0.00012086,0.00013244,-0.00008879,-0.00015
 303,0.00005722,-0.00007561,-0.00008091,0.00009470,0.00002825,-0.000130
 33,0.00010307,-0.00013027,-0.00064932,-0.00172893,0.00052934,0.0004934
 0,-0.00046798,0.00021754,-0.00554776,0.00327973,0.00215073,0.00092457,
 -0.00208457,0.00048434,0.00070306,0.00112932,-0.00017867,-0.00050315,-
 0.00053616,-0.00035795,0.00145407,-0.00024730,0.00057738,-0.00066938,0
 .00055968,-0.00033862,-0.00040476,-0.00009243,0.00039361,-0.00121629,0
 .00052402,-0.00090601,0.00032860,0.00043403,0.00004635,0.00005808,0.00
 002498,0.00016975,-0.00052381,-0.00043340,-0.00047914,0.00004942,-0.00
 007705,-0.00009098,0.00038743,0.00018665,0.00036577,-0.00094121,-0.000
 29310,0.00070071,0.00005388,-0.00000858,-0.00000335,-0.00000121,0.0000
 6198,0.00003626,0.00010805,-0.00001566,-0.00015607,-0.00004959,0.00002
 505,-0.00008407,0.00006149,0.00004759,-0.00001643,0.00008778,0.0000616
 4,-0.00004957,0.00409592,-0.21240589,0.03821853,-0.02224614,0.48323544
 ,-0.00027894,-0.00000019,0.00051562,0.00021332,0.00003045,-0.00017945,
 -0.00003462,-0.00005512,0.00013731,-0.00010229,0.00020382,0.00006442,-
 0.00003615,0.00057168,0.00029027,-0.00326732,-0.00318191,-0.00331015,0
 .00010596,-0.00016368,-0.00017214,-0.00003386,0.00002888,-0.00004494,0
 .00000620,0.00001210,-0.00003964,0.00022082,-0.00004677,0.00004319,0.0
 0006823,-0.00009572,0.00005810,0.00005281,-0.00006450,0.00000433,0.000
 00124,-0.00007094,0.00000112,0.00006180,-0.00006444,0.00006550,-0.0011
 3977,0.00003038,0.00011746,-0.00001285,0.00008259,-0.00011482,0.002379
 84,-0.00504838,0.00158119,0.00291257,-0.00212211,-0.00095429,-0.000162
 48,-0.00136220,0.00041033,0.00065685,0.00054033,0.00015157,-0.00108117
 ,-0.00050615,-0.00048874,0.00041538,0.00007760,0.00019716,0.00022901,-
 0.00037533,0.00000811,-0.00006449,-0.00014734,0.00034012,-0.00018344,-
 0.00011101,-0.00002935,-0.00005325,0.00014280,-0.00004859,0.00028943,-
 0.00002059,0.00005972,-0.00001072,0.00003652,0.00000305,-0.00005786,-0
 .00001452,-0.00004146,-0.00008559,0.00026623,-0.00015300,-0.00000951,-
 0.00001082,-0.00000519,-0.00000561,-0.00001910,-0.00001515,-0.00000875
 ,0.00001073,0.00000140,0.00002246,-0.00000599,-0.00001124,-0.00001281,
 -0.00001551,0.00000003,-0.00001448,-0.00001014,0.00000974,0.00929945,0
 .05589687,-0.07952613,-0.00723389,0.03577509,0.55638760,0.00012082,0.0
 0011026,-0.00001935,-0.00004091,-0.00002062,0.00005275,-0.00000399,0.0
 0000850,-0.00002733,0.00000639,-0.00002289,-0.00000406,-0.00004842,-0.
 00046050,-0.00000104,0.00170308,-0.00190316,-0.00021165,-0.00002126,0.
 00001224,0.00000722,0.00001106,0.00000050,0.00000074,0.00000678,-0.000
 00472,0.00000332,-0.00000851,0.00000406,0.00000101,-0.00002302,0.00002
 976,-0.00001551,-0.00000804,0.00002671,-0.00000083,-0.00000809,0.00001
 572,0.00000326,-0.00001300,0.00000707,-0.00001463,0.00021392,0.0003986
 0,0.00004503,-0.00000255,0.00009455,-0.00005044,0.00013055,-0.00006042
 ,-0.00019349,0.00010450,0.00001937,-0.00015519,-0.00000528,0.00005209,
 0.00006418,-0.00013941,-0.00008228,-0.00005312,0.00028539,-0.00001080,
 0.00007949,-0.00009371,-0.00000712,-0.00001949,-0.00000378,0.00015745,
 0.00008509,-0.00003316,0.00010343,-0.00005247,0.00004088,0.00001062,-0
 .00000028,0.00000980,-0.00003994,0.00001193,-0.00002849,0.00000479,-0.
 00008911,0.00000264,-0.00001173,-0.00001021,0.00002731,0.00001130,0.00
 004190,0.00002680,0.00000872,0.00006306,-0.00000200,-0.00000006,-0.000
 00288,-0.00000418,0.00000293,0.00000047,0.00001816,-0.00000570,-0.0000
 1477,-0.00000413,0.00001190,-0.00001603,0.00000135,0.00000341,-0.00000
 241,0.00000419,0.00000627,-0.00000268,0.00685121,0.00122950,-0.0010006
 7,-0.28587539,0.09257497,0.02380867,0.30139612,0.00024988,0.00035935,0
 .00016473,-0.00003790,0.00002052,-0.00001158,-0.00003176,-0.00004377,0
 .00001662,-0.00003351,0.00009197,0.00000789,0.00001778,-0.00090191,-0.
 00042806,-0.00324381,-0.00301266,0.00329954,-0.00005721,-0.00000314,-0
 .00000399,-0.00001045,-0.00000770,0.00000345,-0.00000395,0.00001013,-0
 .00000392,0.00013904,-0.00006030,0.00001053,0.00001299,0.00000185,0.00
 000528,0.00003753,-0.00000291,0.00001666,0.00002689,-0.00002878,0.0000
 0361,0.00003611,-0.00004212,0.00002726,0.00025598,0.00040796,0.0000648
 7,0.00000003,0.00004196,0.00000838,-0.00010755,0.00004992,-0.00020709,
 0.00166281,-0.00077349,0.00003863,-0.00032662,-0.00057863,-0.00006945,
 0.00035019,0.00048923,0.00018182,-0.00082446,-0.00036558,-0.00031881,0
 .00035287,0.00016643,0.00019080,0.00014072,-0.00056507,0.00000561,0.00
 008144,-0.00008088,-0.00015325,-0.00007134,0.00010813,0.00000410,-0.00
 006516,0.00006524,-0.00002309,-0.00013320,0.00005619,-0.00005293,-0.00
 001239,-0.00000552,-0.00000559,-0.00000533,0.00004401,0.00005196,0.000
 15063,-0.00009736,0.00006499,0.00002229,0.00000009,-0.00000834,0.00001
 133,0.00000290,0.00001059,0.00001088,-0.00000355,0.00001214,-0.0000023
 4,-0.00000706,-0.00000145,0.00000877,0.00000442,0.00000071,0.00001404,
 0.00000251,-0.00000558,0.03532749,-0.02862591,-0.00190029,0.08208277,-
 0.07949101,-0.00927406,-0.10053849,0.10256045,0.00003777,-0.00000462,-
 0.00007029,-0.00002896,0.00000055,0.00004402,-0.00000275,0.00001992,-0
 .00002374,-0.00001517,-0.00004364,0.00000897,-0.00025584,-0.00011944,0
 .00026090,0.00079530,0.00059309,-0.00090964,-0.00002338,0.00002521,0.0
 0001629,0.00000585,-0.00000591,0.00000403,0.00000068,-0.00000079,0.000
 00276,-0.00003180,0.00001151,-0.00000760,-0.00000906,0.00001056,-0.000
 00666,-0.00001099,0.00000916,0.00000053,0.00000856,0.00000298,0.000000
 28,-0.00000209,0.00000763,-0.00000208,0.00021394,0.00018047,-0.0000322
 0,0.00003355,0.00009408,0.00001323,-0.00044429,0.00007313,0.00057897,-
 0.00033330,0.00010354,0.00038301,0.00008290,0.00008480,-0.00002183,0.0
 0001259,-0.00001603,-0.00007620,0.00004976,0.00003526,0.00007069,-0.00
 005612,0.00003703,-0.00007211,-0.00007087,-0.00022692,0.00010244,0.000
 04054,-0.00000353,0.00001621,0.00000541,0.00003075,-0.00001832,-0.0000
 7624,0.00003563,0.00009453,0.00014197,-0.00001527,0.00001276,-0.000001
 25,-0.00000052,-0.00005585,-0.00001389,-0.00003052,-0.00001151,-0.0000
 7185,0.00007837,0.00000282,-0.00000984,-0.00001624,-0.00000343,-0.0000
 1707,-0.00001074,-0.00000987,0.00001309,0.00000749,-0.00001654,0.00000
 869,0.00000948,-0.00002724,0.00000077,-0.00000154,-0.00000619,-0.00000
 632,0.00000026,-0.00000204,-0.01041180,0.00823998,0.00133160,0.0263438
 0,-0.01214254,-0.05520562,-0.02546122,0.00725747,0.05135155,0.00016080
 ,0.00003438,0.00034746,0.00005421,0.00001691,-0.00002476,-0.00001981,-
 0.00004008,0.00002294,-0.00000773,0.00006725,-0.00002185,0.00011649,-0
 .00027557,-0.00069487,-0.00074435,0.00169455,0.00139028,-0.00006463,0.
 00002546,0.00000740,-0.00001660,-0.00001285,0.00000490,-0.00000168,0.0
 0000941,-0.00000175,0.00006721,-0.00000345,0.00000743,0.00001173,-0.00
 002592,0.00001762,0.00002605,-0.00000534,0.00000863,0.00001194,-0.0000
 1533,0.00000096,0.00001599,-0.00001881,0.00001494,-0.00097830,0.001537
 11,-0.00075172,-0.00005325,-0.00000257,0.00006869,0.00025070,-0.000025
 61,-0.00004290,0.00010102,-0.00010587,0.00000391,-0.00007843,-0.000052
 71,-0.00003018,0.00003288,-0.00006104,0.00006150,-0.00010260,0.0000360
 5,-0.00008354,0.00007483,-0.00011965,0.00005972,0.00014820,0.00020222,
 -0.00001185,0.00002071,0.00005011,0.00011504,-0.00002243,-0.00005973,-
 0.00000082,0.00004603,-0.00001041,-0.00004792,0.00003384,0.00000312,0.
 00006797,0.00001208,0.00001511,0.00004081,-0.00002170,-0.00002305,-0.0
 0007138,0.00003846,0.00002890,-0.00012878,-0.00000530,0.00000690,0.000
 01030,0.00000489,-0.00000005,-0.00000262,-0.00002130,-0.00000266,0.000
 01794,-0.00000321,-0.00000313,0.00002696,-0.00001044,-0.00000583,0.000
 00482,-0.00001284,-0.00000661,0.00000902,0.00375665,-0.00747169,0.0027
 4893,-0.15401993,-0.07541277,-0.09423570,-0.01798908,-0.01441589,-0.01
 969723,0.16177517,0.00041498,0.00055734,0.00008549,-0.00012898,-0.0000
 0101,0.00007185,-0.00009515,-0.00007379,-0.00003336,-0.00009614,0.0000
 9066,0.00000817,0.00002617,-0.00107447,0.00017246,-0.00650186,0.003364
 80,-0.00052928,-0.00012460,0.00002981,0.00003511,-0.00000542,-0.000016
 49,0.00000116,0.00000622,0.00001518,-0.00000168,0.00016808,-0.00005920
 ,0.00000508,-0.00000267,0.00005831,-0.00001754,0.00005540,0.00003736,0
 .00002818,0.00003603,-0.00002339,0.00000638,0.00004243,-0.00005605,0.0
 0003242,0.00153747,0.00028749,0.00042927,-0.00003129,0.00002816,0.0000
 0890,0.00066938,-0.00036002,-0.00031492,0.00091009,-0.00064736,-0.0001
 6073,-0.00004254,-0.00004577,0.00008908,0.00017226,-0.00000538,0.00011
 785,-0.00020269,0.00012101,-0.00013295,0.00007825,-0.00018132,0.000047
 57,0.00018343,0.00001084,-0.00000740,0.00021173,-0.00011217,0.00018290
 ,-0.00005465,-0.00007809,-0.00000662,0.00002043,0.00001730,-0.00004299
 ,0.00010410,0.00008911,0.00013862,-0.00000092,0.00001794,0.00001894,-0
 .00007715,-0.00004235,-0.00009400,0.00015254,0.00001568,-0.00022319,-0
 .00000868,0.00000047,0.00000708,0.00000072,-0.00000864,-0.00000666,-0.
 00002561,-0.00000209,0.00003562,0.00000220,-0.00000154,0.00002343,-0.0
 0001158,-0.00000761,0.00000354,-0.00001866,-0.00001151,0.00000915,-0.0
 2041186,-0.03651319,-0.01202064,-0.07255567,-0.10717019,-0.07166184,0.
 00654657,0.00834445,0.00716726,0.08857955,0.13010427,0.00023458,0.0001
 4474,-0.00005250,-0.00004020,0.00000026,0.00004895,-0.00001635,-0.0000
 1277,-0.00002500,-0.00000618,0.00000110,-0.00003106,-0.00031931,-0.000
 52474,-0.00003053,-0.00039759,0.00004394,0.00027349,-0.00002101,0.0000
 0390,0.00001040,-0.00000253,-0.00000061,0.00000191,0.00000080,0.000000
 19,0.00000294,0.00001890,0.00000028,0.00001476,-0.00001322,0.00001999,
 -0.00000480,0.00000961,0.00001909,0.00000731,0.00000761,0.00000151,0.0
 0000228,-0.00000124,0.00000107,-0.00000340,-0.00022310,0.00100611,0.00
 004129,-0.00000397,0.00016198,-0.00018632,-0.00025001,0.00025650,-0.00
 029397,-0.00010537,0.00002849,0.00015952,-0.00000991,0.00008255,-0.000
 01084,-0.00011074,-0.00020273,0.00003183,0.00016849,0.00016126,0.00004
 753,-0.00004484,-0.00009489,-0.00000129,0.00000792,0.00019911,-0.00001
 866,-0.00001136,-0.00000324,-0.00006660,0.00003657,-0.00000926,0.00000
 575,0.00003349,-0.00006400,-0.00001074,-0.00000953,0.00000258,-0.00001
 828,-0.00000500,0.00000006,0.00001984,0.00000540,-0.00000306,0.0000034
 3,0.00000316,0.00001773,0.00003452,-0.00000077,0.00000474,-0.00000131,
 0.00000345,0.00000218,-0.00000008,-0.00000035,0.00000061,0.00000159,-0
 .00000031,0.00000248,0.00000382,-0.00000483,-0.00000127,0.00000129,-0.
 00000241,-0.00000018,0.00000360,0.01003371,0.00660194,0.01297952,-0.09
 503018,-0.07331892,-0.14566040,0.00292707,0.00228888,0.00292428,0.1040
 6910,0.07797871,0.14823594,0.00000913,0.00005188,0.00002766,-0.0000015
 0,0.00002033,-0.00000230,-0.00000975,-0.00000707,0.00000564,-0.0000190
 2,0.00003166,0.00003644,-0.00026944,-0.00024368,0.00020017,0.00098734,
 0.00136579,-0.00331431,-0.00002810,0.00001267,0.00001137,-0.00000466,-
 0.00000747,-0.00000012,-0.00000119,0.00000628,-0.00000340,0.00003340,-
 0.00000553,0.00000387,0.00001204,-0.00001061,0.00000547,0.00000922,-0.
 00000929,0.00000554,0.00000815,-0.00000850,-0.00000308,0.00001720,-0.0
 0001649,0.00001320,0.00010913,-0.00006399,-0.00005812,-0.00002823,-0.0
 0004098,0.00004567,0.00060757,-0.00077598,0.00041862,0.00019694,0.0000
 7853,-0.00011416,-0.00009130,-0.00010048,-0.00002368,0.00015600,0.0001
 5482,-0.00001500,-0.00025187,-0.00013460,-0.00009289,0.00008943,0.0000
 7588,0.00002924,-0.00000536,-0.00024294,0.00004278,-0.00002815,0.00002
 189,0.00014333,-0.00004395,-0.00001185,-0.00001839,-0.00005745,0.00006
 185,0.00004995,0.00009951,0.00006520,0.00001639,0.00001092,0.00000745,
 -0.00003537,-0.00002162,-0.00003128,-0.00003824,0.00008873,0.00004347,
 -0.00005976,-0.00000838,-0.00001163,0.00000274,-0.00001288,-0.00000920
 ,-0.00000910,0.00000431,0.00000102,-0.00000670,0.00000630,0.00000645,-
 0.00001399,-0.00000238,-0.00000368,-0.00000363,-0.00000916,-0.00000327
 ,0.00000128,0.00080319,-0.00346147,0.00480423,-0.07589828,-0.00200411,
 0.06738151,-0.00660454,-0.00107108,0.02925613,0.00741371,0.00047810,-0
 .02092956,0.07273498,0.00015436,0.00019057,0.00014687,0.00000109,0.000
 01668,-0.00000827,-0.00001395,-0.00002327,0.00001571,0.00001068,0.0000
 4458,-0.00000041,0.00058053,-0.00044949,-0.00057014,-0.00651229,0.0039
 2072,0.00429486,0.00000621,-0.00000370,0.00000428,-0.00001259,-0.00000
 425,-0.00000263,0.00000146,0.00000511,-0.00000413,0.00009846,-0.000035
 35,-0.00000441,0.00000865,-0.00000730,0.00000293,0.00001691,-0.0000019
 0,0.00000622,0.00000711,-0.00000667,-0.00000298,0.00000499,-0.00000624
 ,0.00000106,0.00010304,0.00011226,-0.00004704,-0.00018689,-0.00006309,
 -0.00020716,0.00099316,0.00060820,-0.00186607,0.00002812,0.00000212,-0
 .00022562,-0.00008114,0.00013703,-0.00006610,0.00012004,0.00013217,-0.
 00002276,-0.00015229,-0.00005784,-0.00007333,0.00004247,0.00000410,0.0
 0004208,0.00003849,-0.00009205,0.00003308,0.00001703,-0.00003576,0.000
 08894,-0.00003355,-0.00001859,-0.00001073,-0.00005383,0.00001909,0.000
 02355,0.00010332,0.00012150,0.00010394,0.00000762,0.00000196,-0.000024
 61,-0.00008418,-0.00004008,-0.00008213,0.00025988,0.00002050,-0.000143
 77,-0.00000785,-0.00000522,0.00000272,-0.00001011,-0.00000838,-0.00000
 580,-0.00001466,0.,0.00002725,0.00000805,-0.00000474,0.00001113,-0.000
 00412,-0.00000324,-0.00000024,-0.00001471,-0.00001067,0.00000355,-0.00
 949023,-0.02038746,0.03926928,0.00068207,-0.05161352,0.00074229,0.0017
 1716,0.00186965,-0.01147733,0.00586958,0.00330148,-0.01479631,0.005791
 92,0.06237106,0.00002849,-0.00009872,-0.00011997,-0.00003482,-0.000010
 82,0.00002519,0.00001069,0.00001740,-0.00003335,0.00000336,-0.00006936
 ,-0.00001850,-0.00028762,0.00042028,0.00004829,0.00268221,-0.00280038,
 0.00075578,-0.00004305,0.00006307,0.00006794,0.00000683,-0.00001292,0.
 00002227,-0.00000479,-0.00000033,0.00001413,-0.00008837,0.00002695,-0.
 00001325,-0.00001552,0.00001774,-0.00000995,-0.00001636,0.00001052,-0.
 00000267,0.00000770,0.00001002,0.00000271,-0.00000497,0.00000571,-0.00
 000313,0.00009914,-0.00006860,-0.00020423,0.00013650,-0.00012072,0.000
 16406,-0.00157184,0.00115655,0.00043455,-0.00052330,-0.00007471,0.0005
 8301,0.00008012,0.00008510,-0.00003413,-0.00016677,-0.00012804,0.00001
 858,0.00018223,0.00004774,0.00008917,-0.00006529,0.00001645,-0.0000478
 4,0.00001950,0.00007401,-0.00004724,-0.00007686,0.00002805,-0.00014192
 ,0.00004290,0.00004990,0.00002116,0.00005362,-0.00002983,-0.00003957,-
 0.00016238,-0.00007910,-0.00006064,-0.00000158,-0.00000332,0.00002993,
 0.00006351,0.00004552,0.00004903,-0.00015124,-0.00008496,0.00010652,0.
 00001261,0.00000759,0.00000286,0.00001458,0.00001446,0.00001228,-0.000
 00156,-0.00000144,-0.00000570,-0.00001448,-0.00000618,0.00001390,0.000
 00872,0.00000666,0.00000325,0.00001603,0.00000621,-0.00000493,0.003112
 00,0.01588561,-0.00729946,0.06746522,0.00349110,-0.27444701,0.00022368
 ,-0.00126905,-0.00064091,0.00672060,-0.00145039,-0.01844006,-0.0777594
 2,-0.01517776,0.29914982\\-0.00000090,0.00000514,-0.00000096,0.0000010
 7,0.00000146,-0.00000456,0.00000090,0.00000329,0.00000139,-0.00000956,
 -0.00000691,-0.00000332,0.00001127,-0.00000443,0.00000349,0.00000503,0
 .00000075,-0.00000199,-0.00000077,0.00000022,0.00000072,-0.00000053,-0
 .00000288,0.00000279,0.00000102,-0.00000002,-0.00000072,0.00000307,-0.
 00000207,-0.00000173,0.00000031,-0.00000033,0.00000147,0.00000073,0.00
 000075,-0.00000067,0.00000063,0.00000141,-0.00000190,-0.00000113,-0.00
 000147,-0.00000241,0.00000344,-0.00000573,0.00000311,-0.00000277,0.000
 00043,-0.00000114,-0.00000565,-0.00000324,-0.00000167,0.00001466,-0.00
 000223,0.00001665,0.00000127,0.00001204,-0.00000139,-0.00001510,-0.000
 00137,-0.00001292,-0.00000029,0.00000055,0.00000276,0.00001055,0.00000
 450,0.00000236,0.00000605,0.00000324,0.00000113,0.00000044,0.00000077,
 0.00000119,-0.00000057,-0.00000022,-0.00000021,-0.00000680,-0.00000200
 ,-0.00000279,0.00000268,-0.00000196,-0.00000040,0.00000265,-0.00000022
 ,0.00000250,0.00000146,-0.00000044,-0.00000084,-0.00000156,0.00000072,
 0.00000202,0.00000019,0.00000018,0.00000188,-0.00000062,0.00000021,-0.
 00000044,-0.00000163,-0.00000071,0.00000106,0.00000029,-0.00000129,0.0
 0000058,-0.00000002,-0.00000052,-0.00000089,0.00000053,-0.00000205,0.0
 0000010,-0.00001404,-0.00000392,-0.00000801,-0.00000083,0.00000562,0.0
 0000603,0.00000005,0.00000042,0.00000045,-0.00000429,0.00000142,-0.000
 00206,-0.00000125,0.00000087,-0.00000065\\\@


 A successful marriage requires falling in love
 many times, always with the same person.
                           -- Mignon McLaughlin
 Job cpu time:       0 days  1 hours 58 minutes 11.3 seconds.
 Elapsed time:       0 days  0 hours  4 minutes 56.7 seconds.
 File lengths (MBytes):  RWF=    552 Int=      0 D2E=      0 Chk=     12 Scr=      1
 Normal termination of Gaussian 16 at Tue Mar  5 10:34:15 2024.
Tue Mar  5 10:34:15 CST 2024
