This job is running on host node108
Current directory: /share/home/Liaoyt/system-test/bnts-ome/ynets-vs
Thu Mar  7 11:53:34 CST 2024
/tmp/86099.mgr/run
 Entering Gaussian System, Link 0=g16
 Initial command:
 /share/apps/gaussian/g16/l1.exe "/tmp/86099.mgr/run/Gau-439393.inp" -scrdir="/tmp/86099.mgr/run/"
 Entering Link 1 = /share/apps/gaussian/g16/l1.exe PID=    439394.
  
 Copyright (c) 1988,1990,1992,1993,1995,1998,2003,2009,2016,
            Gaussian, Inc.  All Rights Reserved.
  
 This is part of the Gaussian(R) 16 program.  It is based on
 the Gaussian(R) 09 system (copyright 2009, Gaussian, Inc.),
 the Gaussian(R) 03 system (copyright 2003, Gaussian, Inc.),
 the Gaussian(R) 98 system (copyright 1998, Gaussian, Inc.),
 the Gaussian(R) 94 system (copyright 1995, Gaussian, Inc.),
 the Gaussian 92(TM) system (copyright 1992, Gaussian, Inc.),
 the Gaussian 90(TM) system (copyright 1990, Gaussian, Inc.),
 the Gaussian 88(TM) system (copyright 1988, Gaussian, Inc.),
 the Gaussian 86(TM) system (copyright 1986, Carnegie Mellon
 University), and the Gaussian 82(TM) system (copyright 1983,
 Carnegie Mellon University). Gaussian is a federally registered
 trademark of Gaussian, Inc.
  
 This software contains proprietary and confidential information,
 including trade secrets, belonging to Gaussian, Inc.
  
 This software is provided under written license and may be
 used, copied, transmitted, or stored only in accord with that
 written license.
  
 The following legend is applicable only to US Government
 contracts under FAR:
  
                    RESTRICTED RIGHTS LEGEND
  
 Use, reproduction and disclosure by the US Government is
 subject to restrictions as set forth in subparagraphs (a)
 and (c) of the Commercial Computer Software - Restricted
 Rights clause in FAR 52.227-19.
  
 Gaussian, Inc.
 340 Quinnipiac St., Bldg. 40, Wallingford CT 06492
  
  
 ---------------------------------------------------------------
 Warning -- This program may not be used in any manner that
 competes with the business of Gaussian, Inc. or will provide
 assistance to any competitor of Gaussian, Inc.  The licensee
 of this program is prohibited from giving any competitor of
 Gaussian, Inc. access to this program.  By using this program,
 the user acknowledges that Gaussian, Inc. is engaged in the
 business of creating and licensing software in the field of
 computational chemistry and represents and warrants to the
 licensee that it is not a competitor of Gaussian, Inc. and that
 it will not use this program in any manner prohibited above.
 ---------------------------------------------------------------
  

 Cite this work as:
 Gaussian 16, Revision A.03,
 M. J. Frisch, G. W. Trucks, H. B. Schlegel, G. E. Scuseria, 
 M. A. Robb, J. R. Cheeseman, G. Scalmani, V. Barone, 
 G. A. Petersson, H. Nakatsuji, X. Li, M. Caricato, A. V. Marenich, 
 J. Bloino, B. G. Janesko, R. Gomperts, B. Mennucci, H. P. Hratchian, 
 J. V. Ortiz, A. F. Izmaylov, J. L. Sonnenberg, D. Williams-Young, 
 F. Ding, F. Lipparini, F. Egidi, J. Goings, B. Peng, A. Petrone, 
 T. Henderson, D. Ranasinghe, V. G. Zakrzewski, J. Gao, N. Rega, 
 G. Zheng, W. Liang, M. Hada, M. Ehara, K. Toyota, R. Fukuda, 
 J. Hasegawa, M. Ishida, T. Nakajima, Y. Honda, O. Kitao, H. Nakai, 
 T. Vreven, K. Throssell, J. A. Montgomery, Jr., J. E. Peralta, 
 F. Ogliaro, M. J. Bearpark, J. J. Heyd, E. N. Brothers, K. N. Kudin, 
 V. N. Staroverov, T. A. Keith, R. Kobayashi, J. Normand, 
 K. Raghavachari, A. P. Rendell, J. C. Burant, S. S. Iyengar, 
 J. Tomasi, M. Cossi, J. M. Millam, M. Klene, C. Adamo, R. Cammi, 
 J. W. Ochterski, R. L. Martin, K. Morokuma, O. Farkas, 
 J. B. Foresman, and D. J. Fox, Gaussian, Inc., Wallingford CT, 2016.
 
 ******************************************
 Gaussian 16:  ES64L-G16RevA.03 25-Dec-2016
                 7-Mar-2024 
 ******************************************
 %chk=TS-pro.chk
 %nprocshared=32
 Will use up to   32 processors via shared memory.
 %mem=32GB
 ----------------------------------------------------------
 #p opt=(noeigen,maxstep=5) b3lyp/6-31g(d) em=gd3 optcyc=26
 ----------------------------------------------------------
 1/6=26,8=5,11=1,18=20,19=15,26=3,38=1/1,3;
 2/9=110,12=2,17=6,18=5,40=1/2;
 3/5=1,6=6,7=1,11=2,25=1,30=1,71=1,74=-5,124=31/1,2,3;
 4//1;
 5/5=2,38=5/2;
 6/7=2,8=2,9=2,10=2,28=1/1;
 7//1,2,3,16;
 1/6=26,8=5,11=1,18=20,19=15,26=3/3(2);
 2/9=110/2;
 99//99;
 2/9=110/2;
 3/5=1,6=6,7=1,11=2,25=1,30=1,71=1,74=-5,124=31/1,2,3;
 4/5=5,16=3,69=1/1;
 5/5=2,38=5/2;
 7//1,2,3,16;
 1/6=26,8=5,11=1,18=20,19=15,26=3/3(-5);
 2/9=110/2;
 6/7=2,8=2,9=2,10=2,19=2,28=1/1;
 99/9=1/99;
 Leave Link    1 at Thu Mar  7 11:53:34 2024, MaxMem=  4294967296 cpu:               3.9 elap:               0.1
 (Enter /share/apps/gaussian/g16/l101.exe)
 -------------------
 tmpdir/Subs_0_0.gjf
 -------------------
 Symbolic Z-matrix:
 Charge =  0 Multiplicity = 1
 C                     2.32537  -2.38681   0.21921 
 C                     1.57781   1.31966  -0.42524 
 C                     1.2226   -0.10305  -0.47484 
 C                     1.48863  -1.29844  -0.31016 
 N                    -0.08095  -0.17696  -1.34566 
 N                    -0.25996  -1.4201   -1.28062 
 N                     0.51492  -2.20271  -0.84927 
 C                    -1.26044   0.69633  -1.18083 
 H                    -0.82997   1.6952   -1.10167 
 H                    -1.86892   0.66174  -2.09409 
 C                    -2.10337   0.37039   0.03459 
 C                    -1.59308   0.57886   1.32386 
 C                    -3.38106  -0.17832  -0.11291 
 C                    -2.3568    0.24704   2.44175 
 H                    -0.59735   0.99718   1.43486 
 C                    -4.14733  -0.50889   1.00737 
 H                    -3.77971  -0.34952  -1.11076 
 C                    -3.63563  -0.29676   2.28765 
 H                    -1.9543    0.41329   3.4379 
 H                    -5.13965  -0.93325   0.87835 
 H                    -4.2284   -0.55429   3.16159 
 H                     3.38563  -2.05575   0.33688 
 H                     2.2779   -3.27365  -0.42314 
 H                     1.92462  -2.69553   1.19555 
 H                     2.34306   1.48024   0.37503 
 H                     2.00761   1.61234  -1.39928 
 H                     0.62154   1.97437  -0.22765 
 
 ITRead=  0  0  0  0  0  0  0  0  0  0  0  0  0  0  0  0  0  0  0  0
 ITRead=  0  0  0  0  0  0  0
 MicOpt= -1 -1 -1 -1 -1 -1 -1 -1 -1 -1 -1 -1 -1 -1 -1 -1 -1 -1 -1 -1
 MicOpt= -1 -1 -1 -1 -1 -1 -1
 NAtoms=     27 NQM=       27 NQMF=       0 NMMI=      0 NMMIF=      0
                NMic=       0 NMicF=      0.
                    Isotopes and Nuclear Properties:
 (Nuclear quadrupole moments (NQMom) in fm**2, nuclear magnetic moments (NMagM)
  in nuclear magnetons)

  Atom         1           2           3           4           5           6           7           8           9          10
 IAtWgt=          12          12          12          12          14          14          14          12           1           1
 AtmWgt=  12.0000000  12.0000000  12.0000000  12.0000000  14.0030740  14.0030740  14.0030740  12.0000000   1.0078250   1.0078250
 NucSpn=           0           0           0           0           2           2           2           0           1           1
 AtZEff=  -0.0000000  -0.0000000  -0.0000000  -0.0000000  -0.0000000  -0.0000000  -0.0000000  -0.0000000  -0.0000000  -0.0000000
 NQMom=    0.0000000   0.0000000   0.0000000   0.0000000   2.0440000   2.0440000   2.0440000   0.0000000   0.0000000   0.0000000
 NMagM=    0.0000000   0.0000000   0.0000000   0.0000000   0.4037610   0.4037610   0.4037610   0.0000000   2.7928460   2.7928460
 AtZNuc=   6.0000000   6.0000000   6.0000000   6.0000000   7.0000000   7.0000000   7.0000000   6.0000000   1.0000000   1.0000000

  Atom        11          12          13          14          15          16          17          18          19          20
 IAtWgt=          12          12          12          12           1          12           1          12           1           1
 AtmWgt=  12.0000000  12.0000000  12.0000000  12.0000000   1.0078250  12.0000000   1.0078250  12.0000000   1.0078250   1.0078250
 NucSpn=           0           0           0           0           1           0           1           0           1           1
 AtZEff=  -0.0000000  -0.0000000  -0.0000000  -0.0000000  -0.0000000  -0.0000000  -0.0000000  -0.0000000  -0.0000000  -0.0000000
 NQMom=    0.0000000   0.0000000   0.0000000   0.0000000   0.0000000   0.0000000   0.0000000   0.0000000   0.0000000   0.0000000
 NMagM=    0.0000000   0.0000000   0.0000000   0.0000000   2.7928460   0.0000000   2.7928460   0.0000000   2.7928460   2.7928460
 AtZNuc=   6.0000000   6.0000000   6.0000000   6.0000000   1.0000000   6.0000000   1.0000000   6.0000000   1.0000000   1.0000000

  Atom        21          22          23          24          25          26          27
 IAtWgt=           1           1           1           1           1           1           1
 AtmWgt=   1.0078250   1.0078250   1.0078250   1.0078250   1.0078250   1.0078250   1.0078250
 NucSpn=           1           1           1           1           1           1           1
 AtZEff=  -0.0000000  -0.0000000  -0.0000000  -0.0000000  -0.0000000  -0.0000000  -0.0000000
 NQMom=    0.0000000   0.0000000   0.0000000   0.0000000   0.0000000   0.0000000   0.0000000
 NMagM=    2.7928460   2.7928460   2.7928460   2.7928460   2.7928460   2.7928460   2.7928460
 AtZNuc=   1.0000000   1.0000000   1.0000000   1.0000000   1.0000000   1.0000000   1.0000000
 Leave Link  101 at Thu Mar  7 11:53:35 2024, MaxMem=  4294967296 cpu:              29.0 elap:               0.9
 (Enter /share/apps/gaussian/g16/l103.exe)

 GradGradGradGradGradGradGradGradGradGradGradGradGradGradGradGradGradGrad
 Berny optimization.
 Initialization pass.
                           ----------------------------
                           !    Initial Parameters    !
                           ! (Angstroms and Degrees)  !
 --------------------------                            --------------------------
 ! Name  Definition              Value          Derivative Info.                !
 --------------------------------------------------------------------------------
 ! R1    R(1,4)                  1.4714         estimate D2E/DX2                !
 ! R2    R(1,22)                 1.117          estimate D2E/DX2                !
 ! R3    R(1,23)                 1.0961         estimate D2E/DX2                !
 ! R4    R(1,24)                 1.0996         estimate D2E/DX2                !
 ! R5    R(2,3)                  1.4672         estimate D2E/DX2                !
 ! R6    R(2,25)                 1.1189         estimate D2E/DX2                !
 ! R7    R(2,26)                 1.1042         estimate D2E/DX2                !
 ! R8    R(2,27)                 1.1756         estimate D2E/DX2                !
 ! R9    R(3,4)                  1.2357         estimate D2E/DX2                !
 ! R10   R(3,5)                  1.5694         estimate D2E/DX2                !
 ! R11   R(4,7)                  1.434          estimate D2E/DX2                !
 ! R12   R(5,6)                  1.2576         estimate D2E/DX2                !
 ! R13   R(5,8)                  1.4768         estimate D2E/DX2                !
 ! R14   R(6,7)                  1.1828         estimate D2E/DX2                !
 ! R15   R(8,9)                  1.0906         estimate D2E/DX2                !
 ! R16   R(8,10)                 1.0979         estimate D2E/DX2                !
 ! R17   R(8,11)                 1.5146         estimate D2E/DX2                !
 ! R18   R(11,12)                1.4022         estimate D2E/DX2                !
 ! R19   R(11,13)                1.3983         estimate D2E/DX2                !
 ! R20   R(12,14)                1.3939         estimate D2E/DX2                !
 ! R21   R(12,15)                1.0857         estimate D2E/DX2                !
 ! R22   R(13,16)                1.397          estimate D2E/DX2                !
 ! R23   R(13,17)                1.0881         estimate D2E/DX2                !
 ! R24   R(14,18)                1.3982         estimate D2E/DX2                !
 ! R25   R(14,19)                1.0872         estimate D2E/DX2                !
 ! R26   R(16,18)                1.395          estimate D2E/DX2                !
 ! R27   R(16,20)                1.0869         estimate D2E/DX2                !
 ! R28   R(18,21)                1.087          estimate D2E/DX2                !
 ! A1    A(4,1,22)             111.007          estimate D2E/DX2                !
 ! A2    A(4,1,23)             111.2857         estimate D2E/DX2                !
 ! A3    A(4,1,24)             108.655          estimate D2E/DX2                !
 ! A4    A(22,1,23)            110.0392         estimate D2E/DX2                !
 ! A5    A(22,1,24)            109.6103         estimate D2E/DX2                !
 ! A6    A(23,1,24)            106.1054         estimate D2E/DX2                !
 ! A7    A(3,2,25)             109.2044         estimate D2E/DX2                !
 ! A8    A(3,2,26)             108.7508         estimate D2E/DX2                !
 ! A9    A(3,2,27)             110.4115         estimate D2E/DX2                !
 ! A10   A(25,2,26)            109.0676         estimate D2E/DX2                !
 ! A11   A(25,2,27)            110.8669         estimate D2E/DX2                !
 ! A12   A(26,2,27)            108.4978         estimate D2E/DX2                !
 ! A13   A(2,3,4)              151.8164         estimate D2E/DX2                !
 ! A14   A(2,3,5)              105.3975         estimate D2E/DX2                !
 ! A15   A(4,3,5)              101.9585         estimate D2E/DX2                !
 ! A16   A(1,4,3)              152.3717         estimate D2E/DX2                !
 ! A17   A(1,4,7)               93.1504         estimate D2E/DX2                !
 ! A18   A(3,4,7)              114.4403         estimate D2E/DX2                !
 ! A19   A(3,5,6)               97.8216         estimate D2E/DX2                !
 ! A20   A(3,5,8)              125.0014         estimate D2E/DX2                !
 ! A21   A(6,5,8)              117.7137         estimate D2E/DX2                !
 ! A22   A(5,6,7)              125.4255         estimate D2E/DX2                !
 ! A23   A(4,7,6)               99.48           estimate D2E/DX2                !
 ! A24   A(5,8,9)              103.5596         estimate D2E/DX2                !
 ! A25   A(5,8,10)             109.3389         estimate D2E/DX2                !
 ! A26   A(5,8,11)             114.0038         estimate D2E/DX2                !
 ! A27   A(9,8,10)             107.9383         estimate D2E/DX2                !
 ! A28   A(9,8,11)             111.0101         estimate D2E/DX2                !
 ! A29   A(10,8,11)            110.6268         estimate D2E/DX2                !
 ! A30   A(8,11,12)            120.2203         estimate D2E/DX2                !
 ! A31   A(8,11,13)            120.5517         estimate D2E/DX2                !
 ! A32   A(12,11,13)           119.2002         estimate D2E/DX2                !
 ! A33   A(11,12,14)           120.173          estimate D2E/DX2                !
 ! A34   A(11,12,15)           119.0161         estimate D2E/DX2                !
 ! A35   A(14,12,15)           120.8105         estimate D2E/DX2                !
 ! A36   A(11,13,16)           120.6288         estimate D2E/DX2                !
 ! A37   A(11,13,17)           119.5543         estimate D2E/DX2                !
 ! A38   A(16,13,17)           119.8169         estimate D2E/DX2                !
 ! A39   A(12,14,18)           120.3525         estimate D2E/DX2                !
 ! A40   A(12,14,19)           119.7078         estimate D2E/DX2                !
 ! A41   A(18,14,19)           119.9397         estimate D2E/DX2                !
 ! A42   A(13,16,18)           119.9214         estimate D2E/DX2                !
 ! A43   A(13,16,20)           119.8668         estimate D2E/DX2                !
 ! A44   A(18,16,20)           120.2115         estimate D2E/DX2                !
 ! A45   A(14,18,16)           119.7231         estimate D2E/DX2                !
 ! A46   A(14,18,21)           120.1548         estimate D2E/DX2                !
 ! A47   A(16,18,21)           120.1221         estimate D2E/DX2                !
 ! D1    D(22,1,4,3)           -26.9399         estimate D2E/DX2                !
 ! D2    D(22,1,4,7)           155.9689         estimate D2E/DX2                !
 ! D3    D(23,1,4,3)          -149.8648         estimate D2E/DX2                !
 ! D4    D(23,1,4,7)            33.0439         estimate D2E/DX2                !
 ! D5    D(24,1,4,3)            93.6636         estimate D2E/DX2                !
 ! D6    D(24,1,4,7)           -83.4277         estimate D2E/DX2                !
 ! D7    D(25,2,3,4)           -28.0406         estimate D2E/DX2                !
 ! D8    D(25,2,3,5)           166.2598         estimate D2E/DX2                !
 ! D9    D(26,2,3,4)            90.8781         estimate D2E/DX2                !
 ! D10   D(26,2,3,5)           -74.8215         estimate D2E/DX2                !
 ! D11   D(27,2,3,4)          -150.1865         estimate D2E/DX2                !
 ! D12   D(27,2,3,5)            44.1139         estimate D2E/DX2                !
 ! D13   D(2,3,4,1)             12.8757         estimate D2E/DX2                !
 ! D14   D(2,3,4,7)           -170.3148         estimate D2E/DX2                !
 ! D15   D(5,3,4,1)            178.7871         estimate D2E/DX2                !
 ! D16   D(5,3,4,7)             -4.4034         estimate D2E/DX2                !
 ! D17   D(2,3,5,6)           -179.2569         estimate D2E/DX2                !
 ! D18   D(2,3,5,8)            -47.2472         estimate D2E/DX2                !
 ! D19   D(4,3,5,6)              7.5918         estimate D2E/DX2                !
 ! D20   D(4,3,5,8)            139.6015         estimate D2E/DX2                !
 ! D21   D(1,4,7,6)            177.8441         estimate D2E/DX2                !
 ! D22   D(3,4,7,6)             -0.6747         estimate D2E/DX2                !
 ! D23   D(3,5,6,7)            -10.3203         estimate D2E/DX2                !
 ! D24   D(8,5,6,7)           -146.8865         estimate D2E/DX2                !
 ! D25   D(3,5,8,9)             46.7356         estimate D2E/DX2                !
 ! D26   D(3,5,8,10)           161.5963         estimate D2E/DX2                !
 ! D27   D(3,5,8,11)           -74.0033         estimate D2E/DX2                !
 ! D28   D(6,5,8,9)            170.4818         estimate D2E/DX2                !
 ! D29   D(6,5,8,10)           -74.6576         estimate D2E/DX2                !
 ! D30   D(6,5,8,11)            49.7428         estimate D2E/DX2                !
 ! D31   D(5,6,7,4)              7.9682         estimate D2E/DX2                !
 ! D32   D(5,8,11,12)           67.2803         estimate D2E/DX2                !
 ! D33   D(5,8,11,13)         -110.7852         estimate D2E/DX2                !
 ! D34   D(9,8,11,12)          -49.2044         estimate D2E/DX2                !
 ! D35   D(9,8,11,13)          132.7301         estimate D2E/DX2                !
 ! D36   D(10,8,11,12)        -169.0122         estimate D2E/DX2                !
 ! D37   D(10,8,11,13)          12.9223         estimate D2E/DX2                !
 ! D38   D(8,11,12,14)        -178.3809         estimate D2E/DX2                !
 ! D39   D(8,11,12,15)           1.3911         estimate D2E/DX2                !
 ! D40   D(13,11,12,14)         -0.2893         estimate D2E/DX2                !
 ! D41   D(13,11,12,15)        179.4827         estimate D2E/DX2                !
 ! D42   D(8,11,13,16)         178.4793         estimate D2E/DX2                !
 ! D43   D(8,11,13,17)          -1.4559         estimate D2E/DX2                !
 ! D44   D(12,11,13,16)          0.3942         estimate D2E/DX2                !
 ! D45   D(12,11,13,17)       -179.541          estimate D2E/DX2                !
 ! D46   D(11,12,14,18)          0.0584         estimate D2E/DX2                !
 ! D47   D(11,12,14,19)       -179.9059         estimate D2E/DX2                !
 ! D48   D(15,12,14,18)       -179.7095         estimate D2E/DX2                !
 ! D49   D(15,12,14,19)          0.3262         estimate D2E/DX2                !
 ! D50   D(11,13,16,18)         -0.2665         estimate D2E/DX2                !
 ! D51   D(11,13,16,20)        179.9007         estimate D2E/DX2                !
 ! D52   D(17,13,16,18)        179.6685         estimate D2E/DX2                !
 ! D53   D(17,13,16,20)         -0.1642         estimate D2E/DX2                !
 ! D54   D(12,14,18,16)          0.0724         estimate D2E/DX2                !
 ! D55   D(12,14,18,21)       -179.9968         estimate D2E/DX2                !
 ! D56   D(19,14,18,16)       -179.9633         estimate D2E/DX2                !
 ! D57   D(19,14,18,21)         -0.0326         estimate D2E/DX2                !
 ! D58   D(13,16,18,14)          0.0306         estimate D2E/DX2                !
 ! D59   D(13,16,18,21)       -179.9002         estimate D2E/DX2                !
 ! D60   D(20,16,18,14)        179.8628         estimate D2E/DX2                !
 ! D61   D(20,16,18,21)         -0.068          estimate D2E/DX2                !
 --------------------------------------------------------------------------------
 Trust Radius=5.00D-02 FncErr=1.00D-07 GrdErr=1.00D-06 EigMax=2.50D+02 EigMin=1.00D-04
 Number of steps in this run=     26 maximum allowed number of steps=    162.
 GradGradGradGradGradGradGradGradGradGradGradGradGradGradGradGradGradGrad

 Leave Link  103 at Thu Mar  7 11:53:35 2024, MaxMem=  4294967296 cpu:               1.4 elap:               0.1
 (Enter /share/apps/gaussian/g16/l202.exe)
                          Input orientation:                          
 ---------------------------------------------------------------------
 Center     Atomic      Atomic             Coordinates (Angstroms)
 Number     Number       Type             X           Y           Z
 ---------------------------------------------------------------------
      1          6           0        2.325367   -2.386807    0.219207
      2          6           0        1.577807    1.319656   -0.425237
      3          6           0        1.222598   -0.103045   -0.474836
      4          6           0        1.488626   -1.298442   -0.310164
      5          7           0       -0.080946   -0.176961   -1.345657
      6          7           0       -0.259957   -1.420096   -1.280622
      7          7           0        0.514922   -2.202706   -0.849273
      8          6           0       -1.260443    0.696327   -1.180830
      9          1           0       -0.829969    1.695200   -1.101667
     10          1           0       -1.868916    0.661735   -2.094085
     11          6           0       -2.103366    0.370390    0.034591
     12          6           0       -1.593077    0.578860    1.323856
     13          6           0       -3.381056   -0.178322   -0.112910
     14          6           0       -2.356796    0.247037    2.441750
     15          1           0       -0.597346    0.997185    1.434859
     16          6           0       -4.147332   -0.508888    1.007367
     17          1           0       -3.779714   -0.349523   -1.110763
     18          6           0       -3.635631   -0.296757    2.287648
     19          1           0       -1.954299    0.413290    3.437895
     20          1           0       -5.139648   -0.933249    0.878353
     21          1           0       -4.228404   -0.554287    3.161586
     22          1           0        3.385628   -2.055754    0.336877
     23          1           0        2.277896   -3.273645   -0.423143
     24          1           0        1.924618   -2.695529    1.195545
     25          1           0        2.343062    1.480241    0.375028
     26          1           0        2.007615    1.612341   -1.399280
     27          1           0        0.621541    1.974366   -0.227653
 ---------------------------------------------------------------------
                    Distance matrix (angstroms):
                    1          2          3          4          5
     1  C    0.000000
     2  C    3.835625   0.000000
     3  C    2.629328   1.467212   0.000000
     4  C    1.471362   2.622143   1.235662   0.000000
     5  N    3.622507   2.416298   1.569401   2.189411   0.000000
     6  N    3.141324   3.408123   2.140533   2.003530   1.257640
     7  N    2.110273   3.703588   2.247128   1.434026   2.169123
     8  C    4.931921   3.002519   2.702390   3.506357   1.476825
     9  H    5.325752   2.529026   2.799934   3.868365   2.031146
    10  H    5.677758   3.885591   3.572718   4.277588   2.111965
    11  C    5.220143   3.829306   3.397895   3.975709   2.508956
    12  C    5.036828   3.696297   3.410031   3.961209   3.159764
    13  C    6.127885   5.189587   4.618473   5.000738   3.522840
    14  C    5.813732   4.985101   4.630453   4.974817   4.438888
    15  H    4.633731   2.880145   2.858257   3.558973   3.062116
    16  C    6.785544   6.178442   5.585498   5.841516   4.709819
    17  H    6.572014   5.653242   5.048592   5.412653   3.710235
    18  C    6.646823   6.095283   5.592069   5.831810   5.084393
    19  H    6.042850   5.312350   5.066433   5.369517   5.171095
    20  H    7.633725   7.204105   6.557327   6.743883   5.577514
    21  H    7.414016   7.077361   6.568151   6.729877   6.136695
    22  H    1.116958   3.904155   3.025004   2.142615   4.286947
    23  H    1.096061   4.646347   3.342010   2.130056   4.000577
    24  H    1.099611   4.343837   3.162907   2.099786   4.101607
    25  H    3.870227   1.118851   2.117665   2.986742   3.403365
    26  H    4.325928   1.104155   2.100809   3.150902   2.750739
    27  H    4.703460   1.175640   2.176696   3.386727   2.524209
                    6          7          8          9         10
     6  N    0.000000
     7  N    1.182784   0.000000
     8  C    2.343112   3.415588   0.000000
     9  H    3.172066   4.131114   1.090560   0.000000
    10  H    2.753995   3.929028   1.097939   1.769846   0.000000
    11  C    2.886828   3.775906   1.514597   2.160496   2.161275
    12  C    3.543493   4.111358   2.529407   2.776997   3.430055
    13  C    3.556236   4.451855   2.530310   3.315987   2.630080
    14  C    4.586078   5.007877   3.811423   4.121188   4.580808
    15  H    3.651152   4.085792   2.715151   2.641080   3.766014
    16  C    4.601834   5.296484   3.817706   4.506765   4.022505
    17  H    3.682888   4.684716   2.728634   3.589147   2.375019
    18  C    5.038811   5.540759   4.319500   4.829813   4.820744
    19  H    5.338211   5.596454   4.679121   4.849231   5.538215
    20  H    5.358131   6.047345   4.684441   5.422412   4.698622
    21  H    6.019253   6.426774   5.406423   5.897871   5.887951
    22  H    4.038645   3.109581   5.609220   5.823257   6.395667
    23  H    3.257547   2.106318   5.371648   5.899884   5.956116
    24  H    3.539845   2.532074   5.224601   5.669518   6.040181
    25  H    4.234246   4.290117   4.002557   3.506417   4.950478
    26  H    3.788355   4.133427   3.401030   2.854351   4.051407
    27  H    3.661714   4.224418   2.466535   1.717182   3.377713
                   11         12         13         14         15
    11  C    0.000000
    12  C    1.402163   0.000000
    13  C    1.398332   2.415469   0.000000
    14  C    2.423605   1.393937   2.785019   0.000000
    15  H    2.149819   1.085724   3.395062   2.161531   0.000000
    16  C    2.428420   2.794205   1.396951   2.415554   3.879872
    17  H    2.154125   3.401566   1.088094   3.873104   4.292002
    18  C    2.805208   2.422319   2.416923   1.398170   3.410676
    19  H    3.406838   2.151059   3.872190   1.087174   2.488857
    20  H    3.410340   3.881123   2.155264   3.403168   4.966768
    21  H    3.892160   3.406790   3.403185   2.159444   4.309667
    22  H    6.008877   5.718638   7.036695   6.535194   5.137128
    23  H    5.716989   5.733955   6.457632   6.487155   5.473497
    24  H    5.193489   4.807522   6.016525   5.342492   4.478137
    25  H    4.595475   4.148005   5.979502   5.280227   3.162686
    26  H    4.527537   4.631257   5.822285   5.972073   3.898279
    27  H    3.172795   3.042885   4.546209   4.356590   2.281341
                   16         17         18         19         20
    16  C    0.000000
    17  H    2.155694   0.000000
    18  C    1.394976   3.401874   0.000000
    19  H    3.401069   4.960274   2.157339   0.000000
    20  H    1.086930   2.479261   2.157152   4.302426   0.000000
    21  H    2.156222   4.300723   1.086954   2.486785   2.487395
    22  H    7.719316   7.506598   7.496509   6.650362   8.615889
    23  H    7.139594   6.761505   7.154024   6.812678   7.886146
    24  H    6.456422   6.584999   6.153305   5.453337   7.287667
    25  H    6.817749   6.560793   6.523849   5.383944   7.878402
    26  H    6.940817   6.117625   7.006020   6.366534   7.921553
    27  H    5.516700   5.054839   5.441347   4.744276   6.547425
                   21         22         23         24         25
    21  H    0.000000
    22  H    8.258745   0.000000
    23  H    7.910571   1.813272   0.000000
    24  H    6.805139   1.811400   1.754758   0.000000
    25  H    7.422154   3.686688   4.820867   4.276143   0.000000
    26  H    8.023946   4.285800   4.989865   5.029687   1.810565
    27  H    6.434516   4.919425   5.506664   5.052863   1.889714
                   26         27
    26  H    0.000000
    27  H    1.850668   0.000000
 Stoichiometry    C11H13N3
 Framework group  C1[X(C11H13N3)]
 Deg. of freedom    75
 Full point group                 C1      NOp   1
 Largest Abelian subgroup         C1      NOp   1
 Largest concise Abelian subgroup C1      NOp   1
                         Standard orientation:                         
 ---------------------------------------------------------------------
 Center     Atomic      Atomic             Coordinates (Angstroms)
 Number     Number       Type             X           Y           Z
 ---------------------------------------------------------------------
      1          6           0        3.168646   -1.863435    0.281429
      2          6           0        2.011882    1.627564    1.370856
      3          6           0        1.967240    0.467447    0.473722
      4          6           0        2.378117   -0.635977    0.098894
      5          7           0        1.081330    0.914719   -0.742062
      6          7           0        1.125890   -0.161424   -1.391361
      7          7           0        1.836261   -1.076731   -1.153528
      8          6           0       -0.223518    1.597790   -0.633445
      9          1           0       -0.040811    2.382803    0.101194
     10          1           0       -0.462556    2.079468   -1.590690
     11          6           0       -1.356872    0.694821   -0.192814
     12          6           0       -1.370042    0.160046    1.103297
     13          6           0       -2.379538    0.351914   -1.082703
     14          6           0       -2.395840   -0.697803    1.496862
     15          1           0       -0.569965    0.421579    1.789063
     16          6           0       -3.408744   -0.506082   -0.687667
     17          1           0       -2.370923    0.757633   -2.092291
     18          6           0       -3.418203   -1.032978    0.603940
     19          1           0       -2.399414   -1.106888    2.504128
     20          1           0       -4.198352   -0.763100   -1.389007
     21          1           0       -4.216554   -1.702170    0.914241
     22          1           0        4.042071   -1.680974    0.953316
     23          1           0        3.511390   -2.262636   -0.680087
     24          1           0        2.521277   -2.636843    0.719491
     25          1           0        2.410608    1.307966    2.366196
     26          1           0        2.688189    2.385332    0.937779
     27          1           0        0.941904    2.102033    1.481105
 ---------------------------------------------------------------------
 Rotational constants (GHZ):           1.2897661           0.4578614           0.4451323
 Leave Link  202 at Thu Mar  7 11:53:35 2024, MaxMem=  4294967296 cpu:               0.3 elap:               0.0
 (Enter /share/apps/gaussian/g16/l301.exe)
 Standard basis: 6-31G(d) (6D, 7F)
 Ernie: Thresh=  0.10000D-02 Tol=  0.10000D-05 Strict=F.
 There are   236 symmetry adapted cartesian basis functions of A   symmetry.
 There are   236 symmetry adapted basis functions of A   symmetry.
   236 basis functions,   444 primitive gaussians,   236 cartesian basis functions
    50 alpha electrons       50 beta electrons
       nuclear repulsion energy       864.7696403997 Hartrees.
 IExCor=  402 DFT=T Ex+Corr=B3LYP ExCW=0 ScaHFX=  0.200000
 ScaDFX=  0.800000  0.720000  1.000000  0.810000 ScalE2=  1.000000  1.000000
 IRadAn=      5 IRanWt=     -1 IRanGd=            0 ICorTp=0 IEmpDi=131
 NAtoms=   27 NActive=   27 NUniq=   27 SFac= 1.00D+00 NAtFMM=   60 NAOKFM=F Big=F
 Integral buffers will be    131072 words long.
 Raffenetti 2 integral format.
 Two-electron integral symmetry is turned on.
 R6Disp:  Grimme-D3 Dispersion energy=       -0.0221989176 Hartrees.
 Nuclear repulsion after empirical dispersion term =      864.7474414822 Hartrees.
 Leave Link  301 at Thu Mar  7 11:53:35 2024, MaxMem=  4294967296 cpu:               1.7 elap:               0.1
 (Enter /share/apps/gaussian/g16/l302.exe)
 NPDir=0 NMtPBC=     1 NCelOv=     1 NCel=       1 NClECP=     1 NCelD=      1
         NCelK=      1 NCelE2=     1 NClLst=     1 CellRange=     0.0.
 One-electron integrals computed using PRISM.
 One-electron integral symmetry used in STVInt
 NBasis=   236 RedAO= T EigKep=  3.81D-04  NBF=   236
 NBsUse=   236 1.00D-06 EigRej= -1.00D+00 NBFU=   236
 Precomputing XC quadrature grid using
 IXCGrd= 4 IRadAn=           5 IRanWt=          -1 IRanGd=           0 AccXCQ= 0.00D+00.
 Generated NRdTot=       0 NPtTot=           0 NUsed=           0 NTot=          32
 NSgBfM=   236   236   236   236   236 MxSgAt=    27 MxSgA2=    27.
 Leave Link  302 at Thu Mar  7 11:53:35 2024, MaxMem=  4294967296 cpu:               8.0 elap:               0.3
 (Enter /share/apps/gaussian/g16/l303.exe)
 DipDrv:  MaxL=1.
 Leave Link  303 at Thu Mar  7 11:53:36 2024, MaxMem=  4294967296 cpu:               1.1 elap:               0.1
 (Enter /share/apps/gaussian/g16/l401.exe)
 ExpMin= 1.61D-01 ExpMax= 4.17D+03 ExpMxC= 6.27D+02 IAcc=3 IRadAn=         5 AccDes= 0.00D+00
 Harris functional with IExCor=  402 and IRadAn=       5 diagonalized for initial guess.
 HarFok:  IExCor=  402 AccDes= 0.00D+00 IRadAn=         5 IDoV= 1 UseB2=F ITyADJ=14
 ICtDFT=  3500011 ScaDFX=  1.000000  1.000000  1.000000  1.000000
 FoFCou: FMM=F IPFlag=           0 FMFlag=      100000 FMFlg1=           0
         NFxFlg=           0 DoJE=T BraDBF=F KetDBF=T FulRan=T
         wScrn=  0.000000 ICntrl=       500 IOpCl=  0 I1Cent=   200000004 NGrid=           0
         NMat0=    1 NMatS0=      1 NMatT0=    0 NMatD0=    1 NMtDS0=    0 NMtDT0=    0
 Petite list used in FoFCou.
 Harris En= -591.102399082642    
 JPrj=0 DoOrth=F DoCkMO=F.
 Leave Link  401 at Thu Mar  7 11:53:36 2024, MaxMem=  4294967296 cpu:              19.4 elap:               0.6
 (Enter /share/apps/gaussian/g16/l502.exe)
 Integral symmetry usage will be decided dynamically.
 Closed shell SCF:
 Using DIIS extrapolation, IDIIS=  1040.
 NGot=  4294967296 LenX=  4294845609 LenY=  4294789472
 Requested convergence on RMS density matrix=1.00D-08 within 128 cycles.
 Requested convergence on MAX density matrix=1.00D-06.
 Requested convergence on             energy=1.00D-06.
 No special actions if energy rises.
 Fock matrices will be formed incrementally for  20 cycles.
 Integral accuracy reduced to 1.0D-05 until final iterations.

 Cycle   1  Pass 0  IDiag  1:
 FoFJK:  IHMeth= 1 ICntrl=       0 DoSepK=F KAlg= 0 I1Cent=           0 FoldK=F
 IRaf= 890000000 NMat=       1 IRICut=       1 DoRegI=T DoRafI=F ISym2E= 0 IDoP0=0 IntGTp=1.
 FoFCou: FMM=F IPFlag=           0 FMFlag=      100000 FMFlg1=           0
         NFxFlg=           0 DoJE=F BraDBF=F KetDBF=F FulRan=T
         wScrn=  0.000000 ICntrl=         0 IOpCl=  0 I1Cent=           0 NGrid=           0
         NMat0=    1 NMatS0=      1 NMatT0=    0 NMatD0=    1 NMtDS0=    0 NMtDT0=    0
 Symmetry not used in FoFCou.
 E= -590.783728322103    
 DIIS: error= 2.48D-02 at cycle   1 NSaved=   1.
 NSaved= 1 IEnMin= 1 EnMin= -590.783728322103     IErMin= 1 ErrMin= 2.48D-02
 ErrMax= 2.48D-02  0.00D+00 EMaxC= 1.00D-01 BMatC= 3.04D-01 BMatP= 3.04D-01
 IDIUse=3 WtCom= 7.52D-01 WtEn= 2.48D-01
 Coeff-Com:  0.100D+01
 Coeff-En:   0.100D+01
 Coeff:      0.100D+01
 Gap=     0.256 Goal=   None    Shift=    0.000
 GapD=    0.256 DampG=1.000 DampE=0.500 DampFc=0.5000 IDamp=-1.
 Damping current iteration by 5.00D-01
 RMSDP=5.70D-03 MaxDP=1.37D-01              OVMax= 1.75D-01

 Cycle   2  Pass 0  IDiag  1:
 RMSU=  2.80D-03    CP:  9.77D-01
 E= -590.918313476721     Delta-E=       -0.134585154618 Rises=F Damp=T
 DIIS: error= 7.93D-03 at cycle   2 NSaved=   2.
 NSaved= 2 IEnMin= 2 EnMin= -590.918313476721     IErMin= 2 ErrMin= 7.93D-03
 ErrMax= 7.93D-03  0.00D+00 EMaxC= 1.00D-01 BMatC= 3.14D-02 BMatP= 3.04D-01
 IDIUse=3 WtCom= 9.21D-01 WtEn= 7.93D-02
 Coeff-Com:  0.957D-01 0.904D+00
 Coeff-En:   0.150D+00 0.850D+00
 Coeff:      0.100D+00 0.900D+00
 Gap=     0.256 Goal=   None    Shift=    0.000
 RMSDP=2.11D-03 MaxDP=8.39D-02 DE=-1.35D-01 OVMax= 1.64D-01

 Cycle   3  Pass 0  IDiag  1:
 RMSU=  1.96D-03    CP:  9.62D-01  7.55D-01
 E= -591.061753638017     Delta-E=       -0.143440161295 Rises=F Damp=F
 DIIS: error= 1.15D-02 at cycle   3 NSaved=   3.
 NSaved= 3 IEnMin= 3 EnMin= -591.061753638017     IErMin= 2 ErrMin= 7.93D-03
 ErrMax= 1.15D-02  0.00D+00 EMaxC= 1.00D-01 BMatC= 5.08D-02 BMatP= 3.14D-02
 IDIUse=2 WtCom= 0.00D+00 WtEn= 1.00D+00
 Coeff-En:   0.000D+00 0.000D+00 0.100D+01
 Coeff:      0.000D+00 0.000D+00 0.100D+01
 Gap=     0.219 Goal=   None    Shift=    0.000
 RMSDP=3.32D-03 MaxDP=1.60D-01 DE=-1.43D-01 OVMax= 2.54D-01

 Cycle   4  Pass 0  IDiag  1:
 RMSU=  2.07D-03    CP:  9.68D-01  1.24D+00 -1.22D-01
 E= -590.845615408824     Delta-E=        0.216138229193 Rises=F Damp=F
 DIIS: error= 2.92D-02 at cycle   4 NSaved=   4.
 NSaved= 4 IEnMin= 3 EnMin= -591.061753638017     IErMin= 2 ErrMin= 7.93D-03
 ErrMax= 2.92D-02  0.00D+00 EMaxC= 1.00D-01 BMatC= 2.96D-01 BMatP= 3.14D-02
 IDIUse=2 WtCom= 0.00D+00 WtEn= 1.00D+00
 Coeff-En:   0.000D+00 0.000D+00 0.792D+00 0.208D+00
 Coeff:      0.000D+00 0.000D+00 0.792D+00 0.208D+00
 Gap=     0.215 Goal=   None    Shift=    0.000
 RMSDP=1.75D-03 MaxDP=9.11D-02 DE= 2.16D-01 OVMax= 1.26D-01

 Cycle   5  Pass 0  IDiag  1:
 RMSU=  2.90D-04    CP:  9.65D-01  9.70D-01  4.31D-01  4.70D-01
 E= -591.086401138804     Delta-E=       -0.240785729980 Rises=F Damp=F
 DIIS: error= 8.16D-03 at cycle   5 NSaved=   5.
 NSaved= 5 IEnMin= 5 EnMin= -591.086401138804     IErMin= 2 ErrMin= 7.93D-03
 ErrMax= 8.16D-03  0.00D+00 EMaxC= 1.00D-01 BMatC= 2.38D-02 BMatP= 3.14D-02
 IDIUse=3 WtCom= 9.18D-01 WtEn= 8.16D-02
 Coeff-Com:  0.396D-02 0.927D-02 0.328D+00-0.743D-01 0.733D+00
 Coeff-En:   0.000D+00 0.000D+00 0.364D+00 0.000D+00 0.636D+00
 Coeff:      0.364D-02 0.852D-02 0.331D+00-0.682D-01 0.725D+00
 Gap=     0.204 Goal=   None    Shift=    0.000
 RMSDP=6.74D-04 MaxDP=3.09D-02 DE=-2.41D-01 OVMax= 5.02D-02

 Cycle   6  Pass 0  IDiag  1:
 RMSU=  8.64D-05    CP:  9.64D-01  8.75D-01  6.58D-01  2.69D-01  7.53D-01
 E= -591.107575581139     Delta-E=       -0.021174442335 Rises=F Damp=F
 DIIS: error= 5.37D-04 at cycle   6 NSaved=   6.
 NSaved= 6 IEnMin= 6 EnMin= -591.107575581139     IErMin= 6 ErrMin= 5.37D-04
 ErrMax= 5.37D-04  0.00D+00 EMaxC= 1.00D-01 BMatC= 1.42D-04 BMatP= 2.38D-02
 IDIUse=3 WtCom= 9.95D-01 WtEn= 5.37D-03
 Coeff-Com:  0.158D-03 0.239D-02 0.136D+00-0.655D-01 0.429D+00 0.498D+00
 Coeff-En:   0.000D+00 0.000D+00 0.000D+00 0.000D+00 0.000D+00 0.100D+01
 Coeff:      0.157D-03 0.238D-02 0.135D+00-0.651D-01 0.427D+00 0.501D+00
 Gap=     0.202 Goal=   None    Shift=    0.000
 RMSDP=4.88D-05 MaxDP=2.05D-03 DE=-2.12D-02 OVMax= 2.44D-03

 Cycle   7  Pass 0  IDiag  1:
 RMSU=  2.27D-05    CP:  9.64D-01  8.77D-01  6.56D-01  2.69D-01  8.22D-01
                    CP:  5.64D-01
 E= -591.107695762163     Delta-E=       -0.000120181024 Rises=F Damp=F
 DIIS: error= 7.88D-05 at cycle   7 NSaved=   7.
 NSaved= 7 IEnMin= 7 EnMin= -591.107695762163     IErMin= 7 ErrMin= 7.88D-05
 ErrMax= 7.88D-05  0.00D+00 EMaxC= 1.00D-01 BMatC= 3.05D-06 BMatP= 1.42D-04
 IDIUse=1 WtCom= 1.00D+00 WtEn= 0.00D+00
 Coeff-Com:  0.181D-03-0.186D-03 0.366D-01-0.198D-01 0.121D+00 0.191D+00
 Coeff-Com:  0.672D+00
 Coeff:      0.181D-03-0.186D-03 0.366D-01-0.198D-01 0.121D+00 0.191D+00
 Coeff:      0.672D+00
 Gap=     0.202 Goal=   None    Shift=    0.000
 RMSDP=9.72D-06 MaxDP=2.55D-04 DE=-1.20D-04 OVMax= 4.74D-04

 Initial convergence to 1.0D-05 achieved.  Increase integral accuracy.
 Cycle   8  Pass 1  IDiag  1:
 E= -591.107701793255     Delta-E=       -0.000006031092 Rises=F Damp=F
 DIIS: error= 4.34D-05 at cycle   1 NSaved=   1.
 NSaved= 1 IEnMin= 1 EnMin= -591.107701793255     IErMin= 1 ErrMin= 4.34D-05
 ErrMax= 4.34D-05  0.00D+00 EMaxC= 1.00D-01 BMatC= 7.48D-07 BMatP= 7.48D-07
 IDIUse=1 WtCom= 1.00D+00 WtEn= 0.00D+00
 Coeff-Com:  0.100D+01
 Coeff:      0.100D+01
 Gap=     0.202 Goal=   None    Shift=    0.000
 RMSDP=9.72D-06 MaxDP=2.55D-04 DE=-6.03D-06 OVMax= 6.96D-04

 Cycle   9  Pass 1  IDiag  1:
 RMSU=  2.07D-05    CP:  1.00D+00
 E= -591.107700389052     Delta-E=        0.000001404203 Rises=F Damp=F
 DIIS: error= 7.61D-05 at cycle   2 NSaved=   2.
 NSaved= 2 IEnMin= 1 EnMin= -591.107701793255     IErMin= 1 ErrMin= 4.34D-05
 ErrMax= 7.61D-05  0.00D+00 EMaxC= 1.00D-01 BMatC= 1.96D-06 BMatP= 7.48D-07
 IDIUse=1 WtCom= 1.00D+00 WtEn= 0.00D+00
 Coeff-Com:  0.626D+00 0.374D+00
 Coeff:      0.626D+00 0.374D+00
 Gap=     0.202 Goal=   None    Shift=    0.000
 RMSDP=7.43D-06 MaxDP=1.47D-04 DE= 1.40D-06 OVMax= 5.30D-04

 Cycle  10  Pass 1  IDiag  1:
 RMSU=  6.56D-06    CP:  1.00D+00  8.32D-01
 E= -591.107702459055     Delta-E=       -0.000002070003 Rises=F Damp=F
 DIIS: error= 1.12D-05 at cycle   3 NSaved=   3.
 NSaved= 3 IEnMin= 3 EnMin= -591.107702459055     IErMin= 3 ErrMin= 1.12D-05
 ErrMax= 1.12D-05  0.00D+00 EMaxC= 1.00D-01 BMatC= 6.83D-08 BMatP= 7.48D-07
 IDIUse=1 WtCom= 1.00D+00 WtEn= 0.00D+00
 Coeff-Com:  0.245D+00 0.198D+00 0.557D+00
 Coeff:      0.245D+00 0.198D+00 0.557D+00
 Gap=     0.202 Goal=   None    Shift=    0.000
 RMSDP=1.69D-06 MaxDP=7.00D-05 DE=-2.07D-06 OVMax= 1.22D-04

 Cycle  11  Pass 1  IDiag  1:
 RMSU=  1.43D-06    CP:  1.00D+00  8.52D-01  8.79D-01
 E= -591.107702502899     Delta-E=       -0.000000043843 Rises=F Damp=F
 DIIS: error= 8.81D-06 at cycle   4 NSaved=   4.
 NSaved= 4 IEnMin= 4 EnMin= -591.107702502899     IErMin= 4 ErrMin= 8.81D-06
 ErrMax= 8.81D-06  0.00D+00 EMaxC= 1.00D-01 BMatC= 2.52D-08 BMatP= 6.83D-08
 IDIUse=1 WtCom= 1.00D+00 WtEn= 0.00D+00
 Coeff-Com:  0.195D-01 0.517D-01 0.401D+00 0.528D+00
 Coeff:      0.195D-01 0.517D-01 0.401D+00 0.528D+00
 Gap=     0.202 Goal=   None    Shift=    0.000
 RMSDP=7.63D-07 MaxDP=3.05D-05 DE=-4.38D-08 OVMax= 5.71D-05

 Cycle  12  Pass 1  IDiag  1:
 RMSU=  3.63D-07    CP:  1.00D+00  8.53D-01  9.01D-01  5.43D-01
 E= -591.107702522281     Delta-E=       -0.000000019382 Rises=F Damp=F
 DIIS: error= 1.85D-06 at cycle   5 NSaved=   5.
 NSaved= 5 IEnMin= 5 EnMin= -591.107702522281     IErMin= 5 ErrMin= 1.85D-06
 ErrMax= 1.85D-06  0.00D+00 EMaxC= 1.00D-01 BMatC= 1.94D-09 BMatP= 2.52D-08
 IDIUse=1 WtCom= 1.00D+00 WtEn= 0.00D+00
 Coeff-Com: -0.214D-02 0.213D-01 0.222D+00 0.337D+00 0.422D+00
 Coeff:     -0.214D-02 0.213D-01 0.222D+00 0.337D+00 0.422D+00
 Gap=     0.202 Goal=   None    Shift=    0.000
 RMSDP=2.20D-07 MaxDP=6.36D-06 DE=-1.94D-08 OVMax= 1.17D-05

 Cycle  13  Pass 1  IDiag  1:
 RMSU=  8.19D-08    CP:  1.00D+00  8.54D-01  9.01D-01  5.81D-01  4.58D-01
 E= -591.107702524144     Delta-E=       -0.000000001863 Rises=F Damp=F
 DIIS: error= 2.79D-07 at cycle   6 NSaved=   6.
 NSaved= 6 IEnMin= 6 EnMin= -591.107702524144     IErMin= 6 ErrMin= 2.79D-07
 ErrMax= 2.79D-07  0.00D+00 EMaxC= 1.00D-01 BMatC= 5.28D-11 BMatP= 1.94D-09
 IDIUse=1 WtCom= 1.00D+00 WtEn= 0.00D+00
 Coeff-Com: -0.176D-02 0.989D-02 0.106D+00 0.161D+00 0.234D+00 0.491D+00
 Coeff:     -0.176D-02 0.989D-02 0.106D+00 0.161D+00 0.234D+00 0.491D+00
 Gap=     0.202 Goal=   None    Shift=    0.000
 RMSDP=4.31D-08 MaxDP=1.28D-06 DE=-1.86D-09 OVMax= 2.37D-06

 Cycle  14  Pass 1  IDiag  1:
 RMSU=  3.36D-08    CP:  1.00D+00  8.54D-01  9.00D-01  5.80D-01  4.73D-01
                    CP:  6.79D-01
 E= -591.107702524222     Delta-E=       -0.000000000078 Rises=F Damp=F
 DIIS: error= 8.52D-08 at cycle   7 NSaved=   7.
 NSaved= 7 IEnMin= 7 EnMin= -591.107702524222     IErMin= 7 ErrMin= 8.52D-08
 ErrMax= 8.52D-08  0.00D+00 EMaxC= 1.00D-01 BMatC= 2.73D-12 BMatP= 5.28D-11
 IDIUse=1 WtCom= 1.00D+00 WtEn= 0.00D+00
 Coeff-Com: -0.428D-03 0.131D-02 0.140D-01 0.196D-01 0.419D-01 0.205D+00
 Coeff-Com:  0.719D+00
 Coeff:     -0.428D-03 0.131D-02 0.140D-01 0.196D-01 0.419D-01 0.205D+00
 Coeff:      0.719D+00
 Gap=     0.202 Goal=   None    Shift=    0.000
 RMSDP=1.09D-08 MaxDP=2.59D-07 DE=-7.84D-11 OVMax= 6.51D-07

 Cycle  15  Pass 1  IDiag  1:
 RMSU=  8.82D-09    CP:  1.00D+00  8.54D-01  9.01D-01  5.79D-01  4.77D-01
                    CP:  7.47D-01  9.42D-01
 E= -591.107702524220     Delta-E=        0.000000000002 Rises=F Damp=F
 DIIS: error= 2.50D-08 at cycle   8 NSaved=   8.
 NSaved= 8 IEnMin= 7 EnMin= -591.107702524222     IErMin= 8 ErrMin= 2.50D-08
 ErrMax= 2.50D-08  0.00D+00 EMaxC= 1.00D-01 BMatC= 5.17D-13 BMatP= 2.73D-12
 IDIUse=1 WtCom= 1.00D+00 WtEn= 0.00D+00
 Coeff-Com:  0.513D-04-0.839D-03-0.934D-02-0.156D-01-0.139D-01 0.446D-01
 Coeff-Com:  0.387D+00 0.608D+00
 Coeff:      0.513D-04-0.839D-03-0.934D-02-0.156D-01-0.139D-01 0.446D-01
 Coeff:      0.387D+00 0.608D+00
 Gap=     0.202 Goal=   None    Shift=    0.000
 RMSDP=4.70D-09 MaxDP=1.19D-07 DE= 2.05D-12 OVMax= 2.94D-07

 SCF Done:  E(RB3LYP) =  -591.107702524     A.U. after   15 cycles
            NFock= 15  Conv=0.47D-08     -V/T= 2.0079
 KE= 5.864512350975D+02 PE=-3.100929094864D+03 EE= 1.058622715760D+03
 Leave Link  502 at Thu Mar  7 11:53:45 2024, MaxMem=  4294967296 cpu:             293.0 elap:               9.2
 (Enter /share/apps/gaussian/g16/l601.exe)
 Copying SCF densities to generalized density rwf, IOpCl= 0 IROHF=0.

 **********************************************************************

            Population analysis using the SCF density.

 **********************************************************************

 Orbital symmetries:
       Occupied  (A) (A) (A) (A) (A) (A) (A) (A) (A) (A) (A) (A)
                 (A) (A) (A) (A) (A) (A) (A) (A) (A) (A) (A) (A)
                 (A) (A) (A) (A) (A) (A) (A) (A) (A) (A) (A) (A)
                 (A) (A) (A) (A) (A) (A) (A) (A) (A) (A) (A) (A)
                 (A) (A)
       Virtual   (A) (A) (A) (A) (A) (A) (A) (A) (A) (A) (A) (A)
                 (A) (A) (A) (A) (A) (A) (A) (A) (A) (A) (A) (A)
                 (A) (A) (A) (A) (A) (A) (A) (A) (A) (A) (A) (A)
                 (A) (A) (A) (A) (A) (A) (A) (A) (A) (A) (A) (A)
                 (A) (A) (A) (A) (A) (A) (A) (A) (A) (A) (A) (A)
                 (A) (A) (A) (A) (A) (A) (A) (A) (A) (A) (A) (A)
                 (A) (A) (A) (A) (A) (A) (A) (A) (A) (A) (A) (A)
                 (A) (A) (A) (A) (A) (A) (A) (A) (A) (A) (A) (A)
                 (A) (A) (A) (A) (A) (A) (A) (A) (A) (A) (A) (A)
                 (A) (A) (A) (A) (A) (A) (A) (A) (A) (A) (A) (A)
                 (A) (A) (A) (A) (A) (A) (A) (A) (A) (A) (A) (A)
                 (A) (A) (A) (A) (A) (A) (A) (A) (A) (A) (A) (A)
                 (A) (A) (A) (A) (A) (A) (A) (A) (A) (A) (A) (A)
                 (A) (A) (A) (A) (A) (A) (A) (A) (A) (A) (A) (A)
                 (A) (A) (A) (A) (A) (A) (A) (A) (A) (A) (A) (A)
                 (A) (A) (A) (A) (A) (A)
 The electronic state is 1-A.
 Alpha  occ. eigenvalues --  -14.39215 -14.36463 -14.33809 -10.24100 -10.21113
 Alpha  occ. eigenvalues --  -10.21031 -10.20235 -10.19489 -10.19437 -10.19406
 Alpha  occ. eigenvalues --  -10.19376 -10.19320 -10.18805 -10.17670  -1.12426
 Alpha  occ. eigenvalues --   -0.93180  -0.85745  -0.82243  -0.78039  -0.74835
 Alpha  occ. eigenvalues --   -0.74484  -0.71398  -0.67844  -0.61330  -0.60428
 Alpha  occ. eigenvalues --   -0.57125  -0.55777  -0.52335  -0.50828  -0.48633
 Alpha  occ. eigenvalues --   -0.46980  -0.46095  -0.44511  -0.43220  -0.42397
 Alpha  occ. eigenvalues --   -0.42170  -0.41732  -0.39969  -0.39588  -0.39545
 Alpha  occ. eigenvalues --   -0.36495  -0.35210  -0.34531  -0.33821  -0.31914
 Alpha  occ. eigenvalues --   -0.26940  -0.26090  -0.25193  -0.24816  -0.21495
 Alpha virt. eigenvalues --   -0.01313  -0.00373   0.01324   0.06024   0.07082
 Alpha virt. eigenvalues --    0.09746   0.09928   0.12086   0.12873   0.14133
 Alpha virt. eigenvalues --    0.14968   0.15175   0.15806   0.16685   0.17598
 Alpha virt. eigenvalues --    0.18354   0.19007   0.20505   0.21576   0.22880
 Alpha virt. eigenvalues --    0.23900   0.25451   0.26902   0.30082   0.31101
 Alpha virt. eigenvalues --    0.31966   0.34289   0.34917   0.38061   0.42793
 Alpha virt. eigenvalues --    0.44827   0.46458   0.48003   0.50144   0.51610
 Alpha virt. eigenvalues --    0.52845   0.54112   0.54711   0.55539   0.56526
 Alpha virt. eigenvalues --    0.57956   0.59084   0.59471   0.60442   0.61041
 Alpha virt. eigenvalues --    0.61402   0.61466   0.62902   0.64049   0.64551
 Alpha virt. eigenvalues --    0.65767   0.66871   0.67668   0.68694   0.70529
 Alpha virt. eigenvalues --    0.73589   0.74375   0.74955   0.76987   0.79643
 Alpha virt. eigenvalues --    0.80338   0.81744   0.82334   0.83517   0.84116
 Alpha virt. eigenvalues --    0.84265   0.84921   0.86134   0.87037   0.88073
 Alpha virt. eigenvalues --    0.89223   0.89962   0.90604   0.90738   0.92398
 Alpha virt. eigenvalues --    0.93778   0.94066   0.94751   0.97001   0.98311
 Alpha virt. eigenvalues --    0.99633   0.99953   1.02155   1.04407   1.08078
 Alpha virt. eigenvalues --    1.09173   1.11952   1.12779   1.15167   1.16038
 Alpha virt. eigenvalues --    1.18610   1.21044   1.25683   1.26465   1.31023
 Alpha virt. eigenvalues --    1.34446   1.37302   1.40853   1.41963   1.42714
 Alpha virt. eigenvalues --    1.44771   1.47371   1.48027   1.49161   1.50666
 Alpha virt. eigenvalues --    1.50986   1.55086   1.57623   1.59356   1.60904
 Alpha virt. eigenvalues --    1.63474   1.67527   1.69930   1.76200   1.78328
 Alpha virt. eigenvalues --    1.80345   1.81326   1.84266   1.87801   1.88764
 Alpha virt. eigenvalues --    1.90343   1.91804   1.94809   1.97351   1.98325
 Alpha virt. eigenvalues --    1.99081   2.01059   2.03143   2.04051   2.06674
 Alpha virt. eigenvalues --    2.09230   2.12467   2.14082   2.14846   2.15731
 Alpha virt. eigenvalues --    2.18620   2.19059   2.21268   2.23475   2.24744
 Alpha virt. eigenvalues --    2.26333   2.28218   2.29568   2.30812   2.31906
 Alpha virt. eigenvalues --    2.34323   2.36552   2.42041   2.44122   2.46197
 Alpha virt. eigenvalues --    2.54392   2.55762   2.57098   2.58189   2.63149
 Alpha virt. eigenvalues --    2.64583   2.66323   2.70090   2.71606   2.72366
 Alpha virt. eigenvalues --    2.74917   2.75771   2.78114   2.82487   2.84316
 Alpha virt. eigenvalues --    2.88372   2.98518   3.05500   3.13386   3.17757
 Alpha virt. eigenvalues --    3.40602   3.43750   3.69295   3.95773   4.08675
 Alpha virt. eigenvalues --    4.09828   4.11496   4.16604   4.19711   4.22861
 Alpha virt. eigenvalues --    4.32339   4.36757   4.43033   4.47011   4.70989
 Alpha virt. eigenvalues --    4.73906
          Condensed to atoms (all electrons):
               1          2          3          4          5          6
     1  C    5.281729  -0.002223  -0.112462   0.395417   0.010161   0.012999
     2  C   -0.002223   5.267736   0.375741  -0.097871  -0.094797   0.007638
     3  C   -0.112462   0.375741   4.999268   0.587943   0.125524  -0.094830
     4  C    0.395417  -0.097871   0.587943   4.991683  -0.017007  -0.126501
     5  N    0.010161  -0.094797   0.125524  -0.017007   7.038685   0.214563
     6  N    0.012999   0.007638  -0.094830  -0.126501   0.214563   6.602364
     7  N   -0.151939   0.007433   0.000701   0.196272  -0.110536   0.423737
     8  C   -0.000222  -0.004893  -0.027288   0.004144   0.248550  -0.051817
     9  H   -0.000011  -0.002247  -0.004784  -0.000228  -0.049284   0.006113
    10  H    0.000006   0.000165   0.003439   0.000207  -0.033113   0.000634
    11  C   -0.000008  -0.002140  -0.003770   0.000229  -0.055539  -0.006202
    12  C   -0.000002  -0.000964   0.003087   0.000469  -0.001103  -0.000824
    13  C   -0.000000  -0.000069  -0.000026   0.000073  -0.002250   0.003016
    14  C   -0.000001   0.000096  -0.000004  -0.000032   0.000067  -0.000070
    15  H   -0.000000  -0.000813   0.002427   0.000484   0.000299   0.000070
    16  C    0.000000   0.000001   0.000003  -0.000000  -0.000055  -0.000088
    17  H    0.000000  -0.000001   0.000005   0.000001   0.000126   0.000206
    18  C   -0.000000  -0.000001   0.000001  -0.000001   0.000007   0.000017
    19  H    0.000000  -0.000002   0.000003  -0.000001   0.000003   0.000000
    20  H    0.000000  -0.000000  -0.000000  -0.000000   0.000001  -0.000000
    21  H    0.000000   0.000000  -0.000000   0.000000   0.000000  -0.000000
    22  H    0.333995   0.000533   0.004502  -0.033905  -0.000094  -0.000638
    23  H    0.376805  -0.000047   0.004165  -0.027748   0.000169   0.002299
    24  H    0.362496   0.000043   0.000202  -0.026676   0.000040   0.000077
    25  H    0.000560   0.352187  -0.029464   0.001914   0.004212  -0.000299
    26  H    0.000060   0.367867  -0.030649  -0.001855  -0.001727   0.000274
    27  H    0.000008   0.354045  -0.035668   0.003287  -0.009760   0.000610
               7          8          9         10         11         12
     1  C   -0.151939  -0.000222  -0.000011   0.000006  -0.000008  -0.000002
     2  C    0.007433  -0.004893  -0.002247   0.000165  -0.002140  -0.000964
     3  C    0.000701  -0.027288  -0.004784   0.003439  -0.003770   0.003087
     4  C    0.196272   0.004144  -0.000228   0.000207   0.000229   0.000469
     5  N   -0.110536   0.248550  -0.049284  -0.033113  -0.055539  -0.001103
     6  N    0.423737  -0.051817   0.006113   0.000634  -0.006202  -0.000824
     7  N    6.902485   0.004157  -0.000187  -0.000275   0.001019  -0.000185
     8  C    0.004157   5.126388   0.369767   0.357657   0.335495  -0.060274
     9  H   -0.000187   0.369767   0.569163  -0.027563  -0.036371  -0.005982
    10  H   -0.000275   0.357657  -0.027563   0.547963  -0.035160   0.005189
    11  C    0.001019   0.335495  -0.036371  -0.035160   4.687686   0.536527
    12  C   -0.000185  -0.060274  -0.005982   0.005189   0.536527   4.969278
    13  C    0.000038  -0.044254   0.002465  -0.005063   0.558299  -0.045929
    14  C   -0.000012   0.006049   0.000010  -0.000145  -0.018460   0.529682
    15  H   -0.000044  -0.009095   0.000751   0.000096  -0.046645   0.353962
    16  C   -0.000002   0.006156  -0.000168   0.000065  -0.021870  -0.044623
    17  H   -0.000006  -0.010094   0.000065   0.007486  -0.041474   0.006087
    18  C    0.000001   0.000386   0.000006  -0.000001  -0.035085  -0.035757
    19  H   -0.000000  -0.000185  -0.000001   0.000003   0.003610  -0.040067
    20  H   -0.000000  -0.000173   0.000003  -0.000007   0.003913   0.000787
    21  H    0.000000   0.000007  -0.000000  -0.000000   0.000700   0.004695
    22  H    0.009530  -0.000002   0.000001  -0.000000   0.000000   0.000000
    23  H   -0.008123  -0.000003  -0.000000  -0.000000   0.000001   0.000001
    24  H   -0.001829   0.000014   0.000000  -0.000000   0.000001  -0.000001
    25  H   -0.000069   0.000011   0.000030  -0.000002   0.000095  -0.000113
    26  H   -0.000127   0.000099   0.000174  -0.000021   0.000072   0.000044
    27  H   -0.000146  -0.001891   0.008338  -0.000169  -0.002068   0.001065
              13         14         15         16         17         18
     1  C   -0.000000  -0.000001  -0.000000   0.000000   0.000000  -0.000000
     2  C   -0.000069   0.000096  -0.000813   0.000001  -0.000001  -0.000001
     3  C   -0.000026  -0.000004   0.002427   0.000003   0.000005   0.000001
     4  C    0.000073  -0.000032   0.000484  -0.000000   0.000001  -0.000001
     5  N   -0.002250   0.000067   0.000299  -0.000055   0.000126   0.000007
     6  N    0.003016  -0.000070   0.000070  -0.000088   0.000206   0.000017
     7  N    0.000038  -0.000012  -0.000044  -0.000002  -0.000006   0.000001
     8  C   -0.044254   0.006049  -0.009095   0.006156  -0.010094   0.000386
     9  H    0.002465   0.000010   0.000751  -0.000168   0.000065   0.000006
    10  H   -0.005063  -0.000145   0.000096   0.000065   0.007486  -0.000001
    11  C    0.558299  -0.018460  -0.046645  -0.021870  -0.041474  -0.035085
    12  C   -0.045929   0.529682   0.353962  -0.044623   0.006087  -0.035757
    13  C    4.929725  -0.045362   0.005576   0.528112   0.352914  -0.035582
    14  C   -0.045362   4.858974  -0.040965  -0.026219   0.000359   0.547837
    15  H    0.005576  -0.040965   0.596207   0.000462  -0.000180   0.004496
    16  C    0.528112  -0.026219   0.000462   4.859195  -0.044039   0.551402
    17  H    0.352914   0.000359  -0.000180  -0.044039   0.595710   0.004690
    18  C   -0.035582   0.547837   0.004496   0.551402   0.004690   4.849295
    19  H    0.000869   0.357082  -0.005278   0.004547   0.000017  -0.042336
    20  H   -0.039196   0.004583   0.000017   0.357427  -0.005427  -0.042961
    21  H    0.004660  -0.042611  -0.000172  -0.042826  -0.000177   0.359383
    22  H    0.000000  -0.000000   0.000000  -0.000000  -0.000000  -0.000000
    23  H    0.000000  -0.000000   0.000000   0.000000  -0.000000  -0.000000
    24  H   -0.000000   0.000002  -0.000000  -0.000000   0.000000   0.000000
    25  H    0.000001  -0.000003   0.000318  -0.000000   0.000000   0.000000
    26  H    0.000001  -0.000001   0.000048  -0.000000  -0.000000   0.000000
    27  H   -0.000080   0.000025   0.002400   0.000001  -0.000002   0.000000
              19         20         21         22         23         24
     1  C    0.000000   0.000000   0.000000   0.333995   0.376805   0.362496
     2  C   -0.000002  -0.000000   0.000000   0.000533  -0.000047   0.000043
     3  C    0.000003  -0.000000  -0.000000   0.004502   0.004165   0.000202
     4  C   -0.000001  -0.000000   0.000000  -0.033905  -0.027748  -0.026676
     5  N    0.000003   0.000001   0.000000  -0.000094   0.000169   0.000040
     6  N    0.000000  -0.000000  -0.000000  -0.000638   0.002299   0.000077
     7  N   -0.000000  -0.000000   0.000000   0.009530  -0.008123  -0.001829
     8  C   -0.000185  -0.000173   0.000007  -0.000002  -0.000003   0.000014
     9  H   -0.000001   0.000003  -0.000000   0.000001  -0.000000   0.000000
    10  H    0.000003  -0.000007  -0.000000  -0.000000  -0.000000  -0.000000
    11  C    0.003610   0.003913   0.000700   0.000000   0.000001   0.000001
    12  C   -0.040067   0.000787   0.004695   0.000000   0.000001  -0.000001
    13  C    0.000869  -0.039196   0.004660   0.000000   0.000000  -0.000000
    14  C    0.357082   0.004583  -0.042611  -0.000000  -0.000000   0.000002
    15  H   -0.005278   0.000017  -0.000172   0.000000   0.000000  -0.000000
    16  C    0.004547   0.357427  -0.042826  -0.000000   0.000000  -0.000000
    17  H    0.000017  -0.005427  -0.000177  -0.000000  -0.000000   0.000000
    18  C   -0.042336  -0.042961   0.359383  -0.000000  -0.000000   0.000000
    19  H    0.595251  -0.000184  -0.005500  -0.000000  -0.000000   0.000000
    20  H   -0.000184   0.592386  -0.005509  -0.000000   0.000000   0.000000
    21  H   -0.005500  -0.005509   0.594312   0.000000   0.000000  -0.000000
    22  H   -0.000000  -0.000000   0.000000   0.614737  -0.028863  -0.023387
    23  H   -0.000000   0.000000   0.000000  -0.028863   0.524073  -0.031137
    24  H    0.000000   0.000000  -0.000000  -0.023387  -0.031137   0.550082
    25  H   -0.000000  -0.000000  -0.000000   0.000084  -0.000016   0.000007
    26  H   -0.000000   0.000000  -0.000000   0.000019   0.000012  -0.000014
    27  H   -0.000002   0.000000  -0.000000  -0.000011   0.000000   0.000013
              25         26         27
     1  C    0.000560   0.000060   0.000008
     2  C    0.352187   0.367867   0.354045
     3  C   -0.029464  -0.030649  -0.035668
     4  C    0.001914  -0.001855   0.003287
     5  N    0.004212  -0.001727  -0.009760
     6  N   -0.000299   0.000274   0.000610
     7  N   -0.000069  -0.000127  -0.000146
     8  C    0.000011   0.000099  -0.001891
     9  H    0.000030   0.000174   0.008338
    10  H   -0.000002  -0.000021  -0.000169
    11  C    0.000095   0.000072  -0.002068
    12  C   -0.000113   0.000044   0.001065
    13  C    0.000001   0.000001  -0.000080
    14  C   -0.000003  -0.000001   0.000025
    15  H    0.000318   0.000048   0.002400
    16  C   -0.000000  -0.000000   0.000001
    17  H    0.000000  -0.000000  -0.000002
    18  C    0.000000   0.000000   0.000000
    19  H   -0.000000  -0.000000  -0.000002
    20  H   -0.000000   0.000000   0.000000
    21  H   -0.000000  -0.000000  -0.000000
    22  H    0.000084   0.000019  -0.000011
    23  H   -0.000016   0.000012   0.000000
    24  H    0.000007  -0.000014   0.000013
    25  H    0.558056  -0.024934  -0.022336
    26  H   -0.024934   0.541547  -0.033526
    27  H   -0.022336  -0.033526   0.593436
 Mulliken charges:
               1
     1  C   -0.507369
     2  C   -0.527418
     3  C    0.231936
     4  C    0.149703
     5  N   -0.267139
     6  N    0.006651
     7  N   -0.271892
     8  C   -0.248689
     9  H    0.169937
    10  H    0.178610
    11  C    0.177147
    12  C   -0.175050
    13  C   -0.167939
    14  C   -0.130883
    15  H    0.135578
    16  C   -0.127480
    17  H    0.133734
    18  C   -0.125798
    19  H    0.132171
    20  H    0.134341
    21  H    0.133037
    22  H    0.123499
    23  H    0.188413
    24  H    0.170068
    25  H    0.159763
    26  H    0.182637
    27  H    0.142430
 Sum of Mulliken charges =  -0.00000
 Mulliken charges with hydrogens summed into heavy atoms:
               1
     1  C   -0.025389
     2  C   -0.042587
     3  C    0.231936
     4  C    0.149703
     5  N   -0.267139
     6  N    0.006651
     7  N   -0.271892
     8  C    0.099858
    11  C    0.177147
    12  C   -0.039472
    13  C   -0.034205
    14  C    0.001288
    16  C    0.006861
    18  C    0.007239
 Electronic spatial extent (au):  <R**2>=           2825.1378
 Charge=             -0.0000 electrons
 Dipole moment (field-independent basis, Debye):
    X=             -1.0646    Y=              1.9532    Z=              2.2913  Tot=              3.1935
 Quadrupole moment (field-independent basis, Debye-Ang):
   XX=            -77.9446   YY=            -79.5318   ZZ=            -82.0217
   XY=              4.2050   XZ=              5.1560   YZ=             -3.5454
 Traceless Quadrupole moment (field-independent basis, Debye-Ang):
   XX=              1.8881   YY=              0.3009   ZZ=             -2.1890
   XY=              4.2050   XZ=              5.1560   YZ=             -3.5454
 Octapole moment (field-independent basis, Debye-Ang**2):
  XXX=             -6.2546  YYY=              6.9902  ZZZ=              4.5295  XYY=              2.6869
  XXY=            -13.1672  XXZ=             -3.1770  XZZ=             -9.2478  YZZ=              3.5314
  YYZ=              0.8746  XYZ=              5.1423
 Hexadecapole moment (field-independent basis, Debye-Ang**3):
 XXXX=          -2511.4725 YYYY=           -683.5421 ZZZZ=           -577.1587 XXXY=             77.0853
 XXXZ=             23.6621 YYYX=              5.1957 YYYZ=             -9.1969 ZZZX=             10.3346
 ZZZY=            -19.1997 XXYY=           -534.7733 XXZZ=           -509.5324 YYZZ=           -214.1422
 XXYZ=             -7.9129 YYXZ=             -2.8333 ZZXY=             10.7180
 N-N= 8.647474414822D+02 E-N=-3.100929099612D+03  KE= 5.864512350975D+02
 No NMR shielding tensors so no spin-rotation constants.
 Leave Link  601 at Thu Mar  7 11:53:46 2024, MaxMem=  4294967296 cpu:               3.7 elap:               0.1
 (Enter /share/apps/gaussian/g16/l701.exe)
 ... and contract with generalized density number  0.
 Compute integral first derivatives.
 R6Disp: Adding Grimme-D3 dispersion energy 1st derivatives to the gradient.
 Leave Link  701 at Thu Mar  7 11:53:46 2024, MaxMem=  4294967296 cpu:               4.5 elap:               0.2
 (Enter /share/apps/gaussian/g16/l702.exe)
 L702 exits ... SP integral derivatives will be done elsewhere.
 Leave Link  702 at Thu Mar  7 11:53:46 2024, MaxMem=  4294967296 cpu:               0.7 elap:               0.0
 (Enter /share/apps/gaussian/g16/l703.exe)
 Integral derivatives from FoFJK, PRISM(SPDF).
 Compute integral first derivatives, UseDBF=F ICtDFT=           0.
 Calling FoFJK, ICntrl=      2127 FMM=F ISym2X=0 I1Cent= 0 IOpClX= 0 NMat=1 NMatS=1 NMatT=0.
 FoFJK:  IHMeth= 1 ICntrl=    2127 DoSepK=F KAlg= 0 I1Cent=           0 FoldK=F
 IRaf=         0 NMat=       1 IRICut=       1 DoRegI=T DoRafI=F ISym2E= 0 IDoP0=0 IntGTp=1.
 FoFCou: FMM=F IPFlag=           0 FMFlag=      100000 FMFlg1=         800
         NFxFlg=           0 DoJE=F BraDBF=F KetDBF=F FulRan=T
         wScrn=  0.000000 ICntrl=      2127 IOpCl=  0 I1Cent=           0 NGrid=           0
         NMat0=    1 NMatS0=      1 NMatT0=    0 NMatD0=    1 NMtDS0=    0 NMtDT0=    0
 Symmetry not used in FoFCou.
 Leave Link  703 at Thu Mar  7 11:53:48 2024, MaxMem=  4294967296 cpu:              64.6 elap:               2.0
 (Enter /share/apps/gaussian/g16/l716.exe)
 Dipole        =-4.18848887D-01 7.68453742D-01 9.01479020D-01
 ***** Axes restored to original set *****
 -------------------------------------------------------------------
 Center     Atomic                   Forces (Hartrees/Bohr)
 Number     Number              X              Y              Z
 -------------------------------------------------------------------
      1        6           0.073636146    0.016636710    0.034815523
      2        6           0.011652592    0.023999327    0.028074374
      3        6          -0.063794124    0.153501293   -0.048449425
      4        6           0.068166493   -0.170683864    0.036342584
      5        7           0.057669745    0.017606857    0.048409339
      6        7          -0.216647501   -0.033988391   -0.121745051
      7        7           0.038479025    0.004076456    0.025238003
      8        6          -0.000047476    0.000703875   -0.002765086
      9        1          -0.007235120    0.002180744   -0.003422239
     10        1           0.004598622   -0.002091703    0.001190202
     11        6           0.001270260   -0.001750872    0.000184229
     12        6          -0.002920310   -0.000454141   -0.002553530
     13        6          -0.000460365    0.000411238   -0.000348372
     14        6           0.000963689    0.000405568    0.001648145
     15        1          -0.000037000   -0.000409956    0.002523781
     16        6           0.000522330    0.000650632   -0.000586223
     17        1           0.000637674   -0.000311007    0.000468539
     18        6           0.000601413    0.000206115   -0.000243786
     19        1          -0.000105308   -0.000036834   -0.000128124
     20        1           0.000261435    0.000041013   -0.000058309
     21        1           0.000355829    0.000100085   -0.000060193
     22        1          -0.006758017   -0.010764517    0.005953782
     23        1           0.003847314    0.007211382    0.001084924
     24        1           0.004531738    0.000834296    0.000538490
     25        1          -0.010544306    0.007619767   -0.010742455
     26        1          -0.002080244    0.003543285    0.006523099
     27        1           0.043435469   -0.019237360   -0.001892222
 -------------------------------------------------------------------
 Cartesian Forces:  Max     0.216647501 RMS     0.042679680
 Leave Link  716 at Thu Mar  7 11:53:48 2024, MaxMem=  4294967296 cpu:               0.8 elap:               0.0
 (Enter /share/apps/gaussian/g16/l103.exe)

 GradGradGradGradGradGradGradGradGradGradGradGradGradGradGradGradGradGrad
 Berny optimization.
 FormGI is forming the generalized inverse of G from B-inverse, IUseBI=4.
 Internal  Forces:  Max     0.135110783 RMS     0.027357002
 Search for a local minimum.
 Step number   1 out of a maximum of   26
 All quantities printed in internal units (Hartrees-Bohrs-Radians)
 RMS Force = .27357D-01 SwitMx=.10000D-02 MixMth= 1
 Mixed Optimization -- RFO/linear search
 Second derivative matrix not updated -- first step.
 ITU=  0
     Eigenvalues ---    0.00573   0.00676   0.01145   0.01200   0.01478
     Eigenvalues ---    0.01628   0.02088   0.02115   0.02120   0.02129
     Eigenvalues ---    0.02133   0.02139   0.02144   0.02149   0.02182
     Eigenvalues ---    0.02720   0.03038   0.03381   0.04752   0.06395
     Eigenvalues ---    0.07362   0.07655   0.07789   0.07898   0.10175
     Eigenvalues ---    0.13387   0.16000   0.16000   0.16000   0.16000
     Eigenvalues ---    0.16000   0.16000   0.16000   0.16000   0.16000
     Eigenvalues ---    0.16000   0.16000   0.17500   0.22000   0.22000
     Eigenvalues ---    0.22044   0.23287   0.23474   0.24102   0.24905
     Eigenvalues ---    0.24977   0.24985   0.25891   0.26532   0.30893
     Eigenvalues ---    0.31681   0.31874   0.33227   0.33725   0.33911
     Eigenvalues ---    0.34122   0.34748   0.34936   0.35034   0.35141
     Eigenvalues ---    0.35167   0.35170   0.35311   0.35578   0.36076
     Eigenvalues ---    0.38539   0.41833   0.41876   0.45638   0.45912
     Eigenvalues ---    0.46246   0.46490   0.72180   0.85160   1.07783
 RFO step:  Lambda=-1.78605599D-01 EMin= 5.72862566D-03
 Linear search not attempted -- first point.
 Maximum step size (   0.050) exceeded in Quadratic search.
    -- Step size scaled by   0.085
 Iteration  1 RMS(Cart)=  0.01167432 RMS(Int)=  0.00005238
 Iteration  2 RMS(Cart)=  0.00008819 RMS(Int)=  0.00000597
 Iteration  3 RMS(Cart)=  0.00000000 RMS(Int)=  0.00000597
 ITry= 1 IFail=0 DXMaxC= 4.99D-02 DCOld= 1.00D+10 DXMaxT= 5.00D-02 DXLimC= 3.00D+00 Rises=F
 Variable       Old X    -DE/DX   Delta X   Delta X   Delta X     New X
                                 (Linear)    (Quad)   (Total)
    R1        2.78047   0.04776   0.00000   0.00757   0.00757   2.78804
    R2        2.11074  -0.00898   0.00000  -0.00153  -0.00153   2.10922
    R3        2.07125  -0.00664   0.00000  -0.00108  -0.00108   2.07017
    R4        2.07796  -0.00141   0.00000  -0.00023  -0.00023   2.07773
    R5        2.77263   0.02646   0.00000   0.00415   0.00415   2.77678
    R6        2.11432  -0.01380   0.00000  -0.00236  -0.00236   2.11196
    R7        2.08655  -0.00563   0.00000  -0.00093  -0.00093   2.08562
    R8        2.22164  -0.04636   0.00000  -0.00884  -0.00884   2.21279
    R9        2.33506   0.13511   0.00000   0.01064   0.01063   2.34569
   R10        2.96574   0.03268   0.00000   0.00495   0.00494   2.97067
   R11        2.70992   0.05712   0.00000   0.00913   0.00913   2.71904
   R12        2.37659   0.07238   0.00000   0.00615   0.00616   2.38275
   R13        2.79080   0.00060   0.00000   0.00010   0.00010   2.79089
   R14        2.23514   0.12956   0.00000   0.00862   0.00864   2.24377
   R15        2.06086  -0.00111   0.00000  -0.00018  -0.00018   2.06068
   R16        2.07480  -0.00347   0.00000  -0.00057  -0.00057   2.07424
   R17        2.86217   0.00032   0.00000   0.00006   0.00006   2.86223
   R18        2.64970   0.00049   0.00000   0.00007   0.00007   2.64977
   R19        2.64247  -0.00097   0.00000  -0.00013  -0.00013   2.64234
   R20        2.63416  -0.00050   0.00000  -0.00006  -0.00006   2.63409
   R21        2.05172   0.00007   0.00000   0.00001   0.00001   2.05173
   R22        2.63986  -0.00079   0.00000  -0.00011  -0.00011   2.63975
   R23        2.05620  -0.00061   0.00000  -0.00010  -0.00010   2.05610
   R24        2.64216  -0.00113   0.00000  -0.00015  -0.00015   2.64201
   R25        2.05446  -0.00016   0.00000  -0.00003  -0.00003   2.05444
   R26        2.63612   0.00016   0.00000   0.00002   0.00002   2.63614
   R27        2.05400  -0.00025   0.00000  -0.00004  -0.00004   2.05396
   R28        2.05404  -0.00027   0.00000  -0.00004  -0.00004   2.05400
    A1        1.93744   0.01382   0.00000   0.00343   0.00343   1.94087
    A2        1.94230  -0.00320   0.00000  -0.00076  -0.00076   1.94154
    A3        1.89639   0.00178   0.00000   0.00044   0.00044   1.89682
    A4        1.92055  -0.00567   0.00000  -0.00140  -0.00140   1.91914
    A5        1.91306  -0.00894   0.00000  -0.00231  -0.00231   1.91075
    A6        1.85189   0.00149   0.00000   0.00043   0.00043   1.85232
    A7        1.90598   0.01018   0.00000   0.00248   0.00248   1.90846
    A8        1.89806   0.00498   0.00000   0.00132   0.00132   1.89938
    A9        1.92704   0.00970   0.00000   0.00241   0.00240   1.92945
   A10        1.90359  -0.00677   0.00000  -0.00166  -0.00166   1.90193
   A11        1.93499  -0.01277   0.00000  -0.00334  -0.00335   1.93165
   A12        1.89364  -0.00531   0.00000  -0.00121  -0.00121   1.89244
   A13        2.64970  -0.06586   0.00000  -0.01238  -0.01237   2.63733
   A14        1.83953   0.04750   0.00000   0.01066   0.01067   1.85020
   A15        1.77951   0.01673   0.00000   0.00142   0.00140   1.78091
   A16        2.65939  -0.06892   0.00000  -0.01367  -0.01366   2.64572
   A17        1.62578   0.12031   0.00000   0.02376   0.02376   1.64954
   A18        1.99736  -0.05153   0.00000  -0.01011  -0.01012   1.98724
   A19        1.70731   0.05976   0.00000   0.01183   0.01184   1.71915
   A20        2.18169  -0.01385   0.00000  -0.00109  -0.00109   2.18060
   A21        2.05449  -0.04144   0.00000  -0.00754  -0.00754   2.04695
   A22        2.18909  -0.09611   0.00000  -0.01903  -0.01901   2.17008
   A23        1.73625   0.07079   0.00000   0.01613   0.01615   1.75240
   A24        1.80746   0.00747   0.00000   0.00226   0.00226   1.80971
   A25        1.90832  -0.00508   0.00000  -0.00159  -0.00159   1.90673
   A26        1.98974  -0.00151   0.00000  -0.00026  -0.00026   1.98948
   A27        1.88388  -0.00221   0.00000  -0.00069  -0.00069   1.88319
   A28        1.93749  -0.00139   0.00000  -0.00018  -0.00018   1.93731
   A29        1.93080   0.00276   0.00000   0.00050   0.00050   1.93130
   A30        2.09824   0.00303   0.00000   0.00060   0.00060   2.09884
   A31        2.10402  -0.00211   0.00000  -0.00042  -0.00042   2.10361
   A32        2.08044  -0.00091   0.00000  -0.00018  -0.00018   2.08025
   A33        2.09741   0.00128   0.00000   0.00027   0.00027   2.09769
   A34        2.07722   0.00196   0.00000   0.00051   0.00051   2.07774
   A35        2.10854  -0.00324   0.00000  -0.00079  -0.00079   2.10776
   A36        2.10537  -0.00000   0.00000  -0.00001  -0.00001   2.10536
   A37        2.08662  -0.00024   0.00000  -0.00006  -0.00006   2.08656
   A38        2.09120   0.00025   0.00000   0.00006   0.00006   2.09126
   A39        2.10055  -0.00096   0.00000  -0.00020  -0.00020   2.10034
   A40        2.08930   0.00053   0.00000   0.00011   0.00011   2.08941
   A41        2.09334   0.00043   0.00000   0.00009   0.00009   2.09343
   A42        2.09302   0.00049   0.00000   0.00010   0.00010   2.09312
   A43        2.09207  -0.00033   0.00000  -0.00007  -0.00007   2.09200
   A44        2.09809  -0.00015   0.00000  -0.00003  -0.00003   2.09806
   A45        2.08956   0.00011   0.00000   0.00002   0.00002   2.08958
   A46        2.09710  -0.00032   0.00000  -0.00008  -0.00008   2.09702
   A47        2.09653   0.00021   0.00000   0.00006   0.00006   2.09658
    D1       -0.47019   0.00078   0.00000   0.00068   0.00068  -0.46951
    D2        2.72217   0.00357   0.00000   0.00113   0.00114   2.72331
    D3       -2.61563   0.00049   0.00000   0.00059   0.00058  -2.61505
    D4        0.57673   0.00328   0.00000   0.00104   0.00104   0.57776
    D5        1.63474  -0.00057   0.00000   0.00023   0.00023   1.63497
    D6       -1.45609   0.00222   0.00000   0.00068   0.00069  -1.45540
    D7       -0.48940   0.00061   0.00000   0.00036   0.00036  -0.48904
    D8        2.90178   0.00052   0.00000   0.00041   0.00041   2.90220
    D9        1.58612   0.00126   0.00000   0.00058   0.00057   1.58670
   D10       -1.30588   0.00116   0.00000   0.00063   0.00063  -1.30525
   D11       -2.62125   0.00357   0.00000   0.00134   0.00134  -2.61991
   D12        0.76993   0.00348   0.00000   0.00139   0.00140   0.77133
   D13        0.22472  -0.00323   0.00000  -0.00024  -0.00025   0.22447
   D14       -2.97255  -0.00462   0.00000  -0.00041  -0.00041  -2.97296
   D15        3.12042  -0.00074   0.00000   0.00037   0.00037   3.12079
   D16       -0.07685  -0.00213   0.00000   0.00020   0.00021  -0.07664
   D17       -3.12862  -0.00610   0.00000  -0.00234  -0.00236  -3.13098
   D18       -0.82462  -0.01453   0.00000  -0.00169  -0.00168  -0.82630
   D19        0.13250   0.00904   0.00000   0.00049   0.00047   0.13297
   D20        2.43651   0.00061   0.00000   0.00115   0.00115   2.43765
   D21        3.10397  -0.00523   0.00000  -0.00053  -0.00052   3.10345
   D22       -0.01178  -0.00101   0.00000   0.00026   0.00027  -0.01150
   D23       -0.18012   0.00494   0.00000   0.00294   0.00292  -0.17720
   D24       -2.56365   0.00071   0.00000  -0.00065  -0.00064  -2.56430
   D25        0.81569  -0.01481   0.00000  -0.00376  -0.00376   0.81193
   D26        2.82039  -0.01578   0.00000  -0.00410  -0.00410   2.81628
   D27       -1.29160  -0.01722   0.00000  -0.00488  -0.00488  -1.29648
   D28        2.97547   0.01870   0.00000   0.00549   0.00548   2.98095
   D29       -1.30302   0.01773   0.00000   0.00514   0.00514  -1.29788
   D30        0.86818   0.01629   0.00000   0.00436   0.00436   0.87253
   D31        0.13907  -0.00703   0.00000  -0.00291  -0.00289   0.13618
   D32        1.17426   0.00463   0.00000   0.00159   0.00159   1.17585
   D33       -1.93357   0.00436   0.00000   0.00147   0.00147  -1.93209
   D34       -0.85878  -0.00294   0.00000  -0.00099  -0.00099  -0.85977
   D35        2.31658  -0.00320   0.00000  -0.00110  -0.00110   2.31547
   D36       -2.94982  -0.00108   0.00000  -0.00033  -0.00033  -2.95015
   D37        0.22554  -0.00134   0.00000  -0.00045  -0.00045   0.22509
   D38       -3.11333  -0.00022   0.00000  -0.00010  -0.00010  -3.11344
   D39        0.02428  -0.00035   0.00000  -0.00016  -0.00016   0.02412
   D40       -0.00505   0.00002   0.00000   0.00001   0.00001  -0.00504
   D41        3.13256  -0.00012   0.00000  -0.00004  -0.00004   3.13252
   D42        3.11505   0.00036   0.00000   0.00014   0.00014   3.11520
   D43       -0.02541   0.00051   0.00000   0.00021   0.00021  -0.02520
   D44        0.00688   0.00003   0.00000   0.00001   0.00001   0.00689
   D45       -3.13358   0.00017   0.00000   0.00008   0.00008  -3.13351
   D46        0.00102  -0.00004   0.00000  -0.00002  -0.00002   0.00100
   D47       -3.13995  -0.00005   0.00000  -0.00002  -0.00002  -3.13997
   D48       -3.13652   0.00008   0.00000   0.00003   0.00003  -3.13649
   D49        0.00569   0.00007   0.00000   0.00003   0.00003   0.00572
   D50       -0.00465  -0.00005   0.00000  -0.00002  -0.00002  -0.00468
[...]

            Population analysis using the SCF density.

 **********************************************************************

 Orbital symmetries:
       Occupied  (A) (A) (A) (A) (A) (A) (A) (A) (A) (A) (A) (A)
                 (A) (A) (A) (A) (A) (A) (A) (A) (A) (A) (A) (A)
                 (A) (A) (A) (A) (A) (A) (A) (A) (A) (A) (A) (A)
                 (A) (A) (A) (A) (A) (A) (A) (A) (A) (A) (A) (A)
                 (A) (A)
       Virtual   (A) (A) (A) (A) (A) (A) (A) (A) (A) (A) (A) (A)
                 (A) (A) (A) (A) (A) (A) (A) (A) (A) (A) (A) (A)
                 (A) (A) (A) (A) (A) (A) (A) (A) (A) (A) (A) (A)
                 (A) (A) (A) (A) (A) (A) (A) (A) (A) (A) (A) (A)
                 (A) (A) (A) (A) (A) (A) (A) (A) (A) (A) (A) (A)
                 (A) (A) (A) (A) (A) (A) (A) (A) (A) (A) (A) (A)
                 (A) (A) (A) (A) (A) (A) (A) (A) (A) (A) (A) (A)
                 (A) (A) (A) (A) (A) (A) (A) (A) (A) (A) (A) (A)
                 (A) (A) (A) (A) (A) (A) (A) (A) (A) (A) (A) (A)
                 (A) (A) (A) (A) (A) (A) (A) (A) (A) (A) (A) (A)
                 (A) (A) (A) (A) (A) (A) (A) (A) (A) (A) (A) (A)
                 (A) (A) (A) (A) (A) (A) (A) (A) (A) (A) (A) (A)
                 (A) (A) (A) (A) (A) (A) (A) (A) (A) (A) (A) (A)
                 (A) (A) (A) (A) (A) (A) (A) (A) (A) (A) (A) (A)
                 (A) (A) (A) (A) (A) (A) (A) (A) (A) (A) (A) (A)
                 (A) (A) (A) (A) (A) (A)
 The electronic state is 1-A.
 Alpha  occ. eigenvalues --  -14.41092 -14.37253 -14.33388 -10.24382 -10.22520
 Alpha  occ. eigenvalues --  -10.20812 -10.20353 -10.20267 -10.20063 -10.19912
 Alpha  occ. eigenvalues --  -10.19788 -10.19733 -10.19514 -10.18316  -1.07941
 Alpha  occ. eigenvalues --   -0.91065  -0.86046  -0.81742  -0.77949  -0.75212
 Alpha  occ. eigenvalues --   -0.73575  -0.70686  -0.69299  -0.61511  -0.60589
 Alpha  occ. eigenvalues --   -0.58903  -0.56711  -0.52565  -0.50401  -0.47986
 Alpha  occ. eigenvalues --   -0.46189  -0.45800  -0.44206  -0.43080  -0.42745
 Alpha  occ. eigenvalues --   -0.42358  -0.41697  -0.40847  -0.39682  -0.39458
 Alpha  occ. eigenvalues --   -0.38388  -0.36471  -0.35590  -0.34958  -0.31299
 Alpha  occ. eigenvalues --   -0.27476  -0.25856  -0.25356  -0.25110  -0.23367
 Alpha virt. eigenvalues --   -0.01469  -0.00922   0.01026   0.06015   0.07919
 Alpha virt. eigenvalues --    0.09246   0.10776   0.12180   0.13401   0.14376
 Alpha virt. eigenvalues --    0.14697   0.15510   0.15696   0.16681   0.17635
 Alpha virt. eigenvalues --    0.18029   0.18757   0.19966   0.20638   0.22154
 Alpha virt. eigenvalues --    0.23902   0.25242   0.27329   0.29368   0.29754
 Alpha virt. eigenvalues --    0.31164   0.31602   0.33140   0.34137   0.41851
 Alpha virt. eigenvalues --    0.44398   0.45882   0.47890   0.48288   0.50089
 Alpha virt. eigenvalues --    0.50904   0.53203   0.53453   0.54512   0.55949
 Alpha virt. eigenvalues --    0.56178   0.58702   0.58791   0.59725   0.60341
 Alpha virt. eigenvalues --    0.60772   0.61106   0.61816   0.62439   0.63316
 Alpha virt. eigenvalues --    0.65248   0.66570   0.67064   0.68276   0.68974
 Alpha virt. eigenvalues --    0.70507   0.73815   0.74635   0.75498   0.75916
 Alpha virt. eigenvalues --    0.76922   0.80045   0.80437   0.81315   0.82953
 Alpha virt. eigenvalues --    0.83547   0.84312   0.85871   0.87039   0.87072
 Alpha virt. eigenvalues --    0.87782   0.89572   0.89925   0.91402   0.92197
 Alpha virt. eigenvalues --    0.93673   0.94679   0.95280   0.95530   0.96247
 Alpha virt. eigenvalues --    0.97910   0.99945   1.00473   1.03083   1.08698
 Alpha virt. eigenvalues --    1.09070   1.12361   1.14549   1.14826   1.16640
 Alpha virt. eigenvalues --    1.20004   1.21501   1.25227   1.27452   1.29444
 Alpha virt. eigenvalues --    1.33962   1.35908   1.38062   1.41778   1.42618
 Alpha virt. eigenvalues --    1.43160   1.45630   1.46777   1.48426   1.49990
 Alpha virt. eigenvalues --    1.50533   1.52449   1.53491   1.57856   1.60547
 Alpha virt. eigenvalues --    1.61266   1.64595   1.75155   1.77977   1.78135
 Alpha virt. eigenvalues --    1.81346   1.81519   1.82935   1.84391   1.88748
 Alpha virt. eigenvalues --    1.90937   1.91266   1.93673   1.95100   1.96761
 Alpha virt. eigenvalues --    1.97054   1.98712   2.01691   2.04616   2.07283
 Alpha virt. eigenvalues --    2.10480   2.12606   2.13604   2.14513   2.14747
 Alpha virt. eigenvalues --    2.19219   2.20290   2.20784   2.22360   2.25375
 Alpha virt. eigenvalues --    2.26129   2.29015   2.30188   2.30495   2.30741
 Alpha virt. eigenvalues --    2.32251   2.34013   2.36821   2.41483   2.43141
 Alpha virt. eigenvalues --    2.48078   2.51105   2.53104   2.55889   2.58106
 Alpha virt. eigenvalues --    2.60025   2.63783   2.64792   2.70718   2.71626
 Alpha virt. eigenvalues --    2.73237   2.73632   2.75427   2.79070   2.83716
 Alpha virt. eigenvalues --    2.83776   2.87227   3.04523   3.07869   3.13004
 Alpha virt. eigenvalues --    3.19557   3.40104   3.65263   4.03510   4.05387
 Alpha virt. eigenvalues --    4.08400   4.11365   4.12764   4.19011   4.22715
 Alpha virt. eigenvalues --    4.30562   4.33658   4.36319   4.43795   4.62659
 Alpha virt. eigenvalues --    4.69391
          Condensed to atoms (all electrons):
               1          2          3          4          5          6
     1  C    5.178544  -0.005971  -0.064768   0.372299   0.006040   0.007089
     2  C   -0.005971   5.203738   0.370083  -0.056686  -0.070347   0.005403
     3  C   -0.064768   0.370083   4.774014   0.533007   0.287727  -0.082642
     4  C    0.372299  -0.056686   0.533007   4.795972  -0.024394  -0.096496
     5  N    0.006040  -0.070347   0.287727  -0.024394   6.907915   0.182654
     6  N    0.007089   0.005403  -0.082642  -0.096496   0.182654   6.774518
     7  N   -0.067201   0.006999  -0.026574   0.348424  -0.119484   0.328350
     8  C   -0.000194  -0.001496  -0.045926   0.006149   0.260160  -0.042384
     9  H   -0.000002   0.001320  -0.003239   0.000058  -0.033397   0.002688
    10  H    0.000002   0.000008   0.005667  -0.000174  -0.040282   0.009973
    11  C    0.000005  -0.001872   0.002826  -0.000262  -0.058155  -0.003468
    12  C    0.000000  -0.001031   0.000198  -0.000025   0.000569  -0.000069
    13  C    0.000001  -0.000266   0.001493  -0.000141  -0.003651  -0.000839
    14  C    0.000000  -0.000043  -0.000025   0.000000  -0.000089   0.000000
    15  H    0.000000   0.000059  -0.000026  -0.000001   0.000160  -0.000000
    16  C   -0.000000   0.000012  -0.000100  -0.000013   0.000040   0.000105
    17  H   -0.000010  -0.000077   0.000440  -0.000082  -0.000835   0.009103
    18  C   -0.000000   0.000010   0.000003   0.000001  -0.000002   0.000001
    19  H   -0.000000  -0.000001   0.000000  -0.000000   0.000001  -0.000000
    20  H    0.000000   0.000000   0.000001  -0.000000   0.000005  -0.000001
    21  H   -0.000000   0.000000  -0.000000   0.000000   0.000000   0.000000
    22  H    0.361088   0.000871  -0.001760  -0.026246   0.000013  -0.000179
    23  H    0.364321   0.000014   0.003333  -0.025498   0.000005  -0.000053
    24  H    0.367000   0.000225  -0.000689  -0.029267   0.000013  -0.000004
    25  H    0.003025   0.365110  -0.024465  -0.004666   0.003262  -0.000104
    26  H    0.000073   0.360218  -0.026648   0.001069  -0.003146   0.000011
    27  H    0.000113   0.359619  -0.025294   0.000616  -0.003191   0.000032
               7          8          9         10         11         12
     1  C   -0.067201  -0.000194  -0.000002   0.000002   0.000005   0.000000
     2  C    0.006999  -0.001496   0.001320   0.000008  -0.001872  -0.001031
     3  C   -0.026574  -0.045926  -0.003239   0.005667   0.002826   0.000198
     4  C    0.348424   0.006149   0.000058  -0.000174  -0.000262  -0.000025
     5  N   -0.119484   0.260160  -0.033397  -0.040282  -0.058155   0.000569
     6  N    0.328350  -0.042384   0.002688   0.009973  -0.003468  -0.000069
     7  N    6.851588   0.006931  -0.000297   0.000011   0.000034   0.000004
     8  C    0.006931   5.117625   0.360271   0.357459   0.333380  -0.046129
     9  H   -0.000297   0.360271   0.572017  -0.028965  -0.044169  -0.004872
    10  H    0.000011   0.357459  -0.028965   0.522859  -0.025400   0.001627
    11  C    0.000034   0.333380  -0.044169  -0.025400   4.714096   0.546611
    12  C    0.000004  -0.046129  -0.004872   0.001627   0.546611   4.968356
    13  C   -0.000202  -0.065514   0.005364  -0.004659   0.538300  -0.047025
    14  C   -0.000000   0.006199   0.000104  -0.000203  -0.020235   0.524981
    15  H   -0.000000  -0.010615   0.007369   0.000190  -0.044940   0.353057
    16  C   -0.000000   0.005722  -0.000113  -0.000034  -0.019106  -0.044794
    17  H    0.000089  -0.009438   0.000103   0.001721  -0.043809   0.005569
    18  C   -0.000000   0.000395  -0.000008   0.000033  -0.035788  -0.036757
    19  H    0.000000  -0.000165  -0.000006   0.000003   0.003867  -0.040206
    20  H   -0.000000  -0.000187   0.000003  -0.000000   0.003650   0.000888
    21  H   -0.000000   0.000008  -0.000000  -0.000000   0.000697   0.004744
    22  H    0.002873  -0.000001  -0.000001   0.000000   0.000001  -0.000000
    23  H    0.001488   0.000002  -0.000000  -0.000000   0.000000  -0.000000
    24  H   -0.000744   0.000003   0.000000  -0.000000  -0.000002   0.000000
    25  H    0.000046   0.000020  -0.000016   0.000004   0.000093   0.000035
    26  H   -0.000131   0.000820   0.002127  -0.000006  -0.000143  -0.000017
    27  H   -0.000120   0.000624  -0.000482   0.000022   0.003653   0.003552
              13         14         15         16         17         18
     1  C    0.000001   0.000000   0.000000  -0.000000  -0.000010  -0.000000
     2  C   -0.000266  -0.000043   0.000059   0.000012  -0.000077   0.000010
     3  C    0.001493  -0.000025  -0.000026  -0.000100   0.000440   0.000003
     4  C   -0.000141   0.000000  -0.000001  -0.000013  -0.000082   0.000001
     5  N   -0.003651  -0.000089   0.000160   0.000040  -0.000835  -0.000002
     6  N   -0.000839   0.000000  -0.000000   0.000105   0.009103   0.000001
     7  N   -0.000202  -0.000000  -0.000000  -0.000000   0.000089  -0.000000
     8  C   -0.065514   0.006199  -0.010615   0.005722  -0.009438   0.000395
     9  H    0.005364   0.000104   0.007369  -0.000113   0.000103  -0.000008
    10  H   -0.004659  -0.000203   0.000190  -0.000034   0.001721   0.000033
    11  C    0.538300  -0.020235  -0.044940  -0.019106  -0.043809  -0.035788
    12  C   -0.047025   0.524981   0.353057  -0.044794   0.005569  -0.036757
    13  C    4.976071  -0.045613   0.006279   0.526194   0.353632  -0.035189
    14  C   -0.045613   4.860458  -0.044507  -0.025730   0.000329   0.553243
    15  H    0.006279  -0.044507   0.607368   0.000319  -0.000160   0.004751
    16  C    0.526194  -0.025730   0.000319   4.862121  -0.038569   0.543874
    17  H    0.353632   0.000329  -0.000160  -0.038569   0.560141   0.004446
    18  C   -0.035189   0.553243   0.004751   0.543874   0.004446   4.853696
    19  H    0.000741   0.357950  -0.005482   0.004597   0.000015  -0.042380
    20  H   -0.039253   0.004513   0.000017   0.358694  -0.004958  -0.042817
    21  H    0.004666  -0.042961  -0.000178  -0.042607  -0.000161   0.359913
    22  H    0.000000  -0.000000  -0.000000  -0.000000   0.000000   0.000000
    23  H    0.000000   0.000000   0.000000  -0.000000  -0.000000   0.000000
    24  H   -0.000001  -0.000000   0.000000   0.000000   0.000003  -0.000000
    25  H    0.000007   0.000001   0.000001  -0.000001   0.000002  -0.000000
    26  H   -0.000006  -0.000001   0.000116  -0.000001  -0.000005   0.000000
    27  H    0.000477   0.000071   0.000013  -0.000046   0.000068  -0.000040
              19         20         21         22         23         24
     1  C   -0.000000   0.000000  -0.000000   0.361088   0.364321   0.367000
     2  C   -0.000001   0.000000   0.000000   0.000871   0.000014   0.000225
     3  C    0.000000   0.000001  -0.000000  -0.001760   0.003333  -0.000689
     4  C   -0.000000  -0.000000   0.000000  -0.026246  -0.025498  -0.029267
     5  N    0.000001   0.000005   0.000000   0.000013   0.000005   0.000013
     6  N   -0.000000  -0.000001   0.000000  -0.000179  -0.000053  -0.000004
     7  N    0.000000  -0.000000  -0.000000   0.002873   0.001488  -0.000744
     8  C   -0.000165  -0.000187   0.000008  -0.000001   0.000002   0.000003
     9  H   -0.000006   0.000003  -0.000000  -0.000001  -0.000000   0.000000
    10  H    0.000003  -0.000000  -0.000000   0.000000  -0.000000  -0.000000
    11  C    0.003867   0.003650   0.000697   0.000001   0.000000  -0.000002
    12  C   -0.040206   0.000888   0.004744  -0.000000  -0.000000   0.000000
    13  C    0.000741  -0.039253   0.004666   0.000000   0.000000  -0.000001
    14  C    0.357950   0.004513  -0.042961  -0.000000   0.000000  -0.000000
    15  H   -0.005482   0.000017  -0.000178  -0.000000   0.000000   0.000000
    16  C    0.004597   0.358694  -0.042607  -0.000000  -0.000000   0.000000
    17  H    0.000015  -0.004958  -0.000161   0.000000  -0.000000   0.000003
    18  C   -0.042380  -0.042817   0.359913   0.000000   0.000000  -0.000000
    19  H    0.592998  -0.000180  -0.005542  -0.000000  -0.000000   0.000000
    20  H   -0.000180   0.586855  -0.005438  -0.000000  -0.000000   0.000000
    21  H   -0.005542  -0.005438   0.592588   0.000000  -0.000000  -0.000000
    22  H   -0.000000  -0.000000   0.000000   0.567140  -0.025066  -0.032682
    23  H   -0.000000  -0.000000  -0.000000  -0.025066   0.533009  -0.028934
    24  H    0.000000   0.000000  -0.000000  -0.032682  -0.028934   0.558801
    25  H   -0.000000   0.000000  -0.000000   0.004133  -0.000106  -0.000142
    26  H    0.000000   0.000000  -0.000000   0.000063   0.000011  -0.000025
    27  H   -0.000001  -0.000001  -0.000000  -0.000119  -0.000005   0.000080
              25         26         27
     1  C    0.003025   0.000073   0.000113
     2  C    0.365110   0.360218   0.359619
     3  C   -0.024465  -0.026648  -0.025294
     4  C   -0.004666   0.001069   0.000616
     5  N    0.003262  -0.003146  -0.003191
     6  N   -0.000104   0.000011   0.000032
     7  N    0.000046  -0.000131  -0.000120
     8  C    0.000020   0.000820   0.000624
     9  H   -0.000016   0.002127  -0.000482
    10  H    0.000004  -0.000006   0.000022
    11  C    0.000093  -0.000143   0.003653
    12  C    0.000035  -0.000017   0.003552
    13  C    0.000007  -0.000006   0.000477
    14  C    0.000001  -0.000001   0.000071
    15  H    0.000001   0.000116   0.000013
    16  C   -0.000001  -0.000001  -0.000046
    17  H    0.000002  -0.000005   0.000068
    18  C   -0.000000   0.000000  -0.000040
    19  H   -0.000000   0.000000  -0.000001
    20  H    0.000000   0.000000  -0.000001
    21  H   -0.000000  -0.000000  -0.000000
    22  H    0.004133   0.000063  -0.000119
    23  H   -0.000106   0.000011  -0.000005
    24  H   -0.000142  -0.000025   0.000080
    25  H    0.531887  -0.026364  -0.024041
    26  H   -0.026364   0.561848  -0.034710
    27  H   -0.024041  -0.034710   0.534073
 Mulliken charges:
               1
     1  C   -0.521455
     2  C   -0.535897
     3  C    0.323365
     4  C    0.206357
     5  N   -0.291592
     6  N   -0.093689
     7  N   -0.332083
     8  C   -0.233718
     9  H    0.164143
    10  H    0.200145
    11  C    0.150135
    12  C   -0.189264
    13  C   -0.170865
    14  C   -0.128443
    15  H    0.126210
    16  C   -0.130564
    17  H    0.162442
    18  C   -0.127384
    19  H    0.133792
    20  H    0.138209
    21  H    0.134270
    22  H    0.149872
    23  H    0.177480
    24  H    0.166365
    25  H    0.172282
    26  H    0.164846
    27  H    0.185038
 Sum of Mulliken charges =  -0.00000
 Mulliken charges with hydrogens summed into heavy atoms:
               1
     1  C   -0.027737
     2  C   -0.013731
     3  C    0.323365
     4  C    0.206357
     5  N   -0.291592
     6  N   -0.093689
     7  N   -0.332083
     8  C    0.130570
    11  C    0.150135
    12  C   -0.063053
    13  C   -0.008423
    14  C    0.005349
    16  C    0.007644
    18  C    0.006887
 Electronic spatial extent (au):  <R**2>=           3057.2777
 Charge=             -0.0000 electrons
 Dipole moment (field-independent basis, Debye):
    X=             -2.6652    Y=             -3.8173    Z=             -0.4744  Tot=              4.6798
 Quadrupole moment (field-independent basis, Debye-Ang):
   XX=            -82.7370   YY=            -83.5637   ZZ=            -78.5009
   XY=             -7.3695   XZ=             -1.6912   YZ=             -3.9887
 Traceless Quadrupole moment (field-independent basis, Debye-Ang):
   XX=             -1.1365   YY=             -1.9632   ZZ=              3.0996
   XY=             -7.3695   XZ=             -1.6912   YZ=             -3.9887
 Octapole moment (field-independent basis, Debye-Ang**2):
  XXX=            -17.4733  YYY=            -13.3957  ZZZ=              4.9251  XYY=            -12.9014
  XXY=            -30.2551  XXZ=            -24.4705  XZZ=             -1.6605  YZZ=              0.3397
  YYZ=             -3.5121  XYZ=              4.3061
 Hexadecapole moment (field-independent basis, Debye-Ang**3):
 XXXX=          -2934.0196 YYYY=           -637.2683 ZZZZ=           -493.4768 XXXY=             -6.7584
 XXXZ=             29.7160 YYYX=            -28.3709 YYYZ=            -14.9555 ZZZX=              1.0601
 ZZZY=             -9.2491 XXYY=           -631.3260 XXZZ=           -572.1357 YYZZ=           -182.9972
 XXYZ=            -19.7367 YYXZ=             -5.3717 ZZXY=            -10.5131
 N-N= 8.482141297290D+02 E-N=-3.067148563886D+03  KE= 5.855853728975D+02
 No NMR shielding tensors so no spin-rotation constants.
 Leave Link  601 at Thu Mar  7 11:58:07 2024, MaxMem=  4294967296 cpu:               4.8 elap:               0.2
 (Enter /share/apps/gaussian/g16/l9999.exe)
 1\1\GINC-NODE108\FOpt\RB3LYP\6-31G(d)\C11H13N3\LIAOYT\07-Mar-2024\0\\#
 p opt=(noeigen,maxstep=5) b3lyp/6-31g(d) em=gd3 optcyc=26\\tmpdir/Subs
 _0_0.gjf\\0,1\C,2.6462964602,-2.414117111,-0.5750975705\C,1.3305708276
 ,0.4276650705,0.6244045843\C,0.9063163512,-0.4754772087,-0.4850906886\
 C,1.4308349529,-1.6495444285,-0.9959550245\N,-0.2006740222,-0.25545442
 81,-1.2495057514\N,-0.363134627,-1.2391744806,-2.1672938535\N,0.625882
 9772,-2.0761671571,-2.0153667805\C,-1.2092172342,0.7847847856,-1.11030
 69036\H,-0.710949738,1.7594247646,-1.0715054551\H,-1.7964855385,0.7440
 763975,-2.0324180845\C,-2.086510153,0.5805423902,0.1107396314\C,-2.321
 9464656,1.627318404,1.006220054\C,-2.6748550992,-0.6690714721,0.344761
 5254\C,-3.1436891229,1.4349869921,2.1197991686\H,-1.8612125417,2.59778
 17415,0.8338222716\C,-3.4913387331,-0.8626926229,1.4575046004\H,-2.481
 1891811,-1.4851436662,-0.3467100892\C,-3.7290727609,0.1893566464,2.347
 2859601\H,-3.3192965674,2.2558367882,2.8099250288\H,-3.9431649078,-1.8
 354915446,1.6316269154\H,-4.3652099771,0.0362364971,3.2148266345\H,3.3
 906971791,-1.7595549528,-0.1092918686\H,3.1063434947,-2.8951079314,-1.
 4433982812\H,2.398593372,-3.2031077758,0.1463872799\H,2.2631609364,0.0
 675754437,1.0665830484\H,1.5000804715,1.4531021891,0.2715314652\H,0.57
 19488367,0.4740334291,1.414964273\\Version=ES64L-G16RevA.03\State=1-A\
 HF=-591.2540163\RMSD=9.079e-09\RMSF=9.359e-06\Dipole=0.0473599,1.21010
 92,1.3868162\Quadrupole=3.9920673,0.9786623,-4.9707296,1.4197645,0.125
 44,-4.6518938\PG=C01 [X(C11H13N3)]\\@


 IF YOU PERCEIVE THAT THERE ARE FOUR POSSIBLE WAYS IN
 WHICH A PROCEDURE CAN GO WRONG AND CIRCUMVENT THESE, 
 THEN A FIFTH WAY WILL DEVELOP.

                              -- MURPHY'S TWELFTH LAW
 Job cpu time:       0 days  2 hours 20 minutes 27.5 seconds.
 Elapsed time:       0 days  0 hours  4 minutes 30.4 seconds.
 File lengths (MBytes):  RWF=     41 Int=      0 D2E=      0 Chk=      6 Scr=      1
 Normal termination of Gaussian 16 at Thu Mar  7 11:58:07 2024.
Thu Mar  7 11:58:07 CST 2024
