 Entering Gaussian System, Link 0=g16
 Initial command:
 /share/apps/gaussian/g16/l1.exe "/tmp/55659.mgr/Gau-107524.inp" -scrdir="/tmp/55659.mgr/"
 Entering Link 1 = /share/apps/gaussian/g16/l1.exe PID=    107527.
  
 Copyright (c) 1988,1990,1992,1993,1995,1998,2003,2009,2016,
            Gaussian, Inc.  All Rights Reserved.
  
 This is part of the Gaussian(R) 16 program.  It is based on
 the Gaussian(R) 09 system (copyright 2009, Gaussian, Inc.),
 the Gaussian(R) 03 system (copyright 2003, Gaussian, Inc.),
 the Gaussian(R) 98 system (copyright 1998, Gaussian, Inc.),
 the Gaussian(R) 94 system (copyright 1995, Gaussian, Inc.),
 the Gaussian 92(TM) system (copyright 1992, Gaussian, Inc.),
 the Gaussian 90(TM) system (copyright 1990, Gaussian, Inc.),
 the Gaussian 88(TM) system (copyright 1988, Gaussian, Inc.),
 the Gaussian 86(TM) system (copyright 1986, Carnegie Mellon
 University), and the Gaussian 82(TM) system (copyright 1983,
 Carnegie Mellon University). Gaussian is a federally registered
 trademark of Gaussian, Inc.
  
 This software contains proprietary and confidential information,
 including trade secrets, belonging to Gaussian, Inc.
  
 This software is provided under written license and may be
 used, copied, transmitted, or stored only in accord with that
 written license.
  
 The following legend is applicable only to US Government
 contracts under FAR:
  
                    RESTRICTED RIGHTS LEGEND
  
 Use, reproduction and disclosure by the US Government is
 subject to restrictions as set forth in subparagraphs (a)
 and (c) of the Commercial Computer Software - Restricted
 Rights clause in FAR 52.227-19.
  
 Gaussian, Inc.
 340 Quinnipiac St., Bldg. 40, Wallingford CT 06492
  
  
 ---------------------------------------------------------------
 Warning -- This program may not be used in any manner that
 competes with the business of Gaussian, Inc. or will provide
 assistance to any competitor of Gaussian, Inc.  The licensee
 of this program is prohibited from giving any competitor of
 Gaussian, Inc. access to this program.  By using this program,
 the user acknowledges that Gaussian, Inc. is engaged in the
 business of creating and licensing software in the field of
 computational chemistry and represents and warrants to the
 licensee that it is not a competitor of Gaussian, Inc. and that
 it will not use this program in any manner prohibited above.
 ---------------------------------------------------------------
  

 Cite this work as:
 Gaussian 16, Revision A.03,
 M. J. Frisch, G. W. Trucks, H. B. Schlegel, G. E. Scuseria, 
 M. A. Robb, J. R. Cheeseman, G. Scalmani, V. Barone, 
 G. A. Petersson, H. Nakatsuji, X. Li, M. Caricato, A. V. Marenich, 
 J. Bloino, B. G. Janesko, R. Gomperts, B. Mennucci, H. P. Hratchian, 
 J. V. Ortiz, A. F. Izmaylov, J. L. Sonnenberg, D. Williams-Young, 
 F. Ding, F. Lipparini, F. Egidi, J. Goings, B. Peng, A. Petrone, 
 T. Henderson, D. Ranasinghe, V. G. Zakrzewski, J. Gao, N. Rega, 
 G. Zheng, W. Liang, M. Hada, M. Ehara, K. Toyota, R. Fukuda, 
 J. Hasegawa, M. Ishida, T. Nakajima, Y. Honda, O. Kitao, H. Nakai, 
 T. Vreven, K. Throssell, J. A. Montgomery, Jr., J. E. Peralta, 
 F. Ogliaro, M. J. Bearpark, J. J. Heyd, E. N. Brothers, K. N. Kudin, 
 V. N. Staroverov, T. A. Keith, R. Kobayashi, J. Normand, 
 K. Raghavachari, A. P. Rendell, J. C. Burant, S. S. Iyengar, 
 J. Tomasi, M. Cossi, J. M. Millam, M. Klene, C. Adamo, R. Cammi, 
 J. W. Ochterski, R. L. Martin, K. Morokuma, O. Farkas, 
 J. B. Foresman, and D. J. Fox, Gaussian, Inc., Wallingford CT, 2016.
 
 ******************************************
 Gaussian 16:  ES64L-G16RevA.03 25-Dec-2016
                22-Sep-2023 
 ******************************************
 %nprocshared=2
 Will use up to    2 processors via shared memory.
 %mem=2GB
 ------------------------------------------------------------------
 # 6-31+g(d) scrf=(solvent=water,pcm) int=ultrafine m062x scf=tight
 ------------------------------------------------------------------
 1/38=1,172=1/1;
 2/12=2,17=6,18=5,40=1/2;
 3/5=1,6=6,7=11,11=2,25=1,30=1,70=2201,72=1,74=-55,75=-5/1,2,3;
 4//1;
 5/5=2,32=2,38=5,53=1/2;
 6/7=2,8=2,9=2,10=2,28=1/1;
 99/5=1,9=1/99;
 -----------------------
 tmpdir/M1_conf_84_1.gjf
 -----------------------
 Symbolic Z-matrix:
 Charge =  0 Multiplicity = 1
 C                    -0.03509   0.       -0.00118 
 H                    -0.10137   0.93272  -0.53509 
 H                    -0.10231  -0.00395   1.07343 
 H                    -0.10138  -0.92875  -0.54195 
 H                     1.37947  0.        -0.00015 
 
                          Input orientation:                          
 ---------------------------------------------------------------------
 Center     Atomic      Atomic             Coordinates (Angstroms)
 Number     Number       Type             X           Y           Z
 ---------------------------------------------------------------------
      1          6           0       -0.035088    0.000003   -0.001175
      2          1           0       -0.101370    0.932719   -0.535092
      3          1           0       -0.102313   -0.003948    1.073428
      4          1           0       -0.101377   -0.928751   -0.541954
      5          1           0        1.379466   -0.000000   -0.000145
 ---------------------------------------------------------------------
                    Distance matrix (angstroms):
                    1          2          3          4          5
     1  C    0.000000
     2  H    1.076763   0.000000
     3  H    1.076711   1.861366   0.000000
     4  H    1.076764   1.861483   1.861376   0.000000
     5  H    1.414554   1.830030   1.829821   1.830036   0.000000
 Stoichiometry    CH4
 Framework group  C1[X(CH4)]
 Deg. of freedom     9
 Full point group                 C1      NOp   1
 Largest Abelian subgroup         C1      NOp   1
 Largest concise Abelian subgroup C1      NOp   1
                         Standard orientation:                         
 ---------------------------------------------------------------------
 Center     Atomic      Atomic             Coordinates (Angstroms)
 Number     Number       Type             X           Y           Z
 ---------------------------------------------------------------------
      1          6           0        0.121476   -0.000011    0.000212
      2          1           0        0.189077   -0.910451   -0.570706
      3          1           0        0.185992   -0.039396    1.074267
      4          1           0        0.189154    0.949782   -0.502513
      5          1           0       -1.293077    0.000134   -0.002320
 ---------------------------------------------------------------------
 Rotational constants (GHZ):         144.7267900         137.2426834         137.2322270
 Standard basis: 6-31+G(d) (6D, 7F)
 There are    27 symmetry adapted cartesian basis functions of A   symmetry.
 There are    27 symmetry adapted basis functions of A   symmetry.
    27 basis functions,    48 primitive gaussians,    27 cartesian basis functions
     5 alpha electrons        5 beta electrons
       nuclear repulsion energy        12.8112285976 Hartrees.
 NAtoms=    5 NActive=    5 NUniq=    5 SFac= 1.00D+00 NAtFMM=   60 NAOKFM=F Big=F
 Integral buffers will be    131072 words long.
 Raffenetti 2 integral format.
 Two-electron integral symmetry is turned on.
 ------------------------------------------------------------------------------
 Polarizable Continuum Model (PCM)
 =================================
 Model                : PCM.
 Atomic radii         : UFF (Universal Force Field).
 Polarization charges : Total charges.
 Charge compensation  : None.
 Solution method      : On-the-fly selection.
 Cavity type          : Scaled VdW (van der Waals Surface) (Alpha=1.100).
 Cavity algorithm     : GePol (No added spheres)
                        Default sphere list used, NSphG=    5.
                        Lebedev-Laikov grids with approx.  5.0 points / Ang**2.
                        Smoothing algorithm: York/Karplus (Gamma=1.0000).
                        Polarization charges: spherical gaussians, with
                                              point-specific exponents (IZeta= 3).
                        Self-potential: point-specific (ISelfS= 7).
                        Self-field    : sphere-specific E.n sum rule (ISelfD= 2).
 Solvent              : Water, Eps=  78.355300 Eps(inf)=   1.777849
 ------------------------------------------------------------------------------
 Spheres list:
 ISph  on   Nord     Re0    Alpha      Xe            Ye            Ze
    1   C      1    1.9255  1.100      0.121476     -0.000011      0.000212
    2   H      2    1.4430  1.100      0.189077     -0.910451     -0.570706
    3   H      3    1.4430  1.100      0.185992     -0.039396      1.074267
    4   H      4    1.4430  1.100      0.189154      0.949782     -0.502513
    5   H      5    1.4430  1.100     -1.293077      0.000134     -0.002320
 ------------------------------------------------------------------------------
 One-electron integrals computed using PRISM.
 NBasis=    27 RedAO= T EigKep=  1.50D-02  NBF=    27
 NBsUse=    27 1.00D-06 EigRej= -1.00D+00 NBFU=    27
 ExpMin= 4.38D-02 ExpMax= 3.05D+03 ExpMxC= 4.57D+02 IAcc=3 IRadAn=         5 AccDes= 0.00D+00
 Harris functional with IExCor= 1009 and IRadAn=       5 diagonalized for initial guess.
 HarFok:  IExCor= 1009 AccDes= 0.00D+00 IRadAn=         5 IDoV= 1 UseB2=F ITyADJ=14
 ICtDFT=  3500011 ScaDFX=  1.000000  1.000000  1.000000  1.000000
 FoFCou: FMM=F IPFlag=           0 FMFlag=      100000 FMFlg1=           0
         NFxFlg=           0 DoJE=T BraDBF=F KetDBF=T FulRan=T
         wScrn=  0.000000 ICntrl=       500 IOpCl=  0 I1Cent=   200000004 NGrid=           0
         NMat0=    1 NMatS0=      1 NMatT0=    0 NMatD0=    1 NMtDS0=    0 NMtDT0=    0
 Petite list used in FoFCou.
 Keep R1 ints in memory in canonical form, NReq=1797948.
 Requested convergence on RMS density matrix=1.00D-08 within 128 cycles.
 Requested convergence on MAX density matrix=1.00D-06.
 Requested convergence on             energy=1.00D-06.
 No special actions if energy rises.
 Inv3:  Mode=1 IEnd=      726192.
 Iteration    1 A*A^-1 deviation from unit magnitude is 2.44D-15 for    466.
 Iteration    1 A*A^-1 deviation from orthogonality  is 1.43D-15 for    338     60.
 Iteration    1 A^-1*A deviation from unit magnitude is 2.44D-15 for    466.
 Iteration    1 A^-1*A deviation from orthogonality  is 1.14D-15 for    353    149.
 Error on total polarization charges =  0.00986
 SCF Done:  E(RM062X) =  -40.4326701698     A.U. after    9 cycles
            NFock=  9  Conv=0.33D-08     -V/T= 2.0137

 **********************************************************************

            Population analysis using the SCF density.

 **********************************************************************

 Orbital symmetries:
       Occupied  (A) (A) (A) (A) (A)
       Virtual   (A) (A) (A) (A) (A) (A) (A) (A) (A) (A) (A) (A)
                 (A) (A) (A) (A) (A) (A) (A) (A) (A) (A)
 The electronic state is 1-A.
 Alpha  occ. eigenvalues --  -10.55579  -0.77832  -0.48457  -0.48456  -0.36979
 Alpha virt. eigenvalues --    0.03214   0.06893   0.06893   0.08093   0.12237
 Alpha virt. eigenvalues --    0.24564   0.24564   0.28697   0.68215   0.68216
 Alpha virt. eigenvalues --    0.73068   0.85949   1.03124   1.03125   1.09064
 Alpha virt. eigenvalues --    1.16925   1.71203   1.71203   2.13664   2.28565
 Alpha virt. eigenvalues --    2.28576   4.20206
          Condensed to atoms (all electrons):
               1          2          3          4          5
     1  C    5.373463   0.370791   0.370787   0.370790   0.346375
     2  H    0.370791   0.454595  -0.017889  -0.017884  -0.028708
     3  H    0.370787  -0.017889   0.454606  -0.017889  -0.028720
     4  H    0.370790  -0.017884  -0.017889   0.454600  -0.028708
     5  H    0.346375  -0.028708  -0.028720  -0.028708   0.624845
 Mulliken charges:
               1
     1  C   -0.832206
     2  H    0.239095
     3  H    0.239104
     4  H    0.239090
     5  H    0.114916
 Sum of Mulliken charges =   0.00000
 Mulliken charges with hydrogens summed into heavy atoms:
               1
     1  C    0.000000
 Electronic spatial extent (au):  <R**2>=             38.7935
 Charge=              0.0000 electrons
 Dipole moment (field-independent basis, Debye):
    X=              0.0159    Y=             -0.0000    Z=              0.0002  Tot=              0.0159
 Quadrupole moment (field-independent basis, Debye-Ang):
   XX=             -9.9470   YY=             -8.3113   ZZ=             -8.3117
   XY=              0.0002   XZ=             -0.0035   YZ=             -0.0000
 Traceless Quadrupole moment (field-independent basis, Debye-Ang):
   XX=             -1.0904   YY=              0.5454   ZZ=              0.5450
   XY=              0.0002   XZ=             -0.0035   YZ=             -0.0000
 Octapole moment (field-independent basis, Debye-Ang**2):
  XXX=              0.4172  YYY=              0.1048  ZZZ=              0.9549  XYY=              0.5536
  XXY=              0.0001  XXZ=             -0.0011  XZZ=              0.5498  YZZ=             -0.1051
  YYZ=             -0.9507  XYZ=              0.0001
 Hexadecapole moment (field-independent basis, Debye-Ang**3):
 XXXX=            -24.0048 YYYY=            -16.0053 ZZZZ=            -16.0039 XXXY=              0.0002
 XXXZ=             -0.0037 YYYX=              0.0158 YYYZ=              0.0001 ZZZX=              0.1264
 ZZZY=             -0.0001 XXYY=             -7.3306 XXZZ=             -7.3315 YYZZ=             -5.3355
 XXYZ=              0.0000 YYXZ=             -0.1411 ZZXY=             -0.0150
 N-N= 1.281122859760D+01 E-N=-1.183425153612D+02  KE= 3.988433187082D+01
 1\1\GINC-NODE85\SP\RM062X\6-31+G(d)\C1H4\YANZ\22-Sep-2023\0\\# 6-31+g(
 d) scrf=(solvent=water,pcm) int=ultrafine m062x scf=tight\\tmpdir/M1_c
 onf_84_1.gjf\\0,1\C,0,-0.03508775,0.00000347,-0.0011751\H,0,-0.1013698
 6,0.93271909,-0.53509232\H,0,-0.10231344,-0.00394795,1.07342797\H,0,-0
 .10137711,-0.92875079,-0.54195364\H,0,1.37946624,-0.00000029,-0.000145
 34\\Version=ES64L-G16RevA.03\State=1-A\HF=-40.4326702\RMSD=3.255e-09\D
 ipole=-0.0062683,0.0000091,0.0000495\Quadrupole=-0.8106543,0.4054648,0
 .4051895,-0.0000024,-0.0004931,0.0000127\PG=C01 [X(C1H4)]\\@


 Ideas are like rabbits. You get a couple and learn
 how to handle them, and pretty soon you have a dozen.
                                    -- John Steinbeck
 Job cpu time:       0 days  0 hours  0 minutes  8.9 seconds.
 Elapsed time:       0 days  0 hours  0 minutes  4.5 seconds.
 File lengths (MBytes):  RWF=     11 Int=      0 D2E=      0 Chk=      1 Scr=      1
 Normal termination of Gaussian 16 at Fri Sep 22 17:08:22 2023.
