 Entering Gaussian System, Link 0=g16
 Initial command:
 /share/apps/gaussian/g16/l1.exe "/tmp/55659.mgr/Gau-108739.inp" -scrdir="/tmp/55659.mgr/"
 Entering Link 1 = /share/apps/gaussian/g16/l1.exe PID=    108740.
  
 Copyright (c) 1988,1990,1992,1993,1995,1998,2003,2009,2016,
            Gaussian, Inc.  All Rights Reserved.
  
 This is part of the Gaussian(R) 16 program.  It is based on
 the Gaussian(R) 09 system (copyright 2009, Gaussian, Inc.),
 the Gaussian(R) 03 system (copyright 2003, Gaussian, Inc.),
 the Gaussian(R) 98 system (copyright 1998, Gaussian, Inc.),
 the Gaussian(R) 94 system (copyright 1995, Gaussian, Inc.),
 the Gaussian 92(TM) system (copyright 1992, Gaussian, Inc.),
 the Gaussian 90(TM) system (copyright 1990, Gaussian, Inc.),
 the Gaussian 88(TM) system (copyright 1988, Gaussian, Inc.),
 the Gaussian 86(TM) system (copyright 1986, Carnegie Mellon
 University), and the Gaussian 82(TM) system (copyright 1983,
 Carnegie Mellon University). Gaussian is a federally registered
 trademark of Gaussian, Inc.
  
 This software contains proprietary and confidential information,
 including trade secrets, belonging to Gaussian, Inc.
  
 This software is provided under written license and may be
 used, copied, transmitted, or stored only in accord with that
 written license.
  
 The following legend is applicable only to US Government
 contracts under FAR:
  
                    RESTRICTED RIGHTS LEGEND
  
 Use, reproduction and disclosure by the US Government is
 subject to restrictions as set forth in subparagraphs (a)
 and (c) of the Commercial Computer Software - Restricted
 Rights clause in FAR 52.227-19.
  
 Gaussian, Inc.
 340 Quinnipiac St., Bldg. 40, Wallingford CT 06492
  
  
 ---------------------------------------------------------------
 Warning -- This program may not be used in any manner that
 competes with the business of Gaussian, Inc. or will provide
 assistance to any competitor of Gaussian, Inc.  The licensee
 of this program is prohibited from giving any competitor of
 Gaussian, Inc. access to this program.  By using this program,
 the user acknowledges that Gaussian, Inc. is engaged in the
 business of creating and licensing software in the field of
 computational chemistry and represents and warrants to the
 licensee that it is not a competitor of Gaussian, Inc. and that
 it will not use this program in any manner prohibited above.
 ---------------------------------------------------------------
  

 Cite this work as:
 Gaussian 16, Revision A.03,
 M. J. Frisch, G. W. Trucks, H. B. Schlegel, G. E. Scuseria, 
 M. A. Robb, J. R. Cheeseman, G. Scalmani, V. Barone, 
 G. A. Petersson, H. Nakatsuji, X. Li, M. Caricato, A. V. Marenich, 
 J. Bloino, B. G. Janesko, R. Gomperts, B. Mennucci, H. P. Hratchian, 
 J. V. Ortiz, A. F. Izmaylov, J. L. Sonnenberg, D. Williams-Young, 
 F. Ding, F. Lipparini, F. Egidi, J. Goings, B. Peng, A. Petrone, 
 T. Henderson, D. Ranasinghe, V. G. Zakrzewski, J. Gao, N. Rega, 
 G. Zheng, W. Liang, M. Hada, M. Ehara, K. Toyota, R. Fukuda, 
 J. Hasegawa, M. Ishida, T. Nakajima, Y. Honda, O. Kitao, H. Nakai, 
 T. Vreven, K. Throssell, J. A. Montgomery, Jr., J. E. Peralta, 
 F. Ogliaro, M. J. Bearpark, J. J. Heyd, E. N. Brothers, K. N. Kudin, 
 V. N. Staroverov, T. A. Keith, R. Kobayashi, J. Normand, 
 K. Raghavachari, A. P. Rendell, J. C. Burant, S. S. Iyengar, 
 J. Tomasi, M. Cossi, J. M. Millam, M. Klene, C. Adamo, R. Cammi, 
 J. W. Ochterski, R. L. Martin, K. Morokuma, O. Farkas, 
 J. B. Foresman, and D. J. Fox, Gaussian, Inc., Wallingford CT, 2016.
 
 ******************************************
 Gaussian 16:  ES64L-G16RevA.03 25-Dec-2016
                22-Sep-2023 
 ******************************************
 %nprocshared=2
 Will use up to    2 processors via shared memory.
 %mem=2GB
 ------------------------------------------------------------------
 # 6-31+g(d) scrf=(solvent=water,pcm) int=ultrafine m062x scf=tight
 ------------------------------------------------------------------
 1/38=1,172=1/1;
 2/12=2,17=6,18=5,40=1/2;
 3/5=1,6=6,7=11,11=2,25=1,30=1,70=2201,72=1,74=-55,75=-5/1,2,3;
 4//1;
 5/5=2,32=2,38=5,53=1/2;
 6/7=2,8=2,9=2,10=2,28=1/1;
 99/5=1,9=1/99;
 ------------------------
 tmpdir/M1_conf_106_1.gjf
 ------------------------
 Symbolic Z-matrix:
 Charge =  0 Multiplicity = 1
 C                    -0.17844   0.       -0.00115 
 H                    -0.09923   0.9326   -0.53488 
 H                    -0.10004  -0.00391   1.07335 
 H                    -0.09923  -0.92866  -0.54167 
 H                     1.34137  0.        -0.00013 
 
                          Input orientation:                          
 ---------------------------------------------------------------------
 Center     Atomic      Atomic             Coordinates (Angstroms)
 Number     Number       Type             X           Y           Z
 ---------------------------------------------------------------------
      1          6           0       -0.178441    0.000005   -0.001149
      2          1           0       -0.099228    0.932597   -0.534877
      3          1           0       -0.100036   -0.003910    1.073352
      4          1           0       -0.099232   -0.928665   -0.541674
      5          1           0        1.341368   -0.000000   -0.000133
 ---------------------------------------------------------------------
                    Distance matrix (angstroms):
                    1          2          3          4          5
     1  C    0.000000
     2  H    1.077436   0.000000
     3  H    1.077365   1.861033   0.000000
     4  H    1.077435   1.861274   1.861042   0.000000
     5  H    1.519809   1.797500   1.797228   1.797502   0.000000
 Stoichiometry    CH4
 Framework group  C1[X(CH4)]
 Deg. of freedom     9
 Full point group                 C1      NOp   1
 Largest Abelian subgroup         C1      NOp   1
 Largest concise Abelian subgroup C1      NOp   1
                         Standard orientation:                         
 ---------------------------------------------------------------------
 Center     Atomic      Atomic             Coordinates (Angstroms)
 Number     Number       Type             X           Y           Z
 ---------------------------------------------------------------------
      1          6           0        0.175663   -0.000003    0.000164
      2          1           0        0.097335   -0.921688   -0.552311
      3          1           0        0.095483   -0.017660    1.074396
      4          1           0        0.097347    0.939334   -0.521736
      5          1           0       -1.344144    0.000030   -0.001331
 ---------------------------------------------------------------------
 Rotational constants (GHZ):         144.7721261         129.7054009         129.6857464
 Standard basis: 6-31+G(d) (6D, 7F)
 There are    27 symmetry adapted cartesian basis functions of A   symmetry.
 There are    27 symmetry adapted basis functions of A   symmetry.
    27 basis functions,    48 primitive gaussians,    27 cartesian basis functions
     5 alpha electrons        5 beta electrons
       nuclear repulsion energy        12.6661581365 Hartrees.
 NAtoms=    5 NActive=    5 NUniq=    5 SFac= 1.00D+00 NAtFMM=   60 NAOKFM=F Big=F
 Integral buffers will be    131072 words long.
 Raffenetti 2 integral format.
 Two-electron integral symmetry is turned on.
 ------------------------------------------------------------------------------
 Polarizable Continuum Model (PCM)
 =================================
 Model                : PCM.
 Atomic radii         : UFF (Universal Force Field).
 Polarization charges : Total charges.
 Charge compensation  : None.
 Solution method      : On-the-fly selection.
 Cavity type          : Scaled VdW (van der Waals Surface) (Alpha=1.100).
 Cavity algorithm     : GePol (No added spheres)
                        Default sphere list used, NSphG=    5.
                        Lebedev-Laikov grids with approx.  5.0 points / Ang**2.
                        Smoothing algorithm: York/Karplus (Gamma=1.0000).
                        Polarization charges: spherical gaussians, with
                                              point-specific exponents (IZeta= 3).
                        Self-potential: point-specific (ISelfS= 7).
                        Self-field    : sphere-specific E.n sum rule (ISelfD= 2).
 Solvent              : Water, Eps=  78.355300 Eps(inf)=   1.777849
 ------------------------------------------------------------------------------
 Spheres list:
 ISph  on   Nord     Re0    Alpha      Xe            Ye            Ze
    1   C      1    1.9255  1.100      0.175663     -0.000003      0.000164
    2   H      2    1.4430  1.100      0.097335     -0.921688     -0.552311
    3   H      3    1.4430  1.100      0.095483     -0.017660      1.074396
    4   H      4    1.4430  1.100      0.097347      0.939334     -0.521736
    5   H      5    1.4430  1.100     -1.344144      0.000030     -0.001331
 ------------------------------------------------------------------------------
 One-electron integrals computed using PRISM.
 NBasis=    27 RedAO= T EigKep=  1.50D-02  NBF=    27
 NBsUse=    27 1.00D-06 EigRej= -1.00D+00 NBFU=    27
 ExpMin= 4.38D-02 ExpMax= 3.05D+03 ExpMxC= 4.57D+02 IAcc=3 IRadAn=         5 AccDes= 0.00D+00
 Harris functional with IExCor= 1009 and IRadAn=       5 diagonalized for initial guess.
 HarFok:  IExCor= 1009 AccDes= 0.00D+00 IRadAn=         5 IDoV= 1 UseB2=F ITyADJ=14
 ICtDFT=  3500011 ScaDFX=  1.000000  1.000000  1.000000  1.000000
 FoFCou: FMM=F IPFlag=           0 FMFlag=      100000 FMFlg1=           0
         NFxFlg=           0 DoJE=T BraDBF=F KetDBF=T FulRan=T
         wScrn=  0.000000 ICntrl=       500 IOpCl=  0 I1Cent=   200000004 NGrid=           0
         NMat0=    1 NMatS0=      1 NMatT0=    0 NMatD0=    1 NMtDS0=    0 NMtDT0=    0
 Petite list used in FoFCou.
 Keep R1 ints in memory in canonical form, NReq=1797948.
 Requested convergence on RMS density matrix=1.00D-08 within 128 cycles.
 Requested convergence on MAX density matrix=1.00D-06.
 Requested convergence on             energy=1.00D-06.
 No special actions if energy rises.
 Inv3:  Mode=1 IEnd=      717363.
 Iteration    1 A*A^-1 deviation from unit magnitude is 2.22D-15 for     27.
 Iteration    1 A*A^-1 deviation from orthogonality  is 1.61D-15 for    348    230.
 Iteration    1 A^-1*A deviation from unit magnitude is 2.22D-15 for     27.
 Iteration    1 A^-1*A deviation from orthogonality  is 1.46D-15 for    487     42.
 Error on total polarization charges =  0.01074
 SCF Done:  E(RM062X) =  -40.4012565351     A.U. after    9 cycles
            NFock=  9  Conv=0.67D-08     -V/T= 2.0137

 **********************************************************************

            Population analysis using the SCF density.

 **********************************************************************

 Orbital symmetries:
       Occupied  (A) (A) (A) (A) (A)
       Virtual   (A) (A) (A) (A) (A) (A) (A) (A) (A) (A) (A) (A)
                 (A) (A) (A) (A) (A) (A) (A) (A) (A) (A)
 The electronic state is 1-A.
 Alpha  occ. eigenvalues --  -10.56546  -0.78214  -0.48958  -0.48956  -0.34923
 Alpha virt. eigenvalues --    0.02043   0.06849   0.06849   0.08391   0.09085
 Alpha virt. eigenvalues --    0.24464   0.24466   0.28149   0.67968   0.67971
 Alpha virt. eigenvalues --    0.73084   0.84739   1.02620   1.02625   1.07987
 Alpha virt. eigenvalues --    1.18284   1.70694   1.70695   2.07955   2.28051
 Alpha virt. eigenvalues --    2.28074   4.18803
          Condensed to atoms (all electrons):
               1          2          3          4          5
     1  C    5.411994   0.368637   0.368629   0.368638   0.321111
     2  H    0.368637   0.449333  -0.020322  -0.020308  -0.028507
     3  H    0.368629  -0.020322   0.449364  -0.020321  -0.028530
     4  H    0.368638  -0.020308  -0.020321   0.449329  -0.028507
     5  H    0.321111  -0.028507  -0.028530  -0.028507   0.678936
 Mulliken charges:
               1
     1  C   -0.839010
     2  H    0.251167
     3  H    0.251179
     4  H    0.251169
     5  H    0.085496
 Sum of Mulliken charges =   0.00000
 Mulliken charges with hydrogens summed into heavy atoms:
               1
     1  C    0.000000
 Electronic spatial extent (au):  <R**2>=             39.8696
 Charge=              0.0000 electrons
 Dipole moment (field-independent basis, Debye):
    X=             -0.1346    Y=              0.0000    Z=              0.0000  Tot=              0.1346
 Quadrupole moment (field-independent basis, Debye-Ang):
   XX=            -10.5461   YY=             -8.3698   ZZ=             -8.3708
   XY=              0.0001   XZ=             -0.0028   YZ=             -0.0000
 Traceless Quadrupole moment (field-independent basis, Debye-Ang):
   XX=             -1.4505   YY=              0.7257   ZZ=              0.7248
   XY=              0.0001   XZ=             -0.0028   YZ=             -0.0000
 Octapole moment (field-independent basis, Debye-Ang**2):
  XXX=              0.8644  YYY=              0.0490  ZZZ=              0.9958  XYY=              0.4076
  XXY=             -0.0000  XXZ=              0.0004  XZZ=              0.4052  YZZ=             -0.0491
  YYZ=             -0.9940  XYZ=              0.0000
 Hexadecapole moment (field-independent basis, Debye-Ang**3):
 XXXX=            -28.1473 YYYY=            -16.1122 ZZZZ=            -16.1121 XXXY=              0.0001
 XXXZ=             -0.0040 YYYX=             -0.0003 YYYZ=             -0.0000 ZZZX=             -0.0187
 ZZZY=             -0.0000 XXYY=             -8.0351 XXZZ=             -8.0347 YYZZ=             -5.3707
 XXYZ=             -0.0000 YYXZ=              0.0077 ZZXY=              0.0006
 N-N= 1.266615813650D+01 E-N=-1.179576628692D+02  KE= 3.985704261913D+01
 1\1\GINC-NODE85\SP\RM062X\6-31+G(d)\C1H4\YANZ\22-Sep-2023\0\\# 6-31+g(
 d) scrf=(solvent=water,pcm) int=ultrafine m062x scf=tight\\tmpdir/M1_c
 onf_106_1.gjf\\0,1\C,0,-0.17844052,0.00000462,-0.00114932\H,0,-0.09922
 817,0.93259685,-0.53487694\H,0,-0.10003581,-0.00391005,1.07335177\H,0,
 -0.09923235,-0.92866453,-0.5416737\H,0,1.34136767,-0.00000042,-0.00013
 297\\Version=ES64L-G16RevA.03\State=1-A\HF=-40.4012565\RMSD=6.661e-09\
 Dipole=0.0529645,-0.0000016,0.0000963\Quadrupole=-1.0784297,0.5395614,
 0.5388683,0.0000093,-0.0006239,0.0000172\PG=C01 [X(C1H4)]\\@


 THERE IS NOTHING NOBLE IN BEING SUPERIOR TO SOME OTHER MAN.
 TRUE NOBILITY IS BEING SUPERIOR TO YOUR FORMER SELF.

                                                   -- HINDU PROVERB
 Job cpu time:       0 days  0 hours  0 minutes  9.4 seconds.
 Elapsed time:       0 days  0 hours  0 minutes  4.8 seconds.
 File lengths (MBytes):  RWF=     11 Int=      0 D2E=      0 Chk=      1 Scr=      1
 Normal termination of Gaussian 16 at Fri Sep 22 17:10:16 2023.
