 Entering Gaussian System, Link 0=g16
 Initial command:
 /share/apps/gaussian/g16/l1.exe "/tmp/55659.mgr/Gau-103570.inp" -scrdir="/tmp/55659.mgr/"
 Entering Link 1 = /share/apps/gaussian/g16/l1.exe PID=    103572.
  
 Copyright (c) 1988,1990,1992,1993,1995,1998,2003,2009,2016,
            Gaussian, Inc.  All Rights Reserved.
  
 This is part of the Gaussian(R) 16 program.  It is based on
 the Gaussian(R) 09 system (copyright 2009, Gaussian, Inc.),
 the Gaussian(R) 03 system (copyright 2003, Gaussian, Inc.),
 the Gaussian(R) 98 system (copyright 1998, Gaussian, Inc.),
 the Gaussian(R) 94 system (copyright 1995, Gaussian, Inc.),
 the Gaussian 92(TM) system (copyright 1992, Gaussian, Inc.),
 the Gaussian 90(TM) system (copyright 1990, Gaussian, Inc.),
 the Gaussian 88(TM) system (copyright 1988, Gaussian, Inc.),
 the Gaussian 86(TM) system (copyright 1986, Carnegie Mellon
 University), and the Gaussian 82(TM) system (copyright 1983,
 Carnegie Mellon University). Gaussian is a federally registered
 trademark of Gaussian, Inc.
  
 This software contains proprietary and confidential information,
 including trade secrets, belonging to Gaussian, Inc.
  
 This software is provided under written license and may be
 used, copied, transmitted, or stored only in accord with that
 written license.
  
 The following legend is applicable only to US Government
 contracts under FAR:
  
                    RESTRICTED RIGHTS LEGEND
  
 Use, reproduction and disclosure by the US Government is
 subject to restrictions as set forth in subparagraphs (a)
 and (c) of the Commercial Computer Software - Restricted
 Rights clause in FAR 52.227-19.
  
 Gaussian, Inc.
 340 Quinnipiac St., Bldg. 40, Wallingford CT 06492
  
  
 ---------------------------------------------------------------
 Warning -- This program may not be used in any manner that
 competes with the business of Gaussian, Inc. or will provide
 assistance to any competitor of Gaussian, Inc.  The licensee
 of this program is prohibited from giving any competitor of
 Gaussian, Inc. access to this program.  By using this program,
 the user acknowledges that Gaussian, Inc. is engaged in the
 business of creating and licensing software in the field of
 computational chemistry and represents and warrants to the
 licensee that it is not a competitor of Gaussian, Inc. and that
 it will not use this program in any manner prohibited above.
 ---------------------------------------------------------------
  

 Cite this work as:
 Gaussian 16, Revision A.03,
 M. J. Frisch, G. W. Trucks, H. B. Schlegel, G. E. Scuseria, 
 M. A. Robb, J. R. Cheeseman, G. Scalmani, V. Barone, 
 G. A. Petersson, H. Nakatsuji, X. Li, M. Caricato, A. V. Marenich, 
 J. Bloino, B. G. Janesko, R. Gomperts, B. Mennucci, H. P. Hratchian, 
 J. V. Ortiz, A. F. Izmaylov, J. L. Sonnenberg, D. Williams-Young, 
 F. Ding, F. Lipparini, F. Egidi, J. Goings, B. Peng, A. Petrone, 
 T. Henderson, D. Ranasinghe, V. G. Zakrzewski, J. Gao, N. Rega, 
 G. Zheng, W. Liang, M. Hada, M. Ehara, K. Toyota, R. Fukuda, 
 J. Hasegawa, M. Ishida, T. Nakajima, Y. Honda, O. Kitao, H. Nakai, 
 T. Vreven, K. Throssell, J. A. Montgomery, Jr., J. E. Peralta, 
 F. Ogliaro, M. J. Bearpark, J. J. Heyd, E. N. Brothers, K. N. Kudin, 
 V. N. Staroverov, T. A. Keith, R. Kobayashi, J. Normand, 
 K. Raghavachari, A. P. Rendell, J. C. Burant, S. S. Iyengar, 
 J. Tomasi, M. Cossi, J. M. Millam, M. Klene, C. Adamo, R. Cammi, 
 J. W. Ochterski, R. L. Martin, K. Morokuma, O. Farkas, 
 J. B. Foresman, and D. J. Fox, Gaussian, Inc., Wallingford CT, 2016.
 
 ******************************************
 Gaussian 16:  ES64L-G16RevA.03 25-Dec-2016
                22-Sep-2023 
 ******************************************
 %nprocshared=2
 Will use up to    2 processors via shared memory.
 %mem=2GB
 ------------------------------------------------------------------
 # 6-31+g(d) scrf=(solvent=water,pcm) int=ultrafine m062x scf=tight
 ------------------------------------------------------------------
 1/38=1,172=1/1;
 2/12=2,17=6,18=5,40=1/2;
 3/5=1,6=6,7=11,11=2,25=1,30=1,70=2201,72=1,74=-55,75=-5/1,2,3;
 4//1;
 5/5=2,32=2,38=5,53=1/2;
 6/7=2,8=2,9=2,10=2,28=1/1;
 99/5=1,9=1/99;
 -----------------------
 tmpdir/M1_conf_12_1.gjf
 -----------------------
 Symbolic Z-matrix:
 Charge =  0 Multiplicity = 1
 C                     0.35282   0.00003  -0.00135 
 H                     0.01607   0.89455  -0.51414 
 H                     0.01414  -0.00358   1.02902 
 H                     0.01605  -0.89085  -0.5204 
 H                     1.51457   0.00001  -0.00015 
 
                          Input orientation:                          
 ---------------------------------------------------------------------
 Center     Atomic      Atomic             Coordinates (Angstroms)
 Number     Number       Type             X           Y           Z
 ---------------------------------------------------------------------
      1          6           0        0.352817    0.000033   -0.001345
      2          1           0        0.016066    0.894549   -0.514142
      3          1           0        0.014141   -0.003584    1.029024
      4          1           0        0.016049   -0.890851   -0.520404
      5          1           0        1.514570    0.000010   -0.000155
 ---------------------------------------------------------------------
                    Distance matrix (angstroms):
                    1          2          3          4          5
     1  C    0.000000
     2  H    1.084675   0.000000
     3  H    1.084608   1.785499   0.000000
     4  H    1.084670   1.785411   1.785490   0.000000
     5  H    1.161753   1.819312   1.819480   1.819301   0.000000
 Stoichiometry    CH4
 Framework group  C1[X(CH4)]
 Deg. of freedom     9
 Full point group                 C1      NOp   1
 Largest Abelian subgroup         C1      NOp   1
 Largest concise Abelian subgroup C1      NOp   1
                         Standard orientation:                         
 ---------------------------------------------------------------------
 Center     Atomic      Atomic             Coordinates (Angstroms)
 Number     Number       Type             X           Y           Z
 ---------------------------------------------------------------------
      1          6           0       -0.014956    0.000016    0.000000
      2          1           0       -0.351343   -0.558484   -0.866857
      3          1           0       -0.354566    1.028898   -0.049413
      4          1           0       -0.351151   -0.472763    0.916494
      5          1           0        1.146795    0.002252   -0.000224
 ---------------------------------------------------------------------
 Rotational constants (GHZ):         157.3000248         152.7139548         152.7046629
 Standard basis: 6-31+G(d) (6D, 7F)
 There are    27 symmetry adapted cartesian basis functions of A   symmetry.
 There are    27 symmetry adapted basis functions of A   symmetry.
    27 basis functions,    48 primitive gaussians,    27 cartesian basis functions
     5 alpha electrons        5 beta electrons
       nuclear repulsion energy        13.2765103023 Hartrees.
 NAtoms=    5 NActive=    5 NUniq=    5 SFac= 1.00D+00 NAtFMM=   60 NAOKFM=F Big=F
 Integral buffers will be    131072 words long.
 Raffenetti 2 integral format.
 Two-electron integral symmetry is turned on.
 ------------------------------------------------------------------------------
 Polarizable Continuum Model (PCM)
 =================================
 Model                : PCM.
 Atomic radii         : UFF (Universal Force Field).
 Polarization charges : Total charges.
 Charge compensation  : None.
 Solution method      : On-the-fly selection.
 Cavity type          : Scaled VdW (van der Waals Surface) (Alpha=1.100).
 Cavity algorithm     : GePol (No added spheres)
                        Default sphere list used, NSphG=    5.
                        Lebedev-Laikov grids with approx.  5.0 points / Ang**2.
                        Smoothing algorithm: York/Karplus (Gamma=1.0000).
                        Polarization charges: spherical gaussians, with
                                              point-specific exponents (IZeta= 3).
                        Self-potential: point-specific (ISelfS= 7).
                        Self-field    : sphere-specific E.n sum rule (ISelfD= 2).
 Solvent              : Water, Eps=  78.355300 Eps(inf)=   1.777849
 ------------------------------------------------------------------------------
 Spheres list:
 ISph  on   Nord     Re0    Alpha      Xe            Ye            Ze
    1   C      1    1.9255  1.100     -0.014956      0.000016      0.000000
    2   H      2    1.4430  1.100     -0.351343     -0.558484     -0.866857
    3   H      3    1.4430  1.100     -0.354566      1.028898     -0.049413
    4   H      4    1.4430  1.100     -0.351151     -0.472763      0.916494
    5   H      5    1.4430  1.100      1.146795      0.002252     -0.000224
 ------------------------------------------------------------------------------
 One-electron integrals computed using PRISM.
 NBasis=    27 RedAO= T EigKep=  1.29D-02  NBF=    27
 NBsUse=    27 1.00D-06 EigRej= -1.00D+00 NBFU=    27
 ExpMin= 4.38D-02 ExpMax= 3.05D+03 ExpMxC= 4.57D+02 IAcc=3 IRadAn=         5 AccDes= 0.00D+00
 Harris functional with IExCor= 1009 and IRadAn=       5 diagonalized for initial guess.
 HarFok:  IExCor= 1009 AccDes= 0.00D+00 IRadAn=         5 IDoV= 1 UseB2=F ITyADJ=14
 ICtDFT=  3500011 ScaDFX=  1.000000  1.000000  1.000000  1.000000
 FoFCou: FMM=F IPFlag=           0 FMFlag=      100000 FMFlg1=           0
         NFxFlg=           0 DoJE=T BraDBF=F KetDBF=T FulRan=T
         wScrn=  0.000000 ICntrl=       500 IOpCl=  0 I1Cent=   200000004 NGrid=           0
         NMat0=    1 NMatS0=      1 NMatT0=    0 NMatD0=    1 NMtDS0=    0 NMtDT0=    0
 Petite list used in FoFCou.
 Keep R1 ints in memory in canonical form, NReq=1797958.
 Requested convergence on RMS density matrix=1.00D-08 within 128 cycles.
 Requested convergence on MAX density matrix=1.00D-06.
 Requested convergence on             energy=1.00D-06.
 No special actions if energy rises.
 Inv3:  Mode=1 IEnd=      732108.
 Iteration    1 A*A^-1 deviation from unit magnitude is 3.11D-15 for    473.
 Iteration    1 A*A^-1 deviation from orthogonality  is 1.35D-15 for    370    272.
 Iteration    1 A^-1*A deviation from unit magnitude is 3.11D-15 for    473.
 Iteration    1 A^-1*A deviation from orthogonality  is 2.04D-15 for    358    320.
 Error on total polarization charges =  0.00835
 SCF Done:  E(RM062X) =  -40.4809381477     A.U. after    9 cycles
            NFock=  9  Conv=0.19D-09     -V/T= 2.0112

 **********************************************************************

            Population analysis using the SCF density.

 **********************************************************************

 Orbital symmetries:
       Occupied  (A) (A) (A) (A) (A)
       Virtual   (A) (A) (A) (A) (A) (A) (A) (A) (A) (A) (A) (A)
                 (A) (A) (A) (A) (A) (A) (A) (A) (A) (A)
 The electronic state is 1-A.
 Alpha  occ. eigenvalues --  -10.53145  -0.78221  -0.46057  -0.46053  -0.44009
 Alpha virt. eigenvalues --    0.03929   0.07146   0.07147   0.07362   0.21073
 Alpha virt. eigenvalues --    0.23436   0.23439   0.30759   0.68899   0.68900
 Alpha virt. eigenvalues --    0.70616   0.96351   1.00702   1.00709   1.10818
 Alpha virt. eigenvalues --    1.17502   1.71068   1.71068   2.27003   2.33762
 Alpha virt. eigenvalues --    2.33763   4.23551
          Condensed to atoms (all electrons):
               1          2          3          4          5
     1  C    5.321706   0.377638   0.377650   0.377640   0.373626
     2  H    0.377638   0.478713  -0.022565  -0.022576  -0.023248
     3  H    0.377650  -0.022565   0.478648  -0.022565  -0.023229
     4  H    0.377640  -0.022576  -0.022565   0.478705  -0.023247
     5  H    0.373626  -0.023248  -0.023229  -0.023247   0.503978
 Mulliken charges:
               1
     1  C   -0.828260
     2  H    0.212037
     3  H    0.212060
     4  H    0.212043
     5  H    0.192119
 Sum of Mulliken charges =  -0.00000
 Mulliken charges with hydrogens summed into heavy atoms:
               1
     1  C   -0.000000
 Electronic spatial extent (au):  <R**2>=             36.3985
 Charge=             -0.0000 electrons
 Dipole moment (field-independent basis, Debye):
    X=             -0.0333    Y=             -0.0002    Z=              0.0001  Tot=              0.0333
 Quadrupole moment (field-independent basis, Debye-Ang):
   XX=             -8.5891   YY=             -8.4716   ZZ=             -8.4722
   XY=             -0.0006   XZ=              0.0001   YZ=             -0.0000
 Traceless Quadrupole moment (field-independent basis, Debye-Ang):
   XX=             -0.0781   YY=              0.0394   ZZ=              0.0388
   XY=             -0.0006   XZ=              0.0001   YZ=             -0.0000
 Octapole moment (field-independent basis, Debye-Ang**2):
  XXX=              0.7391  YYY=              0.6538  ZZZ=              0.0957  XYY=             -0.5370
  XXY=              0.0036  XXZ=             -0.0003  XZZ=             -0.5339  YZZ=             -0.6582
  YYZ=             -0.0952  XYZ=              0.0001
 Hexadecapole moment (field-independent basis, Debye-Ang**3):
 XXXX=            -17.1208 YYYY=            -16.2050 ZZZZ=            -16.2032 XXXY=              0.0010
 XXXZ=             -0.0001 YYYX=             -0.3316 YYYZ=              0.0004 ZZZX=             -0.0473
 ZZZY=             -0.0004 XXYY=             -5.9163 XXZZ=             -5.9193 YYZZ=             -5.3994
 XXYZ=             -0.0001 YYXZ=              0.0477 ZZXY=              0.3273
 N-N= 1.327651030232D+01 E-N=-1.194976799939D+02  KE= 4.003300934499D+01
 1\1\GINC-NODE85\SP\RM062X\6-31+G(d)\C1H4\YANZ\22-Sep-2023\0\\# 6-31+g(
 d) scrf=(solvent=water,pcm) int=ultrafine m062x scf=tight\\tmpdir/M1_c
 onf_12_1.gjf\\0,1\C,0,0.3528168,0.00003319,-0.00134517\H,0,0.01606559,
 0.89454897,-0.51414196\H,0,0.01414122,-0.00358378,1.02902361\H,0,0.016
 04928,-0.89085055,-0.52040436\H,0,1.51456964,0.00000964,-0.00015477\\V
 ersion=ES64L-G16RevA.03\State=1-A\HF=-40.4809381\RMSD=1.916e-10\Dipole
 =-0.0131044,-0.0000151,-0.0000704\Quadrupole=-0.0580885,0.0288272,0.02
 92613,-0.0000114,-0.0004039,-0.0000084\PG=C01 [X(C1H4)]\\@


 Any fool can criticize, condemn, and complain -- and most do.
 -- Dale Carnegie
 Job cpu time:       0 days  0 hours  0 minutes  9.6 seconds.
 Elapsed time:       0 days  0 hours  0 minutes  4.9 seconds.
 File lengths (MBytes):  RWF=     11 Int=      0 D2E=      0 Chk=      1 Scr=      1
 Normal termination of Gaussian 16 at Fri Sep 22 17:02:26 2023.
