 Entering Gaussian System, Link 0=g16
 Initial command:
 /share/apps/gaussian/g16/l1.exe "/tmp/55659.mgr/Gau-105492.inp" -scrdir="/tmp/55659.mgr/"
 Entering Link 1 = /share/apps/gaussian/g16/l1.exe PID=    105494.
  
 Copyright (c) 1988,1990,1992,1993,1995,1998,2003,2009,2016,
            Gaussian, Inc.  All Rights Reserved.
  
 This is part of the Gaussian(R) 16 program.  It is based on
 the Gaussian(R) 09 system (copyright 2009, Gaussian, Inc.),
 the Gaussian(R) 03 system (copyright 2003, Gaussian, Inc.),
 the Gaussian(R) 98 system (copyright 1998, Gaussian, Inc.),
 the Gaussian(R) 94 system (copyright 1995, Gaussian, Inc.),
 the Gaussian 92(TM) system (copyright 1992, Gaussian, Inc.),
 the Gaussian 90(TM) system (copyright 1990, Gaussian, Inc.),
 the Gaussian 88(TM) system (copyright 1988, Gaussian, Inc.),
 the Gaussian 86(TM) system (copyright 1986, Carnegie Mellon
 University), and the Gaussian 82(TM) system (copyright 1983,
 Carnegie Mellon University). Gaussian is a federally registered
 trademark of Gaussian, Inc.
  
 This software contains proprietary and confidential information,
 including trade secrets, belonging to Gaussian, Inc.
  
 This software is provided under written license and may be
 used, copied, transmitted, or stored only in accord with that
 written license.
  
 The following legend is applicable only to US Government
 contracts under FAR:
  
                    RESTRICTED RIGHTS LEGEND
  
 Use, reproduction and disclosure by the US Government is
 subject to restrictions as set forth in subparagraphs (a)
 and (c) of the Commercial Computer Software - Restricted
 Rights clause in FAR 52.227-19.
  
 Gaussian, Inc.
 340 Quinnipiac St., Bldg. 40, Wallingford CT 06492
  
  
 ---------------------------------------------------------------
 Warning -- This program may not be used in any manner that
 competes with the business of Gaussian, Inc. or will provide
 assistance to any competitor of Gaussian, Inc.  The licensee
 of this program is prohibited from giving any competitor of
 Gaussian, Inc. access to this program.  By using this program,
 the user acknowledges that Gaussian, Inc. is engaged in the
 business of creating and licensing software in the field of
 computational chemistry and represents and warrants to the
 licensee that it is not a competitor of Gaussian, Inc. and that
 it will not use this program in any manner prohibited above.
 ---------------------------------------------------------------
  

 Cite this work as:
 Gaussian 16, Revision A.03,
 M. J. Frisch, G. W. Trucks, H. B. Schlegel, G. E. Scuseria, 
 M. A. Robb, J. R. Cheeseman, G. Scalmani, V. Barone, 
 G. A. Petersson, H. Nakatsuji, X. Li, M. Caricato, A. V. Marenich, 
 J. Bloino, B. G. Janesko, R. Gomperts, B. Mennucci, H. P. Hratchian, 
 J. V. Ortiz, A. F. Izmaylov, J. L. Sonnenberg, D. Williams-Young, 
 F. Ding, F. Lipparini, F. Egidi, J. Goings, B. Peng, A. Petrone, 
 T. Henderson, D. Ranasinghe, V. G. Zakrzewski, J. Gao, N. Rega, 
 G. Zheng, W. Liang, M. Hada, M. Ehara, K. Toyota, R. Fukuda, 
 J. Hasegawa, M. Ishida, T. Nakajima, Y. Honda, O. Kitao, H. Nakai, 
 T. Vreven, K. Throssell, J. A. Montgomery, Jr., J. E. Peralta, 
 F. Ogliaro, M. J. Bearpark, J. J. Heyd, E. N. Brothers, K. N. Kudin, 
 V. N. Staroverov, T. A. Keith, R. Kobayashi, J. Normand, 
 K. Raghavachari, A. P. Rendell, J. C. Burant, S. S. Iyengar, 
 J. Tomasi, M. Cossi, J. M. Millam, M. Klene, C. Adamo, R. Cammi, 
 J. W. Ochterski, R. L. Martin, K. Morokuma, O. Farkas, 
 J. B. Foresman, and D. J. Fox, Gaussian, Inc., Wallingford CT, 2016.
 
 ******************************************
 Gaussian 16:  ES64L-G16RevA.03 25-Dec-2016
                22-Sep-2023 
 ******************************************
 %nprocshared=2
 Will use up to    2 processors via shared memory.
 %mem=2GB
 ------------------------------------------------------------------
 # 6-31+g(d) scrf=(solvent=water,pcm) int=ultrafine m062x scf=tight
 ------------------------------------------------------------------
 1/38=1,172=1/1;
 2/12=2,17=6,18=5,40=1/2;
 3/5=1,6=6,7=11,11=2,25=1,30=1,70=2201,72=1,74=-55,75=-5/1,2,3;
 4//1;
 5/5=2,32=2,38=5,53=1/2;
 6/7=2,8=2,9=2,10=2,28=1/1;
 99/5=1,9=1/99;
 -----------------------
 tmpdir/M1_conf_47_1.gjf
 -----------------------
 Symbolic Z-matrix:
 Charge =  0 Multiplicity = 1
 C                     0.19384  0.        -0.00104 
 H                    -0.07433   0.90878  -0.52121 
 H                    -0.07473  -0.00384   1.04588 
 H                    -0.07434  -0.90494  -0.52785 
 H                     1.43823  0.        -0.0001 
 
                          Input orientation:                          
 ---------------------------------------------------------------------
 Center     Atomic      Atomic             Coordinates (Angstroms)
 Number     Number       Type             X           Y           Z
 ---------------------------------------------------------------------
      1          6           0        0.193837   -0.000000   -0.001043
      2          1           0       -0.074330    0.908778   -0.521208
      3          1           0       -0.074731   -0.003840    1.045875
      4          1           0       -0.074343   -0.904941   -0.527849
      5          1           0        1.438230   -0.000002   -0.000096
 ---------------------------------------------------------------------
                    Distance matrix (angstroms):
                    1          2          3          4          5
     1  C    0.000000
     2  H    1.080908   0.000000
     3  H    1.080825   1.813456   0.000000
     4  H    1.080909   1.813731   1.813447   0.000000
     5  H    1.244393   1.839912   1.839326   1.839922   0.000000
 Stoichiometry    CH4
 Framework group  C1[X(CH4)]
 Deg. of freedom     9
 Full point group                 C1      NOp   1
 Largest Abelian subgroup         C1      NOp   1
 Largest concise Abelian subgroup C1      NOp   1
                         Standard orientation:                         
 ---------------------------------------------------------------------
 Center     Atomic      Atomic             Coordinates (Angstroms)
 Number     Number       Type             X           Y           Z
 ---------------------------------------------------------------------
      1          6           0       -0.043947    0.000004    0.000233
      2          1           0       -0.315809    0.913746   -0.509207
      3          1           0       -0.304838   -0.013872    1.049006
      4          1           0       -0.316089   -0.899826   -0.533256
      5          1           0        1.200419   -0.000070   -0.007939
 ---------------------------------------------------------------------
 Rotational constants (GHZ):         152.4670759         147.6401216         147.6105403
 Standard basis: 6-31+G(d) (6D, 7F)
 There are    27 symmetry adapted cartesian basis functions of A   symmetry.
 There are    27 symmetry adapted basis functions of A   symmetry.
    27 basis functions,    48 primitive gaussians,    27 cartesian basis functions
     5 alpha electrons        5 beta electrons
       nuclear repulsion energy        13.1022266318 Hartrees.
 NAtoms=    5 NActive=    5 NUniq=    5 SFac= 1.00D+00 NAtFMM=   60 NAOKFM=F Big=F
 Integral buffers will be    131072 words long.
 Raffenetti 2 integral format.
 Two-electron integral symmetry is turned on.
 ------------------------------------------------------------------------------
 Polarizable Continuum Model (PCM)
 =================================
 Model                : PCM.
 Atomic radii         : UFF (Universal Force Field).
 Polarization charges : Total charges.
 Charge compensation  : None.
 Solution method      : On-the-fly selection.
 Cavity type          : Scaled VdW (van der Waals Surface) (Alpha=1.100).
 Cavity algorithm     : GePol (No added spheres)
                        Default sphere list used, NSphG=    5.
                        Lebedev-Laikov grids with approx.  5.0 points / Ang**2.
                        Smoothing algorithm: York/Karplus (Gamma=1.0000).
                        Polarization charges: spherical gaussians, with
                                              point-specific exponents (IZeta= 3).
                        Self-potential: point-specific (ISelfS= 7).
                        Self-field    : sphere-specific E.n sum rule (ISelfD= 2).
 Solvent              : Water, Eps=  78.355300 Eps(inf)=   1.777849
 ------------------------------------------------------------------------------
 Spheres list:
 ISph  on   Nord     Re0    Alpha      Xe            Ye            Ze
    1   C      1    1.9255  1.100     -0.043947      0.000004      0.000233
    2   H      2    1.4430  1.100     -0.315809      0.913746     -0.509207
    3   H      3    1.4430  1.100     -0.304838     -0.013872      1.049006
    4   H      4    1.4430  1.100     -0.316089     -0.899826     -0.533256
    5   H      5    1.4430  1.100      1.200419     -0.000070     -0.007939
 ------------------------------------------------------------------------------
 One-electron integrals computed using PRISM.
 NBasis=    27 RedAO= T EigKep=  1.37D-02  NBF=    27
 NBsUse=    27 1.00D-06 EigRej= -1.00D+00 NBFU=    27
 ExpMin= 4.38D-02 ExpMax= 3.05D+03 ExpMxC= 4.57D+02 IAcc=3 IRadAn=         5 AccDes= 0.00D+00
 Harris functional with IExCor= 1009 and IRadAn=       5 diagonalized for initial guess.
 HarFok:  IExCor= 1009 AccDes= 0.00D+00 IRadAn=         5 IDoV= 1 UseB2=F ITyADJ=14
 ICtDFT=  3500011 ScaDFX=  1.000000  1.000000  1.000000  1.000000
 FoFCou: FMM=F IPFlag=           0 FMFlag=      100000 FMFlg1=           0
         NFxFlg=           0 DoJE=T BraDBF=F KetDBF=T FulRan=T
         wScrn=  0.000000 ICntrl=       500 IOpCl=  0 I1Cent=   200000004 NGrid=           0
         NMat0=    1 NMatS0=      1 NMatT0=    0 NMatD0=    1 NMtDS0=    0 NMtDT0=    0
 Petite list used in FoFCou.
 Keep R1 ints in memory in canonical form, NReq=1797958.
 Requested convergence on RMS density matrix=1.00D-08 within 128 cycles.
 Requested convergence on MAX density matrix=1.00D-06.
 Requested convergence on             energy=1.00D-06.
 No special actions if energy rises.
 Inv3:  Mode=1 IEnd=      741027.
 Iteration    1 A*A^-1 deviation from unit magnitude is 2.89D-15 for    489.
 Iteration    1 A*A^-1 deviation from orthogonality  is 2.00D-15 for    465    124.
 Iteration    1 A^-1*A deviation from unit magnitude is 2.66D-15 for    489.
 Iteration    1 A^-1*A deviation from orthogonality  is 1.56D-15 for    480    244.
 Error on total polarization charges =  0.00870
 SCF Done:  E(RM062X) =  -40.4711537185     A.U. after    9 cycles
            NFock=  9  Conv=0.90D-09     -V/T= 2.0125

 **********************************************************************

            Population analysis using the SCF density.

 **********************************************************************

 Orbital symmetries:
       Occupied  (A) (A) (A) (A) (A)
       Virtual   (A) (A) (A) (A) (A) (A) (A) (A) (A) (A) (A) (A)
                 (A) (A) (A) (A) (A) (A) (A) (A) (A) (A)
 The electronic state is 1-A.
 Alpha  occ. eigenvalues --  -10.53909  -0.77887  -0.46850  -0.46848  -0.41634
 Alpha virt. eigenvalues --    0.03832   0.07058   0.07058   0.07588   0.18270
 Alpha virt. eigenvalues --    0.23877   0.23878   0.30107   0.68636   0.68639
 Alpha virt. eigenvalues --    0.71782   0.92185   1.01729   1.01733   1.10212
 Alpha virt. eigenvalues --    1.16401   1.71214   1.71215   2.21820   2.32580
 Alpha virt. eigenvalues --    2.32602   4.22324
          Condensed to atoms (all electrons):
               1          2          3          4          5
     1  C    5.330998   0.375607   0.375593   0.375606   0.366684
     2  H    0.375607   0.471417  -0.020301  -0.020286  -0.024926
     3  H    0.375593  -0.020301   0.471491  -0.020302  -0.024973
     4  H    0.375606  -0.020286  -0.020302   0.471420  -0.024925
     5  H    0.366684  -0.024926  -0.024973  -0.024925   0.539119
 Mulliken charges:
               1
     1  C   -0.824487
     2  H    0.218489
     3  H    0.218492
     4  H    0.218487
     5  H    0.169020
 Sum of Mulliken charges =   0.00000
 Mulliken charges with hydrogens summed into heavy atoms:
               1
     1  C    0.000000
 Electronic spatial extent (au):  <R**2>=             37.1283
 Charge=              0.0000 electrons
 Dipole moment (field-independent basis, Debye):
    X=             -0.0469    Y=              0.0000    Z=              0.0007  Tot=              0.0470
 Quadrupole moment (field-independent basis, Debye-Ang):
   XX=             -8.9338   YY=             -8.4120   ZZ=             -8.4132
   XY=              0.0000   XZ=              0.0047   YZ=             -0.0000
 Traceless Quadrupole moment (field-independent basis, Debye-Ang):
   XX=             -0.3475   YY=              0.1743   ZZ=              0.1732
   XY=              0.0000   XZ=              0.0047   YZ=             -0.0000
 Octapole moment (field-independent basis, Debye-Ang**2):
  XXX=              0.4660  YYY=              0.0302  ZZZ=              0.7686  XYY=             -0.5932
  XXY=             -0.0001  XXZ=             -0.0107  XZZ=             -0.5819  YZZ=             -0.0301
  YYZ=             -0.7519  XYZ=             -0.0003
 Hexadecapole moment (field-independent basis, Debye-Ang**3):
 XXXX=            -18.7731 YYYY=            -16.1167 ZZZZ=            -16.1084 XXXY=             -0.0000
 XXXZ=             -0.0010 YYYX=             -0.0117 YYYZ=              0.0000 ZZZX=             -0.2800
 ZZZY=             -0.0002 XXYY=             -6.2936 XXZZ=             -6.3018 YYZZ=             -5.3764
 XXYZ=              0.0002 YYXZ=              0.3049 ZZXY=              0.0119
 N-N= 1.310222663176D+01 E-N=-1.190812092953D+02  KE= 3.996966172407D+01
 1\1\GINC-NODE85\SP\RM062X\6-31+G(d)\C1H4\YANZ\22-Sep-2023\0\\# 6-31+g(
 d) scrf=(solvent=water,pcm) int=ultrafine m062x scf=tight\\tmpdir/M1_c
 onf_47_1.gjf\\0,1\C,0,0.19383716,-0.00000003,-0.00104329\H,0,-0.074329
 73,0.90877803,-0.52120797\H,0,-0.07473143,-0.00384032,1.04587527\H,0,-
 0.07434333,-0.90494096,-0.52784925\H,0,1.43822961,-0.0000023,-0.000095
 79\\Version=ES64L-G16RevA.03\State=1-A\HF=-40.4711537\RMSD=9.037e-10\D
 ipole=-0.0184726,0.0000035,0.0001537\Quadrupole=-0.258372,0.1295924,0.
 1287796,0.0000135,0.0006273,-0.0000088\PG=C01 [X(C1H4)]\\@


 LIFE CAN ONLY BE UNDERSTOOD BACKWARD, BUT MUST
 BE LIVED FORWARD. -- KIRKEGAARD
 Job cpu time:       0 days  0 hours  0 minutes  8.5 seconds.
 Elapsed time:       0 days  0 hours  0 minutes  4.3 seconds.
 File lengths (MBytes):  RWF=     11 Int=      0 D2E=      0 Chk=      1 Scr=      1
 Normal termination of Gaussian 16 at Fri Sep 22 17:05:18 2023.
