 Entering Gaussian System, Link 0=g16
 Initial command:
 /share/apps/gaussian/g16/l1.exe "/tmp/55659.mgr/Gau-109724.inp" -scrdir="/tmp/55659.mgr/"
 Entering Link 1 = /share/apps/gaussian/g16/l1.exe PID=    109725.
  
 Copyright (c) 1988,1990,1992,1993,1995,1998,2003,2009,2016,
            Gaussian, Inc.  All Rights Reserved.
  
 This is part of the Gaussian(R) 16 program.  It is based on
 the Gaussian(R) 09 system (copyright 2009, Gaussian, Inc.),
 the Gaussian(R) 03 system (copyright 2003, Gaussian, Inc.),
 the Gaussian(R) 98 system (copyright 1998, Gaussian, Inc.),
 the Gaussian(R) 94 system (copyright 1995, Gaussian, Inc.),
 the Gaussian 92(TM) system (copyright 1992, Gaussian, Inc.),
 the Gaussian 90(TM) system (copyright 1990, Gaussian, Inc.),
 the Gaussian 88(TM) system (copyright 1988, Gaussian, Inc.),
 the Gaussian 86(TM) system (copyright 1986, Carnegie Mellon
 University), and the Gaussian 82(TM) system (copyright 1983,
 Carnegie Mellon University). Gaussian is a federally registered
 trademark of Gaussian, Inc.
  
 This software contains proprietary and confidential information,
 including trade secrets, belonging to Gaussian, Inc.
  
 This software is provided under written license and may be
 used, copied, transmitted, or stored only in accord with that
 written license.
  
 The following legend is applicable only to US Government
 contracts under FAR:
  
                    RESTRICTED RIGHTS LEGEND
  
 Use, reproduction and disclosure by the US Government is
 subject to restrictions as set forth in subparagraphs (a)
 and (c) of the Commercial Computer Software - Restricted
 Rights clause in FAR 52.227-19.
  
 Gaussian, Inc.
 340 Quinnipiac St., Bldg. 40, Wallingford CT 06492
  
  
 ---------------------------------------------------------------
 Warning -- This program may not be used in any manner that
 competes with the business of Gaussian, Inc. or will provide
 assistance to any competitor of Gaussian, Inc.  The licensee
 of this program is prohibited from giving any competitor of
 Gaussian, Inc. access to this program.  By using this program,
 the user acknowledges that Gaussian, Inc. is engaged in the
 business of creating and licensing software in the field of
 computational chemistry and represents and warrants to the
 licensee that it is not a competitor of Gaussian, Inc. and that
 it will not use this program in any manner prohibited above.
 ---------------------------------------------------------------
  

 Cite this work as:
 Gaussian 16, Revision A.03,
 M. J. Frisch, G. W. Trucks, H. B. Schlegel, G. E. Scuseria, 
 M. A. Robb, J. R. Cheeseman, G. Scalmani, V. Barone, 
 G. A. Petersson, H. Nakatsuji, X. Li, M. Caricato, A. V. Marenich, 
 J. Bloino, B. G. Janesko, R. Gomperts, B. Mennucci, H. P. Hratchian, 
 J. V. Ortiz, A. F. Izmaylov, J. L. Sonnenberg, D. Williams-Young, 
 F. Ding, F. Lipparini, F. Egidi, J. Goings, B. Peng, A. Petrone, 
 T. Henderson, D. Ranasinghe, V. G. Zakrzewski, J. Gao, N. Rega, 
 G. Zheng, W. Liang, M. Hada, M. Ehara, K. Toyota, R. Fukuda, 
 J. Hasegawa, M. Ishida, T. Nakajima, Y. Honda, O. Kitao, H. Nakai, 
 T. Vreven, K. Throssell, J. A. Montgomery, Jr., J. E. Peralta, 
 F. Ogliaro, M. J. Bearpark, J. J. Heyd, E. N. Brothers, K. N. Kudin, 
 V. N. Staroverov, T. A. Keith, R. Kobayashi, J. Normand, 
 K. Raghavachari, A. P. Rendell, J. C. Burant, S. S. Iyengar, 
 J. Tomasi, M. Cossi, J. M. Millam, M. Klene, C. Adamo, R. Cammi, 
 J. W. Ochterski, R. L. Martin, K. Morokuma, O. Farkas, 
 J. B. Foresman, and D. J. Fox, Gaussian, Inc., Wallingford CT, 2016.
 
 ******************************************
 Gaussian 16:  ES64L-G16RevA.03 25-Dec-2016
                22-Sep-2023 
 ******************************************
 %nprocshared=2
 Will use up to    2 processors via shared memory.
 %mem=2GB
 ------------------------------------------------------------------
 # 6-31+g(d) scrf=(solvent=water,pcm) int=ultrafine m062x scf=tight
 ------------------------------------------------------------------
 1/38=1,172=1/1;
 2/12=2,17=6,18=5,40=1/2;
 3/5=1,6=6,7=11,11=2,25=1,30=1,70=2201,72=1,74=-55,75=-5/1,2,3;
 4//1;
 5/5=2,32=2,38=5,53=1/2;
 6/7=2,8=2,9=2,10=2,28=1/1;
 99/5=1,9=1/99;
 ------------------------
 tmpdir/M1_conf_124_1.gjf
 ------------------------
 Symbolic Z-matrix:
 Charge =  0 Multiplicity = 1
 C                    -0.28973   0.00001  -0.00113 
 H                    -0.10426   0.92334  -0.52947 
 H                    -0.10498  -0.00386   1.06275 
 H                    -0.10428  -0.91946  -0.53617 
 H                     1.31108  0.        -0.00013 
 
                          Input orientation:                          
 ---------------------------------------------------------------------
 Center     Atomic      Atomic             Coordinates (Angstroms)
 Number     Number       Type             X           Y           Z
 ---------------------------------------------------------------------
      1          6           0       -0.289729    0.000006   -0.001126
      2          1           0       -0.104257    0.923339   -0.529471
      3          1           0       -0.104981   -0.003864    1.062754
      4          1           0       -0.104277   -0.919464   -0.536172
      5          1           0        1.311081   -0.000000   -0.000130
 ---------------------------------------------------------------------
                    Distance matrix (angstroms):
                    1          2          3          4          5
     1  C    0.000000
     2  H    1.079858   0.000000
     3  H    1.079810   1.842523   0.000000
     4  H    1.079856   1.842815   1.842522   0.000000
     5  H    1.600810   1.770858   1.770585   1.770873   0.000000
 Stoichiometry    CH4
 Framework group  C1[X(CH4)]
 Deg. of freedom     9
 Full point group                 C1      NOp   1
 Largest Abelian subgroup         C1      NOp   1
 Largest concise Abelian subgroup C1      NOp   1
                         Standard orientation:                         
 ---------------------------------------------------------------------
 Center     Atomic      Atomic             Coordinates (Angstroms)
 Number     Number       Type             X           Y           Z
 ---------------------------------------------------------------------
      1          6           0       -0.215648    0.000007    0.000110
      2          1           0       -0.030786    0.921537   -0.531587
      3          1           0       -0.029623   -0.000258    1.063776
      4          1           0       -0.030864   -0.921278   -0.532035
      5          1           0        1.385162   -0.000045   -0.000817
 ---------------------------------------------------------------------
 Rotational constants (GHZ):         147.6931871         123.1946613         123.1728873
 Standard basis: 6-31+G(d) (6D, 7F)
 There are    27 symmetry adapted cartesian basis functions of A   symmetry.
 There are    27 symmetry adapted basis functions of A   symmetry.
    27 basis functions,    48 primitive gaussians,    27 cartesian basis functions
     5 alpha electrons        5 beta electrons
       nuclear repulsion energy        12.5624067987 Hartrees.
 NAtoms=    5 NActive=    5 NUniq=    5 SFac= 1.00D+00 NAtFMM=   60 NAOKFM=F Big=F
 Integral buffers will be    131072 words long.
 Raffenetti 2 integral format.
 Two-electron integral symmetry is turned on.
 ------------------------------------------------------------------------------
 Polarizable Continuum Model (PCM)
 =================================
 Model                : PCM.
 Atomic radii         : UFF (Universal Force Field).
 Polarization charges : Total charges.
 Charge compensation  : None.
 Solution method      : On-the-fly selection.
 Cavity type          : Scaled VdW (van der Waals Surface) (Alpha=1.100).
 Cavity algorithm     : GePol (No added spheres)
                        Default sphere list used, NSphG=    5.
                        Lebedev-Laikov grids with approx.  5.0 points / Ang**2.
                        Smoothing algorithm: York/Karplus (Gamma=1.0000).
                        Polarization charges: spherical gaussians, with
                                              point-specific exponents (IZeta= 3).
                        Self-potential: point-specific (ISelfS= 7).
                        Self-field    : sphere-specific E.n sum rule (ISelfD= 2).
 Solvent              : Water, Eps=  78.355300 Eps(inf)=   1.777849
 ------------------------------------------------------------------------------
 Spheres list:
 ISph  on   Nord     Re0    Alpha      Xe            Ye            Ze
    1   C      1    1.9255  1.100     -0.215648      0.000007      0.000110
    2   H      2    1.4430  1.100     -0.030786      0.921537     -0.531587
    3   H      3    1.4430  1.100     -0.029623     -0.000258      1.063776
    4   H      4    1.4430  1.100     -0.030864     -0.921278     -0.532035
    5   H      5    1.4430  1.100      1.385162     -0.000045     -0.000817
 ------------------------------------------------------------------------------
 One-electron integrals computed using PRISM.
 NBasis=    27 RedAO= T EigKep=  1.47D-02  NBF=    27
 NBsUse=    27 1.00D-06 EigRej= -1.00D+00 NBFU=    27
 ExpMin= 4.38D-02 ExpMax= 3.05D+03 ExpMxC= 4.57D+02 IAcc=3 IRadAn=         5 AccDes= 0.00D+00
 Harris functional with IExCor= 1009 and IRadAn=       5 diagonalized for initial guess.
 HarFok:  IExCor= 1009 AccDes= 0.00D+00 IRadAn=         5 IDoV= 1 UseB2=F ITyADJ=14
 ICtDFT=  3500011 ScaDFX=  1.000000  1.000000  1.000000  1.000000
 FoFCou: FMM=F IPFlag=           0 FMFlag=      100000 FMFlg1=           0
         NFxFlg=           0 DoJE=T BraDBF=F KetDBF=T FulRan=T
         wScrn=  0.000000 ICntrl=       500 IOpCl=  0 I1Cent=   200000004 NGrid=           0
         NMat0=    1 NMatS0=      1 NMatT0=    0 NMatD0=    1 NMtDS0=    0 NMtDT0=    0
 Petite list used in FoFCou.
 Keep R1 ints in memory in canonical form, NReq=1797948.
 Requested convergence on RMS density matrix=1.00D-08 within 128 cycles.
 Requested convergence on MAX density matrix=1.00D-06.
 Requested convergence on             energy=1.00D-06.
 No special actions if energy rises.
 Inv3:  Mode=1 IEnd=      705675.
 Iteration    1 A*A^-1 deviation from unit magnitude is 2.55D-15 for    483.
 Iteration    1 A*A^-1 deviation from orthogonality  is 1.26D-15 for    453    115.
 Iteration    1 A^-1*A deviation from unit magnitude is 2.55D-15 for    483.
 Iteration    1 A^-1*A deviation from orthogonality  is 1.53D-15 for    359    299.
 Error on total polarization charges =  0.01132
 SCF Done:  E(RM062X) =  -40.3770737455     A.U. after    9 cycles
            NFock=  9  Conv=0.45D-08     -V/T= 2.0133

 **********************************************************************

            Population analysis using the SCF density.

 **********************************************************************

 Orbital symmetries:
       Occupied  (A) (A) (A) (A) (A)
       Virtual   (A) (A) (A) (A) (A) (A) (A) (A) (A) (A) (A) (A)
                 (A) (A) (A) (A) (A) (A) (A) (A) (A) (A)
 The electronic state is 1-A.
 Alpha  occ. eigenvalues --  -10.57148  -0.78612  -0.48915  -0.48911  -0.34010
 Alpha virt. eigenvalues --    0.00431   0.06857   0.06857   0.07597   0.08611
 Alpha virt. eigenvalues --    0.24037   0.24041   0.28040   0.67824   0.67826
 Alpha virt. eigenvalues --    0.72758   0.85387   1.01462   1.01470   1.07972
 Alpha virt. eigenvalues --    1.18630   1.70190   1.70192   2.03027   2.29202
 Alpha virt. eigenvalues --    2.29227   4.17855
          Condensed to atoms (all electrons):
               1          2          3          4          5
     1  C    5.442480   0.366943   0.366929   0.366944   0.294001
     2  H    0.366943   0.452068  -0.024472  -0.024447  -0.025862
     3  H    0.366929  -0.024472   0.452140  -0.024472  -0.025876
     4  H    0.366944  -0.024447  -0.024472   0.452066  -0.025862
     5  H    0.294001  -0.025862  -0.025876  -0.025862   0.713593
 Mulliken charges:
               1
     1  C   -0.837298
     2  H    0.255770
     3  H    0.255751
     4  H    0.255771
     5  H    0.070006
 Sum of Mulliken charges =   0.00000
 Mulliken charges with hydrogens summed into heavy atoms:
               1
     1  C    0.000000
 Electronic spatial extent (au):  <R**2>=             40.6723
 Charge=              0.0000 electrons
 Dipole moment (field-independent basis, Debye):
    X=              0.3282    Y=             -0.0000    Z=             -0.0001  Tot=              0.3282
 Quadrupole moment (field-independent basis, Debye-Ang):
   XX=            -10.8171   YY=             -8.5049   ZZ=             -8.5062
   XY=              0.0001   XZ=              0.0021   YZ=              0.0000
 Traceless Quadrupole moment (field-independent basis, Debye-Ang):
   XX=             -1.5411   YY=              0.7712   ZZ=              0.7699
   XY=              0.0001   XZ=              0.0021   YZ=              0.0000
 Octapole moment (field-independent basis, Debye-Ang**2):
  XXX=             -0.9408  YYY=              0.0007  ZZZ=              0.9494  XYY=             -0.2623
  XXY=              0.0000  XXZ=              0.0006  XZZ=             -0.2608  YZZ=             -0.0007
  YYZ=             -0.9489  XYZ=             -0.0000
 Hexadecapole moment (field-independent basis, Debye-Ang**3):
 XXXX=            -31.0980 YYYY=            -16.3183 ZZZZ=            -16.3190 XXXY=              0.0002
 XXXZ=              0.0035 YYYX=              0.0004 YYYZ=              0.0000 ZZZX=              0.1206
 ZZZY=             -0.0000 XXYY=             -8.5067 XXZZ=             -8.5060 YYZZ=             -5.4394
 XXYZ=             -0.0000 YYXZ=             -0.1128 ZZXY=              0.0000
 N-N= 1.256240679870D+01 E-N=-1.176910554949D+02  KE= 3.984530056333D+01
 1\1\GINC-NODE85\SP\RM062X\6-31+G(d)\C1H4\YANZ\22-Sep-2023\0\\# 6-31+g(
 d) scrf=(solvent=water,pcm) int=ultrafine m062x scf=tight\\tmpdir/M1_c
 onf_124_1.gjf\\0,1\C,0,-0.28972865,0.00000553,-0.00112638\H,0,-0.10425
 663,0.92333941,-0.52947139\H,0,-0.10498139,-0.00386383,1.06275445\H,0,
 -0.10427679,-0.91946372,-0.53617184\H,0,1.3110814,-0.00000024,-0.00013
 035\\Version=ES64L-G16RevA.03\State=1-A\HF=-40.3770737\RMSD=4.463e-09\
 Dipole=0.1291139,-0.0000007,0.0001019\Quadrupole=-1.1457462,0.573364,0
 .5723821,0.0000335,-0.0005354,0.0000044\PG=C01 [X(C1H4)]\\@


 GOD DOES NOT PLAY WITH DICE.
               -- A. EINSTEIN
 Job cpu time:       0 days  0 hours  0 minutes  8.9 seconds.
 Elapsed time:       0 days  0 hours  0 minutes  4.5 seconds.
 File lengths (MBytes):  RWF=     11 Int=      0 D2E=      0 Chk=      1 Scr=      1
 Normal termination of Gaussian 16 at Fri Sep 22 17:11:47 2023.
