 Entering Gaussian System, Link 0=g16
 Initial command:
 /share/apps/gaussian/g16/l1.exe "/tmp/55659.mgr/Gau-102966.inp" -scrdir="/tmp/55659.mgr/"
 Entering Link 1 = /share/apps/gaussian/g16/l1.exe PID=    102967.
  
 Copyright (c) 1988,1990,1992,1993,1995,1998,2003,2009,2016,
            Gaussian, Inc.  All Rights Reserved.
  
 This is part of the Gaussian(R) 16 program.  It is based on
 the Gaussian(R) 09 system (copyright 2009, Gaussian, Inc.),
 the Gaussian(R) 03 system (copyright 2003, Gaussian, Inc.),
 the Gaussian(R) 98 system (copyright 1998, Gaussian, Inc.),
 the Gaussian(R) 94 system (copyright 1995, Gaussian, Inc.),
 the Gaussian 92(TM) system (copyright 1992, Gaussian, Inc.),
 the Gaussian 90(TM) system (copyright 1990, Gaussian, Inc.),
 the Gaussian 88(TM) system (copyright 1988, Gaussian, Inc.),
 the Gaussian 86(TM) system (copyright 1986, Carnegie Mellon
 University), and the Gaussian 82(TM) system (copyright 1983,
 Carnegie Mellon University). Gaussian is a federally registered
 trademark of Gaussian, Inc.
  
 This software contains proprietary and confidential information,
 including trade secrets, belonging to Gaussian, Inc.
  
 This software is provided under written license and may be
 used, copied, transmitted, or stored only in accord with that
 written license.
  
 The following legend is applicable only to US Government
 contracts under FAR:
  
                    RESTRICTED RIGHTS LEGEND
  
 Use, reproduction and disclosure by the US Government is
 subject to restrictions as set forth in subparagraphs (a)
 and (c) of the Commercial Computer Software - Restricted
 Rights clause in FAR 52.227-19.
  
 Gaussian, Inc.
 340 Quinnipiac St., Bldg. 40, Wallingford CT 06492
  
  
 ---------------------------------------------------------------
 Warning -- This program may not be used in any manner that
 competes with the business of Gaussian, Inc. or will provide
 assistance to any competitor of Gaussian, Inc.  The licensee
 of this program is prohibited from giving any competitor of
 Gaussian, Inc. access to this program.  By using this program,
 the user acknowledges that Gaussian, Inc. is engaged in the
 business of creating and licensing software in the field of
 computational chemistry and represents and warrants to the
 licensee that it is not a competitor of Gaussian, Inc. and that
 it will not use this program in any manner prohibited above.
 ---------------------------------------------------------------
  

 Cite this work as:
 Gaussian 16, Revision A.03,
 M. J. Frisch, G. W. Trucks, H. B. Schlegel, G. E. Scuseria, 
 M. A. Robb, J. R. Cheeseman, G. Scalmani, V. Barone, 
 G. A. Petersson, H. Nakatsuji, X. Li, M. Caricato, A. V. Marenich, 
 J. Bloino, B. G. Janesko, R. Gomperts, B. Mennucci, H. P. Hratchian, 
 J. V. Ortiz, A. F. Izmaylov, J. L. Sonnenberg, D. Williams-Young, 
 F. Ding, F. Lipparini, F. Egidi, J. Goings, B. Peng, A. Petrone, 
 T. Henderson, D. Ranasinghe, V. G. Zakrzewski, J. Gao, N. Rega, 
 G. Zheng, W. Liang, M. Hada, M. Ehara, K. Toyota, R. Fukuda, 
 J. Hasegawa, M. Ishida, T. Nakajima, Y. Honda, O. Kitao, H. Nakai, 
 T. Vreven, K. Throssell, J. A. Montgomery, Jr., J. E. Peralta, 
 F. Ogliaro, M. J. Bearpark, J. J. Heyd, E. N. Brothers, K. N. Kudin, 
 V. N. Staroverov, T. A. Keith, R. Kobayashi, J. Normand, 
 K. Raghavachari, A. P. Rendell, J. C. Burant, S. S. Iyengar, 
 J. Tomasi, M. Cossi, J. M. Millam, M. Klene, C. Adamo, R. Cammi, 
 J. W. Ochterski, R. L. Martin, K. Morokuma, O. Farkas, 
 J. B. Foresman, and D. J. Fox, Gaussian, Inc., Wallingford CT, 2016.
 
 ******************************************
 Gaussian 16:  ES64L-G16RevA.03 25-Dec-2016
                22-Sep-2023 
 ******************************************
 %nprocshared=2
 Will use up to    2 processors via shared memory.
 %mem=2GB
 ------------------------------------------------------------------
 # 6-31+g(d) scrf=(solvent=water,pcm) int=ultrafine m062x scf=tight
 ------------------------------------------------------------------
 1/38=1,172=1/1;
 2/12=2,17=6,18=5,40=1/2;
 3/5=1,6=6,7=11,11=2,25=1,30=1,70=2201,72=1,74=-55,75=-5/1,2,3;
 4//1;
 5/5=2,32=2,38=5,53=1/2;
 6/7=2,8=2,9=2,10=2,28=1/1;
 99/5=1,9=1/99;
 ----------------------
 tmpdir/M1_conf_1_1.gjf
 ----------------------
 Symbolic Z-matrix:
 Charge =  0 Multiplicity = 1
 C                     0.37811   0.00005  -0.00238 
 H                     0.04016   0.89463  -0.51531 
 H                     0.03711  -0.00356   1.02771 
 H                     0.04011  -0.89089  -0.52156 
 H                     1.54024   0.00002  -0.00046 
 
                          Input orientation:                          
 ---------------------------------------------------------------------
 Center     Atomic      Atomic             Coordinates (Angstroms)
 Number     Number       Type             X           Y           Z
 ---------------------------------------------------------------------
      1          6           0        0.378107    0.000050   -0.002379
      2          1           0        0.040157    0.894629   -0.515306
      3          1           0        0.037112   -0.003558    1.027705
      4          1           0        0.040114   -0.890892   -0.521561
      5          1           0        1.540237    0.000015   -0.000464
 ---------------------------------------------------------------------
                    Distance matrix (angstroms):
                    1          2          3          4          5
     1  C    0.000000
     2  H    1.085161   0.000000
     3  H    1.085065   1.785395   0.000000
     4  H    1.085157   1.785532   1.785384   0.000000
     5  H    1.162132   1.820888   1.821135   1.820886   0.000000
 Stoichiometry    CH4
 Framework group  C1[X(CH4)]
 Deg. of freedom     9
 Full point group                 C1      NOp   1
 Largest Abelian subgroup         C1      NOp   1
 Largest concise Abelian subgroup C1      NOp   1
                         Standard orientation:                         
 ---------------------------------------------------------------------
 Center     Atomic      Atomic             Coordinates (Angstroms)
 Number     Number       Type             X           Y           Z
 ---------------------------------------------------------------------
      1          6           0       -0.014519    0.000001   -0.000019
      2          1           0       -0.351420    0.908329   -0.488908
      3          1           0       -0.357624   -0.031839    1.028879
      4          1           0       -0.351445   -0.876348   -0.544132
      5          1           0        1.147605   -0.000148    0.004274
 ---------------------------------------------------------------------
 Rotational constants (GHZ):         157.3052684         152.5259907         152.5101857
 Standard basis: 6-31+G(d) (6D, 7F)
 There are    27 symmetry adapted cartesian basis functions of A   symmetry.
 There are    27 symmetry adapted basis functions of A   symmetry.
    27 basis functions,    48 primitive gaussians,    27 cartesian basis functions
     5 alpha electrons        5 beta electrons
       nuclear repulsion energy        13.2710072620 Hartrees.
 NAtoms=    5 NActive=    5 NUniq=    5 SFac= 1.00D+00 NAtFMM=   60 NAOKFM=F Big=F
 Integral buffers will be    131072 words long.
 Raffenetti 2 integral format.
 Two-electron integral symmetry is turned on.
 ------------------------------------------------------------------------------
 Polarizable Continuum Model (PCM)
 =================================
 Model                : PCM.
 Atomic radii         : UFF (Universal Force Field).
 Polarization charges : Total charges.
 Charge compensation  : None.
 Solution method      : On-the-fly selection.
 Cavity type          : Scaled VdW (van der Waals Surface) (Alpha=1.100).
 Cavity algorithm     : GePol (No added spheres)
                        Default sphere list used, NSphG=    5.
                        Lebedev-Laikov grids with approx.  5.0 points / Ang**2.
                        Smoothing algorithm: York/Karplus (Gamma=1.0000).
                        Polarization charges: spherical gaussians, with
                                              point-specific exponents (IZeta= 3).
                        Self-potential: point-specific (ISelfS= 7).
                        Self-field    : sphere-specific E.n sum rule (ISelfD= 2).
 Solvent              : Water, Eps=  78.355300 Eps(inf)=   1.777849
 ------------------------------------------------------------------------------
 Spheres list:
 ISph  on   Nord     Re0    Alpha      Xe            Ye            Ze
    1   C      1    1.9255  1.100     -0.014519      0.000001     -0.000019
    2   H      2    1.4430  1.100     -0.351420      0.908329     -0.488908
    3   H      3    1.4430  1.100     -0.357624     -0.031839      1.028879
    4   H      4    1.4430  1.100     -0.351445     -0.876348     -0.544132
    5   H      5    1.4430  1.100      1.147605     -0.000148      0.004274
 ------------------------------------------------------------------------------
 One-electron integrals computed using PRISM.
 NBasis=    27 RedAO= T EigKep=  1.29D-02  NBF=    27
 NBsUse=    27 1.00D-06 EigRej= -1.00D+00 NBFU=    27
 ExpMin= 4.38D-02 ExpMax= 3.05D+03 ExpMxC= 4.57D+02 IAcc=3 IRadAn=         5 AccDes= 0.00D+00
 Harris functional with IExCor= 1009 and IRadAn=       5 diagonalized for initial guess.
 HarFok:  IExCor= 1009 AccDes= 0.00D+00 IRadAn=         5 IDoV= 1 UseB2=F ITyADJ=14
 ICtDFT=  3500011 ScaDFX=  1.000000  1.000000  1.000000  1.000000
 FoFCou: FMM=F IPFlag=           0 FMFlag=      100000 FMFlg1=           0
         NFxFlg=           0 DoJE=T BraDBF=F KetDBF=T FulRan=T
         wScrn=  0.000000 ICntrl=       500 IOpCl=  0 I1Cent=   200000004 NGrid=           0
         NMat0=    1 NMatS0=      1 NMatT0=    0 NMatD0=    1 NMtDS0=    0 NMtDT0=    0
 Petite list used in FoFCou.
 Keep R1 ints in memory in canonical form, NReq=1797958.
 Requested convergence on RMS density matrix=1.00D-08 within 128 cycles.
 Requested convergence on MAX density matrix=1.00D-06.
 Requested convergence on             energy=1.00D-06.
 No special actions if energy rises.
 Inv3:  Mode=1 IEnd=      732108.
 Iteration    1 A*A^-1 deviation from unit magnitude is 2.22D-15 for    251.
 Iteration    1 A*A^-1 deviation from orthogonality  is 1.50D-15 for    407    131.
 Iteration    1 A^-1*A deviation from unit magnitude is 1.89D-15 for    490.
 Iteration    1 A^-1*A deviation from orthogonality  is 1.01D-15 for    364    310.
 Error on total polarization charges =  0.00835
 SCF Done:  E(RM062X) =  -40.4809350195     A.U. after    9 cycles
            NFock=  9  Conv=0.19D-09     -V/T= 2.0112

 **********************************************************************

            Population analysis using the SCF density.

 **********************************************************************

 Orbital symmetries:
       Occupied  (A) (A) (A) (A) (A)
       Virtual   (A) (A) (A) (A) (A) (A) (A) (A) (A) (A) (A) (A)
                 (A) (A) (A) (A) (A) (A) (A) (A) (A) (A)
 The electronic state is 1-A.
 Alpha  occ. eigenvalues --  -10.53163  -0.78206  -0.46033  -0.46032  -0.44027
 Alpha virt. eigenvalues --    0.03928   0.07148   0.07148   0.07361   0.21072
 Alpha virt. eigenvalues --    0.23414   0.23414   0.30745   0.68909   0.68911
 Alpha virt. eigenvalues --    0.70623   0.96370   1.00651   1.00653   1.10786
 Alpha virt. eigenvalues --    1.17462   1.71072   1.71074   2.26894   2.33716
 Alpha virt. eigenvalues --    2.33726   4.23510
          Condensed to atoms (all electrons):
               1          2          3          4          5
     1  C    5.321836   0.377555   0.377565   0.377554   0.373584
     2  H    0.377555   0.478898  -0.022631  -0.022620  -0.023165
     3  H    0.377565  -0.022631   0.478849  -0.022632  -0.023136
     4  H    0.377554  -0.022620  -0.022632   0.478902  -0.023165
     5  H    0.373584  -0.023165  -0.023136  -0.023165   0.503697
 Mulliken charges:
               1
     1  C   -0.828094
     2  H    0.211963
     3  H    0.211984
     4  H    0.211962
     5  H    0.192185
 Sum of Mulliken charges =   0.00000
 Mulliken charges with hydrogens summed into heavy atoms:
               1
     1  C    0.000000
 Electronic spatial extent (au):  <R**2>=             36.4160
 Charge=              0.0000 electrons
 Dipole moment (field-independent basis, Debye):
    X=             -0.0351    Y=              0.0000    Z=             -0.0002  Tot=              0.0351
 Quadrupole moment (field-independent basis, Debye-Ang):
   XX=             -8.5844   YY=             -8.4759   ZZ=             -8.4762
   XY=              0.0000   XZ=             -0.0012   YZ=             -0.0000
 Traceless Quadrupole moment (field-independent basis, Debye-Ang):
   XX=             -0.0722   YY=              0.0363   ZZ=              0.0360
   XY=              0.0000   XZ=             -0.0012   YZ=             -0.0000
 Octapole moment (field-independent basis, Debye-Ang**2):
  XXX=              0.7410  YYY=              0.0617  ZZZ=              0.6541  XYY=             -0.5356
  XXY=             -0.0002  XXZ=              0.0070  XZZ=             -0.5409  YZZ=             -0.0614
  YYZ=             -0.6623  XYZ=              0.0002
 Hexadecapole moment (field-independent basis, Debye-Ang**3):
 XXXX=            -17.1286 YYYY=            -16.2165 ZZZZ=            -16.2205 XXXY=             -0.0001
 XXXZ=              0.0021 YYYX=             -0.0306 YYYZ=             -0.0003 ZZZX=             -0.3376
 ZZZY=              0.0004 XXYY=             -5.9236 XXZZ=             -5.9179 YYZZ=             -5.4027
 XXYZ=             -0.0002 YYXZ=              0.3296 ZZXY=              0.0309
 N-N= 1.327100726195D+01 E-N=-1.194850360207D+02  KE= 4.003063477402D+01
 1\1\GINC-NODE85\SP\RM062X\6-31+G(d)\C1H4\YANZ\22-Sep-2023\0\\# 6-31+g(
 d) scrf=(solvent=water,pcm) int=ultrafine m062x scf=tight\\tmpdir/M1_c
 onf_1_1.gjf\\0,1\C,0,0.37810657,0.00004974,-0.00237929\H,0,0.04015741,
 0.89462888,-0.51530589\H,0,0.03711167,-0.00355847,1.02770543\H,0,0.040
 11415,-0.89089183,-0.5215614\H,0,1.54023713,0.00001534,-0.00046418\\Ve
 rsion=ES64L-G16RevA.03\State=1-A\HF=-40.480935\RMSD=1.928e-10\Dipole=-
 0.0138187,0.0000058,-0.0000563\Quadrupole=-0.0537019,0.026957,0.026744
 9,0.0000124,-0.000695,-0.0000088\PG=C01 [X(C1H4)]\\@


 In the race for quality, there is no finish line.
                               -- David T. Kearns
 Job cpu time:       0 days  0 hours  0 minutes  9.5 seconds.
 Elapsed time:       0 days  0 hours  0 minutes  4.8 seconds.
 File lengths (MBytes):  RWF=     11 Int=      0 D2E=      0 Chk=      1 Scr=      1
 Normal termination of Gaussian 16 at Fri Sep 22 17:01:32 2023.
