 Entering Gaussian System, Link 0=g16
 Initial command:
 /share/apps/gaussian/g16/l1.exe "/tmp/55659.mgr/Gau-108851.inp" -scrdir="/tmp/55659.mgr/"
 Entering Link 1 = /share/apps/gaussian/g16/l1.exe PID=    108854.
  
 Copyright (c) 1988,1990,1992,1993,1995,1998,2003,2009,2016,
            Gaussian, Inc.  All Rights Reserved.
  
 This is part of the Gaussian(R) 16 program.  It is based on
 the Gaussian(R) 09 system (copyright 2009, Gaussian, Inc.),
 the Gaussian(R) 03 system (copyright 2003, Gaussian, Inc.),
 the Gaussian(R) 98 system (copyright 1998, Gaussian, Inc.),
 the Gaussian(R) 94 system (copyright 1995, Gaussian, Inc.),
 the Gaussian 92(TM) system (copyright 1992, Gaussian, Inc.),
 the Gaussian 90(TM) system (copyright 1990, Gaussian, Inc.),
 the Gaussian 88(TM) system (copyright 1988, Gaussian, Inc.),
 the Gaussian 86(TM) system (copyright 1986, Carnegie Mellon
 University), and the Gaussian 82(TM) system (copyright 1983,
 Carnegie Mellon University). Gaussian is a federally registered
 trademark of Gaussian, Inc.
  
 This software contains proprietary and confidential information,
 including trade secrets, belonging to Gaussian, Inc.
  
 This software is provided under written license and may be
 used, copied, transmitted, or stored only in accord with that
 written license.
  
 The following legend is applicable only to US Government
 contracts under FAR:
  
                    RESTRICTED RIGHTS LEGEND
  
 Use, reproduction and disclosure by the US Government is
 subject to restrictions as set forth in subparagraphs (a)
 and (c) of the Commercial Computer Software - Restricted
 Rights clause in FAR 52.227-19.
  
 Gaussian, Inc.
 340 Quinnipiac St., Bldg. 40, Wallingford CT 06492
  
  
 ---------------------------------------------------------------
 Warning -- This program may not be used in any manner that
 competes with the business of Gaussian, Inc. or will provide
 assistance to any competitor of Gaussian, Inc.  The licensee
 of this program is prohibited from giving any competitor of
 Gaussian, Inc. access to this program.  By using this program,
 the user acknowledges that Gaussian, Inc. is engaged in the
 business of creating and licensing software in the field of
 computational chemistry and represents and warrants to the
 licensee that it is not a competitor of Gaussian, Inc. and that
 it will not use this program in any manner prohibited above.
 ---------------------------------------------------------------
  

 Cite this work as:
 Gaussian 16, Revision A.03,
 M. J. Frisch, G. W. Trucks, H. B. Schlegel, G. E. Scuseria, 
 M. A. Robb, J. R. Cheeseman, G. Scalmani, V. Barone, 
 G. A. Petersson, H. Nakatsuji, X. Li, M. Caricato, A. V. Marenich, 
 J. Bloino, B. G. Janesko, R. Gomperts, B. Mennucci, H. P. Hratchian, 
 J. V. Ortiz, A. F. Izmaylov, J. L. Sonnenberg, D. Williams-Young, 
 F. Ding, F. Lipparini, F. Egidi, J. Goings, B. Peng, A. Petrone, 
 T. Henderson, D. Ranasinghe, V. G. Zakrzewski, J. Gao, N. Rega, 
 G. Zheng, W. Liang, M. Hada, M. Ehara, K. Toyota, R. Fukuda, 
 J. Hasegawa, M. Ishida, T. Nakajima, Y. Honda, O. Kitao, H. Nakai, 
 T. Vreven, K. Throssell, J. A. Montgomery, Jr., J. E. Peralta, 
 F. Ogliaro, M. J. Bearpark, J. J. Heyd, E. N. Brothers, K. N. Kudin, 
 V. N. Staroverov, T. A. Keith, R. Kobayashi, J. Normand, 
 K. Raghavachari, A. P. Rendell, J. C. Burant, S. S. Iyengar, 
 J. Tomasi, M. Cossi, J. M. Millam, M. Klene, C. Adamo, R. Cammi, 
 J. W. Ochterski, R. L. Martin, K. Morokuma, O. Farkas, 
 J. B. Foresman, and D. J. Fox, Gaussian, Inc., Wallingford CT, 2016.
 
 ******************************************
 Gaussian 16:  ES64L-G16RevA.03 25-Dec-2016
                22-Sep-2023 
 ******************************************
 %nprocshared=2
 Will use up to    2 processors via shared memory.
 %mem=2GB
 ------------------------------------------------------------------
 # 6-31+g(d) scrf=(solvent=water,pcm) int=ultrafine m062x scf=tight
 ------------------------------------------------------------------
 1/38=1,172=1/1;
 2/12=2,17=6,18=5,40=1/2;
 3/5=1,6=6,7=11,11=2,25=1,30=1,70=2201,72=1,74=-55,75=-5/1,2,3;
 4//1;
 5/5=2,32=2,38=5,53=1/2;
 6/7=2,8=2,9=2,10=2,28=1/1;
 99/5=1,9=1/99;
 ------------------------
 tmpdir/M1_conf_108_1.gjf
 ------------------------
 Symbolic Z-matrix:
 Charge =  0 Multiplicity = 1
 C                    -0.19087   0.       -0.00115 
 H                    -0.09921   0.9319   -0.53447 
 H                    -0.09999  -0.00391   1.07256 
 H                    -0.09921  -0.92797  -0.54126 
 H                     1.33802  0.        -0.00013 
 
                          Input orientation:                          
 ---------------------------------------------------------------------
 Center     Atomic      Atomic             Coordinates (Angstroms)
 Number     Number       Type             X           Y           Z
 ---------------------------------------------------------------------
      1          6           0       -0.190871    0.000005   -0.001146
      2          1           0       -0.099206    0.931902   -0.534468
      3          1           0       -0.099993   -0.003906    1.072556
      4          1           0       -0.099211   -0.927974   -0.541255
      5          1           0        1.338019   -0.000000   -0.000132
 ---------------------------------------------------------------------
                    Distance matrix (angstroms):
                    1          2          3          4          5
     1  C    0.000000
     2  H    1.077621   0.000000
     3  H    1.077548   1.859641   0.000000
     4  H    1.077620   1.859888   1.859648   0.000000
     5  H    1.528890   1.794317   1.794033   1.794319   0.000000
 Stoichiometry    CH4
 Framework group  C1[X(CH4)]
 Deg. of freedom     9
 Full point group                 C1      NOp   1
 Largest Abelian subgroup         C1      NOp   1
 Largest concise Abelian subgroup C1      NOp   1
                         Standard orientation:                         
 ---------------------------------------------------------------------
 Center     Atomic      Atomic             Coordinates (Angstroms)
 Number     Number       Type             X           Y           Z
 ---------------------------------------------------------------------
      1          6           0        0.180309   -0.000003    0.000164
      2          1           0        0.089510   -0.922691   -0.549079
      3          1           0        0.087690   -0.014352    1.073629
      4          1           0        0.089526    0.937031   -0.524232
      5          1           0       -1.348580    0.000027   -0.001303
 ---------------------------------------------------------------------
 Rotational constants (GHZ):         144.9887500         129.0027006         128.9826065
 Standard basis: 6-31+G(d) (6D, 7F)
 There are    27 symmetry adapted cartesian basis functions of A   symmetry.
 There are    27 symmetry adapted basis functions of A   symmetry.
    27 basis functions,    48 primitive gaussians,    27 cartesian basis functions
     5 alpha electrons        5 beta electrons
       nuclear repulsion energy        12.6544434223 Hartrees.
 NAtoms=    5 NActive=    5 NUniq=    5 SFac= 1.00D+00 NAtFMM=   60 NAOKFM=F Big=F
 Integral buffers will be    131072 words long.
 Raffenetti 2 integral format.
 Two-electron integral symmetry is turned on.
 ------------------------------------------------------------------------------
 Polarizable Continuum Model (PCM)
 =================================
 Model                : PCM.
 Atomic radii         : UFF (Universal Force Field).
 Polarization charges : Total charges.
 Charge compensation  : None.
 Solution method      : On-the-fly selection.
 Cavity type          : Scaled VdW (van der Waals Surface) (Alpha=1.100).
 Cavity algorithm     : GePol (No added spheres)
                        Default sphere list used, NSphG=    5.
                        Lebedev-Laikov grids with approx.  5.0 points / Ang**2.
                        Smoothing algorithm: York/Karplus (Gamma=1.0000).
                        Polarization charges: spherical gaussians, with
                                              point-specific exponents (IZeta= 3).
                        Self-potential: point-specific (ISelfS= 7).
                        Self-field    : sphere-specific E.n sum rule (ISelfD= 2).
 Solvent              : Water, Eps=  78.355300 Eps(inf)=   1.777849
 ------------------------------------------------------------------------------
 Spheres list:
 ISph  on   Nord     Re0    Alpha      Xe            Ye            Ze
    1   C      1    1.9255  1.100      0.180309     -0.000003      0.000164
    2   H      2    1.4430  1.100      0.089510     -0.922691     -0.549079
    3   H      3    1.4430  1.100      0.087690     -0.014352      1.073629
    4   H      4    1.4430  1.100      0.089526      0.937031     -0.524232
    5   H      5    1.4430  1.100     -1.348580      0.000027     -0.001303
 ------------------------------------------------------------------------------
 One-electron integrals computed using PRISM.
 NBasis=    27 RedAO= T EigKep=  1.50D-02  NBF=    27
 NBsUse=    27 1.00D-06 EigRej= -1.00D+00 NBFU=    27
 ExpMin= 4.38D-02 ExpMax= 3.05D+03 ExpMxC= 4.57D+02 IAcc=3 IRadAn=         5 AccDes= 0.00D+00
 Harris functional with IExCor= 1009 and IRadAn=       5 diagonalized for initial guess.
 HarFok:  IExCor= 1009 AccDes= 0.00D+00 IRadAn=         5 IDoV= 1 UseB2=F ITyADJ=14
 ICtDFT=  3500011 ScaDFX=  1.000000  1.000000  1.000000  1.000000
 FoFCou: FMM=F IPFlag=           0 FMFlag=      100000 FMFlg1=           0
         NFxFlg=           0 DoJE=T BraDBF=F KetDBF=T FulRan=T
         wScrn=  0.000000 ICntrl=       500 IOpCl=  0 I1Cent=   200000004 NGrid=           0
         NMat0=    1 NMatS0=      1 NMatT0=    0 NMatD0=    1 NMtDS0=    0 NMtDT0=    0
 Petite list used in FoFCou.
 Keep R1 ints in memory in canonical form, NReq=1797948.
 Requested convergence on RMS density matrix=1.00D-08 within 128 cycles.
 Requested convergence on MAX density matrix=1.00D-06.
 Requested convergence on             energy=1.00D-06.
 No special actions if energy rises.
 Inv3:  Mode=1 IEnd=      711507.
 Iteration    1 A*A^-1 deviation from unit magnitude is 2.55D-15 for     75.
 Iteration    1 A*A^-1 deviation from orthogonality  is 1.34D-15 for    396     19.
 Iteration    1 A^-1*A deviation from unit magnitude is 2.44D-15 for    228.
 Iteration    1 A^-1*A deviation from orthogonality  is 1.23D-15 for    361    307.
 Error on total polarization charges =  0.01082
 SCF Done:  E(RM062X) =  -40.3984864088     A.U. after    9 cycles
            NFock=  9  Conv=0.67D-08     -V/T= 2.0136

 **********************************************************************

            Population analysis using the SCF density.

 **********************************************************************

 Orbital symmetries:
       Occupied  (A) (A) (A) (A) (A)
       Virtual   (A) (A) (A) (A) (A) (A) (A) (A) (A) (A) (A) (A)
                 (A) (A) (A) (A) (A) (A) (A) (A) (A) (A)
 The electronic state is 1-A.
 Alpha  occ. eigenvalues --  -10.56620  -0.78257  -0.48972  -0.48970  -0.34791
 Alpha virt. eigenvalues --    0.01891   0.06848   0.06848   0.08409   0.08881
 Alpha virt. eigenvalues --    0.24430   0.24432   0.28123   0.67949   0.67951
 Alpha virt. eigenvalues --    0.73055   0.84754   1.02519   1.02523   1.07942
 Alpha virt. eigenvalues --    1.18361   1.70636   1.70636   2.07419   2.28131
 Alpha virt. eigenvalues --    2.28155   4.18689
          Condensed to atoms (all electrons):
               1          2          3          4          5
     1  C    5.415433   0.368472   0.368463   0.368473   0.318324
     2  H    0.368472   0.449322  -0.020703  -0.020688  -0.028320
     3  H    0.368463  -0.020703   0.449359  -0.020702  -0.028343
     4  H    0.368473  -0.020688  -0.020702   0.449318  -0.028320
     5  H    0.318324  -0.028320  -0.028343  -0.028320   0.683254
 Mulliken charges:
               1
     1  C   -0.839166
     2  H    0.251917
     3  H    0.251926
     4  H    0.251919
     5  H    0.083404
 Sum of Mulliken charges =  -0.00000
 Mulliken charges with hydrogens summed into heavy atoms:
               1
     1  C   -0.000000
 Electronic spatial extent (au):  <R**2>=             39.9610
 Charge=             -0.0000 electrons
 Dipole moment (field-independent basis, Debye):
    X=             -0.1538    Y=              0.0000    Z=             -0.0000  Tot=              0.1538
 Quadrupole moment (field-independent basis, Debye-Ang):
   XX=            -10.5866   YY=             -8.3814   ZZ=             -8.3823
   XY=              0.0001   XZ=             -0.0028   YZ=             -0.0000
 Traceless Quadrupole moment (field-independent basis, Debye-Ang):
   XX=             -1.4698   YY=              0.7354   ZZ=              0.7344
   XY=              0.0001   XZ=             -0.0028   YZ=             -0.0000
 Octapole moment (field-independent basis, Debye-Ang**2):
  XXX=              0.8859  YYY=              0.0398  ZZZ=              0.9940  XYY=              0.3917
  XXY=             -0.0000  XXZ=              0.0004  XZZ=              0.3893  YZZ=             -0.0398
  YYZ=             -0.9923  XYZ=              0.0000
 Hexadecapole moment (field-independent basis, Debye-Ang**3):
 XXXX=            -28.5002 YYYY=            -16.1304 ZZZZ=            -16.1303 XXXY=              0.0001
 XXXZ=             -0.0041 YYYX=             -0.0008 YYYZ=             -0.0000 ZZZX=             -0.0315
 ZZZY=             -0.0000 XXYY=             -8.0922 XXZZ=             -8.0917 YYZZ=             -5.3767
 XXYZ=             -0.0000 YYXZ=              0.0205 ZZXY=              0.0010
 N-N= 1.265444342232D+01 E-N=-1.179269128299D+02  KE= 3.985548427043D+01
 1\1\GINC-NODE85\SP\RM062X\6-31+G(d)\C1H4\YANZ\22-Sep-2023\0\\# 6-31+g(
 d) scrf=(solvent=water,pcm) int=ultrafine m062x scf=tight\\tmpdir/M1_c
 onf_108_1.gjf\\0,1\C,0,-0.1908708,0.00000472,-0.00114561\H,0,-0.099206
 32,0.93190151,-0.53446789\H,0,-0.09999299,-0.00390583,1.07255641\H,0,-
 0.09921103,-0.92797448,-0.54125512\H,0,1.33801884,-0.0000004,-0.000132
 34\\Version=ES64L-G16RevA.03\State=1-A\HF=-40.3984864\RMSD=6.689e-09\D
 ipole=0.060508,-0.0000029,0.0000952\Quadrupole=-1.0927971,0.5467581,0.
 5460391,0.00001,-0.000601,0.0000157\PG=C01 [X(C1H4)]\\@


 A successful marriage requires falling in love
 many times, always with the same person.
                           -- Mignon McLaughlin
 Job cpu time:       0 days  0 hours  0 minutes  9.5 seconds.
 Elapsed time:       0 days  0 hours  0 minutes  4.9 seconds.
 File lengths (MBytes):  RWF=     11 Int=      0 D2E=      0 Chk=      1 Scr=      1
 Normal termination of Gaussian 16 at Fri Sep 22 17:10:26 2023.
