 Entering Gaussian System, Link 0=g16
 Initial command:
 /share/apps/gaussian/g16/l1.exe "/tmp/55659.mgr/Gau-107246.inp" -scrdir="/tmp/55659.mgr/"
 Entering Link 1 = /share/apps/gaussian/g16/l1.exe PID=    107248.
  
 Copyright (c) 1988,1990,1992,1993,1995,1998,2003,2009,2016,
            Gaussian, Inc.  All Rights Reserved.
  
 This is part of the Gaussian(R) 16 program.  It is based on
 the Gaussian(R) 09 system (copyright 2009, Gaussian, Inc.),
 the Gaussian(R) 03 system (copyright 2003, Gaussian, Inc.),
 the Gaussian(R) 98 system (copyright 1998, Gaussian, Inc.),
 the Gaussian(R) 94 system (copyright 1995, Gaussian, Inc.),
 the Gaussian 92(TM) system (copyright 1992, Gaussian, Inc.),
 the Gaussian 90(TM) system (copyright 1990, Gaussian, Inc.),
 the Gaussian 88(TM) system (copyright 1988, Gaussian, Inc.),
 the Gaussian 86(TM) system (copyright 1986, Carnegie Mellon
 University), and the Gaussian 82(TM) system (copyright 1983,
 Carnegie Mellon University). Gaussian is a federally registered
 trademark of Gaussian, Inc.
  
 This software contains proprietary and confidential information,
 including trade secrets, belonging to Gaussian, Inc.
  
 This software is provided under written license and may be
 used, copied, transmitted, or stored only in accord with that
 written license.
  
 The following legend is applicable only to US Government
 contracts under FAR:
  
                    RESTRICTED RIGHTS LEGEND
  
 Use, reproduction and disclosure by the US Government is
 subject to restrictions as set forth in subparagraphs (a)
 and (c) of the Commercial Computer Software - Restricted
 Rights clause in FAR 52.227-19.
  
 Gaussian, Inc.
 340 Quinnipiac St., Bldg. 40, Wallingford CT 06492
  
  
 ---------------------------------------------------------------
 Warning -- This program may not be used in any manner that
 competes with the business of Gaussian, Inc. or will provide
 assistance to any competitor of Gaussian, Inc.  The licensee
 of this program is prohibited from giving any competitor of
 Gaussian, Inc. access to this program.  By using this program,
 the user acknowledges that Gaussian, Inc. is engaged in the
 business of creating and licensing software in the field of
 computational chemistry and represents and warrants to the
 licensee that it is not a competitor of Gaussian, Inc. and that
 it will not use this program in any manner prohibited above.
 ---------------------------------------------------------------
  

 Cite this work as:
 Gaussian 16, Revision A.03,
 M. J. Frisch, G. W. Trucks, H. B. Schlegel, G. E. Scuseria, 
 M. A. Robb, J. R. Cheeseman, G. Scalmani, V. Barone, 
 G. A. Petersson, H. Nakatsuji, X. Li, M. Caricato, A. V. Marenich, 
 J. Bloino, B. G. Janesko, R. Gomperts, B. Mennucci, H. P. Hratchian, 
 J. V. Ortiz, A. F. Izmaylov, J. L. Sonnenberg, D. Williams-Young, 
 F. Ding, F. Lipparini, F. Egidi, J. Goings, B. Peng, A. Petrone, 
 T. Henderson, D. Ranasinghe, V. G. Zakrzewski, J. Gao, N. Rega, 
 G. Zheng, W. Liang, M. Hada, M. Ehara, K. Toyota, R. Fukuda, 
 J. Hasegawa, M. Ishida, T. Nakajima, Y. Honda, O. Kitao, H. Nakai, 
 T. Vreven, K. Throssell, J. A. Montgomery, Jr., J. E. Peralta, 
 F. Ogliaro, M. J. Bearpark, J. J. Heyd, E. N. Brothers, K. N. Kudin, 
 V. N. Staroverov, T. A. Keith, R. Kobayashi, J. Normand, 
 K. Raghavachari, A. P. Rendell, J. C. Burant, S. S. Iyengar, 
 J. Tomasi, M. Cossi, J. M. Millam, M. Klene, C. Adamo, R. Cammi, 
 J. W. Ochterski, R. L. Martin, K. Morokuma, O. Farkas, 
 J. B. Foresman, and D. J. Fox, Gaussian, Inc., Wallingford CT, 2016.
 
 ******************************************
 Gaussian 16:  ES64L-G16RevA.03 25-Dec-2016
                22-Sep-2023 
 ******************************************
 %nprocshared=2
 Will use up to    2 processors via shared memory.
 %mem=2GB
 ------------------------------------------------------------------
 # 6-31+g(d) scrf=(solvent=water,pcm) int=ultrafine m062x scf=tight
 ------------------------------------------------------------------
 1/38=1,172=1/1;
 2/12=2,17=6,18=5,40=1/2;
 3/5=1,6=6,7=11,11=2,25=1,30=1,70=2201,72=1,74=-55,75=-5/1,2,3;
 4//1;
 5/5=2,32=2,38=5,53=1/2;
 6/7=2,8=2,9=2,10=2,28=1/1;
 99/5=1,9=1/99;
 -----------------------
 tmpdir/M1_conf_79_1.gjf
 -----------------------
 Symbolic Z-matrix:
 Charge =  0 Multiplicity = 1
 C                    -0.0039    0.       -0.00117 
 H                    -0.10139   0.9308   -0.53403 
 H                    -0.10236  -0.00395   1.0712 
 H                    -0.1014   -0.92683  -0.54088 
 H                     1.38762  0.        -0.00015 
 
                          Input orientation:                          
 ---------------------------------------------------------------------
 Center     Atomic      Atomic             Coordinates (Angstroms)
 Number     Number       Type             X           Y           Z
 ---------------------------------------------------------------------
      1          6           0       -0.003900    0.000003   -0.001173
      2          1           0       -0.101394    0.930798   -0.534029
      3          1           0       -0.102361   -0.003947    1.071205
      4          1           0       -0.101403   -0.926833   -0.540884
      5          1           0        1.387623   -0.000000   -0.000145
 ---------------------------------------------------------------------
                    Distance matrix (angstroms):
                    1          2          3          4          5
     1  C    0.000000
     2  H    1.076949   0.000000
     3  H    1.076896   1.857559   0.000000
     4  H    1.076949   1.857643   1.857565   0.000000
     5  H    1.391523   1.835371   1.835172   1.835379   0.000000
 Stoichiometry    CH4
 Framework group  C1[X(CH4)]
 Deg. of freedom     9
 Full point group                 C1      NOp   1
 Largest Abelian subgroup         C1      NOp   1
 Largest concise Abelian subgroup C1      NOp   1
                         Standard orientation:                         
 ---------------------------------------------------------------------
 Center     Atomic      Atomic             Coordinates (Angstroms)
 Number     Number       Type             X           Y           Z
 ---------------------------------------------------------------------
      1          6           0        0.109806   -0.000014    0.000214
      2          1           0        0.208699   -0.909901   -0.567363
      3          1           0        0.205349   -0.036835    1.072231
      4          1           0        0.208828    0.946648   -0.503617
      5          1           0       -1.281714    0.000170   -0.002539
 ---------------------------------------------------------------------
 Rotational constants (GHZ):         145.3225303         138.7358440         138.7281054
 Standard basis: 6-31+G(d) (6D, 7F)
 There are    27 symmetry adapted cartesian basis functions of A   symmetry.
 There are    27 symmetry adapted basis functions of A   symmetry.
    27 basis functions,    48 primitive gaussians,    27 cartesian basis functions
     5 alpha electrons        5 beta electrons
       nuclear repulsion energy        12.8460853212 Hartrees.
 NAtoms=    5 NActive=    5 NUniq=    5 SFac= 1.00D+00 NAtFMM=   60 NAOKFM=F Big=F
 Integral buffers will be    131072 words long.
 Raffenetti 2 integral format.
 Two-electron integral symmetry is turned on.
 ------------------------------------------------------------------------------
 Polarizable Continuum Model (PCM)
 =================================
 Model                : PCM.
 Atomic radii         : UFF (Universal Force Field).
 Polarization charges : Total charges.
 Charge compensation  : None.
 Solution method      : On-the-fly selection.
 Cavity type          : Scaled VdW (van der Waals Surface) (Alpha=1.100).
 Cavity algorithm     : GePol (No added spheres)
                        Default sphere list used, NSphG=    5.
                        Lebedev-Laikov grids with approx.  5.0 points / Ang**2.
                        Smoothing algorithm: York/Karplus (Gamma=1.0000).
                        Polarization charges: spherical gaussians, with
                                              point-specific exponents (IZeta= 3).
                        Self-potential: point-specific (ISelfS= 7).
                        Self-field    : sphere-specific E.n sum rule (ISelfD= 2).
 Solvent              : Water, Eps=  78.355300 Eps(inf)=   1.777849
 ------------------------------------------------------------------------------
 Spheres list:
 ISph  on   Nord     Re0    Alpha      Xe            Ye            Ze
    1   C      1    1.9255  1.100      0.109806     -0.000014      0.000214
    2   H      2    1.4430  1.100      0.208699     -0.909901     -0.567363
    3   H      3    1.4430  1.100      0.205349     -0.036835      1.072231
    4   H      4    1.4430  1.100      0.208828      0.946648     -0.503617
    5   H      5    1.4430  1.100     -1.281714      0.000170     -0.002539
 ------------------------------------------------------------------------------
 One-electron integrals computed using PRISM.
 NBasis=    27 RedAO= T EigKep=  1.48D-02  NBF=    27
 NBsUse=    27 1.00D-06 EigRej= -1.00D+00 NBFU=    27
 ExpMin= 4.38D-02 ExpMax= 3.05D+03 ExpMxC= 4.57D+02 IAcc=3 IRadAn=         5 AccDes= 0.00D+00
 Harris functional with IExCor= 1009 and IRadAn=       5 diagonalized for initial guess.
 HarFok:  IExCor= 1009 AccDes= 0.00D+00 IRadAn=         5 IDoV= 1 UseB2=F ITyADJ=14
 ICtDFT=  3500011 ScaDFX=  1.000000  1.000000  1.000000  1.000000
 FoFCou: FMM=F IPFlag=           0 FMFlag=      100000 FMFlg1=           0
         NFxFlg=           0 DoJE=T BraDBF=F KetDBF=T FulRan=T
         wScrn=  0.000000 ICntrl=       500 IOpCl=  0 I1Cent=   200000004 NGrid=           0
         NMat0=    1 NMatS0=      1 NMatT0=    0 NMatD0=    1 NMtDS0=    0 NMtDT0=    0
 Petite list used in FoFCou.
 Keep R1 ints in memory in canonical form, NReq=1797948.
 Requested convergence on RMS density matrix=1.00D-08 within 128 cycles.
 Requested convergence on MAX density matrix=1.00D-06.
 Requested convergence on             energy=1.00D-06.
 No special actions if energy rises.
 Inv3:  Mode=1 IEnd=      717363.
 Iteration    1 A*A^-1 deviation from unit magnitude is 2.89D-15 for    478.
 Iteration    1 A*A^-1 deviation from orthogonality  is 1.67D-15 for    347     76.
 Iteration    1 A^-1*A deviation from unit magnitude is 2.89D-15 for    478.
 Iteration    1 A^-1*A deviation from orthogonality  is 1.13D-15 for    463    136.
 Error on total polarization charges =  0.00967
 SCF Done:  E(RM062X) =  -40.4390886806     A.U. after    9 cycles
            NFock=  9  Conv=0.26D-08     -V/T= 2.0137

 **********************************************************************

            Population analysis using the SCF density.

 **********************************************************************

 Orbital symmetries:
       Occupied  (A) (A) (A) (A) (A)
       Virtual   (A) (A) (A) (A) (A) (A) (A) (A) (A) (A) (A) (A)
                 (A) (A) (A) (A) (A) (A) (A) (A) (A) (A)
 The electronic state is 1-A.
 Alpha  occ. eigenvalues --  -10.55350  -0.77786  -0.48276  -0.48276  -0.37544
 Alpha virt. eigenvalues --    0.03359   0.06911   0.06911   0.08023   0.13043
 Alpha virt. eigenvalues --    0.24517   0.24518   0.28868   0.68268   0.68269
 Alpha virt. eigenvalues --    0.72970   0.86551   1.03067   1.03068   1.09332
 Alpha virt. eigenvalues --    1.16599   1.71253   1.71254   2.14785   2.29021
 Alpha virt. eigenvalues --    2.29029   4.20507
          Condensed to atoms (all electrons):
               1          2          3          4          5
     1  C    5.365708   0.371384   0.371380   0.371384   0.350266
     2  H    0.371384   0.456665  -0.017838  -0.017835  -0.028345
     3  H    0.371380  -0.017838   0.456672  -0.017838  -0.028357
     4  H    0.371384  -0.017835  -0.017838   0.456663  -0.028343
     5  H    0.350266  -0.028345  -0.028357  -0.028343   0.612575
 Mulliken charges:
               1
     1  C   -0.830122
     2  H    0.235969
     3  H    0.235980
     4  H    0.235968
     5  H    0.122204
 Sum of Mulliken charges =  -0.00000
 Mulliken charges with hydrogens summed into heavy atoms:
               1
     1  C   -0.000000
 Electronic spatial extent (au):  <R**2>=             38.5583
 Charge=             -0.0000 electrons
 Dipole moment (field-independent basis, Debye):
    X=              0.0326    Y=             -0.0000    Z=              0.0002  Tot=              0.0326
 Quadrupole moment (field-independent basis, Debye-Ang):
   XX=             -9.7979   YY=             -8.3154   ZZ=             -8.3156
   XY=              0.0002   XZ=             -0.0034   YZ=             -0.0000
 Traceless Quadrupole moment (field-independent basis, Debye-Ang):
   XX=             -0.9883   YY=              0.4942   ZZ=              0.4940
   XY=              0.0002   XZ=             -0.0034   YZ=             -0.0000
 Octapole moment (field-independent basis, Debye-Ang**2):
  XXX=              0.2900  YYY=              0.0960  ZZZ=              0.9345  XYY=              0.5742
  XXY=              0.0001  XXZ=             -0.0016  XZZ=              0.5701  YZZ=             -0.0963
  YYZ=             -0.9297  XYZ=              0.0001
 Hexadecapole moment (field-independent basis, Debye-Ang**3):
 XXXX=            -23.1493 YYYY=            -16.0052 ZZZZ=            -16.0034 XXXY=              0.0002
 XXXZ=             -0.0032 YYYX=              0.0180 YYYZ=              0.0001 ZZZX=              0.1560
 ZZZY=             -0.0001 XXYY=             -7.1748 XXZZ=             -7.1761 YYZZ=             -5.3356
 XXYZ=              0.0000 YYXZ=             -0.1710 ZZXY=             -0.0170
 N-N= 1.284608532120D+01 E-N=-1.184343632575D+02  KE= 3.989288971865D+01
 1\1\GINC-NODE85\SP\RM062X\6-31+G(d)\C1H4\YANZ\22-Sep-2023\0\\# 6-31+g(
 d) scrf=(solvent=water,pcm) int=ultrafine m062x scf=tight\\tmpdir/M1_c
 onf_79_1.gjf\\0,1\C,0,-0.00390034,0.00000326,-0.001173\H,0,-0.10139394
 ,0.93079764,-0.53402867\H,0,-0.10236107,-0.0039472,1.07120489\H,0,-0.1
 0140341,-0.92683252,-0.54088364\H,0,1.3876226,-0.00000023,-0.00014515\
 \Version=ES64L-G16RevA.03\State=1-A\HF=-40.4390887\RMSD=2.554e-09\Dipo
 le=-0.0128454,-0.0000024,0.000035\Quadrupole=-0.7347638,0.3674621,0.36
 73017,0.0000053,-0.0004457,0.0000103\PG=C01 [X(C1H4)]\\@


      HUMANKIND PERIODICALLY GOES THROUGH A SPEEDUP OF ITS AFFAIRS, 
      THEREBY EXPERIENCING THE RACE BETWEEN THE RENEWABLE VITALITY
      OF THE LIVING, AND THE BECKONING VITIATION OF DECADENCE.
      IN THIS PERIODIC RACE, ANY PAUSE BECOMES A LUXURY.
      ONLY THEN CAN ONE REFLECT THAT ALL IS PERMITTED;
      ALL IS POSSIBLE.

                              -- THE APOCRYPHA OF MUAD'DIB
                                 CHILDREN OF DUNE, BY FRANK HERBERT
 Job cpu time:       0 days  0 hours  0 minutes  9.0 seconds.
 Elapsed time:       0 days  0 hours  0 minutes  4.6 seconds.
 File lengths (MBytes):  RWF=     11 Int=      0 D2E=      0 Chk=      1 Scr=      1
 Normal termination of Gaussian 16 at Fri Sep 22 17:07:57 2023.
