 Entering Gaussian System, Link 0=g16
 Initial command:
 /share/apps/gaussian/g16/l1.exe "/tmp/55659.mgr/Gau-106260.inp" -scrdir="/tmp/55659.mgr/"
 Entering Link 1 = /share/apps/gaussian/g16/l1.exe PID=    106264.
  
 Copyright (c) 1988,1990,1992,1993,1995,1998,2003,2009,2016,
            Gaussian, Inc.  All Rights Reserved.
  
 This is part of the Gaussian(R) 16 program.  It is based on
 the Gaussian(R) 09 system (copyright 2009, Gaussian, Inc.),
 the Gaussian(R) 03 system (copyright 2003, Gaussian, Inc.),
 the Gaussian(R) 98 system (copyright 1998, Gaussian, Inc.),
 the Gaussian(R) 94 system (copyright 1995, Gaussian, Inc.),
 the Gaussian 92(TM) system (copyright 1992, Gaussian, Inc.),
 the Gaussian 90(TM) system (copyright 1990, Gaussian, Inc.),
 the Gaussian 88(TM) system (copyright 1988, Gaussian, Inc.),
 the Gaussian 86(TM) system (copyright 1986, Carnegie Mellon
 University), and the Gaussian 82(TM) system (copyright 1983,
 Carnegie Mellon University). Gaussian is a federally registered
 trademark of Gaussian, Inc.
  
 This software contains proprietary and confidential information,
 including trade secrets, belonging to Gaussian, Inc.
  
 This software is provided under written license and may be
 used, copied, transmitted, or stored only in accord with that
 written license.
  
 The following legend is applicable only to US Government
 contracts under FAR:
  
                    RESTRICTED RIGHTS LEGEND
  
 Use, reproduction and disclosure by the US Government is
 subject to restrictions as set forth in subparagraphs (a)
 and (c) of the Commercial Computer Software - Restricted
 Rights clause in FAR 52.227-19.
  
 Gaussian, Inc.
 340 Quinnipiac St., Bldg. 40, Wallingford CT 06492
  
  
 ---------------------------------------------------------------
 Warning -- This program may not be used in any manner that
 competes with the business of Gaussian, Inc. or will provide
 assistance to any competitor of Gaussian, Inc.  The licensee
 of this program is prohibited from giving any competitor of
 Gaussian, Inc. access to this program.  By using this program,
 the user acknowledges that Gaussian, Inc. is engaged in the
 business of creating and licensing software in the field of
 computational chemistry and represents and warrants to the
 licensee that it is not a competitor of Gaussian, Inc. and that
 it will not use this program in any manner prohibited above.
 ---------------------------------------------------------------
  

 Cite this work as:
 Gaussian 16, Revision A.03,
 M. J. Frisch, G. W. Trucks, H. B. Schlegel, G. E. Scuseria, 
 M. A. Robb, J. R. Cheeseman, G. Scalmani, V. Barone, 
 G. A. Petersson, H. Nakatsuji, X. Li, M. Caricato, A. V. Marenich, 
 J. Bloino, B. G. Janesko, R. Gomperts, B. Mennucci, H. P. Hratchian, 
 J. V. Ortiz, A. F. Izmaylov, J. L. Sonnenberg, D. Williams-Young, 
 F. Ding, F. Lipparini, F. Egidi, J. Goings, B. Peng, A. Petrone, 
 T. Henderson, D. Ranasinghe, V. G. Zakrzewski, J. Gao, N. Rega, 
 G. Zheng, W. Liang, M. Hada, M. Ehara, K. Toyota, R. Fukuda, 
 J. Hasegawa, M. Ishida, T. Nakajima, Y. Honda, O. Kitao, H. Nakai, 
 T. Vreven, K. Throssell, J. A. Montgomery, Jr., J. E. Peralta, 
 F. Ogliaro, M. J. Bearpark, J. J. Heyd, E. N. Brothers, K. N. Kudin, 
 V. N. Staroverov, T. A. Keith, R. Kobayashi, J. Normand, 
 K. Raghavachari, A. P. Rendell, J. C. Burant, S. S. Iyengar, 
 J. Tomasi, M. Cossi, J. M. Millam, M. Klene, C. Adamo, R. Cammi, 
 J. W. Ochterski, R. L. Martin, K. Morokuma, O. Farkas, 
 J. B. Foresman, and D. J. Fox, Gaussian, Inc., Wallingford CT, 2016.
 
 ******************************************
 Gaussian 16:  ES64L-G16RevA.03 25-Dec-2016
                22-Sep-2023 
 ******************************************
 %nprocshared=2
 Will use up to    2 processors via shared memory.
 %mem=2GB
 ------------------------------------------------------------------
 # 6-31+g(d) scrf=(solvent=water,pcm) int=ultrafine m062x scf=tight
 ------------------------------------------------------------------
 1/38=1,172=1/1;
 2/12=2,17=6,18=5,40=1/2;
 3/5=1,6=6,7=11,11=2,25=1,30=1,70=2201,72=1,74=-55,75=-5/1,2,3;
 4//1;
 5/5=2,32=2,38=5,53=1/2;
 6/7=2,8=2,9=2,10=2,28=1/1;
 99/5=1,9=1/99;
 -----------------------
 tmpdir/M1_conf_61_1.gjf
 -----------------------
 Symbolic Z-matrix:
 Charge =  0 Multiplicity = 1
 C                     0.10804   0.       -0.00112 
 H                    -0.09424   0.91952  -0.52759 
 H                    -0.09501  -0.00389   1.05824 
 H                    -0.09425  -0.91562  -0.53433 
 H                     1.41633  0.        -0.00011 
 
                          Input orientation:                          
 ---------------------------------------------------------------------
 Center     Atomic      Atomic             Coordinates (Angstroms)
 Number     Number       Type             X           Y           Z
 ---------------------------------------------------------------------
      1          6           0        0.108045    0.000002   -0.001124
      2          1           0       -0.094237    0.919519   -0.527592
      3          1           0       -0.095010   -0.003887    1.058240
      4          1           0       -0.094246   -0.915625   -0.534327
      5          1           0        1.416332   -0.000001   -0.000114
 ---------------------------------------------------------------------
                    Distance matrix (angstroms):
                    1          2          3          4          5
     1  C    0.000000
     2  H    1.078702   0.000000
     3  H    1.078655   1.835086   0.000000
     4  H    1.078703   1.835156   1.835084   0.000000
     5  H    1.308287   1.845418   1.845069   1.845425   0.000000
 Stoichiometry    CH4
 Framework group  C1[X(CH4)]
 Deg. of freedom     9
 Full point group                 C1      NOp   1
 Largest Abelian subgroup         C1      NOp   1
 Largest concise Abelian subgroup C1      NOp   1
                         Standard orientation:                         
 ---------------------------------------------------------------------
 Center     Atomic      Atomic             Coordinates (Angstroms)
 Number     Number       Type             X           Y           Z
 ---------------------------------------------------------------------
      1          6           0       -0.070065    0.000002    0.000288
      2          1           0       -0.274980    0.923923   -0.517377
      3          1           0       -0.267699   -0.012804    1.060606
      4          1           0       -0.275138   -0.911098   -0.539564
      5          1           0        1.238209   -0.000036   -0.005394
 ---------------------------------------------------------------------
 Rotational constants (GHZ):         148.9048194         143.7844038         143.7772079
 Standard basis: 6-31+G(d) (6D, 7F)
 There are    27 symmetry adapted cartesian basis functions of A   symmetry.
 There are    27 symmetry adapted basis functions of A   symmetry.
    27 basis functions,    48 primitive gaussians,    27 cartesian basis functions
     5 alpha electrons        5 beta electrons
       nuclear repulsion energy        12.9826425637 Hartrees.
 NAtoms=    5 NActive=    5 NUniq=    5 SFac= 1.00D+00 NAtFMM=   60 NAOKFM=F Big=F
 Integral buffers will be    131072 words long.
 Raffenetti 2 integral format.
 Two-electron integral symmetry is turned on.
 ------------------------------------------------------------------------------
 Polarizable Continuum Model (PCM)
 =================================
 Model                : PCM.
 Atomic radii         : UFF (Universal Force Field).
 Polarization charges : Total charges.
 Charge compensation  : None.
 Solution method      : On-the-fly selection.
 Cavity type          : Scaled VdW (van der Waals Surface) (Alpha=1.100).
 Cavity algorithm     : GePol (No added spheres)
                        Default sphere list used, NSphG=    5.
                        Lebedev-Laikov grids with approx.  5.0 points / Ang**2.
                        Smoothing algorithm: York/Karplus (Gamma=1.0000).
                        Polarization charges: spherical gaussians, with
                                              point-specific exponents (IZeta= 3).
                        Self-potential: point-specific (ISelfS= 7).
                        Self-field    : sphere-specific E.n sum rule (ISelfD= 2).
 Solvent              : Water, Eps=  78.355300 Eps(inf)=   1.777849
 ------------------------------------------------------------------------------
 Spheres list:
 ISph  on   Nord     Re0    Alpha      Xe            Ye            Ze
    1   C      1    1.9255  1.100     -0.070065      0.000002      0.000288
    2   H      2    1.4430  1.100     -0.274980      0.923923     -0.517377
    3   H      3    1.4430  1.100     -0.267699     -0.012804      1.060606
    4   H      4    1.4430  1.100     -0.275138     -0.911098     -0.539564
    5   H      5    1.4430  1.100      1.238209     -0.000036     -0.005394
 ------------------------------------------------------------------------------
 One-electron integrals computed using PRISM.
 NBasis=    27 RedAO= T EigKep=  1.43D-02  NBF=    27
 NBsUse=    27 1.00D-06 EigRej= -1.00D+00 NBFU=    27
 ExpMin= 4.38D-02 ExpMax= 3.05D+03 ExpMxC= 4.57D+02 IAcc=3 IRadAn=         5 AccDes= 0.00D+00
 Harris functional with IExCor= 1009 and IRadAn=       5 diagonalized for initial guess.
 HarFok:  IExCor= 1009 AccDes= 0.00D+00 IRadAn=         5 IDoV= 1 UseB2=F ITyADJ=14
 ICtDFT=  3500011 ScaDFX=  1.000000  1.000000  1.000000  1.000000
 FoFCou: FMM=F IPFlag=           0 FMFlag=      100000 FMFlg1=           0
         NFxFlg=           0 DoJE=T BraDBF=F KetDBF=T FulRan=T
         wScrn=  0.000000 ICntrl=       500 IOpCl=  0 I1Cent=   200000004 NGrid=           0
         NMat0=    1 NMatS0=      1 NMatT0=    0 NMatD0=    1 NMtDS0=    0 NMtDT0=    0
 Petite list used in FoFCou.
 Keep R1 ints in memory in canonical form, NReq=1797948.
 Requested convergence on RMS density matrix=1.00D-08 within 128 cycles.
 Requested convergence on MAX density matrix=1.00D-06.
 Requested convergence on             energy=1.00D-06.
 No special actions if energy rises.
 Inv3:  Mode=1 IEnd=      738048.
 Iteration    1 A*A^-1 deviation from unit magnitude is 2.66D-15 for    486.
 Iteration    1 A*A^-1 deviation from orthogonality  is 1.07D-15 for    370      6.
 Iteration    1 A^-1*A deviation from unit magnitude is 2.89D-15 for    486.
 Iteration    1 A^-1*A deviation from orthogonality  is 1.24D-15 for    491     47.
 Error on total polarization charges =  0.00907
 SCF Done:  E(RM062X) =  -40.4594306212     A.U. after    9 cycles
            NFock=  9  Conv=0.11D-08     -V/T= 2.0132

 **********************************************************************

            Population analysis using the SCF density.

 **********************************************************************

 Orbital symmetries:
       Occupied  (A) (A) (A) (A) (A)
       Virtual   (A) (A) (A) (A) (A) (A) (A) (A) (A) (A) (A) (A)
                 (A) (A) (A) (A) (A) (A) (A) (A) (A) (A)
 The electronic state is 1-A.
 Alpha  occ. eigenvalues --  -10.54524  -0.77758  -0.47490  -0.47489  -0.39811
 Alpha virt. eigenvalues --    0.03695   0.06991   0.06991   0.07772   0.16030
 Alpha virt. eigenvalues --    0.24197   0.24198   0.29562   0.68466   0.68467
 Alpha virt. eigenvalues --    0.72407   0.89468   1.02444   1.02446   1.09963
 Alpha virt. eigenvalues --    1.16014   1.71284   1.71284   2.18607   2.31127
 Alpha virt. eigenvalues --    2.31135   4.21523
          Condensed to atoms (all electrons):
               1          2          3          4          5
     1  C    5.342506   0.373771   0.373761   0.373771   0.360794
     2  H    0.373771   0.465153  -0.018817  -0.018817  -0.026426
     3  H    0.373761  -0.018817   0.465176  -0.018818  -0.026455
     4  H    0.373771  -0.018817  -0.018818   0.465156  -0.026425
     5  H    0.360794  -0.026426  -0.026455  -0.026425   0.569329
 Mulliken charges:
               1
     1  C   -0.824604
     2  H    0.225135
     3  H    0.225153
     4  H    0.225133
     5  H    0.149183
 Sum of Mulliken charges =  -0.00000
 Mulliken charges with hydrogens summed into heavy atoms:
               1
     1  C   -0.000000
 Electronic spatial extent (au):  <R**2>=             37.7324
 Charge=             -0.0000 electrons
 Dipole moment (field-independent basis, Debye):
    X=             -0.0556    Y=              0.0000    Z=              0.0005  Tot=              0.0556
 Quadrupole moment (field-independent basis, Debye-Ang):
   XX=             -9.2726   YY=             -8.3633   ZZ=             -8.3635
   XY=              0.0000   XZ=              0.0048   YZ=             -0.0000
 Traceless Quadrupole moment (field-independent basis, Debye-Ang):
   XX=             -0.6062   YY=              0.3032   ZZ=              0.3030
   XY=              0.0000   XZ=              0.0048   YZ=             -0.0000
 Octapole moment (field-independent basis, Debye-Ang**2):
  XXX=              0.1702  YYY=              0.0304  ZZZ=              0.8442  XYY=             -0.6093
  XXY=             -0.0000  XXZ=             -0.0059  XZZ=             -0.6013  YZZ=             -0.0303
  YYZ=             -0.8330  XYZ=             -0.0002
 Hexadecapole moment (field-independent basis, Debye-Ang**3):
 XXXX=            -20.4223 YYYY=            -16.0553 ZZZZ=            -16.0504 XXXY=              0.0000
 XXXZ=              0.0019 YYYX=             -0.0092 YYYZ=              0.0000 ZZZX=             -0.2389
 ZZZY=             -0.0001 XXYY=             -6.6451 XXZZ=             -6.6497 YYZZ=             -5.3540
 XXYZ=              0.0001 YYXZ=              0.2617 ZZXY=              0.0093
 N-N= 1.298264256373D+01 E-N=-1.187858173514D+02  KE= 3.993115899138D+01
 1\1\GINC-NODE85\SP\RM062X\6-31+G(d)\C1H4\YANZ\22-Sep-2023\0\\# 6-31+g(
 d) scrf=(solvent=water,pcm) int=ultrafine m062x scf=tight\\tmpdir/M1_c
 onf_61_1.gjf\\0,1\C,0,0.10804491,0.00000232,-0.00112368\H,0,-0.0942373
 9,0.91951875,-0.52759186\H,0,-0.09500962,-0.00388746,1.05823951\H,0,-0
 .09424575,-0.91562453,-0.53432713\H,0,1.41633169,-0.00000114,-0.000113
 64\\Version=ES64L-G16RevA.03\State=1-A\HF=-40.4594306\RMSD=1.061e-09\D
 ipole=-0.0218671,0.0000066,0.0000723\Quadrupole=-0.4506804,0.2254035,0
 .2252769,0.0000055,0.0000897,-0.0000032\PG=C01 [X(C1H4)]\\@


 NO HUMAN INVESTIGATION CAN BECOME REAL SCIENCE
 WITHOUT GOING THROUGH MATHEMATICAL PEOPLE.
 -- LEONARDO DA VINCI, IN "PENSIERI" CA. 1492
 Job cpu time:       0 days  0 hours  0 minutes  9.0 seconds.
 Elapsed time:       0 days  0 hours  0 minutes  4.6 seconds.
 File lengths (MBytes):  RWF=     11 Int=      0 D2E=      0 Chk=      1 Scr=      1
 Normal termination of Gaussian 16 at Fri Sep 22 17:06:28 2023.
