 Entering Gaussian System, Link 0=g16
 Initial command:
 /share/apps/gaussian/g16/l1.exe "/tmp/55659.mgr/Gau-108564.inp" -scrdir="/tmp/55659.mgr/"
 Entering Link 1 = /share/apps/gaussian/g16/l1.exe PID=    108566.
  
 Copyright (c) 1988,1990,1992,1993,1995,1998,2003,2009,2016,
            Gaussian, Inc.  All Rights Reserved.
  
 This is part of the Gaussian(R) 16 program.  It is based on
 the Gaussian(R) 09 system (copyright 2009, Gaussian, Inc.),
 the Gaussian(R) 03 system (copyright 2003, Gaussian, Inc.),
 the Gaussian(R) 98 system (copyright 1998, Gaussian, Inc.),
 the Gaussian(R) 94 system (copyright 1995, Gaussian, Inc.),
 the Gaussian 92(TM) system (copyright 1992, Gaussian, Inc.),
 the Gaussian 90(TM) system (copyright 1990, Gaussian, Inc.),
 the Gaussian 88(TM) system (copyright 1988, Gaussian, Inc.),
 the Gaussian 86(TM) system (copyright 1986, Carnegie Mellon
 University), and the Gaussian 82(TM) system (copyright 1983,
 Carnegie Mellon University). Gaussian is a federally registered
 trademark of Gaussian, Inc.
  
 This software contains proprietary and confidential information,
 including trade secrets, belonging to Gaussian, Inc.
  
 This software is provided under written license and may be
 used, copied, transmitted, or stored only in accord with that
 written license.
  
 The following legend is applicable only to US Government
 contracts under FAR:
  
                    RESTRICTED RIGHTS LEGEND
  
 Use, reproduction and disclosure by the US Government is
 subject to restrictions as set forth in subparagraphs (a)
 and (c) of the Commercial Computer Software - Restricted
 Rights clause in FAR 52.227-19.
  
 Gaussian, Inc.
 340 Quinnipiac St., Bldg. 40, Wallingford CT 06492
  
  
 ---------------------------------------------------------------
 Warning -- This program may not be used in any manner that
 competes with the business of Gaussian, Inc. or will provide
 assistance to any competitor of Gaussian, Inc.  The licensee
 of this program is prohibited from giving any competitor of
 Gaussian, Inc. access to this program.  By using this program,
 the user acknowledges that Gaussian, Inc. is engaged in the
 business of creating and licensing software in the field of
 computational chemistry and represents and warrants to the
 licensee that it is not a competitor of Gaussian, Inc. and that
 it will not use this program in any manner prohibited above.
 ---------------------------------------------------------------
  

 Cite this work as:
 Gaussian 16, Revision A.03,
 M. J. Frisch, G. W. Trucks, H. B. Schlegel, G. E. Scuseria, 
 M. A. Robb, J. R. Cheeseman, G. Scalmani, V. Barone, 
 G. A. Petersson, H. Nakatsuji, X. Li, M. Caricato, A. V. Marenich, 
 J. Bloino, B. G. Janesko, R. Gomperts, B. Mennucci, H. P. Hratchian, 
 J. V. Ortiz, A. F. Izmaylov, J. L. Sonnenberg, D. Williams-Young, 
 F. Ding, F. Lipparini, F. Egidi, J. Goings, B. Peng, A. Petrone, 
 T. Henderson, D. Ranasinghe, V. G. Zakrzewski, J. Gao, N. Rega, 
 G. Zheng, W. Liang, M. Hada, M. Ehara, K. Toyota, R. Fukuda, 
 J. Hasegawa, M. Ishida, T. Nakajima, Y. Honda, O. Kitao, H. Nakai, 
 T. Vreven, K. Throssell, J. A. Montgomery, Jr., J. E. Peralta, 
 F. Ogliaro, M. J. Bearpark, J. J. Heyd, E. N. Brothers, K. N. Kudin, 
 V. N. Staroverov, T. A. Keith, R. Kobayashi, J. Normand, 
 K. Raghavachari, A. P. Rendell, J. C. Burant, S. S. Iyengar, 
 J. Tomasi, M. Cossi, J. M. Millam, M. Klene, C. Adamo, R. Cammi, 
 J. W. Ochterski, R. L. Martin, K. Morokuma, O. Farkas, 
 J. B. Foresman, and D. J. Fox, Gaussian, Inc., Wallingford CT, 2016.
 
 ******************************************
 Gaussian 16:  ES64L-G16RevA.03 25-Dec-2016
                22-Sep-2023 
 ******************************************
 %nprocshared=2
 Will use up to    2 processors via shared memory.
 %mem=2GB
 ------------------------------------------------------------------
 # 6-31+g(d) scrf=(solvent=water,pcm) int=ultrafine m062x scf=tight
 ------------------------------------------------------------------
 1/38=1,172=1/1;
 2/12=2,17=6,18=5,40=1/2;
 3/5=1,6=6,7=11,11=2,25=1,30=1,70=2201,72=1,74=-55,75=-5/1,2,3;
 4//1;
 5/5=2,32=2,38=5,53=1/2;
 6/7=2,8=2,9=2,10=2,28=1/1;
 99/5=1,9=1/99;
 ------------------------
 tmpdir/M1_conf_103_1.gjf
 ------------------------
 Symbolic Z-matrix:
 Charge =  0 Multiplicity = 1
 C                    -0.15978   0.       -0.00115 
 H                    -0.0994    0.93345  -0.53538 
 H                    -0.10024  -0.00392   1.07433 
 H                    -0.09941  -0.92951  -0.54219 
 H                     1.34638  0.        -0.00013 
 
                          Input orientation:                          
 ---------------------------------------------------------------------
 Center     Atomic      Atomic             Coordinates (Angstroms)
 Number     Number       Type             X           Y           Z
 ---------------------------------------------------------------------
      1          6           0       -0.159778    0.000004   -0.001155
      2          1           0       -0.099403    0.933446   -0.535380
      3          1           0       -0.100240   -0.003916    1.074325
      4          1           0       -0.099407   -0.929506   -0.542190
      5          1           0        1.346383   -0.000000   -0.000134
 ---------------------------------------------------------------------
                    Distance matrix (angstroms):
                    1          2          3          4          5
     1  C    0.000000
     2  H    1.077197   0.000000
     3  H    1.077134   1.862740   0.000000
     4  H    1.077197   1.862964   1.862751   0.000000
     5  H    1.506161   1.802251   1.801997   1.802252   0.000000
 Stoichiometry    CH4
 Framework group  C1[X(CH4)]
 Deg. of freedom     9
 Full point group                 C1      NOp   1
 Largest Abelian subgroup         C1      NOp   1
 Largest concise Abelian subgroup C1      NOp   1
                         Standard orientation:                         
 ---------------------------------------------------------------------
 Center     Atomic      Atomic             Coordinates (Angstroms)
 Number     Number       Type             X           Y           Z
 ---------------------------------------------------------------------
      1          6           0        0.168644   -0.000003    0.000164
      2          1           0        0.109185   -0.919381   -0.558014
      3          1           0        0.107269   -0.023765    1.075286
      4          1           0        0.109195    0.943128   -0.516868
      5          1           0       -1.337516    0.000037   -0.001387
 ---------------------------------------------------------------------
 Rotational constants (GHZ):         144.5077517         130.7462207         130.7276759
 Standard basis: 6-31+G(d) (6D, 7F)
 There are    27 symmetry adapted cartesian basis functions of A   symmetry.
 There are    27 symmetry adapted basis functions of A   symmetry.
    27 basis functions,    48 primitive gaussians,    27 cartesian basis functions
     5 alpha electrons        5 beta electrons
       nuclear repulsion energy        12.6839131496 Hartrees.
 NAtoms=    5 NActive=    5 NUniq=    5 SFac= 1.00D+00 NAtFMM=   60 NAOKFM=F Big=F
 Integral buffers will be    131072 words long.
 Raffenetti 2 integral format.
 Two-electron integral symmetry is turned on.
 ------------------------------------------------------------------------------
 Polarizable Continuum Model (PCM)
 =================================
 Model                : PCM.
 Atomic radii         : UFF (Universal Force Field).
 Polarization charges : Total charges.
 Charge compensation  : None.
 Solution method      : On-the-fly selection.
 Cavity type          : Scaled VdW (van der Waals Surface) (Alpha=1.100).
 Cavity algorithm     : GePol (No added spheres)
                        Default sphere list used, NSphG=    5.
                        Lebedev-Laikov grids with approx.  5.0 points / Ang**2.
                        Smoothing algorithm: York/Karplus (Gamma=1.0000).
                        Polarization charges: spherical gaussians, with
                                              point-specific exponents (IZeta= 3).
                        Self-potential: point-specific (ISelfS= 7).
                        Self-field    : sphere-specific E.n sum rule (ISelfD= 2).
 Solvent              : Water, Eps=  78.355300 Eps(inf)=   1.777849
 ------------------------------------------------------------------------------
 Spheres list:
 ISph  on   Nord     Re0    Alpha      Xe            Ye            Ze
    1   C      1    1.9255  1.100      0.168644     -0.000003      0.000164
    2   H      2    1.4430  1.100      0.109185     -0.919381     -0.558014
    3   H      3    1.4430  1.100      0.107269     -0.023765      1.075286
    4   H      4    1.4430  1.100      0.109195      0.943128     -0.516868
    5   H      5    1.4430  1.100     -1.337516      0.000037     -0.001387
 ------------------------------------------------------------------------------
 One-electron integrals computed using PRISM.
 NBasis=    27 RedAO= T EigKep=  1.51D-02  NBF=    27
 NBsUse=    27 1.00D-06 EigRej= -1.00D+00 NBFU=    27
 ExpMin= 4.38D-02 ExpMax= 3.05D+03 ExpMxC= 4.57D+02 IAcc=3 IRadAn=         5 AccDes= 0.00D+00
 Harris functional with IExCor= 1009 and IRadAn=       5 diagonalized for initial guess.
 HarFok:  IExCor= 1009 AccDes= 0.00D+00 IRadAn=         5 IDoV= 1 UseB2=F ITyADJ=14
 ICtDFT=  3500011 ScaDFX=  1.000000  1.000000  1.000000  1.000000
 FoFCou: FMM=F IPFlag=           0 FMFlag=      100000 FMFlg1=           0
         NFxFlg=           0 DoJE=T BraDBF=F KetDBF=T FulRan=T
         wScrn=  0.000000 ICntrl=       500 IOpCl=  0 I1Cent=   200000004 NGrid=           0
         NMat0=    1 NMatS0=      1 NMatT0=    0 NMatD0=    1 NMtDS0=    0 NMtDT0=    0
 Petite list used in FoFCou.
 Keep R1 ints in memory in canonical form, NReq=1797948.
 Requested convergence on RMS density matrix=1.00D-08 within 128 cycles.
 Requested convergence on MAX density matrix=1.00D-06.
 Requested convergence on             energy=1.00D-06.
 No special actions if energy rises.
 Inv3:  Mode=1 IEnd=      711507.
 Iteration    1 A*A^-1 deviation from unit magnitude is 2.66D-15 for    466.
 Iteration    1 A*A^-1 deviation from orthogonality  is 1.73D-15 for    473      9.
 Iteration    1 A^-1*A deviation from unit magnitude is 2.66D-15 for    482.
 Iteration    1 A^-1*A deviation from orthogonality  is 1.30D-15 for    453    182.
 Error on total polarization charges =  0.01063
 SCF Done:  E(RM062X) =  -40.4054235350     A.U. after    9 cycles
            NFock=  9  Conv=0.64D-08     -V/T= 2.0137

 **********************************************************************

            Population analysis using the SCF density.

 **********************************************************************

 Orbital symmetries:
       Occupied  (A) (A) (A) (A) (A)
       Virtual   (A) (A) (A) (A) (A) (A) (A) (A) (A) (A) (A) (A)
                 (A) (A) (A) (A) (A) (A) (A) (A) (A) (A)
 The electronic state is 1-A.
 Alpha  occ. eigenvalues --  -10.56431  -0.78151  -0.48928  -0.48925  -0.35136
 Alpha virt. eigenvalues --    0.02254   0.06851   0.06851   0.08358   0.09420
 Alpha virt. eigenvalues --    0.24507   0.24509   0.28195   0.67999   0.68002
 Alpha virt. eigenvalues --    0.73119   0.84751   1.02756   1.02760   1.08076
 Alpha virt. eigenvalues --    1.18153   1.70780   1.70781   2.08749   2.27963
 Alpha virt. eigenvalues --    2.27985   4.18978
          Condensed to atoms (all electrons):
               1          2          3          4          5
     1  C    5.406837   0.368883   0.368877   0.368884   0.325130
     2  H    0.368883   0.449502  -0.019798  -0.019786  -0.028734
     3  H    0.368877  -0.019798   0.449527  -0.019797  -0.028756
     4  H    0.368884  -0.019786  -0.019797   0.449499  -0.028734
     5  H    0.325130  -0.028734  -0.028756  -0.028734   0.672294
 Mulliken charges:
               1
     1  C   -0.838611
     2  H    0.249933
     3  H    0.249946
     4  H    0.249933
     5  H    0.088800
 Sum of Mulliken charges =  -0.00000
 Mulliken charges with hydrogens summed into heavy atoms:
               1
     1  C   -0.000000
 Electronic spatial extent (au):  <R**2>=             39.7317
 Charge=             -0.0000 electrons
 Dipole moment (field-independent basis, Debye):
    X=             -0.1076    Y=             -0.0000    Z=              0.0001  Tot=              0.1076
 Quadrupole moment (field-independent basis, Debye-Ang):
   XX=            -10.4809   YY=             -8.3545   ZZ=             -8.3554
   XY=              0.0001   XZ=             -0.0028   YZ=             -0.0000
 Traceless Quadrupole moment (field-independent basis, Debye-Ang):
   XX=             -1.4173   YY=              0.7091   ZZ=              0.7082
   XY=              0.0001   XZ=             -0.0028   YZ=             -0.0000
 Octapole moment (field-independent basis, Debye-Ang**2):
  XXX=              0.8259  YYY=              0.0660  ZZZ=              0.9966  XYY=              0.4308
  XXY=             -0.0000  XXZ=              0.0002  XZZ=              0.4283  YZZ=             -0.0661
  YYZ=             -0.9944  XYZ=              0.0000
 Hexadecapole moment (field-independent basis, Debye-Ang**3):
 XXXX=            -27.6107 YYYY=            -16.0876 ZZZZ=            -16.0874 XXXY=              0.0001
 XXXZ=             -0.0039 YYYX=              0.0008 YYYZ=              0.0000 ZZZX=              0.0006
 ZZZY=             -0.0000 XXYY=             -7.9476 XXZZ=             -7.9473 YYZZ=             -5.3626
 XXYZ=             -0.0000 YYXZ=             -0.0117 ZZXY=             -0.0005
 N-N= 1.268391314965D+01 E-N=-1.180044907306D+02  KE= 3.985957905470D+01
 1\1\GINC-NODE85\SP\RM062X\6-31+G(d)\C1H4\YANZ\22-Sep-2023\0\\# 6-31+g(
 d) scrf=(solvent=water,pcm) int=ultrafine m062x scf=tight\\tmpdir/M1_c
 onf_103_1.gjf\\0,1\C,0,-0.15977806,0.00000445,-0.00115487\H,0,-0.09940
 339,0.93344565,-0.53538019\H,0,-0.10023959,-0.00391566,1.07432545\H,0,
 -0.0994073,-0.92950592,-0.54219018\H,0,1.34638252,-0.00000047,-0.00013
 408\\Version=ES64L-G16RevA.03\State=1-A\HF=-40.4054235\RMSD=6.441e-09\
 Dipole=0.0423156,0.0000021,0.0000983\Quadrupole=-1.0537359,0.5271901,0
 .5265459,0.0000082,-0.0006445,0.0000189\PG=C01 [X(C1H4)]\\@


 MARY HAD A LITTLE LAMB
      HIS FEET WERE BLACK AS SOOT,
           AND EVERYWHERE THAT MARY WENT
                HIS SOOTY FOOT HE PUT.

                    -- NONAME
 Job cpu time:       0 days  0 hours  0 minutes  9.7 seconds.
 Elapsed time:       0 days  0 hours  0 minutes  5.0 seconds.
 File lengths (MBytes):  RWF=     11 Int=      0 D2E=      0 Chk=      1 Scr=      1
 Normal termination of Gaussian 16 at Fri Sep 22 17:10:01 2023.
