 Entering Gaussian System, Link 0=g16
 Initial command:
 /share/apps/gaussian/g16/l1.exe "/tmp/55659.mgr/Gau-107081.inp" -scrdir="/tmp/55659.mgr/"
 Entering Link 1 = /share/apps/gaussian/g16/l1.exe PID=    107083.
  
 Copyright (c) 1988,1990,1992,1993,1995,1998,2003,2009,2016,
            Gaussian, Inc.  All Rights Reserved.
  
 This is part of the Gaussian(R) 16 program.  It is based on
 the Gaussian(R) 09 system (copyright 2009, Gaussian, Inc.),
 the Gaussian(R) 03 system (copyright 2003, Gaussian, Inc.),
 the Gaussian(R) 98 system (copyright 1998, Gaussian, Inc.),
 the Gaussian(R) 94 system (copyright 1995, Gaussian, Inc.),
 the Gaussian 92(TM) system (copyright 1992, Gaussian, Inc.),
 the Gaussian 90(TM) system (copyright 1990, Gaussian, Inc.),
 the Gaussian 88(TM) system (copyright 1988, Gaussian, Inc.),
 the Gaussian 86(TM) system (copyright 1986, Carnegie Mellon
 University), and the Gaussian 82(TM) system (copyright 1983,
 Carnegie Mellon University). Gaussian is a federally registered
 trademark of Gaussian, Inc.
  
 This software contains proprietary and confidential information,
 including trade secrets, belonging to Gaussian, Inc.
  
 This software is provided under written license and may be
 used, copied, transmitted, or stored only in accord with that
 written license.
  
 The following legend is applicable only to US Government
 contracts under FAR:
  
                    RESTRICTED RIGHTS LEGEND
  
 Use, reproduction and disclosure by the US Government is
 subject to restrictions as set forth in subparagraphs (a)
 and (c) of the Commercial Computer Software - Restricted
 Rights clause in FAR 52.227-19.
  
 Gaussian, Inc.
 340 Quinnipiac St., Bldg. 40, Wallingford CT 06492
  
  
 ---------------------------------------------------------------
 Warning -- This program may not be used in any manner that
 competes with the business of Gaussian, Inc. or will provide
 assistance to any competitor of Gaussian, Inc.  The licensee
 of this program is prohibited from giving any competitor of
 Gaussian, Inc. access to this program.  By using this program,
 the user acknowledges that Gaussian, Inc. is engaged in the
 business of creating and licensing software in the field of
 computational chemistry and represents and warrants to the
 licensee that it is not a competitor of Gaussian, Inc. and that
 it will not use this program in any manner prohibited above.
 ---------------------------------------------------------------
  

 Cite this work as:
 Gaussian 16, Revision A.03,
 M. J. Frisch, G. W. Trucks, H. B. Schlegel, G. E. Scuseria, 
 M. A. Robb, J. R. Cheeseman, G. Scalmani, V. Barone, 
 G. A. Petersson, H. Nakatsuji, X. Li, M. Caricato, A. V. Marenich, 
 J. Bloino, B. G. Janesko, R. Gomperts, B. Mennucci, H. P. Hratchian, 
 J. V. Ortiz, A. F. Izmaylov, J. L. Sonnenberg, D. Williams-Young, 
 F. Ding, F. Lipparini, F. Egidi, J. Goings, B. Peng, A. Petrone, 
 T. Henderson, D. Ranasinghe, V. G. Zakrzewski, J. Gao, N. Rega, 
 G. Zheng, W. Liang, M. Hada, M. Ehara, K. Toyota, R. Fukuda, 
 J. Hasegawa, M. Ishida, T. Nakajima, Y. Honda, O. Kitao, H. Nakai, 
 T. Vreven, K. Throssell, J. A. Montgomery, Jr., J. E. Peralta, 
 F. Ogliaro, M. J. Bearpark, J. J. Heyd, E. N. Brothers, K. N. Kudin, 
 V. N. Staroverov, T. A. Keith, R. Kobayashi, J. Normand, 
 K. Raghavachari, A. P. Rendell, J. C. Burant, S. S. Iyengar, 
 J. Tomasi, M. Cossi, J. M. Millam, M. Klene, C. Adamo, R. Cammi, 
 J. W. Ochterski, R. L. Martin, K. Morokuma, O. Farkas, 
 J. B. Foresman, and D. J. Fox, Gaussian, Inc., Wallingford CT, 2016.
 
 ******************************************
 Gaussian 16:  ES64L-G16RevA.03 25-Dec-2016
                22-Sep-2023 
 ******************************************
 %nprocshared=2
 Will use up to    2 processors via shared memory.
 %mem=2GB
 ------------------------------------------------------------------
 # 6-31+g(d) scrf=(solvent=water,pcm) int=ultrafine m062x scf=tight
 ------------------------------------------------------------------
 1/38=1,172=1/1;
 2/12=2,17=6,18=5,40=1/2;
 3/5=1,6=6,7=11,11=2,25=1,30=1,70=2201,72=1,74=-55,75=-5/1,2,3;
 4//1;
 5/5=2,32=2,38=5,53=1/2;
 6/7=2,8=2,9=2,10=2,28=1/1;
 99/5=1,9=1/99;
 -----------------------
 tmpdir/M1_conf_76_1.gjf
 -----------------------
 Symbolic Z-matrix:
 Charge =  0 Multiplicity = 1
 C                     0.0148    0.       -0.00116 
 H                    -0.10115   0.92933  -0.53322 
 H                    -0.10213  -0.00393   1.06953 
 H                    -0.10116  -0.92539  -0.54004 
 H                     1.39249  0.        -0.00014 
 
                          Input orientation:                          
 ---------------------------------------------------------------------
 Center     Atomic      Atomic             Coordinates (Angstroms)
 Number     Number       Type             X           Y           Z
 ---------------------------------------------------------------------
      1          6           0        0.014804    0.000003   -0.001163
      2          1           0       -0.101148    0.929330   -0.533220
      3          1           0       -0.102132   -0.003928    1.069531
      4          1           0       -0.101159   -0.925385   -0.540039
      5          1           0        1.392488   -0.000001   -0.000135
 ---------------------------------------------------------------------
                    Distance matrix (angstroms):
                    1          2          3          4          5
     1  C    0.000000
     2  H    1.077115   0.000000
     3  H    1.077068   1.854664   0.000000
     4  H    1.077116   1.854727   1.854670   0.000000
     5  H    1.377684   1.838146   1.837958   1.838154   0.000000
 Stoichiometry    CH4
 Framework group  C1[X(CH4)]
 Deg. of freedom     9
 Full point group                 C1      NOp   1
 Largest Abelian subgroup         C1      NOp   1
 Largest concise Abelian subgroup C1      NOp   1
                         Standard orientation:                         
 ---------------------------------------------------------------------
 Center     Atomic      Atomic             Coordinates (Angstroms)
 Number     Number       Type             X           Y           Z
 ---------------------------------------------------------------------
      1          6           0        0.102883   -0.000015    0.000207
      2          1           0        0.220256   -0.907159   -0.568554
      3          1           0        0.216833   -0.039269    1.070511
      4          1           0        0.220410    0.946323   -0.500601
      5          1           0       -1.274798    0.000195   -0.002600
 ---------------------------------------------------------------------
 Rotational constants (GHZ):         145.7775933         139.6075042         139.6016623
 Standard basis: 6-31+G(d) (6D, 7F)
 There are    27 symmetry adapted cartesian basis functions of A   symmetry.
 There are    27 symmetry adapted basis functions of A   symmetry.
    27 basis functions,    48 primitive gaussians,    27 cartesian basis functions
     5 alpha electrons        5 beta electrons
       nuclear repulsion energy        12.8676526477 Hartrees.
 NAtoms=    5 NActive=    5 NUniq=    5 SFac= 1.00D+00 NAtFMM=   60 NAOKFM=F Big=F
 Integral buffers will be    131072 words long.
 Raffenetti 2 integral format.
 Two-electron integral symmetry is turned on.
 ------------------------------------------------------------------------------
 Polarizable Continuum Model (PCM)
 =================================
 Model                : PCM.
 Atomic radii         : UFF (Universal Force Field).
 Polarization charges : Total charges.
 Charge compensation  : None.
 Solution method      : On-the-fly selection.
 Cavity type          : Scaled VdW (van der Waals Surface) (Alpha=1.100).
 Cavity algorithm     : GePol (No added spheres)
                        Default sphere list used, NSphG=    5.
                        Lebedev-Laikov grids with approx.  5.0 points / Ang**2.
                        Smoothing algorithm: York/Karplus (Gamma=1.0000).
                        Polarization charges: spherical gaussians, with
                                              point-specific exponents (IZeta= 3).
                        Self-potential: point-specific (ISelfS= 7).
                        Self-field    : sphere-specific E.n sum rule (ISelfD= 2).
 Solvent              : Water, Eps=  78.355300 Eps(inf)=   1.777849
 ------------------------------------------------------------------------------
 Spheres list:
 ISph  on   Nord     Re0    Alpha      Xe            Ye            Ze
    1   C      1    1.9255  1.100      0.102883     -0.000015      0.000207
    2   H      2    1.4430  1.100      0.220256     -0.907159     -0.568554
    3   H      3    1.4430  1.100      0.216833     -0.039269      1.070511
    4   H      4    1.4430  1.100      0.220410      0.946323     -0.500601
    5   H      5    1.4430  1.100     -1.274798      0.000195     -0.002600
 ------------------------------------------------------------------------------
 One-electron integrals computed using PRISM.
 NBasis=    27 RedAO= T EigKep=  1.48D-02  NBF=    27
 NBsUse=    27 1.00D-06 EigRej= -1.00D+00 NBFU=    27
 ExpMin= 4.38D-02 ExpMax= 3.05D+03 ExpMxC= 4.57D+02 IAcc=3 IRadAn=         5 AccDes= 0.00D+00
 Harris functional with IExCor= 1009 and IRadAn=       5 diagonalized for initial guess.
 HarFok:  IExCor= 1009 AccDes= 0.00D+00 IRadAn=         5 IDoV= 1 UseB2=F ITyADJ=14
 ICtDFT=  3500011 ScaDFX=  1.000000  1.000000  1.000000  1.000000
 FoFCou: FMM=F IPFlag=           0 FMFlag=      100000 FMFlg1=           0
         NFxFlg=           0 DoJE=T BraDBF=F KetDBF=T FulRan=T
         wScrn=  0.000000 ICntrl=       500 IOpCl=  0 I1Cent=   200000004 NGrid=           0
         NMat0=    1 NMatS0=      1 NMatT0=    0 NMatD0=    1 NMtDS0=    0 NMtDT0=    0
 Petite list used in FoFCou.
 Keep R1 ints in memory in canonical form, NReq=1797948.
 Requested convergence on RMS density matrix=1.00D-08 within 128 cycles.
 Requested convergence on MAX density matrix=1.00D-06.
 Requested convergence on             energy=1.00D-06.
 No special actions if energy rises.
 Inv3:  Mode=1 IEnd=      726192.
 Iteration    1 A*A^-1 deviation from unit magnitude is 3.22D-15 for    489.
 Iteration    1 A*A^-1 deviation from orthogonality  is 1.54D-15 for    462    117.
 Iteration    1 A^-1*A deviation from unit magnitude is 3.44D-15 for    489.
 Iteration    1 A^-1*A deviation from orthogonality  is 1.14D-15 for    376    109.
 Error on total polarization charges =  0.00956
 SCF Done:  E(RM062X) =  -40.4428104095     A.U. after    9 cycles
            NFock=  9  Conv=0.22D-08     -V/T= 2.0136

 **********************************************************************

            Population analysis using the SCF density.

 **********************************************************************

 Orbital symmetries:
       Occupied  (A) (A) (A) (A) (A)
       Virtual   (A) (A) (A) (A) (A) (A) (A) (A) (A) (A) (A) (A)
                 (A) (A) (A) (A) (A) (A) (A) (A) (A) (A)
 The electronic state is 1-A.
 Alpha  occ. eigenvalues --  -10.55212  -0.77766  -0.48158  -0.48158  -0.37900
 Alpha virt. eigenvalues --    0.03432   0.06923   0.06923   0.07981   0.13537
 Alpha virt. eigenvalues --    0.24479   0.24479   0.28977   0.68300   0.68301
 Alpha virt. eigenvalues --    0.72897   0.86964   1.03005   1.03007   1.09480
 Alpha virt. eigenvalues --    1.16424   1.71273   1.71274   2.15439   2.29338
 Alpha virt. eigenvalues --    2.29345   4.20684
          Condensed to atoms (all electrons):
               1          2          3          4          5
     1  C    5.361263   0.371761   0.371757   0.371762   0.352368
     2  H    0.371761   0.458002  -0.017884  -0.017882  -0.028076
     3  H    0.371757  -0.017884   0.458006  -0.017883  -0.028089
     4  H    0.371762  -0.017882  -0.017883   0.457996  -0.028075
     5  H    0.352368  -0.028076  -0.028089  -0.028075   0.605213
 Mulliken charges:
               1
     1  C   -0.828911
     2  H    0.234079
     3  H    0.234093
     4  H    0.234082
     5  H    0.126658
 Sum of Mulliken charges =   0.00000
 Mulliken charges with hydrogens summed into heavy atoms:
               1
     1  C    0.000000
 Electronic spatial extent (au):  <R**2>=             38.4180
 Charge=              0.0000 electrons
 Dipole moment (field-independent basis, Debye):
    X=              0.0403    Y=              0.0000    Z=              0.0002  Tot=              0.0403
 Quadrupole moment (field-independent basis, Debye-Ang):
   XX=             -9.7076   YY=             -8.3202   ZZ=             -8.3203
   XY=              0.0002   XZ=             -0.0033   YZ=             -0.0000
 Traceless Quadrupole moment (field-independent basis, Debye-Ang):
   XX=             -0.9249   YY=              0.4625   ZZ=              0.4624
   XY=              0.0002   XZ=             -0.0033   YZ=             -0.0000
 Octapole moment (field-independent basis, Debye-Ang**2):
  XXX=              0.2119  YYY=              0.1008  ZZZ=              0.9193  XYY=              0.5844
  XXY=              0.0002  XXZ=             -0.0018  XZZ=              0.5802  YZZ=             -0.1011
  YYZ=             -0.9143  XYZ=              0.0001
 Hexadecapole moment (field-independent basis, Debye-Ang**3):
 XXXX=            -22.6532 YYYY=            -16.0085 ZZZZ=            -16.0065 XXXY=              0.0002
 XXXZ=             -0.0028 YYYX=              0.0211 YYYZ=              0.0001 ZZZX=              0.1731
 ZZZY=             -0.0002 XXYY=             -7.0825 XXZZ=             -7.0839 YYZZ=             -5.3368
 XXYZ=              0.0000 YYXZ=             -0.1876 ZZXY=             -0.0200
 N-N= 1.286765264767D+01 E-N=-1.184908277481D+02  KE= 3.989848485311D+01
 1\1\GINC-NODE85\SP\RM062X\6-31+G(d)\C1H4\YANZ\22-Sep-2023\0\\# 6-31+g(
 d) scrf=(solvent=water,pcm) int=ultrafine m062x scf=tight\\tmpdir/M1_c
 onf_76_1.gjf\\0,1\C,0,0.01480405,0.00000321,-0.00116314\H,0,-0.1011479
 3,0.92932971,-0.53321956\H,0,-0.10213167,-0.00392774,1.0695311\H,0,-0.
 10115872,-0.92538522,-0.54003854\H,0,1.39248759,-0.0000005,-0.00013535
 \\Version=ES64L-G16RevA.03\State=1-A\HF=-40.4428104\RMSD=2.154e-09\Dip
 ole=-0.0158647,-0.0000099,0.00003\Quadrupole=-0.687659,0.3438769,0.343
 7821,0.0000101,-0.0004216,0.0000093\PG=C01 [X(C1H4)]\\@


 YOU CAN LEAD A BOY TO COLLEGE....
 BUT YOU CANNOT MAKE HIM THINK....
           ELBERT HUBBARD
 Job cpu time:       0 days  0 hours  0 minutes  9.5 seconds.
 Elapsed time:       0 days  0 hours  0 minutes  4.8 seconds.
 File lengths (MBytes):  RWF=     11 Int=      0 D2E=      0 Chk=      1 Scr=      1
 Normal termination of Gaussian 16 at Fri Sep 22 17:07:42 2023.
