 Entering Gaussian System, Link 0=g16
 Initial command:
 /share/apps/gaussian/g16/l1.exe "/tmp/55661.mgr/Gau-140646.inp" -scrdir="/tmp/55661.mgr/"
 Entering Link 1 = /share/apps/gaussian/g16/l1.exe PID=    140653.
  
 Copyright (c) 1988,1990,1992,1993,1995,1998,2003,2009,2016,
            Gaussian, Inc.  All Rights Reserved.
  
 This is part of the Gaussian(R) 16 program.  It is based on
 the Gaussian(R) 09 system (copyright 2009, Gaussian, Inc.),
 the Gaussian(R) 03 system (copyright 2003, Gaussian, Inc.),
 the Gaussian(R) 98 system (copyright 1998, Gaussian, Inc.),
 the Gaussian(R) 94 system (copyright 1995, Gaussian, Inc.),
 the Gaussian 92(TM) system (copyright 1992, Gaussian, Inc.),
 the Gaussian 90(TM) system (copyright 1990, Gaussian, Inc.),
 the Gaussian 88(TM) system (copyright 1988, Gaussian, Inc.),
 the Gaussian 86(TM) system (copyright 1986, Carnegie Mellon
 University), and the Gaussian 82(TM) system (copyright 1983,
 Carnegie Mellon University). Gaussian is a federally registered
 trademark of Gaussian, Inc.
  
 This software contains proprietary and confidential information,
 including trade secrets, belonging to Gaussian, Inc.
  
 This software is provided under written license and may be
 used, copied, transmitted, or stored only in accord with that
 written license.
  
 The following legend is applicable only to US Government
 contracts under FAR:
  
                    RESTRICTED RIGHTS LEGEND
  
 Use, reproduction and disclosure by the US Government is
 subject to restrictions as set forth in subparagraphs (a)
 and (c) of the Commercial Computer Software - Restricted
 Rights clause in FAR 52.227-19.
  
 Gaussian, Inc.
 340 Quinnipiac St., Bldg. 40, Wallingford CT 06492
  
  
 ---------------------------------------------------------------
 Warning -- This program may not be used in any manner that
 competes with the business of Gaussian, Inc. or will provide
 assistance to any competitor of Gaussian, Inc.  The licensee
 of this program is prohibited from giving any competitor of
 Gaussian, Inc. access to this program.  By using this program,
 the user acknowledges that Gaussian, Inc. is engaged in the
 business of creating and licensing software in the field of
 computational chemistry and represents and warrants to the
 licensee that it is not a competitor of Gaussian, Inc. and that
 it will not use this program in any manner prohibited above.
 ---------------------------------------------------------------
  

 Cite this work as:
 Gaussian 16, Revision A.03,
 M. J. Frisch, G. W. Trucks, H. B. Schlegel, G. E. Scuseria, 
 M. A. Robb, J. R. Cheeseman, G. Scalmani, V. Barone, 
 G. A. Petersson, H. Nakatsuji, X. Li, M. Caricato, A. V. Marenich, 
 J. Bloino, B. G. Janesko, R. Gomperts, B. Mennucci, H. P. Hratchian, 
 J. V. Ortiz, A. F. Izmaylov, J. L. Sonnenberg, D. Williams-Young, 
 F. Ding, F. Lipparini, F. Egidi, J. Goings, B. Peng, A. Petrone, 
 T. Henderson, D. Ranasinghe, V. G. Zakrzewski, J. Gao, N. Rega, 
 G. Zheng, W. Liang, M. Hada, M. Ehara, K. Toyota, R. Fukuda, 
 J. Hasegawa, M. Ishida, T. Nakajima, Y. Honda, O. Kitao, H. Nakai, 
 T. Vreven, K. Throssell, J. A. Montgomery, Jr., J. E. Peralta, 
 F. Ogliaro, M. J. Bearpark, J. J. Heyd, E. N. Brothers, K. N. Kudin, 
 V. N. Staroverov, T. A. Keith, R. Kobayashi, J. Normand, 
 K. Raghavachari, A. P. Rendell, J. C. Burant, S. S. Iyengar, 
 J. Tomasi, M. Cossi, J. M. Millam, M. Klene, C. Adamo, R. Cammi, 
 J. W. Ochterski, R. L. Martin, K. Morokuma, O. Farkas, 
 J. B. Foresman, and D. J. Fox, Gaussian, Inc., Wallingford CT, 2016.
 
 ******************************************
 Gaussian 16:  ES64L-G16RevA.03 25-Dec-2016
                22-Sep-2023 
 ******************************************
 %nprocshared=2
 Will use up to    2 processors via shared memory.
 %mem=2GB
 ------------------------------------------------------------------
 # 6-31+g(d) scrf=(solvent=water,pcm) int=ultrafine m062x scf=tight
 ------------------------------------------------------------------
 1/38=1,172=1/1;
 2/12=2,17=6,18=5,40=1/2;
 3/5=1,6=6,7=11,11=2,25=1,30=1,70=2201,72=1,74=-55,75=-5/1,2,3;
 4//1;
 5/5=2,32=2,38=5,53=1/2;
 6/7=2,8=2,9=2,10=2,28=1/1;
 99/5=1,9=1/99;
 -----------------------
 tmpdir/M2_conf_84_4.gjf
 -----------------------
 Symbolic Z-matrix:
 Charge =  0 Multiplicity = 1
 C                     0.        0.        0. 
 Cl                    2.1984    0.        0. 
 H                    -0.33868   0.       -1.03373 
 H                    -0.33868   0.89524   0.51687 
 H                    -0.33868  -0.89524   0.51687 
 
                          Input orientation:                          
 ---------------------------------------------------------------------
 Center     Atomic      Atomic             Coordinates (Angstroms)
 Number     Number       Type             X           Y           Z
 ---------------------------------------------------------------------
      1          6           0        0.000000    0.000000    0.000000
      2         17           0        2.198400    0.000000    0.000000
      3          1           0       -0.338680    0.000000   -1.033730
      4          1           0       -0.338680    0.895240    0.516870
      5          1           0       -0.338680   -0.895240    0.516870
 ---------------------------------------------------------------------
                    Distance matrix (angstroms):
                    1          2          3          4          5
     1  C    0.000000
     2  Cl   2.198400   0.000000
     3  H    1.087797   2.739594   0.000000
     4  H    1.087802   2.739596   1.790479   0.000000
     5  H    1.087802   2.739596   1.790479   1.790480   0.000000
 This structure is nearly, but not quite of a higher symmetry.
 Consider Symm=Loose if the higher symmetry is desired.
 Stoichiometry    CH3Cl
 Framework group  CS[SG(CHCl),X(H2)]
 Deg. of freedom     6
 Full point group                 CS      NOp   2
 Largest Abelian subgroup         CS      NOp   2
 Largest concise Abelian subgroup CS      NOp   2
                         Standard orientation:                         
 ---------------------------------------------------------------------
 Center     Atomic      Atomic             Coordinates (Angstroms)
 Number     Number       Type             X           Y           Z
 ---------------------------------------------------------------------
      1          6           0       -0.000000   -1.398337    0.000000
      2         17           0       -0.000000    0.800063    0.000000
      3          1           0       -1.033730   -1.737017    0.000000
      4          1           0        0.516870   -1.737017    0.895240
      5          1           0        0.516870   -1.737017   -0.895240
 ---------------------------------------------------------------------
 Rotational constants (GHZ):         156.4204152           9.0442247           9.0442243
 Standard basis: 6-31+G(d) (6D, 7F)
 There are    35 symmetry adapted cartesian basis functions of A'  symmetry.
 There are    13 symmetry adapted cartesian basis functions of A"  symmetry.
 There are    35 symmetry adapted basis functions of A'  symmetry.
 There are    13 symmetry adapted basis functions of A"  symmetry.
    48 basis functions,   100 primitive gaussians,    48 cartesian basis functions
    13 alpha electrons       13 beta electrons
       nuclear repulsion energy        44.0465700775 Hartrees.
 NAtoms=    5 NActive=    5 NUniq=    4 SFac= 1.56D+00 NAtFMM=   60 NAOKFM=F Big=F
 Integral buffers will be    131072 words long.
 Raffenetti 2 integral format.
 Two-electron integral symmetry is turned on.
 ------------------------------------------------------------------------------
 Polarizable Continuum Model (PCM)
 =================================
 Model                : PCM.
 Atomic radii         : UFF (Universal Force Field).
 Polarization charges : Total charges.
 Charge compensation  : None.
 Solution method      : On-the-fly selection.
 Cavity type          : Scaled VdW (van der Waals Surface) (Alpha=1.100).
 Cavity algorithm     : GePol (No added spheres)
                        Default sphere list used, NSphG=    5.
                        Lebedev-Laikov grids with approx.  5.0 points / Ang**2.
                        Smoothing algorithm: York/Karplus (Gamma=1.0000).
                        Polarization charges: spherical gaussians, with
                                              point-specific exponents (IZeta= 3).
                        Self-potential: point-specific (ISelfS= 7).
                        Self-field    : sphere-specific E.n sum rule (ISelfD= 2).
 Solvent              : Water, Eps=  78.355300 Eps(inf)=   1.777849
 ------------------------------------------------------------------------------
 Spheres list:
 ISph  on   Nord     Re0    Alpha      Xe            Ye            Ze
    1   C      1    1.9255  1.100     -0.000000     -1.398337      0.000000
    2  Cl      2    1.9735  1.100     -0.000000      0.800063      0.000000
    3   H      3    1.4430  1.100     -1.033730     -1.737017      0.000000
    4   H      4    1.4430  1.100      0.516870     -1.737017      0.895240
    5   H      5    1.4430  1.100      0.516870     -1.737017     -0.895240
 ------------------------------------------------------------------------------
 One-electron integrals computed using PRISM.
 NBasis=    48 RedAO= T EigKep=  3.39D-03  NBF=    35    13
 NBsUse=    48 1.00D-06 EigRej= -1.00D+00 NBFU=    35    13
 ExpMin= 4.38D-02 ExpMax= 2.52D+04 ExpMxC= 3.78D+03 IAcc=3 IRadAn=         5 AccDes= 0.00D+00
 Harris functional with IExCor= 1009 and IRadAn=       5 diagonalized for initial guess.
 HarFok:  IExCor= 1009 AccDes= 0.00D+00 IRadAn=         5 IDoV= 1 UseB2=F ITyADJ=14
 ICtDFT=  3500011 ScaDFX=  1.000000  1.000000  1.000000  1.000000
 FoFCou: FMM=F IPFlag=           0 FMFlag=      100000 FMFlg1=           0
         NFxFlg=           0 DoJE=T BraDBF=F KetDBF=T FulRan=T
         wScrn=  0.000000 ICntrl=       500 IOpCl=  0 I1Cent=   200000004 NGrid=           0
         NMat0=    1 NMatS0=      1 NMatT0=    0 NMatD0=    1 NMtDS0=    0 NMtDT0=    0
 Petite list used in FoFCou.
 Initial guess orbital symmetries:
       Occupied  (A') (A') (A') (A') (A') (A") (A') (A') (A') (A")
                 (A') (A") (A')
       Virtual   (A') (A') (A") (A') (A') (A') (A") (A') (A") (A')
                 (A') (A') (A') (A") (A') (A') (A") (A') (A') (A')
                 (A") (A') (A") (A') (A") (A') (A') (A') (A') (A")
                 (A') (A") (A') (A') (A')
 The electronic state of the initial guess is 1-A'.
 Keep R1 ints in memory in symmetry-blocked form, NReq=2439665.
 Requested convergence on RMS density matrix=1.00D-08 within 128 cycles.
 Requested convergence on MAX density matrix=1.00D-06.
 Requested convergence on             energy=1.00D-06.
 No special actions if energy rises.
 Inv3:  Mode=1 IEnd=     1179387.
 Iteration    1 A*A^-1 deviation from unit magnitude is 3.11D-15 for    620.
 Iteration    1 A*A^-1 deviation from orthogonality  is 1.77D-15 for    608    584.
 Iteration    1 A^-1*A deviation from unit magnitude is 3.11D-15 for    620.
 Iteration    1 A^-1*A deviation from orthogonality  is 1.25D-15 for    625    573.
 Error on total polarization charges =  0.01143
 SCF Done:  E(RM062X) =  -500.015699122     A.U. after   10 cycles
            NFock= 10  Conv=0.60D-08     -V/T= 2.0038

 **********************************************************************

            Population analysis using the SCF density.

 **********************************************************************

 Orbital symmetries:
       Occupied  (A') (A') (A') (A') (A') (A") (A') (A') (A') (A")
                 (A') (A') (A")
       Virtual   (A') (A') (A') (A") (A') (A') (A") (A') (A') (A")
                 (A') (A') (A') (A") (A') (A') (A') (A") (A') (A')
                 (A") (A') (A") (A') (A") (A') (A') (A') (A') (A")
                 (A') (A") (A') (A') (A')
 The electronic state is 1-A'.
 Alpha  occ. eigenvalues -- -102.66341 -10.63744  -9.80686  -7.53063  -7.52438
 Alpha  occ. eigenvalues --   -7.52438  -0.89595  -0.79893  -0.51407  -0.51407
 Alpha  occ. eigenvalues --   -0.42581  -0.37274  -0.37273
 Alpha virt. eigenvalues --   -0.05189   0.03678   0.07021   0.07022   0.07153
 Alpha virt. eigenvalues --    0.09993   0.10902   0.10902   0.16700   0.21741
 Alpha virt. eigenvalues --    0.21742   0.29929   0.61298   0.61299   0.61361
 Alpha virt. eigenvalues --    0.68073   0.68917   0.68918   0.79203   0.87102
 Alpha virt. eigenvalues --    0.94701   0.94703   0.97918   0.97918   0.99351
 Alpha virt. eigenvalues --    0.99351   1.13187   1.30005   1.67506   1.67506
 Alpha virt. eigenvalues --    1.98258   2.28707   2.28707   4.17424   4.38232
          Condensed to atoms (all electrons):
               1          2          3          4          5
     1  C    5.345622   0.162345   0.359102   0.359094   0.359094
     2  Cl   0.162345  17.148753  -0.020262  -0.020257  -0.020257
     3  H    0.359102  -0.020262   0.429303  -0.023339  -0.023339
     4  H    0.359094  -0.020257  -0.023339   0.429324  -0.023343
     5  H    0.359094  -0.020257  -0.023339  -0.023343   0.429324
 Mulliken charges:
               1
     1  C   -0.585256
     2  Cl  -0.250321
     3  H    0.278534
     4  H    0.278521
     5  H    0.278521
 Sum of Mulliken charges =  -0.00000
 Mulliken charges with hydrogens summed into heavy atoms:
               1
     1  C    0.250321
     2  Cl  -0.250321
 Electronic spatial extent (au):  <R**2>=            166.5367
 Charge=             -0.0000 electrons
 Dipole moment (field-independent basis, Debye):
    X=              0.0002    Y=             -4.2158    Z=              0.0000  Tot=              4.2158
 Quadrupole moment (field-independent basis, Debye-Ang):
   XX=            -20.4316   YY=            -15.6406   ZZ=            -20.4315
   XY=              0.0003   XZ=              0.0000   YZ=             -0.0000
 Traceless Quadrupole moment (field-independent basis, Debye-Ang):
   XX=             -1.5970   YY=              3.1939   ZZ=             -1.5969
   XY=              0.0003   XZ=              0.0000   YZ=             -0.0000
 Octapole moment (field-independent basis, Debye-Ang**2):
  XXX=             -0.9809  YYY=             -7.6723  ZZZ=              0.0000  XYY=             -0.0001
  XXY=             -2.4351  XXZ=              0.0000  XZZ=              0.9815  YZZ=             -2.4351
  YYZ=              0.0000  XYZ=             -0.0000
 Hexadecapole moment (field-independent basis, Debye-Ang**3):
 XXXX=            -30.2357 YYYY=           -149.8069 ZZZZ=            -30.2357 XXXY=              1.7680
 XXXZ=              0.0000 YYYX=              0.0010 YYYZ=             -0.0000 ZZZX=              0.0000
 ZZZY=              0.0000 XXYY=            -30.6584 XXZZ=            -10.0786 YYZZ=            -30.6585
 XXYZ=             -0.0000 YYXZ=             -0.0000 ZZXY=             -1.7670
 N-N= 4.404657007750D+01 E-N=-1.273974917091D+03  KE= 4.981260640745D+02
 Symmetry A'   KE= 4.503785940589D+02
 Symmetry A"   KE= 4.774747001562D+01
 1\1\GINC-NODE60\SP\RM062X\6-31+G(d)\C1H3Cl1\YANZ\22-Sep-2023\0\\# 6-31
 +g(d) scrf=(solvent=water,pcm) int=ultrafine m062x scf=tight\\tmpdir/M
 2_conf_84_4.gjf\\0,1\C,0,0.,0.,0.\Cl,0,2.1984,0.,0.\H,0,-0.33868,0.,-1
 .03373\H,0,-0.33868,0.89524,0.51687\H,0,-0.33868,-0.89524,0.51687\\Ver
 sion=ES64L-G16RevA.03\State=1-A'\HF=-500.0156991\RMSD=5.970e-09\Dipole
 =-1.6586047,0.,0.0000593\Quadrupole=2.3746155,-1.1872773,-1.1873382,0.
 ,0.0001942,0.\PG=CS [SG(C1H1Cl1),X(H2)]\\@


 NOTHING RESEMBLES A NEW PHENOMENON AS MUCH AS A MISTAKE.

                               -- ENRICO FERMI (?)
 Job cpu time:       0 days  0 hours  0 minutes 12.6 seconds.
 Elapsed time:       0 days  0 hours  0 minutes  6.4 seconds.
 File lengths (MBytes):  RWF=     13 Int=      0 D2E=      0 Chk=      1 Scr=      1
 Normal termination of Gaussian 16 at Fri Sep 22 17:17:28 2023.
