 Entering Gaussian System, Link 0=g16
 Initial command:
 /share/apps/gaussian/g16/l1.exe "/tmp/55661.mgr/Gau-135553.inp" -scrdir="/tmp/55661.mgr/"
 Entering Link 1 = /share/apps/gaussian/g16/l1.exe PID=    135567.
  
 Copyright (c) 1988,1990,1992,1993,1995,1998,2003,2009,2016,
            Gaussian, Inc.  All Rights Reserved.
  
 This is part of the Gaussian(R) 16 program.  It is based on
 the Gaussian(R) 09 system (copyright 2009, Gaussian, Inc.),
 the Gaussian(R) 03 system (copyright 2003, Gaussian, Inc.),
 the Gaussian(R) 98 system (copyright 1998, Gaussian, Inc.),
 the Gaussian(R) 94 system (copyright 1995, Gaussian, Inc.),
 the Gaussian 92(TM) system (copyright 1992, Gaussian, Inc.),
 the Gaussian 90(TM) system (copyright 1990, Gaussian, Inc.),
 the Gaussian 88(TM) system (copyright 1988, Gaussian, Inc.),
 the Gaussian 86(TM) system (copyright 1986, Carnegie Mellon
 University), and the Gaussian 82(TM) system (copyright 1983,
 Carnegie Mellon University). Gaussian is a federally registered
 trademark of Gaussian, Inc.
  
 This software contains proprietary and confidential information,
 including trade secrets, belonging to Gaussian, Inc.
  
 This software is provided under written license and may be
 used, copied, transmitted, or stored only in accord with that
 written license.
  
 The following legend is applicable only to US Government
 contracts under FAR:
  
                    RESTRICTED RIGHTS LEGEND
  
 Use, reproduction and disclosure by the US Government is
 subject to restrictions as set forth in subparagraphs (a)
 and (c) of the Commercial Computer Software - Restricted
 Rights clause in FAR 52.227-19.
  
 Gaussian, Inc.
 340 Quinnipiac St., Bldg. 40, Wallingford CT 06492
  
  
 ---------------------------------------------------------------
 Warning -- This program may not be used in any manner that
 competes with the business of Gaussian, Inc. or will provide
 assistance to any competitor of Gaussian, Inc.  The licensee
 of this program is prohibited from giving any competitor of
 Gaussian, Inc. access to this program.  By using this program,
 the user acknowledges that Gaussian, Inc. is engaged in the
 business of creating and licensing software in the field of
 computational chemistry and represents and warrants to the
 licensee that it is not a competitor of Gaussian, Inc. and that
 it will not use this program in any manner prohibited above.
 ---------------------------------------------------------------
  

 Cite this work as:
 Gaussian 16, Revision A.03,
 M. J. Frisch, G. W. Trucks, H. B. Schlegel, G. E. Scuseria, 
 M. A. Robb, J. R. Cheeseman, G. Scalmani, V. Barone, 
 G. A. Petersson, H. Nakatsuji, X. Li, M. Caricato, A. V. Marenich, 
 J. Bloino, B. G. Janesko, R. Gomperts, B. Mennucci, H. P. Hratchian, 
 J. V. Ortiz, A. F. Izmaylov, J. L. Sonnenberg, D. Williams-Young, 
 F. Ding, F. Lipparini, F. Egidi, J. Goings, B. Peng, A. Petrone, 
 T. Henderson, D. Ranasinghe, V. G. Zakrzewski, J. Gao, N. Rega, 
 G. Zheng, W. Liang, M. Hada, M. Ehara, K. Toyota, R. Fukuda, 
 J. Hasegawa, M. Ishida, T. Nakajima, Y. Honda, O. Kitao, H. Nakai, 
 T. Vreven, K. Throssell, J. A. Montgomery, Jr., J. E. Peralta, 
 F. Ogliaro, M. J. Bearpark, J. J. Heyd, E. N. Brothers, K. N. Kudin, 
 V. N. Staroverov, T. A. Keith, R. Kobayashi, J. Normand, 
 K. Raghavachari, A. P. Rendell, J. C. Burant, S. S. Iyengar, 
 J. Tomasi, M. Cossi, J. M. Millam, M. Klene, C. Adamo, R. Cammi, 
 J. W. Ochterski, R. L. Martin, K. Morokuma, O. Farkas, 
 J. B. Foresman, and D. J. Fox, Gaussian, Inc., Wallingford CT, 2016.
 
 ******************************************
 Gaussian 16:  ES64L-G16RevA.03 25-Dec-2016
                22-Sep-2023 
 ******************************************
 %nprocshared=2
 Will use up to    2 processors via shared memory.
 %mem=2GB
 ------------------------------------------------------------------
 # 6-31+g(d) scrf=(solvent=water,pcm) int=ultrafine m062x scf=tight
 ------------------------------------------------------------------
 1/38=1,172=1/1;
 2/12=2,17=6,18=5,40=1/2;
 3/5=1,6=6,7=11,11=2,25=1,30=1,70=2201,72=1,74=-55,75=-5/1,2,3;
 4//1;
 5/5=2,32=2,38=5,53=1/2;
 6/7=2,8=2,9=2,10=2,28=1/1;
 99/5=1,9=1/99;
 -----------------------
 tmpdir/M2_conf_52_6.gjf
 -----------------------
 Symbolic Z-matrix:
 Charge =  0 Multiplicity = 1
 H                     0.        0.        0. 
 C                     1.0878    0.        0. 
 H                     1.54666   0.        0.98628 
 H                     1.47355   0.84981  -0.55886 
 H                     1.4479   -0.96738  -0.52175 
 
                          Input orientation:                          
 ---------------------------------------------------------------------
 Center     Atomic      Atomic             Coordinates (Angstroms)
 Number     Number       Type             X           Y           Z
 ---------------------------------------------------------------------
      1          1           0        0.000000    0.000000    0.000000
      2          6           0        1.087800    0.000000    0.000000
      3          1           0        1.546660    0.000000    0.986280
      4          1           0        1.473550    0.849810   -0.558860
      5          1           0        1.447900   -0.967380   -0.521750
 ---------------------------------------------------------------------
                    Distance matrix (angstroms):
                    1          2          3          4          5
     1  H    0.000000
     2  C    1.087800   0.000000
     3  H    1.834368   1.087796   0.000000
     4  H    1.790489   1.087798   1.764931   0.000000
     5  H    1.817818   1.156598   1.794361   1.817750   0.000000
 Stoichiometry    CH4
 Framework group  C1[X(CH4)]
 Deg. of freedom     9
 Full point group                 C1      NOp   1
 Largest Abelian subgroup         C1      NOp   1
 Largest concise Abelian subgroup C1      NOp   1
                         Standard orientation:                         
 ---------------------------------------------------------------------
 Center     Atomic      Atomic             Coordinates (Angstroms)
 Number     Number       Type             X           Y           Z
 ---------------------------------------------------------------------
      1          1           0       -1.012662    0.171767   -0.392582
      2          6           0       -0.011234   -0.012050   -0.009617
      3          1           0        0.691362   -0.413913   -0.736368
      4          1           0       -0.042582   -0.683060    0.845993
      5          1           0        0.431283    0.997507    0.340658
 ---------------------------------------------------------------------
 Rotational constants (GHZ):         157.0567362         155.6577035         149.4053737
 Standard basis: 6-31+G(d) (6D, 7F)
 There are    27 symmetry adapted cartesian basis functions of A   symmetry.
 There are    27 symmetry adapted basis functions of A   symmetry.
    27 basis functions,    48 primitive gaussians,    27 cartesian basis functions
     5 alpha electrons        5 beta electrons
       nuclear repulsion energy        13.2625599194 Hartrees.
 NAtoms=    5 NActive=    5 NUniq=    5 SFac= 1.00D+00 NAtFMM=   60 NAOKFM=F Big=F
 Integral buffers will be    131072 words long.
 Raffenetti 2 integral format.
 Two-electron integral symmetry is turned on.
 ------------------------------------------------------------------------------
 Polarizable Continuum Model (PCM)
 =================================
 Model                : PCM.
 Atomic radii         : UFF (Universal Force Field).
 Polarization charges : Total charges.
 Charge compensation  : None.
 Solution method      : On-the-fly selection.
 Cavity type          : Scaled VdW (van der Waals Surface) (Alpha=1.100).
 Cavity algorithm     : GePol (No added spheres)
                        Default sphere list used, NSphG=    5.
                        Lebedev-Laikov grids with approx.  5.0 points / Ang**2.
                        Smoothing algorithm: York/Karplus (Gamma=1.0000).
                        Polarization charges: spherical gaussians, with
                                              point-specific exponents (IZeta= 3).
                        Self-potential: point-specific (ISelfS= 7).
                        Self-field    : sphere-specific E.n sum rule (ISelfD= 2).
 Solvent              : Water, Eps=  78.355300 Eps(inf)=   1.777849
 ------------------------------------------------------------------------------
 Spheres list:
 ISph  on   Nord     Re0    Alpha      Xe            Ye            Ze
    1   H      1    1.4430  1.100     -1.012662      0.171767     -0.392582
    2   C      2    1.9255  1.100     -0.011234     -0.012050     -0.009617
    3   H      3    1.4430  1.100      0.691362     -0.413913     -0.736368
    4   H      4    1.4430  1.100     -0.042582     -0.683060      0.845993
    5   H      5    1.4430  1.100      0.431283      0.997507      0.340658
 ------------------------------------------------------------------------------
 One-electron integrals computed using PRISM.
 NBasis=    27 RedAO= T EigKep=  1.30D-02  NBF=    27
 NBsUse=    27 1.00D-06 EigRej= -1.00D+00 NBFU=    27
 ExpMin= 4.38D-02 ExpMax= 3.05D+03 ExpMxC= 4.57D+02 IAcc=3 IRadAn=         5 AccDes= 0.00D+00
 Harris functional with IExCor= 1009 and IRadAn=       5 diagonalized for initial guess.
 HarFok:  IExCor= 1009 AccDes= 0.00D+00 IRadAn=         5 IDoV= 1 UseB2=F ITyADJ=14
 ICtDFT=  3500011 ScaDFX=  1.000000  1.000000  1.000000  1.000000
 FoFCou: FMM=F IPFlag=           0 FMFlag=      100000 FMFlg1=           0
         NFxFlg=           0 DoJE=T BraDBF=F KetDBF=T FulRan=T
         wScrn=  0.000000 ICntrl=       500 IOpCl=  0 I1Cent=   200000004 NGrid=           0
         NMat0=    1 NMatS0=      1 NMatT0=    0 NMatD0=    1 NMtDS0=    0 NMtDT0=    0
 Petite list used in FoFCou.
 Keep R1 ints in memory in canonical form, NReq=1797958.
 Requested convergence on RMS density matrix=1.00D-08 within 128 cycles.
 Requested convergence on MAX density matrix=1.00D-06.
 Requested convergence on             energy=1.00D-06.
 No special actions if energy rises.
 Inv3:  Mode=1 IEnd=      744012.
 Iteration    1 A*A^-1 deviation from unit magnitude is 2.22D-15 for    380.
 Iteration    1 A*A^-1 deviation from orthogonality  is 9.86D-16 for    457     77.
 Iteration    1 A^-1*A deviation from unit magnitude is 2.22D-15 for    380.
 Iteration    1 A^-1*A deviation from orthogonality  is 1.25D-15 for    405    190.
 Error on total polarization charges =  0.00838
 SCF Done:  E(RM062X) =  -40.4807233427     A.U. after    9 cycles
            NFock=  9  Conv=0.22D-09     -V/T= 2.0114

 **********************************************************************

            Population analysis using the SCF density.

 **********************************************************************

 Orbital symmetries:
       Occupied  (A) (A) (A) (A) (A)
       Virtual   (A) (A) (A) (A) (A) (A) (A) (A) (A) (A) (A) (A)
                 (A) (A) (A) (A) (A) (A) (A) (A) (A) (A)
 The electronic state is 1-A.
 Alpha  occ. eigenvalues --  -10.53196  -0.78183  -0.46690  -0.45527  -0.43820
 Alpha virt. eigenvalues --    0.03927   0.07105   0.07184   0.07366   0.21035
 Alpha virt. eigenvalues --    0.22970   0.23857   0.30654   0.68964   0.69073
 Alpha virt. eigenvalues --    0.70528   0.96094   0.99652   1.01716   1.10843
 Alpha virt. eigenvalues --    1.17203   1.70862   1.71514   2.27782   2.31526
 Alpha virt. eigenvalues --    2.34320   4.23372
          Condensed to atoms (all electrons):
               1          2          3          4          5
     1  H    0.473248   0.378116  -0.018347  -0.022634  -0.023475
     2  C    0.378116   5.323413   0.377008   0.376976   0.373498
     3  H   -0.018347   0.377008   0.479744  -0.024960  -0.025478
     4  H   -0.022634   0.376976  -0.024960   0.482562  -0.022922
     5  H   -0.023475   0.373498  -0.025478  -0.022922   0.505470
 Mulliken charges:
               1
     1  H    0.213092
     2  C   -0.829011
     3  H    0.212033
     4  H    0.210978
     5  H    0.192907
 Sum of Mulliken charges =  -0.00000
 Mulliken charges with hydrogens summed into heavy atoms:
               1
     2  C   -0.000000
 Electronic spatial extent (au):  <R**2>=             36.4367
 Charge=              0.0000 electrons
 Dipole moment (field-independent basis, Debye):
    X=              0.0161    Y=             -0.0246    Z=              0.0130  Tot=              0.0322
 Quadrupole moment (field-independent basis, Debye-Ang):
   XX=             -8.3487   YY=             -8.5731   ZZ=             -8.6279
   XY=             -0.0872   XZ=             -0.0248   YZ=             -0.0664
 Traceless Quadrupole moment (field-independent basis, Debye-Ang):
   XX=              0.1678   YY=             -0.0565   ZZ=             -0.1114
   XY=             -0.0872   XZ=             -0.0248   YZ=             -0.0664
 Octapole moment (field-independent basis, Debye-Ang**2):
  XXX=             -0.5793  YYY=              0.2014  ZZZ=              0.1232  XYY=              0.3534
  XXY=              0.0613  XXZ=             -0.5890  XZZ=              0.1753  YZZ=             -0.5180
  YYZ=              0.4287  XYZ=              0.3483
 Hexadecapole moment (field-independent basis, Debye-Ang**3):
 XXXX=            -16.5181 YYYY=            -17.3905 ZZZZ=            -16.7888 XXXY=             -0.4878
 XXXZ=              0.1481 YYYX=              0.2457 YYYZ=             -0.0241 ZZZX=             -0.3144
 ZZZY=             -0.4175 XXYY=             -5.7973 XXZZ=             -5.4644 YYZZ=             -5.4684
 XXYZ=              0.1072 YYXZ=              0.0452 ZZXY=             -0.1957
 N-N= 1.326255991936D+01 E-N=-1.194642771170D+02  KE= 4.002588014423D+01
 1\1\GINC-NODE60\SP\RM062X\6-31+G(d)\C1H4\YANZ\22-Sep-2023\0\\# 6-31+g(
 d) scrf=(solvent=water,pcm) int=ultrafine m062x scf=tight\\tmpdir/M2_c
 onf_52_6.gjf\\0,1\H,0,0.,0.,0.\C,0,1.0878,0.,0.\H,0,1.54666,0.,0.98628
 \H,0,1.47355,0.84981,-0.55886\H,0,1.4479,-0.96738,-0.52175\\Version=ES
 64L-G16RevA.03\State=1-A\HF=-40.4807233\RMSD=2.205e-10\Dipole=0.009275
 5,0.0086009,0.0003606\Quadrupole=0.1083757,-0.0390313,-0.0693444,0.023
 3915,0.0909238,-0.0349113\PG=C01 [X(C1H4)]\\@


 MAN IS THE MEASURE OF ALL THINGS.
  -- PROTAGORAS (5TH CENTURY B.C.)
 Job cpu time:       0 days  0 hours  0 minutes 10.2 seconds.
 Elapsed time:       0 days  0 hours  0 minutes  5.2 seconds.
 File lengths (MBytes):  RWF=     11 Int=      0 D2E=      0 Chk=      1 Scr=      1
 Normal termination of Gaussian 16 at Fri Sep 22 17:13:51 2023.
