 Entering Gaussian System, Link 0=g16
 Initial command:
 /share/apps/gaussian/g16/l1.exe "/tmp/55661.mgr/Gau-142400.inp" -scrdir="/tmp/55661.mgr/"
 Entering Link 1 = /share/apps/gaussian/g16/l1.exe PID=    142412.
  
 Copyright (c) 1988,1990,1992,1993,1995,1998,2003,2009,2016,
            Gaussian, Inc.  All Rights Reserved.
  
 This is part of the Gaussian(R) 16 program.  It is based on
 the Gaussian(R) 09 system (copyright 2009, Gaussian, Inc.),
 the Gaussian(R) 03 system (copyright 2003, Gaussian, Inc.),
 the Gaussian(R) 98 system (copyright 1998, Gaussian, Inc.),
 the Gaussian(R) 94 system (copyright 1995, Gaussian, Inc.),
 the Gaussian 92(TM) system (copyright 1992, Gaussian, Inc.),
 the Gaussian 90(TM) system (copyright 1990, Gaussian, Inc.),
 the Gaussian 88(TM) system (copyright 1988, Gaussian, Inc.),
 the Gaussian 86(TM) system (copyright 1986, Carnegie Mellon
 University), and the Gaussian 82(TM) system (copyright 1983,
 Carnegie Mellon University). Gaussian is a federally registered
 trademark of Gaussian, Inc.
  
 This software contains proprietary and confidential information,
 including trade secrets, belonging to Gaussian, Inc.
  
 This software is provided under written license and may be
 used, copied, transmitted, or stored only in accord with that
 written license.
  
 The following legend is applicable only to US Government
 contracts under FAR:
  
                    RESTRICTED RIGHTS LEGEND
  
 Use, reproduction and disclosure by the US Government is
 subject to restrictions as set forth in subparagraphs (a)
 and (c) of the Commercial Computer Software - Restricted
 Rights clause in FAR 52.227-19.
  
 Gaussian, Inc.
 340 Quinnipiac St., Bldg. 40, Wallingford CT 06492
  
  
 ---------------------------------------------------------------
 Warning -- This program may not be used in any manner that
 competes with the business of Gaussian, Inc. or will provide
 assistance to any competitor of Gaussian, Inc.  The licensee
 of this program is prohibited from giving any competitor of
 Gaussian, Inc. access to this program.  By using this program,
 the user acknowledges that Gaussian, Inc. is engaged in the
 business of creating and licensing software in the field of
 computational chemistry and represents and warrants to the
 licensee that it is not a competitor of Gaussian, Inc. and that
 it will not use this program in any manner prohibited above.
 ---------------------------------------------------------------
  

 Cite this work as:
 Gaussian 16, Revision A.03,
 M. J. Frisch, G. W. Trucks, H. B. Schlegel, G. E. Scuseria, 
 M. A. Robb, J. R. Cheeseman, G. Scalmani, V. Barone, 
 G. A. Petersson, H. Nakatsuji, X. Li, M. Caricato, A. V. Marenich, 
 J. Bloino, B. G. Janesko, R. Gomperts, B. Mennucci, H. P. Hratchian, 
 J. V. Ortiz, A. F. Izmaylov, J. L. Sonnenberg, D. Williams-Young, 
 F. Ding, F. Lipparini, F. Egidi, J. Goings, B. Peng, A. Petrone, 
 T. Henderson, D. Ranasinghe, V. G. Zakrzewski, J. Gao, N. Rega, 
 G. Zheng, W. Liang, M. Hada, M. Ehara, K. Toyota, R. Fukuda, 
 J. Hasegawa, M. Ishida, T. Nakajima, Y. Honda, O. Kitao, H. Nakai, 
 T. Vreven, K. Throssell, J. A. Montgomery, Jr., J. E. Peralta, 
 F. Ogliaro, M. J. Bearpark, J. J. Heyd, E. N. Brothers, K. N. Kudin, 
 V. N. Staroverov, T. A. Keith, R. Kobayashi, J. Normand, 
 K. Raghavachari, A. P. Rendell, J. C. Burant, S. S. Iyengar, 
 J. Tomasi, M. Cossi, J. M. Millam, M. Klene, C. Adamo, R. Cammi, 
 J. W. Ochterski, R. L. Martin, K. Morokuma, O. Farkas, 
 J. B. Foresman, and D. J. Fox, Gaussian, Inc., Wallingford CT, 2016.
 
 ******************************************
 Gaussian 16:  ES64L-G16RevA.03 25-Dec-2016
                22-Sep-2023 
 ******************************************
 %nprocshared=2
 Will use up to    2 processors via shared memory.
 %mem=2GB
 ------------------------------------------------------------------
 # 6-31+g(d) scrf=(solvent=water,pcm) int=ultrafine m062x scf=tight
 ------------------------------------------------------------------
 1/38=1,172=1/1;
 2/12=2,17=6,18=5,40=1/2;
 3/5=1,6=6,7=11,11=2,25=1,30=1,70=2201,72=1,74=-55,75=-5/1,2,3;
 4//1;
 5/5=2,32=2,38=5,53=1/2;
 6/7=2,8=2,9=2,10=2,28=1/1;
 99/5=1,9=1/99;
 -----------------------
 tmpdir/M2_conf_95_8.gjf
 -----------------------
 Symbolic Z-matrix:
 Charge =  0 Multiplicity = 1
 H                     0.        0.        0. 
 C                     1.0878    0.        0. 
 H                     1.6317    0.        0.94206 
 H                     1.47355  -0.84981  -0.55886 
 H                     1.4479    0.96738  -0.52175 
 
                          Input orientation:                          
 ---------------------------------------------------------------------
 Center     Atomic      Atomic             Coordinates (Angstroms)
 Number     Number       Type             X           Y           Z
 ---------------------------------------------------------------------
      1          1           0        0.000000    0.000000    0.000000
      2          6           0        1.087800    0.000000    0.000000
      3          1           0        1.631700    0.000000    0.942060
      4          1           0        1.473550   -0.849810   -0.558860
      5          1           0        1.447900    0.967380   -0.521750
 ---------------------------------------------------------------------
                    Distance matrix (angstroms):
                    1          2          3          4          5
     1  H    0.000000
     2  C    1.087800   0.000000
     3  H    1.884124   1.087798   0.000000
     4  H    1.790489   1.087798   1.732036   0.000000
     5  H    1.817818   1.156598   1.764184   1.817750   0.000000
 Stoichiometry    CH4
 Framework group  C1[X(CH4)]
 Deg. of freedom     9
 Full point group                 C1      NOp   1
 Largest Abelian subgroup         C1      NOp   1
 Largest concise Abelian subgroup C1      NOp   1
                         Standard orientation:                         
 ---------------------------------------------------------------------
 Center     Atomic      Atomic             Coordinates (Angstroms)
 Number     Number       Type             X           Y           Z
 ---------------------------------------------------------------------
      1          1           0        1.043154   -0.002279   -0.373909
      2          6           0        0.015319   -0.013518   -0.017905
      3          1           0       -0.801934   -0.162436   -0.720204
      4          1           0       -0.118708   -0.772370    0.749874
      5          1           0       -0.214427    1.018196    0.451670
 ---------------------------------------------------------------------
 Rotational constants (GHZ):         162.3162709         155.6562799         145.1360270
 Standard basis: 6-31+G(d) (6D, 7F)
 There are    27 symmetry adapted cartesian basis functions of A   symmetry.
 There are    27 symmetry adapted basis functions of A   symmetry.
    27 basis functions,    48 primitive gaussians,    27 cartesian basis functions
     5 alpha electrons        5 beta electrons
       nuclear repulsion energy        13.2656762518 Hartrees.
 NAtoms=    5 NActive=    5 NUniq=    5 SFac= 1.00D+00 NAtFMM=   60 NAOKFM=F Big=F
 Integral buffers will be    131072 words long.
 Raffenetti 2 integral format.
 Two-electron integral symmetry is turned on.
 ------------------------------------------------------------------------------
 Polarizable Continuum Model (PCM)
 =================================
 Model                : PCM.
 Atomic radii         : UFF (Universal Force Field).
 Polarization charges : Total charges.
 Charge compensation  : None.
 Solution method      : On-the-fly selection.
 Cavity type          : Scaled VdW (van der Waals Surface) (Alpha=1.100).
 Cavity algorithm     : GePol (No added spheres)
                        Default sphere list used, NSphG=    5.
                        Lebedev-Laikov grids with approx.  5.0 points / Ang**2.
                        Smoothing algorithm: York/Karplus (Gamma=1.0000).
                        Polarization charges: spherical gaussians, with
                                              point-specific exponents (IZeta= 3).
                        Self-potential: point-specific (ISelfS= 7).
                        Self-field    : sphere-specific E.n sum rule (ISelfD= 2).
 Solvent              : Water, Eps=  78.355300 Eps(inf)=   1.777849
 ------------------------------------------------------------------------------
 Spheres list:
 ISph  on   Nord     Re0    Alpha      Xe            Ye            Ze
    1   H      1    1.4430  1.100      1.043154     -0.002279     -0.373909
    2   C      2    1.9255  1.100      0.015319     -0.013518     -0.017905
    3   H      3    1.4430  1.100     -0.801934     -0.162436     -0.720204
    4   H      4    1.4430  1.100     -0.118708     -0.772370      0.749874
    5   H      5    1.4430  1.100     -0.214427      1.018196      0.451670
 ------------------------------------------------------------------------------
 One-electron integrals computed using PRISM.
 NBasis=    27 RedAO= T EigKep=  1.31D-02  NBF=    27
 NBsUse=    27 1.00D-06 EigRej= -1.00D+00 NBFU=    27
 ExpMin= 4.38D-02 ExpMax= 3.05D+03 ExpMxC= 4.57D+02 IAcc=3 IRadAn=         5 AccDes= 0.00D+00
 Harris functional with IExCor= 1009 and IRadAn=       5 diagonalized for initial guess.
 HarFok:  IExCor= 1009 AccDes= 0.00D+00 IRadAn=         5 IDoV= 1 UseB2=F ITyADJ=14
 ICtDFT=  3500011 ScaDFX=  1.000000  1.000000  1.000000  1.000000
 FoFCou: FMM=F IPFlag=           0 FMFlag=      100000 FMFlg1=           0
         NFxFlg=           0 DoJE=T BraDBF=F KetDBF=T FulRan=T
         wScrn=  0.000000 ICntrl=       500 IOpCl=  0 I1Cent=   200000004 NGrid=           0
         NMat0=    1 NMatS0=      1 NMatT0=    0 NMatD0=    1 NMtDS0=    0 NMtDT0=    0
 Petite list used in FoFCou.
 Keep R1 ints in memory in canonical form, NReq=1797958.
 Requested convergence on RMS density matrix=1.00D-08 within 128 cycles.
 Requested convergence on MAX density matrix=1.00D-06.
 Requested convergence on             energy=1.00D-06.
 No special actions if energy rises.
 Inv3:  Mode=1 IEnd=      753003.
 Iteration    1 A*A^-1 deviation from unit magnitude is 2.78D-15 for    480.
 Iteration    1 A*A^-1 deviation from orthogonality  is 1.25D-15 for    364     20.
 Iteration    1 A^-1*A deviation from unit magnitude is 2.55D-15 for    480.
 Iteration    1 A^-1*A deviation from orthogonality  is 2.77D-15 for    482    335.
 Error on total polarization charges =  0.00841
 SCF Done:  E(RM062X) =  -40.4786075686     A.U. after    9 cycles
            NFock=  9  Conv=0.22D-08     -V/T= 2.0113

 **********************************************************************

            Population analysis using the SCF density.

 **********************************************************************

 Orbital symmetries:
       Occupied  (A) (A) (A) (A) (A)
       Virtual   (A) (A) (A) (A) (A) (A) (A) (A) (A) (A) (A) (A)
                 (A) (A) (A) (A) (A) (A) (A) (A) (A) (A)
 The electronic state is 1-A.
 Alpha  occ. eigenvalues --  -10.53209  -0.78230  -0.47514  -0.45178  -0.43281
 Alpha virt. eigenvalues --    0.03921   0.07046   0.07211   0.07388   0.20661
 Alpha virt. eigenvalues --    0.22636   0.24513   0.30566   0.68963   0.69270
 Alpha virt. eigenvalues --    0.70535   0.95212   0.98917   1.03048   1.11218
 Alpha virt. eigenvalues --    1.16875   1.70590   1.72463   2.28240   2.28533
 Alpha virt. eigenvalues --    2.35669   4.23157
          Condensed to atoms (all electrons):
               1          2          3          4          5
     1  H    0.465892   0.378821  -0.013890  -0.022796  -0.023639
     2  C    0.378821   5.327036   0.376059   0.376648   0.373414
     3  H   -0.013890   0.376059   0.481115  -0.028310  -0.028412
     4  H   -0.022796   0.376648  -0.028310   0.486363  -0.022483
     5  H   -0.023639   0.373414  -0.028412  -0.022483   0.508770
 Mulliken charges:
               1
     1  H    0.215613
     2  C   -0.831979
     3  H    0.213439
     4  H    0.210578
     5  H    0.192349
 Sum of Mulliken charges =   0.00000
 Mulliken charges with hydrogens summed into heavy atoms:
               1
     2  C    0.000000
 Electronic spatial extent (au):  <R**2>=             36.4376
 Charge=              0.0000 electrons
 Dipole moment (field-independent basis, Debye):
    X=             -0.0497    Y=             -0.0201    Z=              0.0354  Tot=              0.0642
 Quadrupole moment (field-independent basis, Debye-Ang):
   XX=             -8.1398   YY=             -8.6012   ZZ=             -8.8280
   XY=              0.0425   XZ=              0.0102   YZ=             -0.0913
 Traceless Quadrupole moment (field-independent basis, Debye-Ang):
   XX=              0.3832   YY=             -0.0782   ZZ=             -0.3050
   XY=              0.0425   XZ=              0.0102   YZ=             -0.0913
 Octapole moment (field-independent basis, Debye-Ang**2):
  XXX=              0.5097  YYY=              0.1786  ZZZ=              0.0714  XYY=             -0.2654
  XXY=             -0.1183  XXZ=             -0.7070  XZZ=             -0.3033  YZZ=             -0.3094
  YYZ=              0.6361  XYZ=             -0.0848
 Hexadecapole moment (field-independent basis, Debye-Ang**3):
 XXXX=            -16.1673 YYYY=            -17.2533 ZZZZ=            -16.9738 XXXY=              0.1927
 XXXZ=             -0.0172 YYYX=             -0.0985 YYYZ=             -0.0670 ZZZX=              0.2168
 ZZZY=             -0.4200 XXYY=             -6.0816 XXZZ=             -5.4012 YYZZ=             -5.4604
 XXYZ=              0.0246 YYXZ=             -0.1542 ZZXY=              0.1169
 N-N= 1.326567625175D+01 E-N=-1.194660429125D+02  KE= 4.002567078939D+01
 1\1\GINC-NODE60\SP\RM062X\6-31+G(d)\C1H4\YANZ\22-Sep-2023\0\\# 6-31+g(
 d) scrf=(solvent=water,pcm) int=ultrafine m062x scf=tight\\tmpdir/M2_c
 onf_95_8.gjf\\0,1\H,0,0.,0.,0.\C,0,1.0878,0.,0.\H,0,1.6317,0.,0.94206\
 H,0,1.47355,-0.84981,-0.55886\H,0,1.4479,0.96738,-0.52175\\Version=ES6
 4L-G16RevA.03\State=1-A\HF=-40.4786076\RMSD=2.181e-09\Dipole=0.0231149
 ,-0.0085951,-0.0055277\Quadrupole=0.2264766,-0.0449942,-0.1814824,-0.0
 236532,0.1691838,0.0366603\PG=C01 [X(C1H4)]\\@


 WHAT, THEN, IS TIME?  IF NO ONE ASKS ME, I KNOW WHAT IT IS.
 IF I WISH TO EXPLAIN WHAT IT IS TO HIM WHO ASKS ME, I DO NOT KNOW.
                                   -- ST. AUGUSTINE (FIFTH CENTURY)
 Job cpu time:       0 days  0 hours  0 minutes 10.5 seconds.
 Elapsed time:       0 days  0 hours  0 minutes  5.4 seconds.
 File lengths (MBytes):  RWF=     11 Int=      0 D2E=      0 Chk=      1 Scr=      1
 Normal termination of Gaussian 16 at Fri Sep 22 17:18:45 2023.
