 Entering Gaussian System, Link 0=g16
 Initial command:
 /share/apps/gaussian/g16/l1.exe "/tmp/55661.mgr/Gau-132696.inp" -scrdir="/tmp/55661.mgr/"
 Entering Link 1 = /share/apps/gaussian/g16/l1.exe PID=    132706.
  
 Copyright (c) 1988,1990,1992,1993,1995,1998,2003,2009,2016,
            Gaussian, Inc.  All Rights Reserved.
  
 This is part of the Gaussian(R) 16 program.  It is based on
 the Gaussian(R) 09 system (copyright 2009, Gaussian, Inc.),
 the Gaussian(R) 03 system (copyright 2003, Gaussian, Inc.),
 the Gaussian(R) 98 system (copyright 1998, Gaussian, Inc.),
 the Gaussian(R) 94 system (copyright 1995, Gaussian, Inc.),
 the Gaussian 92(TM) system (copyright 1992, Gaussian, Inc.),
 the Gaussian 90(TM) system (copyright 1990, Gaussian, Inc.),
 the Gaussian 88(TM) system (copyright 1988, Gaussian, Inc.),
 the Gaussian 86(TM) system (copyright 1986, Carnegie Mellon
 University), and the Gaussian 82(TM) system (copyright 1983,
 Carnegie Mellon University). Gaussian is a federally registered
 trademark of Gaussian, Inc.
  
 This software contains proprietary and confidential information,
 including trade secrets, belonging to Gaussian, Inc.
  
 This software is provided under written license and may be
 used, copied, transmitted, or stored only in accord with that
 written license.
  
 The following legend is applicable only to US Government
 contracts under FAR:
  
                    RESTRICTED RIGHTS LEGEND
  
 Use, reproduction and disclosure by the US Government is
 subject to restrictions as set forth in subparagraphs (a)
 and (c) of the Commercial Computer Software - Restricted
 Rights clause in FAR 52.227-19.
  
 Gaussian, Inc.
 340 Quinnipiac St., Bldg. 40, Wallingford CT 06492
  
  
 ---------------------------------------------------------------
 Warning -- This program may not be used in any manner that
 competes with the business of Gaussian, Inc. or will provide
 assistance to any competitor of Gaussian, Inc.  The licensee
 of this program is prohibited from giving any competitor of
 Gaussian, Inc. access to this program.  By using this program,
 the user acknowledges that Gaussian, Inc. is engaged in the
 business of creating and licensing software in the field of
 computational chemistry and represents and warrants to the
 licensee that it is not a competitor of Gaussian, Inc. and that
 it will not use this program in any manner prohibited above.
 ---------------------------------------------------------------
  

 Cite this work as:
 Gaussian 16, Revision A.03,
 M. J. Frisch, G. W. Trucks, H. B. Schlegel, G. E. Scuseria, 
 M. A. Robb, J. R. Cheeseman, G. Scalmani, V. Barone, 
 G. A. Petersson, H. Nakatsuji, X. Li, M. Caricato, A. V. Marenich, 
 J. Bloino, B. G. Janesko, R. Gomperts, B. Mennucci, H. P. Hratchian, 
 J. V. Ortiz, A. F. Izmaylov, J. L. Sonnenberg, D. Williams-Young, 
 F. Ding, F. Lipparini, F. Egidi, J. Goings, B. Peng, A. Petrone, 
 T. Henderson, D. Ranasinghe, V. G. Zakrzewski, J. Gao, N. Rega, 
 G. Zheng, W. Liang, M. Hada, M. Ehara, K. Toyota, R. Fukuda, 
 J. Hasegawa, M. Ishida, T. Nakajima, Y. Honda, O. Kitao, H. Nakai, 
 T. Vreven, K. Throssell, J. A. Montgomery, Jr., J. E. Peralta, 
 F. Ogliaro, M. J. Bearpark, J. J. Heyd, E. N. Brothers, K. N. Kudin, 
 V. N. Staroverov, T. A. Keith, R. Kobayashi, J. Normand, 
 K. Raghavachari, A. P. Rendell, J. C. Burant, S. S. Iyengar, 
 J. Tomasi, M. Cossi, J. M. Millam, M. Klene, C. Adamo, R. Cammi, 
 J. W. Ochterski, R. L. Martin, K. Morokuma, O. Farkas, 
 J. B. Foresman, and D. J. Fox, Gaussian, Inc., Wallingford CT, 2016.
 
 ******************************************
 Gaussian 16:  ES64L-G16RevA.03 25-Dec-2016
                22-Sep-2023 
 ******************************************
 %nprocshared=2
 Will use up to    2 processors via shared memory.
 %mem=2GB
 ------------------------------------------------------------------
 # 6-31+g(d) scrf=(solvent=water,pcm) int=ultrafine m062x scf=tight
 ------------------------------------------------------------------
 1/38=1,172=1/1;
 2/12=2,17=6,18=5,40=1/2;
 3/5=1,6=6,7=11,11=2,25=1,30=1,70=2201,72=1,74=-55,75=-5/1,2,3;
 4//1;
 5/5=2,32=2,38=5,53=1/2;
 6/7=2,8=2,9=2,10=2,28=1/1;
 99/5=1,9=1/99;
 -----------------------
 tmpdir/M2_conf_34_9.gjf
 -----------------------
 Symbolic Z-matrix:
 Charge =  0 Multiplicity = 1
 H                     0.        0.        0. 
 C                     1.0878    0.        0. 
 Cl                    1.61514   0.        1.71841 
 H                     1.47355   0.8952   -0.48282 
 H                     1.47355  -0.8952   -0.48282 
 
                          Input orientation:                          
 ---------------------------------------------------------------------
 Center     Atomic      Atomic             Coordinates (Angstroms)
 Number     Number       Type             X           Y           Z
 ---------------------------------------------------------------------
      1          1           0        0.000000    0.000000    0.000000
      2          6           0        1.087800    0.000000    0.000000
      3         17           0        1.615140    0.000000    1.718410
      4          1           0        1.473550    0.895200   -0.482820
      5          1           0        1.473550   -0.895200   -0.482820
 ---------------------------------------------------------------------
                    Distance matrix (angstroms):
                    1          2          3          4          5
     1  H    0.000000
     2  C    1.087800   0.000000
     3  Cl   2.358307   1.797504   0.000000
     4  H    1.790488   1.087797   2.380513   0.000000
     5  H    1.790488   1.087797   2.380513   1.790400   0.000000
 Stoichiometry    CH3Cl
 Framework group  CS[SG(CHCl),X(H2)]
 Deg. of freedom     6
 Full point group                 CS      NOp   2
 Largest Abelian subgroup         CS      NOp   2
 Largest concise Abelian subgroup CS      NOp   2
                         Standard orientation:                         
 ---------------------------------------------------------------------
 Center     Atomic      Atomic             Coordinates (Angstroms)
 Number     Number       Type             X           Y           Z
 ---------------------------------------------------------------------
      1          1           0       -1.039200    1.455348    0.000000
      2          6           0        0.000734    1.136216    0.000000
      3         17           0        0.000734   -0.661288   -0.000000
      4          1           0        0.511157    1.484622    0.895200
      5          1           0        0.511157    1.484622   -0.895200
 ---------------------------------------------------------------------
 Rotational constants (GHZ):         156.4463211          13.1369915          13.1369066
 Standard basis: 6-31+G(d) (6D, 7F)
 There are    35 symmetry adapted cartesian basis functions of A'  symmetry.
 There are    13 symmetry adapted cartesian basis functions of A"  symmetry.
 There are    35 symmetry adapted basis functions of A'  symmetry.
 There are    13 symmetry adapted basis functions of A"  symmetry.
    48 basis functions,   100 primitive gaussians,    48 cartesian basis functions
    13 alpha electrons       13 beta electrons
       nuclear repulsion energy        51.0440600337 Hartrees.
 NAtoms=    5 NActive=    5 NUniq=    4 SFac= 1.56D+00 NAtFMM=   60 NAOKFM=F Big=F
 Integral buffers will be    131072 words long.
 Raffenetti 2 integral format.
 Two-electron integral symmetry is turned on.
 ------------------------------------------------------------------------------
 Polarizable Continuum Model (PCM)
 =================================
 Model                : PCM.
 Atomic radii         : UFF (Universal Force Field).
 Polarization charges : Total charges.
 Charge compensation  : None.
 Solution method      : On-the-fly selection.
 Cavity type          : Scaled VdW (van der Waals Surface) (Alpha=1.100).
 Cavity algorithm     : GePol (No added spheres)
                        Default sphere list used, NSphG=    5.
                        Lebedev-Laikov grids with approx.  5.0 points / Ang**2.
                        Smoothing algorithm: York/Karplus (Gamma=1.0000).
                        Polarization charges: spherical gaussians, with
                                              point-specific exponents (IZeta= 3).
                        Self-potential: point-specific (ISelfS= 7).
                        Self-field    : sphere-specific E.n sum rule (ISelfD= 2).
 Solvent              : Water, Eps=  78.355300 Eps(inf)=   1.777849
 ------------------------------------------------------------------------------
 Spheres list:
 ISph  on   Nord     Re0    Alpha      Xe            Ye            Ze
    1   H      1    1.4430  1.100     -1.039200      1.455348      0.000000
    2   C      2    1.9255  1.100      0.000734      1.136216      0.000000
    3  Cl      3    1.9735  1.100      0.000734     -0.661288     -0.000000
    4   H      4    1.4430  1.100      0.511157      1.484622      0.895200
    5   H      5    1.4430  1.100      0.511157      1.484622     -0.895200
 ------------------------------------------------------------------------------
 One-electron integrals computed using PRISM.
 NBasis=    48 RedAO= T EigKep=  1.40D-03  NBF=    35    13
 NBsUse=    48 1.00D-06 EigRej= -1.00D+00 NBFU=    35    13
 ExpMin= 4.38D-02 ExpMax= 2.52D+04 ExpMxC= 3.78D+03 IAcc=3 IRadAn=         5 AccDes= 0.00D+00
 Harris functional with IExCor= 1009 and IRadAn=       5 diagonalized for initial guess.
 HarFok:  IExCor= 1009 AccDes= 0.00D+00 IRadAn=         5 IDoV= 1 UseB2=F ITyADJ=14
 ICtDFT=  3500011 ScaDFX=  1.000000  1.000000  1.000000  1.000000
 FoFCou: FMM=F IPFlag=           0 FMFlag=      100000 FMFlg1=           0
         NFxFlg=           0 DoJE=T BraDBF=F KetDBF=T FulRan=T
         wScrn=  0.000000 ICntrl=       500 IOpCl=  0 I1Cent=   200000004 NGrid=           0
         NMat0=    1 NMatS0=      1 NMatT0=    0 NMatD0=    1 NMtDS0=    0 NMtDT0=    0
 Petite list used in FoFCou.
 Initial guess orbital symmetries:
       Occupied  (A') (A') (A') (A') (A') (A") (A') (A') (A') (A")
                 (A') (A") (A')
       Virtual   (A') (A') (A") (A') (A') (A') (A") (A') (A') (A")
                 (A') (A') (A") (A') (A') (A') (A') (A") (A') (A')
                 (A") (A") (A') (A') (A') (A") (A') (A') (A") (A')
                 (A') (A") (A') (A') (A')
 The electronic state of the initial guess is 1-A'.
 Keep R1 ints in memory in symmetry-blocked form, NReq=2439675.
 Requested convergence on RMS density matrix=1.00D-08 within 128 cycles.
 Requested convergence on MAX density matrix=1.00D-06.
 Requested convergence on             energy=1.00D-06.
 No special actions if energy rises.
 Inv3:  Mode=1 IEnd=     1044300.
 Iteration    1 A*A^-1 deviation from unit magnitude is 2.33D-15 for    582.
 Iteration    1 A*A^-1 deviation from orthogonality  is 1.21D-15 for    256     98.
 Iteration    1 A^-1*A deviation from unit magnitude is 2.66D-15 for    582.
 Iteration    1 A^-1*A deviation from orthogonality  is 7.40D-16 for    587    583.
 Error on total polarization charges =  0.01060
 SCF Done:  E(RM062X) =  -500.050849018     A.U. after   10 cycles
            NFock= 10  Conv=0.24D-08     -V/T= 2.0032

 **********************************************************************

            Population analysis using the SCF density.

 **********************************************************************

 Orbital symmetries:
       Occupied  (A') (A') (A') (A') (A") (A') (A') (A') (A') (A")
                 (A') (A") (A')
       Virtual   (A') (A') (A') (A") (A') (A') (A") (A') (A') (A')
                 (A") (A') (A') (A") (A') (A') (A") (A') (A') (A')
                 (A") (A') (A") (A') (A') (A") (A') (A') (A") (A')
                 (A') (A") (A') (A') (A')
 The electronic state is 1-A'.
 Alpha  occ. eigenvalues -- -102.66258 -10.60051  -9.80989  -7.53382  -7.52732
 Alpha  occ. eigenvalues --   -7.52731  -0.95382  -0.76693  -0.51772  -0.51740
 Alpha  occ. eigenvalues --   -0.47406  -0.36779  -0.36739
 Alpha virt. eigenvalues --    0.02817   0.03489   0.06918   0.06925   0.09130
 Alpha virt. eigenvalues --    0.11098   0.11100   0.12220   0.17792   0.21898
 Alpha virt. eigenvalues --    0.21981   0.29742   0.60630   0.63714   0.63790
 Alpha virt. eigenvalues --    0.66813   0.66853   0.68242   0.72324   0.91263
 Alpha virt. eigenvalues --    0.91504   0.96544   0.96636   1.02455   1.03771
 Alpha virt. eigenvalues --    1.03930   1.16623   1.32731   1.74247   1.74474
 Alpha virt. eigenvalues --    2.20207   2.29444   2.29623   4.17890   4.43215
          Condensed to atoms (all electrons):
               1          2          3          4          5
     1  H    0.456653   0.377256  -0.048200  -0.023719  -0.023719
     2  C    0.377256   5.457041   0.116530   0.375547   0.375547
     3  Cl  -0.048200   0.116530  17.106351  -0.045021  -0.045021
     4  H   -0.023719   0.375547  -0.045021   0.454611  -0.023834
     5  H   -0.023719   0.375547  -0.045021  -0.023834   0.454611
 Mulliken charges:
               1
     1  H    0.261729
     2  C   -0.701921
     3  Cl  -0.084640
     4  H    0.262416
     5  H    0.262416
 Sum of Mulliken charges =  -0.00000
 Mulliken charges with hydrogens summed into heavy atoms:
               1
     2  C    0.084640
     3  Cl  -0.084640
 Electronic spatial extent (au):  <R**2>=            132.2531
 Charge=              0.0000 electrons
 Dipole moment (field-independent basis, Debye):
    X=             -0.0093    Y=              2.6311    Z=             -0.0000  Tot=              2.6311
 Quadrupole moment (field-independent basis, Debye-Ang):
   XX=            -20.0492   YY=            -18.1338   ZZ=            -20.0465
   XY=              0.0355   XZ=              0.0000   YZ=             -0.0000
 Traceless Quadrupole moment (field-independent basis, Debye-Ang):
   XX=             -0.6393   YY=              1.2760   ZZ=             -0.6367
   XY=              0.0355   XZ=              0.0000   YZ=             -0.0000
 Octapole moment (field-independent basis, Debye-Ang**2):
  XXX=             -0.9597  YYY=              0.0629  ZZZ=             -0.0000  XYY=              0.0706
  XXY=              1.5075  XXZ=             -0.0000  XZZ=              0.9113  YZZ=              1.5478
  YYZ=             -0.0000  XYZ=             -0.0000
 Hexadecapole moment (field-independent basis, Debye-Ang**3):
 XXXX=            -29.1863 YYYY=           -117.2674 ZZZZ=            -29.2101 XXXY=             -1.3163
 XXXZ=              0.0000 YYYX=              0.2377 YYYZ=             -0.0000 ZZZX=             -0.0000
 ZZZY=             -0.0000 XXYY=            -24.5232 XXZZ=             -9.7504 YYZZ=            -24.3826
 XXYZ=             -0.0000 YYXZ=             -0.0000 ZZXY=              1.3498
 N-N= 5.104406003372D+01 E-N=-1.288142800947D+03  KE= 4.984746007736D+02
 Symmetry A'   KE= 4.506675806604D+02
 Symmetry A"   KE= 4.780702011316D+01
 1\1\GINC-NODE60\SP\RM062X\6-31+G(d)\C1H3Cl1\YANZ\22-Sep-2023\0\\# 6-31
 +g(d) scrf=(solvent=water,pcm) int=ultrafine m062x scf=tight\\tmpdir/M
 2_conf_34_9.gjf\\0,1\H,0,0.,0.,0.\C,0,1.0878,0.,0.\Cl,0,1.61514,0.,1.7
 1841\H,0,1.47355,0.8952,-0.48282\H,0,1.47355,-0.8952,-0.48282\\Version
 =ES64L-G16RevA.03\State=1-A'\HF=-500.050849\RMSD=2.392e-09\Dipole=-0.3
 072002,0.,-0.9885216\Quadrupole=-0.3675758,-0.4733584,0.8409342,0.,0.3
 775378,0.\PG=CS [SG(C1H1Cl1),X(H2)]\\@


 I DON'T EXACTLY UNDERSTAND WHAT YOU ARE SAYING,
 BUT YOU ARE ABSOLUTELY RIGHT.
     M.S.GORDON, IN A NDSU FACULTY MEETING
 Job cpu time:       0 days  0 hours  0 minutes 12.4 seconds.
 Elapsed time:       0 days  0 hours  0 minutes  6.3 seconds.
 File lengths (MBytes):  RWF=     13 Int=      0 D2E=      0 Chk=      1 Scr=      1
 Normal termination of Gaussian 16 at Fri Sep 22 17:11:52 2023.
