 Entering Gaussian System, Link 0=g16
 Initial command:
 /share/apps/gaussian/g16/l1.exe "/tmp/55661.mgr/Gau-136508.inp" -scrdir="/tmp/55661.mgr/"
 Entering Link 1 = /share/apps/gaussian/g16/l1.exe PID=    136512.
  
 Copyright (c) 1988,1990,1992,1993,1995,1998,2003,2009,2016,
            Gaussian, Inc.  All Rights Reserved.
  
 This is part of the Gaussian(R) 16 program.  It is based on
 the Gaussian(R) 09 system (copyright 2009, Gaussian, Inc.),
 the Gaussian(R) 03 system (copyright 2003, Gaussian, Inc.),
 the Gaussian(R) 98 system (copyright 1998, Gaussian, Inc.),
 the Gaussian(R) 94 system (copyright 1995, Gaussian, Inc.),
 the Gaussian 92(TM) system (copyright 1992, Gaussian, Inc.),
 the Gaussian 90(TM) system (copyright 1990, Gaussian, Inc.),
 the Gaussian 88(TM) system (copyright 1988, Gaussian, Inc.),
 the Gaussian 86(TM) system (copyright 1986, Carnegie Mellon
 University), and the Gaussian 82(TM) system (copyright 1983,
 Carnegie Mellon University). Gaussian is a federally registered
 trademark of Gaussian, Inc.
  
 This software contains proprietary and confidential information,
 including trade secrets, belonging to Gaussian, Inc.
  
 This software is provided under written license and may be
 used, copied, transmitted, or stored only in accord with that
 written license.
  
 The following legend is applicable only to US Government
 contracts under FAR:
  
                    RESTRICTED RIGHTS LEGEND
  
 Use, reproduction and disclosure by the US Government is
 subject to restrictions as set forth in subparagraphs (a)
 and (c) of the Commercial Computer Software - Restricted
 Rights clause in FAR 52.227-19.
  
 Gaussian, Inc.
 340 Quinnipiac St., Bldg. 40, Wallingford CT 06492
  
  
 ---------------------------------------------------------------
 Warning -- This program may not be used in any manner that
 competes with the business of Gaussian, Inc. or will provide
 assistance to any competitor of Gaussian, Inc.  The licensee
 of this program is prohibited from giving any competitor of
 Gaussian, Inc. access to this program.  By using this program,
 the user acknowledges that Gaussian, Inc. is engaged in the
 business of creating and licensing software in the field of
 computational chemistry and represents and warrants to the
 licensee that it is not a competitor of Gaussian, Inc. and that
 it will not use this program in any manner prohibited above.
 ---------------------------------------------------------------
  

 Cite this work as:
 Gaussian 16, Revision A.03,
 M. J. Frisch, G. W. Trucks, H. B. Schlegel, G. E. Scuseria, 
 M. A. Robb, J. R. Cheeseman, G. Scalmani, V. Barone, 
 G. A. Petersson, H. Nakatsuji, X. Li, M. Caricato, A. V. Marenich, 
 J. Bloino, B. G. Janesko, R. Gomperts, B. Mennucci, H. P. Hratchian, 
 J. V. Ortiz, A. F. Izmaylov, J. L. Sonnenberg, D. Williams-Young, 
 F. Ding, F. Lipparini, F. Egidi, J. Goings, B. Peng, A. Petrone, 
 T. Henderson, D. Ranasinghe, V. G. Zakrzewski, J. Gao, N. Rega, 
 G. Zheng, W. Liang, M. Hada, M. Ehara, K. Toyota, R. Fukuda, 
 J. Hasegawa, M. Ishida, T. Nakajima, Y. Honda, O. Kitao, H. Nakai, 
 T. Vreven, K. Throssell, J. A. Montgomery, Jr., J. E. Peralta, 
 F. Ogliaro, M. J. Bearpark, J. J. Heyd, E. N. Brothers, K. N. Kudin, 
 V. N. Staroverov, T. A. Keith, R. Kobayashi, J. Normand, 
 K. Raghavachari, A. P. Rendell, J. C. Burant, S. S. Iyengar, 
 J. Tomasi, M. Cossi, J. M. Millam, M. Klene, C. Adamo, R. Cammi, 
 J. W. Ochterski, R. L. Martin, K. Morokuma, O. Farkas, 
 J. B. Foresman, and D. J. Fox, Gaussian, Inc., Wallingford CT, 2016.
 
 ******************************************
 Gaussian 16:  ES64L-G16RevA.03 25-Dec-2016
                22-Sep-2023 
 ******************************************
 %nprocshared=2
 Will use up to    2 processors via shared memory.
 %mem=2GB
 ------------------------------------------------------------------
 # 6-31+g(d) scrf=(solvent=water,pcm) int=ultrafine m062x scf=tight
 ------------------------------------------------------------------
 1/38=1,172=1/1;
 2/12=2,17=6,18=5,40=1/2;
 3/5=1,6=6,7=11,11=2,25=1,30=1,70=2201,72=1,74=-55,75=-5/1,2,3;
 4//1;
 5/5=2,32=2,38=5,53=1/2;
 6/7=2,8=2,9=2,10=2,28=1/1;
 99/5=1,9=1/99;
 -----------------------
 tmpdir/M2_conf_58_6.gjf
 -----------------------
 Symbolic Z-matrix:
 Charge =  0 Multiplicity = 1
 H                     0.        0.        0. 
 C                     1.0878    0.        0. 
 H                     1.56517   0.        0.97746 
 H                     1.47355   0.84981  -0.55886 
 H                     1.4479   -0.96738  -0.52175 
 
                          Input orientation:                          
 ---------------------------------------------------------------------
 Center     Atomic      Atomic             Coordinates (Angstroms)
 Number     Number       Type             X           Y           Z
 ---------------------------------------------------------------------
      1          1           0        0.000000    0.000000    0.000000
      2          6           0        1.087800    0.000000    0.000000
      3          1           0        1.565170    0.000000    0.977460
      4          1           0        1.473550    0.849810   -0.558860
      5          1           0        1.447900   -0.967380   -0.521750
 ---------------------------------------------------------------------
                    Distance matrix (angstroms):
                    1          2          3          4          5
     1  H    0.000000
     2  C    1.087800   0.000000
     3  H    1.845314   1.087801   0.000000
     4  H    1.790489   1.087798   1.758081   0.000000
     5  H    1.817818   1.156598   1.788074   1.817750   0.000000
 Stoichiometry    CH4
 Framework group  C1[X(CH4)]
 Deg. of freedom     9
 Full point group                 C1      NOp   1
 Largest Abelian subgroup         C1      NOp   1
 Largest concise Abelian subgroup C1      NOp   1
                         Standard orientation:                         
 ---------------------------------------------------------------------
 Center     Atomic      Atomic             Coordinates (Angstroms)
 Number     Number       Type             X           Y           Z
 ---------------------------------------------------------------------
      1          1           0       -1.027970    0.059815   -0.391021
      2          6           0       -0.011114   -0.013079   -0.011551
      3          1           0        0.749511   -0.296415   -0.735762
      4          1           0        0.041605   -0.714478    0.818247
      5          1           0        0.303537    1.029555    0.377844
 ---------------------------------------------------------------------
 Rotational constants (GHZ):         158.1183955         155.6641013         148.4859367
 Standard basis: 6-31+G(d) (6D, 7F)
 There are    27 symmetry adapted cartesian basis functions of A   symmetry.
 There are    27 symmetry adapted basis functions of A   symmetry.
    27 basis functions,    48 primitive gaussians,    27 cartesian basis functions
     5 alpha electrons        5 beta electrons
       nuclear repulsion energy        13.2630421083 Hartrees.
 NAtoms=    5 NActive=    5 NUniq=    5 SFac= 1.00D+00 NAtFMM=   60 NAOKFM=F Big=F
 Integral buffers will be    131072 words long.
 Raffenetti 2 integral format.
 Two-electron integral symmetry is turned on.
 ------------------------------------------------------------------------------
 Polarizable Continuum Model (PCM)
 =================================
 Model                : PCM.
 Atomic radii         : UFF (Universal Force Field).
 Polarization charges : Total charges.
 Charge compensation  : None.
 Solution method      : On-the-fly selection.
 Cavity type          : Scaled VdW (van der Waals Surface) (Alpha=1.100).
 Cavity algorithm     : GePol (No added spheres)
                        Default sphere list used, NSphG=    5.
                        Lebedev-Laikov grids with approx.  5.0 points / Ang**2.
                        Smoothing algorithm: York/Karplus (Gamma=1.0000).
                        Polarization charges: spherical gaussians, with
                                              point-specific exponents (IZeta= 3).
                        Self-potential: point-specific (ISelfS= 7).
                        Self-field    : sphere-specific E.n sum rule (ISelfD= 2).
 Solvent              : Water, Eps=  78.355300 Eps(inf)=   1.777849
 ------------------------------------------------------------------------------
 Spheres list:
 ISph  on   Nord     Re0    Alpha      Xe            Ye            Ze
    1   H      1    1.4430  1.100     -1.027970      0.059815     -0.391021
    2   C      2    1.9255  1.100     -0.011114     -0.013079     -0.011551
    3   H      3    1.4430  1.100      0.749511     -0.296415     -0.735762
    4   H      4    1.4430  1.100      0.041605     -0.714478      0.818247
    5   H      5    1.4430  1.100      0.303537      1.029555      0.377844
 ------------------------------------------------------------------------------
 One-electron integrals computed using PRISM.
 NBasis=    27 RedAO= T EigKep=  1.30D-02  NBF=    27
 NBsUse=    27 1.00D-06 EigRej= -1.00D+00 NBFU=    27
 ExpMin= 4.38D-02 ExpMax= 3.05D+03 ExpMxC= 4.57D+02 IAcc=3 IRadAn=         5 AccDes= 0.00D+00
 Harris functional with IExCor= 1009 and IRadAn=       5 diagonalized for initial guess.
 HarFok:  IExCor= 1009 AccDes= 0.00D+00 IRadAn=         5 IDoV= 1 UseB2=F ITyADJ=14
 ICtDFT=  3500011 ScaDFX=  1.000000  1.000000  1.000000  1.000000
 FoFCou: FMM=F IPFlag=           0 FMFlag=      100000 FMFlg1=           0
         NFxFlg=           0 DoJE=T BraDBF=F KetDBF=T FulRan=T
         wScrn=  0.000000 ICntrl=       500 IOpCl=  0 I1Cent=   200000004 NGrid=           0
         NMat0=    1 NMatS0=      1 NMatT0=    0 NMatD0=    1 NMtDS0=    0 NMtDT0=    0
 Petite list used in FoFCou.
 Keep R1 ints in memory in canonical form, NReq=1797958.
 Requested convergence on RMS density matrix=1.00D-08 within 128 cycles.
 Requested convergence on MAX density matrix=1.00D-06.
 Requested convergence on             energy=1.00D-06.
 No special actions if energy rises.
 Inv3:  Mode=1 IEnd=      741027.
 Iteration    1 A*A^-1 deviation from unit magnitude is 2.89D-15 for    494.
 Iteration    1 A*A^-1 deviation from orthogonality  is 1.44D-15 for    347     84.
 Iteration    1 A^-1*A deviation from unit magnitude is 2.66D-15 for    494.
 Iteration    1 A^-1*A deviation from orthogonality  is 1.19D-15 for    493    328.
 Error on total polarization charges =  0.00838
 SCF Done:  E(RM062X) =  -40.4803955234     A.U. after    9 cycles
            NFock=  9  Conv=0.33D-09     -V/T= 2.0114

 **********************************************************************

            Population analysis using the SCF density.

 **********************************************************************

 Orbital symmetries:
       Occupied  (A) (A) (A) (A) (A)
       Virtual   (A) (A) (A) (A) (A) (A) (A) (A) (A) (A) (A) (A)
                 (A) (A) (A) (A) (A) (A) (A) (A) (A) (A)
 The electronic state is 1-A.
 Alpha  occ. eigenvalues --  -10.53199  -0.78190  -0.46869  -0.45434  -0.43724
 Alpha virt. eigenvalues --    0.03926   0.07093   0.07190   0.07370   0.20973
 Alpha virt. eigenvalues --    0.22887   0.23995   0.30637   0.68961   0.69105
 Alpha virt. eigenvalues --    0.70529   0.95941   0.99465   1.02018   1.10897
 Alpha virt. eigenvalues --    1.17146   1.70804   1.71681   2.27884   2.30961
 Alpha virt. eigenvalues --    2.34595   4.23338
          Condensed to atoms (all electrons):
               1          2          3          4          5
     1  H    0.471679   0.378286  -0.017348  -0.022673  -0.023514
     2  C    0.378286   5.323969   0.376851   0.376896   0.373464
     3  H   -0.017348   0.376851   0.479971  -0.025646  -0.026080
     4  H   -0.022673   0.376896  -0.025646   0.483374  -0.022823
     5  H   -0.023514   0.373464  -0.026080  -0.022823   0.506183
 Mulliken charges:
               1
     1  H    0.213571
     2  C   -0.829466
     3  H    0.212253
     4  H    0.210873
     5  H    0.192770
 Sum of Mulliken charges =   0.00000
 Mulliken charges with hydrogens summed into heavy atoms:
               1
     2  C    0.000000
 Electronic spatial extent (au):  <R**2>=             36.4368
 Charge=              0.0000 electrons
 Dipole moment (field-independent basis, Debye):
    X=              0.0252    Y=             -0.0226    Z=              0.0177  Tot=              0.0382
 Quadrupole moment (field-independent basis, Debye-Ang):
   XX=             -8.2919   YY=             -8.5900   ZZ=             -8.6710
   XY=             -0.0626   XZ=             -0.0175   YZ=             -0.0760
 Traceless Quadrupole moment (field-independent basis, Debye-Ang):
   XX=              0.2258   YY=             -0.0724   ZZ=             -0.1534
   XY=             -0.0626   XZ=             -0.0175   YZ=             -0.0760
 Octapole moment (field-independent basis, Debye-Ang**2):
  XXX=             -0.5584  YYY=              0.2640  ZZZ=              0.0932  XYY=              0.3039
  XXY=             -0.0732  XXZ=             -0.6695  XZZ=              0.2488  YZZ=             -0.4480
  YYZ=              0.5435  XYZ=              0.2130
 Hexadecapole moment (field-independent basis, Debye-Ang**3):
 XXXX=            -16.3026 YYYY=            -17.2838 ZZZZ=            -16.8537 XXXY=             -0.3438
 XXXZ=              0.0868 YYYX=              0.1992 YYYZ=             -0.0302 ZZZX=             -0.2655
 ZZZY=             -0.4426 XXYY=             -5.9722 XXZZ=             -5.4105 YYZZ=             -5.4861
 XXYZ=              0.0901 YYXZ=              0.0951 ZZXY=             -0.1688
 N-N= 1.326304210834D+01 E-N=-1.194645351158D+02  KE= 4.002585074651D+01
 1\1\GINC-NODE60\SP\RM062X\6-31+G(d)\C1H4\YANZ\22-Sep-2023\0\\# 6-31+g(
 d) scrf=(solvent=water,pcm) int=ultrafine m062x scf=tight\\tmpdir/M2_c
 onf_58_6.gjf\\0,1\H,0,0.,0.,0.\C,0,1.0878,0.,0.\H,0,1.56517,0.,0.97746
 \H,0,1.47355,0.84981,-0.55886\H,0,1.4479,-0.96738,-0.52175\\Version=ES
 64L-G16RevA.03\State=1-A\HF=-40.4803955\RMSD=3.271e-10\Dipole=0.012310
 6,0.0085955,-0.0008642\Quadrupole=0.1325399,-0.0404881,-0.0920518,0.02
 34534,0.1092064,-0.0352684\PG=C01 [X(C1H4)]\\@


 I LOVE THOSE WHO LONG FOR THE IMPOSSIBLE.

                                 -- GOETHE
 Job cpu time:       0 days  0 hours  0 minutes 10.5 seconds.
 Elapsed time:       0 days  0 hours  0 minutes  5.3 seconds.
 File lengths (MBytes):  RWF=     11 Int=      0 D2E=      0 Chk=      1 Scr=      1
 Normal termination of Gaussian 16 at Fri Sep 22 17:14:31 2023.
