 Entering Gaussian System, Link 0=g16
 Initial command:
 /share/apps/gaussian/g16/l1.exe "/tmp/55661.mgr/Gau-134754.inp" -scrdir="/tmp/55661.mgr/"
 Entering Link 1 = /share/apps/gaussian/g16/l1.exe PID=    134766.
  
 Copyright (c) 1988,1990,1992,1993,1995,1998,2003,2009,2016,
            Gaussian, Inc.  All Rights Reserved.
  
 This is part of the Gaussian(R) 16 program.  It is based on
 the Gaussian(R) 09 system (copyright 2009, Gaussian, Inc.),
 the Gaussian(R) 03 system (copyright 2003, Gaussian, Inc.),
 the Gaussian(R) 98 system (copyright 1998, Gaussian, Inc.),
 the Gaussian(R) 94 system (copyright 1995, Gaussian, Inc.),
 the Gaussian 92(TM) system (copyright 1992, Gaussian, Inc.),
 the Gaussian 90(TM) system (copyright 1990, Gaussian, Inc.),
 the Gaussian 88(TM) system (copyright 1988, Gaussian, Inc.),
 the Gaussian 86(TM) system (copyright 1986, Carnegie Mellon
 University), and the Gaussian 82(TM) system (copyright 1983,
 Carnegie Mellon University). Gaussian is a federally registered
 trademark of Gaussian, Inc.
  
 This software contains proprietary and confidential information,
 including trade secrets, belonging to Gaussian, Inc.
  
 This software is provided under written license and may be
 used, copied, transmitted, or stored only in accord with that
 written license.
  
 The following legend is applicable only to US Government
 contracts under FAR:
  
                    RESTRICTED RIGHTS LEGEND
  
 Use, reproduction and disclosure by the US Government is
 subject to restrictions as set forth in subparagraphs (a)
 and (c) of the Commercial Computer Software - Restricted
 Rights clause in FAR 52.227-19.
  
 Gaussian, Inc.
 340 Quinnipiac St., Bldg. 40, Wallingford CT 06492
  
  
 ---------------------------------------------------------------
 Warning -- This program may not be used in any manner that
 competes with the business of Gaussian, Inc. or will provide
 assistance to any competitor of Gaussian, Inc.  The licensee
 of this program is prohibited from giving any competitor of
 Gaussian, Inc. access to this program.  By using this program,
 the user acknowledges that Gaussian, Inc. is engaged in the
 business of creating and licensing software in the field of
 computational chemistry and represents and warrants to the
 licensee that it is not a competitor of Gaussian, Inc. and that
 it will not use this program in any manner prohibited above.
 ---------------------------------------------------------------
  

 Cite this work as:
 Gaussian 16, Revision A.03,
 M. J. Frisch, G. W. Trucks, H. B. Schlegel, G. E. Scuseria, 
 M. A. Robb, J. R. Cheeseman, G. Scalmani, V. Barone, 
 G. A. Petersson, H. Nakatsuji, X. Li, M. Caricato, A. V. Marenich, 
 J. Bloino, B. G. Janesko, R. Gomperts, B. Mennucci, H. P. Hratchian, 
 J. V. Ortiz, A. F. Izmaylov, J. L. Sonnenberg, D. Williams-Young, 
 F. Ding, F. Lipparini, F. Egidi, J. Goings, B. Peng, A. Petrone, 
 T. Henderson, D. Ranasinghe, V. G. Zakrzewski, J. Gao, N. Rega, 
 G. Zheng, W. Liang, M. Hada, M. Ehara, K. Toyota, R. Fukuda, 
 J. Hasegawa, M. Ishida, T. Nakajima, Y. Honda, O. Kitao, H. Nakai, 
 T. Vreven, K. Throssell, J. A. Montgomery, Jr., J. E. Peralta, 
 F. Ogliaro, M. J. Bearpark, J. J. Heyd, E. N. Brothers, K. N. Kudin, 
 V. N. Staroverov, T. A. Keith, R. Kobayashi, J. Normand, 
 K. Raghavachari, A. P. Rendell, J. C. Burant, S. S. Iyengar, 
 J. Tomasi, M. Cossi, J. M. Millam, M. Klene, C. Adamo, R. Cammi, 
 J. W. Ochterski, R. L. Martin, K. Morokuma, O. Farkas, 
 J. B. Foresman, and D. J. Fox, Gaussian, Inc., Wallingford CT, 2016.
 
 ******************************************
 Gaussian 16:  ES64L-G16RevA.03 25-Dec-2016
                22-Sep-2023 
 ******************************************
 %nprocshared=2
 Will use up to    2 processors via shared memory.
 %mem=2GB
 ------------------------------------------------------------------
 # 6-31+g(d) scrf=(solvent=water,pcm) int=ultrafine m062x scf=tight
 ------------------------------------------------------------------
 1/38=1,172=1/1;
 2/12=2,17=6,18=5,40=1/2;
 3/5=1,6=6,7=11,11=2,25=1,30=1,70=2201,72=1,74=-55,75=-5/1,2,3;
 4//1;
 5/5=2,32=2,38=5,53=1/2;
 6/7=2,8=2,9=2,10=2,28=1/1;
 99/5=1,9=1/99;
 -----------------------
 tmpdir/M2_conf_47_2.gjf
 -----------------------
 Symbolic Z-matrix:
 Charge =  0 Multiplicity = 1
 C                     0.        0.        0. 
 H                     1.0808    0.        0. 
 H                    -0.38575   0.       -1.01711 
 H                    -0.38575   0.84981   0.55886 
 H                    -0.3601   -0.96738   0.52175 
 
                          Input orientation:                          
 ---------------------------------------------------------------------
 Center     Atomic      Atomic             Coordinates (Angstroms)
 Number     Number       Type             X           Y           Z
 ---------------------------------------------------------------------
      1          6           0        0.000000    0.000000    0.000000
      2          1           0        1.080800    0.000000    0.000000
      3          1           0       -0.385750    0.000000   -1.017110
      4          1           0       -0.385750    0.849810    0.558860
      5          1           0       -0.360100   -0.967380    0.521750
 ---------------------------------------------------------------------
                    Distance matrix (angstroms):
                    1          2          3          4          5
     1  C    0.000000
     2  H    1.080800   0.000000
     3  H    1.087803   1.784736   0.000000
     4  H    1.087798   1.784733   1.790491   0.000000
     5  H    1.156598   1.812247   1.817848   1.817750   0.000000
 Stoichiometry    CH4
 Framework group  C1[X(CH4)]
 Deg. of freedom     9
 Full point group                 C1      NOp   1
 Largest Abelian subgroup         C1      NOp   1
 Largest concise Abelian subgroup C1      NOp   1
                         Standard orientation:                         
 ---------------------------------------------------------------------
 Center     Atomic      Atomic             Coordinates (Angstroms)
 Number     Number       Type             X           Y           Z
 ---------------------------------------------------------------------
      1          6           0        0.014227    0.000012    0.001395
      2          1           0        0.297882    0.000251    1.044309
      3          1           0        0.380144   -0.894604   -0.497686
      4          1           0        0.377475    0.895885   -0.497371
      5          1           0       -1.140863   -0.001603   -0.057622
 ---------------------------------------------------------------------
 Rotational constants (GHZ):         157.1014964         153.4320902         152.7804354
 Standard basis: 6-31+G(d) (6D, 7F)
 There are    27 symmetry adapted cartesian basis functions of A   symmetry.
 There are    27 symmetry adapted basis functions of A   symmetry.
    27 basis functions,    48 primitive gaussians,    27 cartesian basis functions
     5 alpha electrons        5 beta electrons
       nuclear repulsion energy        13.2832252898 Hartrees.
 NAtoms=    5 NActive=    5 NUniq=    5 SFac= 1.00D+00 NAtFMM=   60 NAOKFM=F Big=F
 Integral buffers will be    131072 words long.
 Raffenetti 2 integral format.
 Two-electron integral symmetry is turned on.
 ------------------------------------------------------------------------------
 Polarizable Continuum Model (PCM)
 =================================
 Model                : PCM.
 Atomic radii         : UFF (Universal Force Field).
 Polarization charges : Total charges.
 Charge compensation  : None.
 Solution method      : On-the-fly selection.
 Cavity type          : Scaled VdW (van der Waals Surface) (Alpha=1.100).
 Cavity algorithm     : GePol (No added spheres)
                        Default sphere list used, NSphG=    5.
                        Lebedev-Laikov grids with approx.  5.0 points / Ang**2.
                        Smoothing algorithm: York/Karplus (Gamma=1.0000).
                        Polarization charges: spherical gaussians, with
                                              point-specific exponents (IZeta= 3).
                        Self-potential: point-specific (ISelfS= 7).
                        Self-field    : sphere-specific E.n sum rule (ISelfD= 2).
 Solvent              : Water, Eps=  78.355300 Eps(inf)=   1.777849
 ------------------------------------------------------------------------------
 Spheres list:
 ISph  on   Nord     Re0    Alpha      Xe            Ye            Ze
    1   C      1    1.9255  1.100      0.014227      0.000012      0.001395
    2   H      2    1.4430  1.100      0.297882      0.000251      1.044309
    3   H      3    1.4430  1.100      0.380144     -0.894604     -0.497686
    4   H      4    1.4430  1.100      0.377475      0.895885     -0.497371
    5   H      5    1.4430  1.100     -1.140863     -0.001603     -0.057622
 ------------------------------------------------------------------------------
 One-electron integrals computed using PRISM.
 NBasis=    27 RedAO= T EigKep=  1.29D-02  NBF=    27
 NBsUse=    27 1.00D-06 EigRej= -1.00D+00 NBFU=    27
 ExpMin= 4.38D-02 ExpMax= 3.05D+03 ExpMxC= 4.57D+02 IAcc=3 IRadAn=         5 AccDes= 0.00D+00
 Harris functional with IExCor= 1009 and IRadAn=       5 diagonalized for initial guess.
 HarFok:  IExCor= 1009 AccDes= 0.00D+00 IRadAn=         5 IDoV= 1 UseB2=F ITyADJ=14
 ICtDFT=  3500011 ScaDFX=  1.000000  1.000000  1.000000  1.000000
 FoFCou: FMM=F IPFlag=           0 FMFlag=      100000 FMFlg1=           0
         NFxFlg=           0 DoJE=T BraDBF=F KetDBF=T FulRan=T
         wScrn=  0.000000 ICntrl=       500 IOpCl=  0 I1Cent=   200000004 NGrid=           0
         NMat0=    1 NMatS0=      1 NMatT0=    0 NMatD0=    1 NMtDS0=    0 NMtDT0=    0
 Petite list used in FoFCou.
 Keep R1 ints in memory in canonical form, NReq=1797958.
 Requested convergence on RMS density matrix=1.00D-08 within 128 cycles.
 Requested convergence on MAX density matrix=1.00D-06.
 Requested convergence on             energy=1.00D-06.
 No special actions if energy rises.
 Inv3:  Mode=1 IEnd=      723243.
 Iteration    1 A*A^-1 deviation from unit magnitude is 2.66D-15 for    487.
 Iteration    1 A*A^-1 deviation from orthogonality  is 1.37D-15 for    366    268.
 Iteration    1 A^-1*A deviation from unit magnitude is 2.66D-15 for    487.
 Iteration    1 A^-1*A deviation from orthogonality  is 1.03D-15 for    483    156.
 Error on total polarization charges =  0.00833
 SCF Done:  E(RM062X) =  -40.4812887203     A.U. after    9 cycles
            NFock=  9  Conv=0.21D-09     -V/T= 2.0111

 **********************************************************************

            Population analysis using the SCF density.

 **********************************************************************

 Orbital symmetries:
       Occupied  (A) (A) (A) (A) (A)
       Virtual   (A) (A) (A) (A) (A) (A) (A) (A) (A) (A) (A) (A)
                 (A) (A) (A) (A) (A) (A) (A) (A) (A) (A)
 The electronic state is 1-A.
 Alpha  occ. eigenvalues --  -10.53117  -0.78234  -0.46086  -0.45970  -0.44096
 Alpha virt. eigenvalues --    0.03932   0.07144   0.07157   0.07352   0.21208
 Alpha virt. eigenvalues --    0.23334   0.23485   0.30773   0.68851   0.69010
 Alpha virt. eigenvalues --    0.70528   0.96544   1.00499   1.00804   1.10857
 Alpha virt. eigenvalues --    1.17527   1.71062   1.71066   2.27462   2.33307
 Alpha virt. eigenvalues --    2.34012   4.23598
          Condensed to atoms (all electrons):
               1          2          3          4          5
     1  C    5.321568   0.377881   0.377599   0.377597   0.373932
     2  H    0.377881   0.477928  -0.022583  -0.022582  -0.023426
     3  H    0.377599  -0.022583   0.479418  -0.022421  -0.023263
     4  H    0.377597  -0.022582  -0.022421   0.479429  -0.023272
     5  H    0.373932  -0.023426  -0.023263  -0.023272   0.502733
 Mulliken charges:
               1
     1  C   -0.828577
     2  H    0.212781
     3  H    0.211250
     4  H    0.211250
     5  H    0.193295
 Sum of Mulliken charges =  -0.00000
 Mulliken charges with hydrogens summed into heavy atoms:
               1
     1  C   -0.000000
 Electronic spatial extent (au):  <R**2>=             36.3705
 Charge=             -0.0000 electrons
 Dipole moment (field-independent basis, Debye):
    X=              0.0277    Y=              0.0001    Z=              0.0057  Tot=              0.0283
 Quadrupole moment (field-independent basis, Debye-Ang):
   XX=             -8.5868   YY=             -8.4674   ZZ=             -8.4718
   XY=             -0.0004   XZ=             -0.0069   YZ=             -0.0000
 Traceless Quadrupole moment (field-independent basis, Debye-Ang):
   XX=             -0.0781   YY=              0.0412   ZZ=              0.0369
   XY=             -0.0004   XZ=             -0.0069   YZ=             -0.0000
 Octapole moment (field-independent basis, Debye-Ang**2):
  XXX=             -0.7483  YYY=              0.0028  ZZZ=              0.7580  XYY=              0.5623
  XXY=             -0.0027  XXZ=             -0.0820  XZZ=              0.4829  YZZ=              0.0004
  YYZ=             -0.6316  XYZ=              0.0009
 Hexadecapole moment (field-independent basis, Debye-Ang**3):
 XXXX=            -17.0504 YYYY=            -16.2622 ZZZZ=            -16.1149 XXXY=              0.0008
 XXXZ=              0.0533 YYYX=             -0.0017 YYYZ=             -0.0015 ZZZX=              0.2644
 ZZZY=              0.0004 XXYY=             -5.8756 XXZZ=             -5.9221 YYZZ=             -5.4368
 XXYZ=              0.0011 YYXZ=             -0.3524 ZZXY=             -0.0009
 N-N= 1.328322528985D+01 E-N=-1.195135754935D+02  KE= 4.003540769486D+01
 1\1\GINC-NODE60\SP\RM062X\6-31+G(d)\C1H4\YANZ\22-Sep-2023\0\\# 6-31+g(
 d) scrf=(solvent=water,pcm) int=ultrafine m062x scf=tight\\tmpdir/M2_c
 onf_47_2.gjf\\0,1\C,0,0.,0.,0.\H,0,1.0808,0.,0.\H,0,-0.38575,0.,-1.017
 11\H,0,-0.38575,0.84981,0.55886\H,0,-0.3601,-0.96738,0.52175\\Version=
 ES64L-G16RevA.03\State=1-A\HF=-40.4812887\RMSD=2.068e-10\Dipole=0.0050
 413,0.0087519,-0.0046989\Quadrupole=0.0189546,-0.0316286,0.0126741,-0.
 0229617,0.0123407,0.0334501\PG=C01 [X(C1H4)]\\@


 IT WAS A GAME, A VERY INTERESTING GAME ONE COULD
 PLAY.  WHENEVER ONE SOLVED ONE OF THE LITTLE PROBLEMS,
 ONE COULD WRITE A PAPER ABOUT IT.  IT WAS VERY EASY IN
 THOSE DAYS FOR ANY SECOND-RATE PHYSICIST TO DO
 FIRST-RATE WORK.  THERE HAS NOT BEEN SUCH A GLORIOUS
 TIME SINCE.  IT IS VERY DIFFICULT NOW FOR A FIRST-RATE
 PHYSICIST TO DO SECOND-RATE WORK.
     P.A.M. DIRAC, ON THE EARLY DAYS OF QUANTUM MECHANICS
                   DIRECTIONS IN PHYSICS, 1978, P. 7
 Job cpu time:       0 days  0 hours  0 minutes 10.3 seconds.
 Elapsed time:       0 days  0 hours  0 minutes  5.3 seconds.
 File lengths (MBytes):  RWF=     11 Int=      0 D2E=      0 Chk=      1 Scr=      1
 Normal termination of Gaussian 16 at Fri Sep 22 17:13:18 2023.
