 Entering Gaussian System, Link 0=g16
 Initial command:
 /share/apps/gaussian/g16/l1.exe "/tmp/55661.mgr/Gau-138421.inp" -scrdir="/tmp/55661.mgr/"
 Entering Link 1 = /share/apps/gaussian/g16/l1.exe PID=    138428.
  
 Copyright (c) 1988,1990,1992,1993,1995,1998,2003,2009,2016,
            Gaussian, Inc.  All Rights Reserved.
  
 This is part of the Gaussian(R) 16 program.  It is based on
 the Gaussian(R) 09 system (copyright 2009, Gaussian, Inc.),
 the Gaussian(R) 03 system (copyright 2003, Gaussian, Inc.),
 the Gaussian(R) 98 system (copyright 1998, Gaussian, Inc.),
 the Gaussian(R) 94 system (copyright 1995, Gaussian, Inc.),
 the Gaussian 92(TM) system (copyright 1992, Gaussian, Inc.),
 the Gaussian 90(TM) system (copyright 1990, Gaussian, Inc.),
 the Gaussian 88(TM) system (copyright 1988, Gaussian, Inc.),
 the Gaussian 86(TM) system (copyright 1986, Carnegie Mellon
 University), and the Gaussian 82(TM) system (copyright 1983,
 Carnegie Mellon University). Gaussian is a federally registered
 trademark of Gaussian, Inc.
  
 This software contains proprietary and confidential information,
 including trade secrets, belonging to Gaussian, Inc.
  
 This software is provided under written license and may be
 used, copied, transmitted, or stored only in accord with that
 written license.
  
 The following legend is applicable only to US Government
 contracts under FAR:
  
                    RESTRICTED RIGHTS LEGEND
  
 Use, reproduction and disclosure by the US Government is
 subject to restrictions as set forth in subparagraphs (a)
 and (c) of the Commercial Computer Software - Restricted
 Rights clause in FAR 52.227-19.
  
 Gaussian, Inc.
 340 Quinnipiac St., Bldg. 40, Wallingford CT 06492
  
  
 ---------------------------------------------------------------
 Warning -- This program may not be used in any manner that
 competes with the business of Gaussian, Inc. or will provide
 assistance to any competitor of Gaussian, Inc.  The licensee
 of this program is prohibited from giving any competitor of
 Gaussian, Inc. access to this program.  By using this program,
 the user acknowledges that Gaussian, Inc. is engaged in the
 business of creating and licensing software in the field of
 computational chemistry and represents and warrants to the
 licensee that it is not a competitor of Gaussian, Inc. and that
 it will not use this program in any manner prohibited above.
 ---------------------------------------------------------------
  

 Cite this work as:
 Gaussian 16, Revision A.03,
 M. J. Frisch, G. W. Trucks, H. B. Schlegel, G. E. Scuseria, 
 M. A. Robb, J. R. Cheeseman, G. Scalmani, V. Barone, 
 G. A. Petersson, H. Nakatsuji, X. Li, M. Caricato, A. V. Marenich, 
 J. Bloino, B. G. Janesko, R. Gomperts, B. Mennucci, H. P. Hratchian, 
 J. V. Ortiz, A. F. Izmaylov, J. L. Sonnenberg, D. Williams-Young, 
 F. Ding, F. Lipparini, F. Egidi, J. Goings, B. Peng, A. Petrone, 
 T. Henderson, D. Ranasinghe, V. G. Zakrzewski, J. Gao, N. Rega, 
 G. Zheng, W. Liang, M. Hada, M. Ehara, K. Toyota, R. Fukuda, 
 J. Hasegawa, M. Ishida, T. Nakajima, Y. Honda, O. Kitao, H. Nakai, 
 T. Vreven, K. Throssell, J. A. Montgomery, Jr., J. E. Peralta, 
 F. Ogliaro, M. J. Bearpark, J. J. Heyd, E. N. Brothers, K. N. Kudin, 
 V. N. Staroverov, T. A. Keith, R. Kobayashi, J. Normand, 
 K. Raghavachari, A. P. Rendell, J. C. Burant, S. S. Iyengar, 
 J. Tomasi, M. Cossi, J. M. Millam, M. Klene, C. Adamo, R. Cammi, 
 J. W. Ochterski, R. L. Martin, K. Morokuma, O. Farkas, 
 J. B. Foresman, and D. J. Fox, Gaussian, Inc., Wallingford CT, 2016.
 
 ******************************************
 Gaussian 16:  ES64L-G16RevA.03 25-Dec-2016
                22-Sep-2023 
 ******************************************
 %nprocshared=2
 Will use up to    2 processors via shared memory.
 %mem=2GB
 ------------------------------------------------------------------
 # 6-31+g(d) scrf=(solvent=water,pcm) int=ultrafine m062x scf=tight
 ------------------------------------------------------------------
 1/38=1,172=1/1;
 2/12=2,17=6,18=5,40=1/2;
 3/5=1,6=6,7=11,11=2,25=1,30=1,70=2201,72=1,74=-55,75=-5/1,2,3;
 4//1;
 5/5=2,32=2,38=5,53=1/2;
 6/7=2,8=2,9=2,10=2,28=1/1;
 99/5=1,9=1/99;
 -----------------------
 tmpdir/M2_conf_70_8.gjf
 -----------------------
 Symbolic Z-matrix:
 Charge =  0 Multiplicity = 1
 H                     0.        0.        0. 
 C                     1.0878    0.        0. 
 H                     1.59916   0.        0.96011 
 H                     1.47355  -0.84981  -0.55886 
 H                     1.4479    0.96738  -0.52175 
 
                          Input orientation:                          
 ---------------------------------------------------------------------
 Center     Atomic      Atomic             Coordinates (Angstroms)
 Number     Number       Type             X           Y           Z
 ---------------------------------------------------------------------
      1          1           0        0.000000    0.000000    0.000000
      2          6           0        1.087800    0.000000    0.000000
      3          1           0        1.599160    0.000000    0.960110
      4          1           0        1.473550   -0.849810   -0.558860
      5          1           0        1.447900    0.967380   -0.521750
 ---------------------------------------------------------------------
                    Distance matrix (angstroms):
                    1          2          3          4          5
     1  H    0.000000
     2  C    1.087800   0.000000
     3  H    1.865241   1.087796   0.000000
     4  H    1.790489   1.087798   1.745057   0.000000
     5  H    1.817818   1.156598   1.776123   1.817750   0.000000
 Stoichiometry    CH4
 Framework group  C1[X(CH4)]
 Deg. of freedom     9
 Full point group                 C1      NOp   1
 Largest Abelian subgroup         C1      NOp   1
 Largest concise Abelian subgroup C1      NOp   1
                         Standard orientation:                         
 ---------------------------------------------------------------------
 Center     Atomic      Atomic             Coordinates (Angstroms)
 Number     Number       Type             X           Y           Z
 ---------------------------------------------------------------------
      1          1           0        1.036027    0.009242   -0.383796
      2          6           0        0.012948   -0.013473   -0.014875
      3          1           0       -0.784183   -0.206233   -0.729526
      4          1           0       -0.094728   -0.749740    0.778611
      5          1           0       -0.234802    1.027566    0.423961
 ---------------------------------------------------------------------
 Rotational constants (GHZ):         160.2087187         155.6508859         146.7780885
 Standard basis: 6-31+G(d) (6D, 7F)
 There are    27 symmetry adapted cartesian basis functions of A   symmetry.
 There are    27 symmetry adapted basis functions of A   symmetry.
    27 basis functions,    48 primitive gaussians,    27 cartesian basis functions
     5 alpha electrons        5 beta electrons
       nuclear repulsion energy        13.2642285143 Hartrees.
 NAtoms=    5 NActive=    5 NUniq=    5 SFac= 1.00D+00 NAtFMM=   60 NAOKFM=F Big=F
 Integral buffers will be    131072 words long.
 Raffenetti 2 integral format.
 Two-electron integral symmetry is turned on.
 ------------------------------------------------------------------------------
 Polarizable Continuum Model (PCM)
 =================================
 Model                : PCM.
 Atomic radii         : UFF (Universal Force Field).
 Polarization charges : Total charges.
 Charge compensation  : None.
 Solution method      : On-the-fly selection.
 Cavity type          : Scaled VdW (van der Waals Surface) (Alpha=1.100).
 Cavity algorithm     : GePol (No added spheres)
                        Default sphere list used, NSphG=    5.
                        Lebedev-Laikov grids with approx.  5.0 points / Ang**2.
                        Smoothing algorithm: York/Karplus (Gamma=1.0000).
                        Polarization charges: spherical gaussians, with
                                              point-specific exponents (IZeta= 3).
                        Self-potential: point-specific (ISelfS= 7).
                        Self-field    : sphere-specific E.n sum rule (ISelfD= 2).
 Solvent              : Water, Eps=  78.355300 Eps(inf)=   1.777849
 ------------------------------------------------------------------------------
 Spheres list:
 ISph  on   Nord     Re0    Alpha      Xe            Ye            Ze
    1   H      1    1.4430  1.100      1.036027      0.009242     -0.383796
    2   C      2    1.9255  1.100      0.012948     -0.013473     -0.014875
    3   H      3    1.4430  1.100     -0.784183     -0.206233     -0.729526
    4   H      4    1.4430  1.100     -0.094728     -0.749740      0.778611
    5   H      5    1.4430  1.100     -0.234802      1.027566      0.423961
 ------------------------------------------------------------------------------
 One-electron integrals computed using PRISM.
 NBasis=    27 RedAO= T EigKep=  1.30D-02  NBF=    27
 NBsUse=    27 1.00D-06 EigRej= -1.00D+00 NBFU=    27
 ExpMin= 4.38D-02 ExpMax= 3.05D+03 ExpMxC= 4.57D+02 IAcc=3 IRadAn=         5 AccDes= 0.00D+00
 Harris functional with IExCor= 1009 and IRadAn=       5 diagonalized for initial guess.
 HarFok:  IExCor= 1009 AccDes= 0.00D+00 IRadAn=         5 IDoV= 1 UseB2=F ITyADJ=14
 ICtDFT=  3500011 ScaDFX=  1.000000  1.000000  1.000000  1.000000
 FoFCou: FMM=F IPFlag=           0 FMFlag=      100000 FMFlg1=           0
         NFxFlg=           0 DoJE=T BraDBF=F KetDBF=T FulRan=T
         wScrn=  0.000000 ICntrl=       500 IOpCl=  0 I1Cent=   200000004 NGrid=           0
         NMat0=    1 NMatS0=      1 NMatT0=    0 NMatD0=    1 NMtDS0=    0 NMtDT0=    0
 Petite list used in FoFCou.
 Keep R1 ints in memory in canonical form, NReq=1797958.
 Requested convergence on RMS density matrix=1.00D-08 within 128 cycles.
 Requested convergence on MAX density matrix=1.00D-06.
 Requested convergence on             energy=1.00D-06.
 No special actions if energy rises.
 Inv3:  Mode=1 IEnd=      744012.
 Iteration    1 A*A^-1 deviation from unit magnitude is 2.66D-15 for    492.
 Iteration    1 A*A^-1 deviation from orthogonality  is 1.35D-15 for    334    141.
 Iteration    1 A^-1*A deviation from unit magnitude is 2.78D-15 for    488.
 Iteration    1 A^-1*A deviation from orthogonality  is 9.23D-16 for    473    115.
 Error on total polarization charges =  0.00839
 SCF Done:  E(RM062X) =  -40.4796053758     A.U. after    9 cycles
            NFock=  9  Conv=0.14D-08     -V/T= 2.0113

 **********************************************************************

            Population analysis using the SCF density.

 **********************************************************************

 Orbital symmetries:
       Occupied  (A) (A) (A) (A) (A)
       Virtual   (A) (A) (A) (A) (A) (A) (A) (A) (A) (A) (A) (A)
                 (A) (A) (A) (A) (A) (A) (A) (A) (A) (A)
 The electronic state is 1-A.
 Alpha  occ. eigenvalues --  -10.53204  -0.78208  -0.47199  -0.45288  -0.43517
 Alpha virt. eigenvalues --    0.03924   0.07069   0.07202   0.07379   0.20833
 Alpha virt. eigenvalues --    0.22749   0.24255   0.30603   0.68959   0.69179
 Alpha virt. eigenvalues --    0.70531   0.95603   0.99160   1.02557   1.11035
 Alpha virt. eigenvalues --    1.17020   1.70695   1.72044   2.28070   2.29799
 Alpha virt. eigenvalues --    2.35127   4.23258
          Condensed to atoms (all electrons):
               1          2          3          4          5
     1  H    0.468764   0.378573  -0.015557  -0.022739  -0.023583
     2  C    0.378573   5.325313   0.376495   0.376760   0.373427
     3  H   -0.015557   0.376495   0.480487  -0.026965  -0.027236
     4  H   -0.022739   0.376760  -0.026965   0.484882  -0.022647
     5  H   -0.023583   0.373427  -0.027236  -0.022647   0.507497
 Mulliken charges:
               1
     1  H    0.214541
     2  C   -0.830568
     3  H    0.212776
     4  H    0.210708
     5  H    0.192542
 Sum of Mulliken charges =  -0.00000
 Mulliken charges with hydrogens summed into heavy atoms:
               1
     2  C   -0.000000
 Electronic spatial extent (au):  <R**2>=             36.4371
 Charge=             -0.0000 electrons
 Dipole moment (field-independent basis, Debye):
    X=             -0.0382    Y=             -0.0209    Z=              0.0266  Tot=              0.0511
 Quadrupole moment (field-independent basis, Debye-Ang):
   XX=             -8.2120   YY=             -8.5974   ZZ=             -8.7508
   XY=              0.0475   XZ=              0.0126   YZ=             -0.0857
 Traceless Quadrupole moment (field-independent basis, Debye-Ang):
   XX=              0.3080   YY=             -0.0773   ZZ=             -0.2307
   XY=              0.0475   XZ=              0.0126   YZ=             -0.0857
 Octapole moment (field-independent basis, Debye-Ang**2):
  XXX=              0.5238  YYY=              0.2275  ZZZ=              0.0712  XYY=             -0.2684
  XXY=             -0.1167  XXZ=             -0.7017  XZZ=             -0.2893  YZZ=             -0.3638
  YYZ=              0.6121  XYZ=             -0.1223
 Hexadecapole moment (field-independent basis, Debye-Ang**3):
 XXXX=            -16.2058 YYYY=            -17.2511 ZZZZ=            -16.9306 XXXY=              0.2334
 XXXZ=             -0.0423 YYYX=             -0.1326 YYYZ=             -0.0481 ZZZX=              0.2343
 ZZZY=             -0.4361 XXYY=             -6.0528 XXZZ=             -5.3932 YYZZ=             -5.4722
 XXYZ=              0.0514 YYXZ=             -0.1339 ZZXY=              0.1361
 N-N= 1.326422851428D+01 E-N=-1.194652373716D+02  KE= 4.002578361947D+01
 1\1\GINC-NODE60\SP\RM062X\6-31+G(d)\C1H4\YANZ\22-Sep-2023\0\\# 6-31+g(
 d) scrf=(solvent=water,pcm) int=ultrafine m062x scf=tight\\tmpdir/M2_c
 onf_70_8.gjf\\0,1\H,0,0.,0.,0.\C,0,1.0878,0.,0.\H,0,1.59916,0.,0.96011
 \H,0,1.47355,-0.84981,-0.55886\H,0,1.4479,0.96738,-0.52175\\Version=ES
 64L-G16RevA.03\State=1-A\HF=-40.4796054\RMSD=1.398e-09\Dipole=0.017870
 1,-0.0086035,-0.0031708\Quadrupole=0.1791247,-0.0429087,-0.136216,-0.0
 235506,0.1410131,0.0359767\PG=C01 [X(C1H4)]\\@


 Make no judgements where you have no compassion.
                               -- Anne McCaffrey
 Job cpu time:       0 days  0 hours  0 minutes 10.4 seconds.
 Elapsed time:       0 days  0 hours  0 minutes  5.3 seconds.
 File lengths (MBytes):  RWF=     11 Int=      0 D2E=      0 Chk=      1 Scr=      1
 Normal termination of Gaussian 16 at Fri Sep 22 17:15:51 2023.
