 Entering Gaussian System, Link 0=g16
 Initial command:
 /share/apps/gaussian/g16/l1.exe "/tmp/55661.mgr/Gau-143832.inp" -scrdir="/tmp/55661.mgr/"
 Entering Link 1 = /share/apps/gaussian/g16/l1.exe PID=    143843.
  
 Copyright (c) 1988,1990,1992,1993,1995,1998,2003,2009,2016,
            Gaussian, Inc.  All Rights Reserved.
  
 This is part of the Gaussian(R) 16 program.  It is based on
 the Gaussian(R) 09 system (copyright 2009, Gaussian, Inc.),
 the Gaussian(R) 03 system (copyright 2003, Gaussian, Inc.),
 the Gaussian(R) 98 system (copyright 1998, Gaussian, Inc.),
 the Gaussian(R) 94 system (copyright 1995, Gaussian, Inc.),
 the Gaussian 92(TM) system (copyright 1992, Gaussian, Inc.),
 the Gaussian 90(TM) system (copyright 1990, Gaussian, Inc.),
 the Gaussian 88(TM) system (copyright 1988, Gaussian, Inc.),
 the Gaussian 86(TM) system (copyright 1986, Carnegie Mellon
 University), and the Gaussian 82(TM) system (copyright 1983,
 Carnegie Mellon University). Gaussian is a federally registered
 trademark of Gaussian, Inc.
  
 This software contains proprietary and confidential information,
 including trade secrets, belonging to Gaussian, Inc.
  
 This software is provided under written license and may be
 used, copied, transmitted, or stored only in accord with that
 written license.
  
 The following legend is applicable only to US Government
 contracts under FAR:
  
                    RESTRICTED RIGHTS LEGEND
  
 Use, reproduction and disclosure by the US Government is
 subject to restrictions as set forth in subparagraphs (a)
 and (c) of the Commercial Computer Software - Restricted
 Rights clause in FAR 52.227-19.
  
 Gaussian, Inc.
 340 Quinnipiac St., Bldg. 40, Wallingford CT 06492
  
  
 ---------------------------------------------------------------
 Warning -- This program may not be used in any manner that
 competes with the business of Gaussian, Inc. or will provide
 assistance to any competitor of Gaussian, Inc.  The licensee
 of this program is prohibited from giving any competitor of
 Gaussian, Inc. access to this program.  By using this program,
 the user acknowledges that Gaussian, Inc. is engaged in the
 business of creating and licensing software in the field of
 computational chemistry and represents and warrants to the
 licensee that it is not a competitor of Gaussian, Inc. and that
 it will not use this program in any manner prohibited above.
 ---------------------------------------------------------------
  

 Cite this work as:
 Gaussian 16, Revision A.03,
 M. J. Frisch, G. W. Trucks, H. B. Schlegel, G. E. Scuseria, 
 M. A. Robb, J. R. Cheeseman, G. Scalmani, V. Barone, 
 G. A. Petersson, H. Nakatsuji, X. Li, M. Caricato, A. V. Marenich, 
 J. Bloino, B. G. Janesko, R. Gomperts, B. Mennucci, H. P. Hratchian, 
 J. V. Ortiz, A. F. Izmaylov, J. L. Sonnenberg, D. Williams-Young, 
 F. Ding, F. Lipparini, F. Egidi, J. Goings, B. Peng, A. Petrone, 
 T. Henderson, D. Ranasinghe, V. G. Zakrzewski, J. Gao, N. Rega, 
 G. Zheng, W. Liang, M. Hada, M. Ehara, K. Toyota, R. Fukuda, 
 J. Hasegawa, M. Ishida, T. Nakajima, Y. Honda, O. Kitao, H. Nakai, 
 T. Vreven, K. Throssell, J. A. Montgomery, Jr., J. E. Peralta, 
 F. Ogliaro, M. J. Bearpark, J. J. Heyd, E. N. Brothers, K. N. Kudin, 
 V. N. Staroverov, T. A. Keith, R. Kobayashi, J. Normand, 
 K. Raghavachari, A. P. Rendell, J. C. Burant, S. S. Iyengar, 
 J. Tomasi, M. Cossi, J. M. Millam, M. Klene, C. Adamo, R. Cammi, 
 J. W. Ochterski, R. L. Martin, K. Morokuma, O. Farkas, 
 J. B. Foresman, and D. J. Fox, Gaussian, Inc., Wallingford CT, 2016.
 
 ******************************************
 Gaussian 16:  ES64L-G16RevA.03 25-Dec-2016
                22-Sep-2023 
 ******************************************
 %nprocshared=2
 Will use up to    2 processors via shared memory.
 %mem=2GB
 ------------------------------------------------------------------
 # 6-31+g(d) scrf=(solvent=water,pcm) int=ultrafine m062x scf=tight
 ------------------------------------------------------------------
 1/38=1,172=1/1;
 2/12=2,17=6,18=5,40=1/2;
 3/5=1,6=6,7=11,11=2,25=1,30=1,70=2201,72=1,74=-55,75=-5/1,2,3;
 4//1;
 5/5=2,32=2,38=5,53=1/2;
 6/7=2,8=2,9=2,10=2,28=1/1;
 99/5=1,9=1/99;
 ------------------------
 tmpdir/M2_conf_104_5.gjf
 ------------------------
 Symbolic Z-matrix:
 Charge =  0 Multiplicity = 1
 H                     0.        0.        0. 
 C                     1.0878    0.        0. 
 H                     1.62544   0.        0.94565 
 H                     1.47355  -0.84981  -0.55886 
 H                     1.4479    0.96738  -0.52175 
 
                          Input orientation:                          
 ---------------------------------------------------------------------
 Center     Atomic      Atomic             Coordinates (Angstroms)
 Number     Number       Type             X           Y           Z
 ---------------------------------------------------------------------
      1          1           0        0.000000    0.000000    0.000000
      2          6           0        1.087800    0.000000    0.000000
      3          1           0        1.625440    0.000000    0.945650
      4          1           0        1.473550   -0.849810   -0.558860
      5          1           0        1.447900    0.967380   -0.521750
 ---------------------------------------------------------------------
                    Distance matrix (angstroms):
                    1          2          3          4          5
     1  H    0.000000
     2  C    1.087800   0.000000
     3  H    1.880508   1.087801   0.000000
     4  H    1.790489   1.087798   1.734589   0.000000
     5  H    1.817818   1.156598   1.766524   1.817750   0.000000
 Stoichiometry    CH4
 Framework group  C1[X(CH4)]
 Deg. of freedom     9
 Full point group                 C1      NOp   1
 Largest Abelian subgroup         C1      NOp   1
 Largest concise Abelian subgroup C1      NOp   1
                         Standard orientation:                         
 ---------------------------------------------------------------------
 Center     Atomic      Atomic             Coordinates (Angstroms)
 Number     Number       Type             X           Y           Z
 ---------------------------------------------------------------------
      1          1           0        1.041741   -0.001034   -0.375981
      2          6           0        0.014842   -0.013518   -0.017329
      3          1           0       -0.798956   -0.169271   -0.722158
      4          1           0       -0.114902   -0.768600    0.754890
      5          1           0       -0.216932    1.020015    0.447223
 ---------------------------------------------------------------------
 Rotational constants (GHZ):         161.9029231         155.6532508         145.4517933
 Standard basis: 6-31+G(d) (6D, 7F)
 There are    27 symmetry adapted cartesian basis functions of A   symmetry.
 There are    27 symmetry adapted basis functions of A   symmetry.
    27 basis functions,    48 primitive gaussians,    27 cartesian basis functions
     5 alpha electrons        5 beta electrons
       nuclear repulsion energy        13.2653614870 Hartrees.
 NAtoms=    5 NActive=    5 NUniq=    5 SFac= 1.00D+00 NAtFMM=   60 NAOKFM=F Big=F
 Integral buffers will be    131072 words long.
 Raffenetti 2 integral format.
 Two-electron integral symmetry is turned on.
 ------------------------------------------------------------------------------
 Polarizable Continuum Model (PCM)
 =================================
 Model                : PCM.
 Atomic radii         : UFF (Universal Force Field).
 Polarization charges : Total charges.
 Charge compensation  : None.
 Solution method      : On-the-fly selection.
 Cavity type          : Scaled VdW (van der Waals Surface) (Alpha=1.100).
 Cavity algorithm     : GePol (No added spheres)
                        Default sphere list used, NSphG=    5.
                        Lebedev-Laikov grids with approx.  5.0 points / Ang**2.
                        Smoothing algorithm: York/Karplus (Gamma=1.0000).
                        Polarization charges: spherical gaussians, with
                                              point-specific exponents (IZeta= 3).
                        Self-potential: point-specific (ISelfS= 7).
                        Self-field    : sphere-specific E.n sum rule (ISelfD= 2).
 Solvent              : Water, Eps=  78.355300 Eps(inf)=   1.777849
 ------------------------------------------------------------------------------
 Spheres list:
 ISph  on   Nord     Re0    Alpha      Xe            Ye            Ze
    1   H      1    1.4430  1.100      1.041741     -0.001034     -0.375981
    2   C      2    1.9255  1.100      0.014842     -0.013518     -0.017329
    3   H      3    1.4430  1.100     -0.798956     -0.169271     -0.722158
    4   H      4    1.4430  1.100     -0.114902     -0.768600      0.754890
    5   H      5    1.4430  1.100     -0.216932      1.020015      0.447223
 ------------------------------------------------------------------------------
 One-electron integrals computed using PRISM.
 NBasis=    27 RedAO= T EigKep=  1.30D-02  NBF=    27
 NBsUse=    27 1.00D-06 EigRej= -1.00D+00 NBFU=    27
 ExpMin= 4.38D-02 ExpMax= 3.05D+03 ExpMxC= 4.57D+02 IAcc=3 IRadAn=         5 AccDes= 0.00D+00
 Harris functional with IExCor= 1009 and IRadAn=       5 diagonalized for initial guess.
 HarFok:  IExCor= 1009 AccDes= 0.00D+00 IRadAn=         5 IDoV= 1 UseB2=F ITyADJ=14
 ICtDFT=  3500011 ScaDFX=  1.000000  1.000000  1.000000  1.000000
 FoFCou: FMM=F IPFlag=           0 FMFlag=      100000 FMFlg1=           0
         NFxFlg=           0 DoJE=T BraDBF=F KetDBF=T FulRan=T
         wScrn=  0.000000 ICntrl=       500 IOpCl=  0 I1Cent=   200000004 NGrid=           0
         NMat0=    1 NMatS0=      1 NMatT0=    0 NMatD0=    1 NMtDS0=    0 NMtDT0=    0
 Petite list used in FoFCou.
 Keep R1 ints in memory in canonical form, NReq=1797958.
 Requested convergence on RMS density matrix=1.00D-08 within 128 cycles.
 Requested convergence on MAX density matrix=1.00D-06.
 Requested convergence on             energy=1.00D-06.
 No special actions if energy rises.
 Inv3:  Mode=1 IEnd=      750000.
 Iteration    1 A*A^-1 deviation from unit magnitude is 2.44D-15 for    335.
 Iteration    1 A*A^-1 deviation from orthogonality  is 2.43D-15 for    335    141.
 Iteration    1 A^-1*A deviation from unit magnitude is 2.44D-15 for    488.
 Iteration    1 A^-1*A deviation from orthogonality  is 2.66D-15 for    422    335.
 Error on total polarization charges =  0.00841
 SCF Done:  E(RM062X) =  -40.4788185150     A.U. after    9 cycles
            NFock=  9  Conv=0.20D-08     -V/T= 2.0113

 **********************************************************************

            Population analysis using the SCF density.

 **********************************************************************

 Orbital symmetries:
       Occupied  (A) (A) (A) (A) (A)
       Virtual   (A) (A) (A) (A) (A) (A) (A) (A) (A) (A) (A) (A)
                 (A) (A) (A) (A) (A) (A) (A) (A) (A) (A)
 The electronic state is 1-A.
 Alpha  occ. eigenvalues --  -10.53208  -0.78225  -0.47454  -0.45197  -0.43329
 Alpha virt. eigenvalues --    0.03922   0.07050   0.07210   0.07386   0.20697
 Alpha virt. eigenvalues --    0.22656   0.24463   0.30573   0.68962   0.69251
 Alpha virt. eigenvalues --    0.70534   0.95292   0.98960   1.02956   1.11178
 Alpha virt. eigenvalues --    1.16905   1.70610   1.72377   2.28209   2.28787
 Alpha virt. eigenvalues --    2.35562   4.23178
          Condensed to atoms (all electrons):
               1          2          3          4          5
     1  H    0.466452   0.378775  -0.014208  -0.022786  -0.023629
     2  C    0.378775   5.326667   0.376151   0.376668   0.373415
     3  H   -0.014208   0.376151   0.480985  -0.028045  -0.028180
     4  H   -0.022786   0.376668  -0.028045   0.486076  -0.022514
     5  H   -0.023629   0.373415  -0.028180  -0.022514   0.508523
 Mulliken charges:
               1
     1  H    0.215395
     2  C   -0.831676
     3  H    0.213297
     4  H    0.210601
     5  H    0.192384
 Sum of Mulliken charges =  -0.00000
 Mulliken charges with hydrogens summed into heavy atoms:
               1
     2  C   -0.000000
 Electronic spatial extent (au):  <R**2>=             36.4375
 Charge=              0.0000 electrons
 Dipole moment (field-independent basis, Debye):
    X=             -0.0475    Y=             -0.0202    Z=              0.0337  Tot=              0.0617
 Quadrupole moment (field-independent basis, Debye-Ang):
   XX=             -8.1536   YY=             -8.6005   ZZ=             -8.8131
   XY=              0.0431   XZ=              0.0106   YZ=             -0.0904
 Traceless Quadrupole moment (field-independent basis, Debye-Ang):
   XX=              0.3688   YY=             -0.0781   ZZ=             -0.2907
   XY=              0.0431   XZ=              0.0106   YZ=             -0.0904
 Octapole moment (field-independent basis, Debye-Ang**2):
  XXX=              0.5116  YYY=              0.1876  ZZZ=              0.0704  XYY=             -0.2648
  XXY=             -0.1188  XXZ=             -0.7069  XZZ=             -0.3014  YZZ=             -0.3185
  YYZ=              0.6331  XYZ=             -0.0904
 Hexadecapole moment (field-independent basis, Debye-Ang**3):
 XXXX=            -16.1735 YYYY=            -17.2520 ZZZZ=            -16.9671 XXXY=              0.1983
 XXXZ=             -0.0216 YYYX=             -0.1038 YYYZ=             -0.0635 ZZZX=              0.2199
 ZZZY=             -0.4232 XXYY=             -6.0773 XXZZ=             -5.3987 YYZZ=             -5.4622
 XXYZ=              0.0291 YYXZ=             -0.1509 ZZXY=              0.1200
 N-N= 1.326536148698D+01 E-N=-1.194658487167D+02  KE= 4.002569000175D+01
 1\1\GINC-NODE60\SP\RM062X\6-31+G(d)\C1H4\YANZ\22-Sep-2023\0\\# 6-31+g(
 d) scrf=(solvent=water,pcm) int=ultrafine m062x scf=tight\\tmpdir/M2_c
 onf_104_5.gjf\\0,1\H,0,0.,0.,0.\C,0,1.0878,0.,0.\H,0,1.62544,0.,0.9456
 5\H,0,1.47355,-0.84981,-0.55886\H,0,1.4479,0.96738,-0.52175\\Version=E
 S64L-G16RevA.03\State=1-A\HF=-40.4788185\RMSD=2.010e-09\Dipole=0.02210
 92,-0.0085951,-0.0050634\Quadrupole=0.2171516,-0.0446106,-0.1725411,-0
 .0236334,0.1639442,0.0365288\PG=C01 [X(C1H4)]\\@


 MISERY NO LONGER LOVES COMPANY.  NOWADAYS IT INSISTS ON IT.

                                              -- BAKER'S LAW
 Job cpu time:       0 days  0 hours  0 minutes 10.3 seconds.
 Elapsed time:       0 days  0 hours  0 minutes  5.3 seconds.
 File lengths (MBytes):  RWF=     11 Int=      0 D2E=      0 Chk=      1 Scr=      1
 Normal termination of Gaussian 16 at Fri Sep 22 17:19:48 2023.
