 Entering Gaussian System, Link 0=g16
 Initial command:
 /share/apps/gaussian/g16/l1.exe "/tmp/55661.mgr/Gau-144320.inp" -scrdir="/tmp/55661.mgr/"
 Entering Link 1 = /share/apps/gaussian/g16/l1.exe PID=    144332.
  
 Copyright (c) 1988,1990,1992,1993,1995,1998,2003,2009,2016,
            Gaussian, Inc.  All Rights Reserved.
  
 This is part of the Gaussian(R) 16 program.  It is based on
 the Gaussian(R) 09 system (copyright 2009, Gaussian, Inc.),
 the Gaussian(R) 03 system (copyright 2003, Gaussian, Inc.),
 the Gaussian(R) 98 system (copyright 1998, Gaussian, Inc.),
 the Gaussian(R) 94 system (copyright 1995, Gaussian, Inc.),
 the Gaussian 92(TM) system (copyright 1992, Gaussian, Inc.),
 the Gaussian 90(TM) system (copyright 1990, Gaussian, Inc.),
 the Gaussian 88(TM) system (copyright 1988, Gaussian, Inc.),
 the Gaussian 86(TM) system (copyright 1986, Carnegie Mellon
 University), and the Gaussian 82(TM) system (copyright 1983,
 Carnegie Mellon University). Gaussian is a federally registered
 trademark of Gaussian, Inc.
  
 This software contains proprietary and confidential information,
 including trade secrets, belonging to Gaussian, Inc.
  
 This software is provided under written license and may be
 used, copied, transmitted, or stored only in accord with that
 written license.
  
 The following legend is applicable only to US Government
 contracts under FAR:
  
                    RESTRICTED RIGHTS LEGEND
  
 Use, reproduction and disclosure by the US Government is
 subject to restrictions as set forth in subparagraphs (a)
 and (c) of the Commercial Computer Software - Restricted
 Rights clause in FAR 52.227-19.
  
 Gaussian, Inc.
 340 Quinnipiac St., Bldg. 40, Wallingford CT 06492
  
  
 ---------------------------------------------------------------
 Warning -- This program may not be used in any manner that
 competes with the business of Gaussian, Inc. or will provide
 assistance to any competitor of Gaussian, Inc.  The licensee
 of this program is prohibited from giving any competitor of
 Gaussian, Inc. access to this program.  By using this program,
 the user acknowledges that Gaussian, Inc. is engaged in the
 business of creating and licensing software in the field of
 computational chemistry and represents and warrants to the
 licensee that it is not a competitor of Gaussian, Inc. and that
 it will not use this program in any manner prohibited above.
 ---------------------------------------------------------------
  

 Cite this work as:
 Gaussian 16, Revision A.03,
 M. J. Frisch, G. W. Trucks, H. B. Schlegel, G. E. Scuseria, 
 M. A. Robb, J. R. Cheeseman, G. Scalmani, V. Barone, 
 G. A. Petersson, H. Nakatsuji, X. Li, M. Caricato, A. V. Marenich, 
 J. Bloino, B. G. Janesko, R. Gomperts, B. Mennucci, H. P. Hratchian, 
 J. V. Ortiz, A. F. Izmaylov, J. L. Sonnenberg, D. Williams-Young, 
 F. Ding, F. Lipparini, F. Egidi, J. Goings, B. Peng, A. Petrone, 
 T. Henderson, D. Ranasinghe, V. G. Zakrzewski, J. Gao, N. Rega, 
 G. Zheng, W. Liang, M. Hada, M. Ehara, K. Toyota, R. Fukuda, 
 J. Hasegawa, M. Ishida, T. Nakajima, Y. Honda, O. Kitao, H. Nakai, 
 T. Vreven, K. Throssell, J. A. Montgomery, Jr., J. E. Peralta, 
 F. Ogliaro, M. J. Bearpark, J. J. Heyd, E. N. Brothers, K. N. Kudin, 
 V. N. Staroverov, T. A. Keith, R. Kobayashi, J. Normand, 
 K. Raghavachari, A. P. Rendell, J. C. Burant, S. S. Iyengar, 
 J. Tomasi, M. Cossi, J. M. Millam, M. Klene, C. Adamo, R. Cammi, 
 J. W. Ochterski, R. L. Martin, K. Morokuma, O. Farkas, 
 J. B. Foresman, and D. J. Fox, Gaussian, Inc., Wallingford CT, 2016.
 
 ******************************************
 Gaussian 16:  ES64L-G16RevA.03 25-Dec-2016
                22-Sep-2023 
 ******************************************
 %nprocshared=2
 Will use up to    2 processors via shared memory.
 %mem=2GB
 ------------------------------------------------------------------
 # 6-31+g(d) scrf=(solvent=water,pcm) int=ultrafine m062x scf=tight
 ------------------------------------------------------------------
 1/38=1,172=1/1;
 2/12=2,17=6,18=5,40=1/2;
 3/5=1,6=6,7=11,11=2,25=1,30=1,70=2201,72=1,74=-55,75=-5/1,2,3;
 4//1;
 5/5=2,32=2,38=5,53=1/2;
 6/7=2,8=2,9=2,10=2,28=1/1;
 99/5=1,9=1/99;
 ------------------------
 tmpdir/M2_conf_107_3.gjf
 ------------------------
 Symbolic Z-matrix:
 Charge =  0 Multiplicity = 1
 C                     0.        0.        0. 
 H                     1.0775    0.        0. 
 H                    -0.38575   0.       -1.01711 
 H                    -0.38575  -0.84981   0.55886 
 H                    -0.3601    0.96738   0.52175 
 
                          Input orientation:                          
 ---------------------------------------------------------------------
 Center     Atomic      Atomic             Coordinates (Angstroms)
 Number     Number       Type             X           Y           Z
 ---------------------------------------------------------------------
      1          6           0        0.000000    0.000000    0.000000
      2          1           0        1.077500    0.000000    0.000000
      3          1           0       -0.385750    0.000000   -1.017110
      4          1           0       -0.385750   -0.849810    0.558860
      5          1           0       -0.360100    0.967380    0.521750
 ---------------------------------------------------------------------
                    Distance matrix (angstroms):
                    1          2          3          4          5
     1  C    0.000000
     2  H    1.077500   0.000000
     3  H    1.087803   1.782025   0.000000
     4  H    1.087798   1.782022   1.790491   0.000000
     5  H    1.156598   1.809625   1.817848   1.817750   0.000000
 Stoichiometry    CH4
 Framework group  C1[X(CH4)]
 Deg. of freedom     9
 Full point group                 C1      NOp   1
 Largest Abelian subgroup         C1      NOp   1
 Largest concise Abelian subgroup C1      NOp   1
                         Standard orientation:                         
 ---------------------------------------------------------------------
 Center     Atomic      Atomic             Coordinates (Angstroms)
 Number     Number       Type             X           Y           Z
 ---------------------------------------------------------------------
      1          6           0       -0.014278    0.000012    0.001990
      2          1           0       -0.276911    0.000172    1.046992
      3          1           0       -0.389781   -0.894565   -0.489991
      4          1           0       -0.387096    0.895924   -0.489592
      5          1           0        1.139455   -0.001603   -0.079349
 ---------------------------------------------------------------------
 Rotational constants (GHZ):         157.4304747         153.7682157         152.8025064
 Standard basis: 6-31+G(d) (6D, 7F)
 There are    27 symmetry adapted cartesian basis functions of A   symmetry.
 There are    27 symmetry adapted basis functions of A   symmetry.
    27 basis functions,    48 primitive gaussians,    27 cartesian basis functions
     5 alpha electrons        5 beta electrons
       nuclear repulsion energy        13.2935476438 Hartrees.
 NAtoms=    5 NActive=    5 NUniq=    5 SFac= 1.00D+00 NAtFMM=   60 NAOKFM=F Big=F
 Integral buffers will be    131072 words long.
 Raffenetti 2 integral format.
 Two-electron integral symmetry is turned on.
 ------------------------------------------------------------------------------
 Polarizable Continuum Model (PCM)
 =================================
 Model                : PCM.
 Atomic radii         : UFF (Universal Force Field).
 Polarization charges : Total charges.
 Charge compensation  : None.
 Solution method      : On-the-fly selection.
 Cavity type          : Scaled VdW (van der Waals Surface) (Alpha=1.100).
 Cavity algorithm     : GePol (No added spheres)
                        Default sphere list used, NSphG=    5.
                        Lebedev-Laikov grids with approx.  5.0 points / Ang**2.
                        Smoothing algorithm: York/Karplus (Gamma=1.0000).
                        Polarization charges: spherical gaussians, with
                                              point-specific exponents (IZeta= 3).
                        Self-potential: point-specific (ISelfS= 7).
                        Self-field    : sphere-specific E.n sum rule (ISelfD= 2).
 Solvent              : Water, Eps=  78.355300 Eps(inf)=   1.777849
 ------------------------------------------------------------------------------
 Spheres list:
 ISph  on   Nord     Re0    Alpha      Xe            Ye            Ze
    1   C      1    1.9255  1.100     -0.014278      0.000012      0.001990
    2   H      2    1.4430  1.100     -0.276911      0.000172      1.046992
    3   H      3    1.4430  1.100     -0.389781     -0.894565     -0.489991
    4   H      4    1.4430  1.100     -0.387096      0.895924     -0.489592
    5   H      5    1.4430  1.100      1.139455     -0.001603     -0.079349
 ------------------------------------------------------------------------------
 One-electron integrals computed using PRISM.
 NBasis=    27 RedAO= T EigKep=  1.28D-02  NBF=    27
 NBsUse=    27 1.00D-06 EigRej= -1.00D+00 NBFU=    27
 ExpMin= 4.38D-02 ExpMax= 3.05D+03 ExpMxC= 4.57D+02 IAcc=3 IRadAn=         5 AccDes= 0.00D+00
 Harris functional with IExCor= 1009 and IRadAn=       5 diagonalized for initial guess.
 HarFok:  IExCor= 1009 AccDes= 0.00D+00 IRadAn=         5 IDoV= 1 UseB2=F ITyADJ=14
 ICtDFT=  3500011 ScaDFX=  1.000000  1.000000  1.000000  1.000000
 FoFCou: FMM=F IPFlag=           0 FMFlag=      100000 FMFlg1=           0
         NFxFlg=           0 DoJE=T BraDBF=F KetDBF=T FulRan=T
         wScrn=  0.000000 ICntrl=       500 IOpCl=  0 I1Cent=   200000004 NGrid=           0
         NMat0=    1 NMatS0=      1 NMatT0=    0 NMatD0=    1 NMtDS0=    0 NMtDT0=    0
 Petite list used in FoFCou.
 Keep R1 ints in memory in canonical form, NReq=1797958.
 Requested convergence on RMS density matrix=1.00D-08 within 128 cycles.
 Requested convergence on MAX density matrix=1.00D-06.
 Requested convergence on             energy=1.00D-06.
 No special actions if energy rises.
 Inv3:  Mode=1 IEnd=      726192.
 Iteration    1 A*A^-1 deviation from unit magnitude is 3.33D-15 for    482.
 Iteration    1 A*A^-1 deviation from orthogonality  is 1.17D-15 for    394    169.
 Iteration    1 A^-1*A deviation from unit magnitude is 3.11D-15 for    482.
 Iteration    1 A^-1*A deviation from orthogonality  is 1.37D-15 for    333    250.
 Error on total polarization charges =  0.00832
 SCF Done:  E(RM062X) =  -40.4812372289     A.U. after    9 cycles
            NFock=  9  Conv=0.22D-09     -V/T= 2.0110

 **********************************************************************

            Population analysis using the SCF density.

 **********************************************************************

 Orbital symmetries:
       Occupied  (A) (A) (A) (A) (A)
       Virtual   (A) (A) (A) (A) (A) (A) (A) (A) (A) (A) (A) (A)
                 (A) (A) (A) (A) (A) (A) (A) (A) (A) (A)
 The electronic state is 1-A.
 Alpha  occ. eigenvalues --  -10.53081  -0.78264  -0.46137  -0.45966  -0.44098
 Alpha virt. eigenvalues --    0.03933   0.07139   0.07159   0.07353   0.21215
 Alpha virt. eigenvalues --    0.23334   0.23556   0.30809   0.68783   0.69018
 Alpha virt. eigenvalues --    0.70529   0.96554   1.00501   1.00951   1.10913
 Alpha virt. eigenvalues --    1.17625   1.71049   1.71055   2.27498   2.33307
 Alpha virt. eigenvalues --    2.34353   4.23677
          Condensed to atoms (all electrons):
               1          2          3          4          5
     1  C    5.321220   0.378121   0.377706   0.377704   0.374041
     2  H    0.378121   0.477267  -0.022639  -0.022639  -0.023485
     3  H    0.377706  -0.022639   0.479461  -0.022403  -0.023247
     4  H    0.377704  -0.022639  -0.022403   0.479471  -0.023256
     5  H    0.374041  -0.023485  -0.023247  -0.023256   0.502775
 Mulliken charges:
               1
     1  C   -0.828791
     2  H    0.213375
     3  H    0.211122
     4  H    0.211122
     5  H    0.193171
 Sum of Mulliken charges =  -0.00000
 Mulliken charges with hydrogens summed into heavy atoms:
               1
     1  C   -0.000000
 Electronic spatial extent (au):  <R**2>=             36.3393
 Charge=             -0.0000 electrons
 Dipole moment (field-independent basis, Debye):
    X=             -0.0283    Y=              0.0001    Z=              0.0083  Tot=              0.0295
 Quadrupole moment (field-independent basis, Debye-Ang):
   XX=             -8.5833   YY=             -8.4642   ZZ=             -8.4708
   XY=              0.0004   XZ=              0.0095   YZ=             -0.0000
 Traceless Quadrupole moment (field-independent basis, Debye-Ang):
   XX=             -0.0772   YY=              0.0419   ZZ=              0.0353
   XY=              0.0004   XZ=              0.0095   YZ=             -0.0000
 Octapole moment (field-independent basis, Debye-Ang**2):
  XXX=              0.7381  YYY=              0.0030  ZZZ=              0.7902  XYY=             -0.5755
  XXY=             -0.0027  XXZ=             -0.1106  XZZ=             -0.4631  YZZ=              0.0002
  YYZ=             -0.6156  XYZ=             -0.0008
 Hexadecapole moment (field-independent basis, Debye-Ang**3):
 XXXX=            -17.0478 YYYY=            -16.2584 ZZZZ=            -16.0510 XXXY=             -0.0007
 XXXZ=             -0.0745 YYYX=              0.0016 YYYZ=             -0.0016 ZZZX=             -0.2357
 ZZZY=              0.0003 XXYY=             -5.8598 XXZZ=             -5.9190 YYZZ=             -5.4402
 XXYZ=              0.0012 YYXZ=              0.3578 ZZXY=              0.0009
 N-N= 1.329354764377D+01 E-N=-1.195373088155D+02  KE= 4.003997658501D+01
 1\1\GINC-NODE60\SP\RM062X\6-31+G(d)\C1H4\YANZ\22-Sep-2023\0\\# 6-31+g(
 d) scrf=(solvent=water,pcm) int=ultrafine m062x scf=tight\\tmpdir/M2_c
 onf_107_3.gjf\\0,1\C,0,0.,0.,0.\H,0,1.0775,0.,0.\H,0,-0.38575,0.,-1.01
 711\H,0,-0.38575,-0.84981,0.55886\H,0,-0.3601,0.96738,0.52175\\Version
 =ES64L-G16RevA.03\State=1-A\HF=-40.4812372\RMSD=2.201e-10\Dipole=0.005
 8896,-0.0087984,-0.0047237\Quadrupole=0.0179809,-0.0311453,0.0131645,0
 .0228824,0.0122979,-0.0334556\PG=C01 [X(C1H4)]\\@


 A SCIENTIST IS SOMEONE WHOSE CURIOSITY SURVIVES
 EDUCATION'S ASSAULTS ON IT.
                          - SIR HERMANN BONDI
 Job cpu time:       0 days  0 hours  0 minutes 10.4 seconds.
 Elapsed time:       0 days  0 hours  0 minutes  5.3 seconds.
 File lengths (MBytes):  RWF=     11 Int=      0 D2E=      0 Chk=      1 Scr=      1
 Normal termination of Gaussian 16 at Fri Sep 22 17:20:09 2023.
