 Entering Gaussian System, Link 0=g16
 Initial command:
 /share/apps/gaussian/g16/l1.exe "/tmp/55661.mgr/Gau-132046.inp" -scrdir="/tmp/55661.mgr/"
 Entering Link 1 = /share/apps/gaussian/g16/l1.exe PID=    132057.
  
 Copyright (c) 1988,1990,1992,1993,1995,1998,2003,2009,2016,
            Gaussian, Inc.  All Rights Reserved.
  
 This is part of the Gaussian(R) 16 program.  It is based on
 the Gaussian(R) 09 system (copyright 2009, Gaussian, Inc.),
 the Gaussian(R) 03 system (copyright 2003, Gaussian, Inc.),
 the Gaussian(R) 98 system (copyright 1998, Gaussian, Inc.),
 the Gaussian(R) 94 system (copyright 1995, Gaussian, Inc.),
 the Gaussian 92(TM) system (copyright 1992, Gaussian, Inc.),
 the Gaussian 90(TM) system (copyright 1990, Gaussian, Inc.),
 the Gaussian 88(TM) system (copyright 1988, Gaussian, Inc.),
 the Gaussian 86(TM) system (copyright 1986, Carnegie Mellon
 University), and the Gaussian 82(TM) system (copyright 1983,
 Carnegie Mellon University). Gaussian is a federally registered
 trademark of Gaussian, Inc.
  
 This software contains proprietary and confidential information,
 including trade secrets, belonging to Gaussian, Inc.
  
 This software is provided under written license and may be
 used, copied, transmitted, or stored only in accord with that
 written license.
  
 The following legend is applicable only to US Government
 contracts under FAR:
  
                    RESTRICTED RIGHTS LEGEND
  
 Use, reproduction and disclosure by the US Government is
 subject to restrictions as set forth in subparagraphs (a)
 and (c) of the Commercial Computer Software - Restricted
 Rights clause in FAR 52.227-19.
  
 Gaussian, Inc.
 340 Quinnipiac St., Bldg. 40, Wallingford CT 06492
  
  
 ---------------------------------------------------------------
 Warning -- This program may not be used in any manner that
 competes with the business of Gaussian, Inc. or will provide
 assistance to any competitor of Gaussian, Inc.  The licensee
 of this program is prohibited from giving any competitor of
 Gaussian, Inc. access to this program.  By using this program,
 the user acknowledges that Gaussian, Inc. is engaged in the
 business of creating and licensing software in the field of
 computational chemistry and represents and warrants to the
 licensee that it is not a competitor of Gaussian, Inc. and that
 it will not use this program in any manner prohibited above.
 ---------------------------------------------------------------
  

 Cite this work as:
 Gaussian 16, Revision A.03,
 M. J. Frisch, G. W. Trucks, H. B. Schlegel, G. E. Scuseria, 
 M. A. Robb, J. R. Cheeseman, G. Scalmani, V. Barone, 
 G. A. Petersson, H. Nakatsuji, X. Li, M. Caricato, A. V. Marenich, 
 J. Bloino, B. G. Janesko, R. Gomperts, B. Mennucci, H. P. Hratchian, 
 J. V. Ortiz, A. F. Izmaylov, J. L. Sonnenberg, D. Williams-Young, 
 F. Ding, F. Lipparini, F. Egidi, J. Goings, B. Peng, A. Petrone, 
 T. Henderson, D. Ranasinghe, V. G. Zakrzewski, J. Gao, N. Rega, 
 G. Zheng, W. Liang, M. Hada, M. Ehara, K. Toyota, R. Fukuda, 
 J. Hasegawa, M. Ishida, T. Nakajima, Y. Honda, O. Kitao, H. Nakai, 
 T. Vreven, K. Throssell, J. A. Montgomery, Jr., J. E. Peralta, 
 F. Ogliaro, M. J. Bearpark, J. J. Heyd, E. N. Brothers, K. N. Kudin, 
 V. N. Staroverov, T. A. Keith, R. Kobayashi, J. Normand, 
 K. Raghavachari, A. P. Rendell, J. C. Burant, S. S. Iyengar, 
 J. Tomasi, M. Cossi, J. M. Millam, M. Klene, C. Adamo, R. Cammi, 
 J. W. Ochterski, R. L. Martin, K. Morokuma, O. Farkas, 
 J. B. Foresman, and D. J. Fox, Gaussian, Inc., Wallingford CT, 2016.
 
 ******************************************
 Gaussian 16:  ES64L-G16RevA.03 25-Dec-2016
                22-Sep-2023 
 ******************************************
 %nprocshared=2
 Will use up to    2 processors via shared memory.
 %mem=2GB
 ------------------------------------------------------------------
 # 6-31+g(d) scrf=(solvent=water,pcm) int=ultrafine m062x scf=tight
 ------------------------------------------------------------------
 1/38=1,172=1/1;
 2/12=2,17=6,18=5,40=1/2;
 3/5=1,6=6,7=11,11=2,25=1,30=1,70=2201,72=1,74=-55,75=-5/1,2,3;
 4//1;
 5/5=2,32=2,38=5,53=1/2;
 6/7=2,8=2,9=2,10=2,28=1/1;
 99/5=1,9=1/99;
 -----------------------
 tmpdir/M2_conf_30_2.gjf
 -----------------------
 Symbolic Z-matrix:
 Charge =  0 Multiplicity = 1
 C                     0.        0.        0. 
 H                     1.0834    0.        0. 
 H                    -0.38575   0.       -1.01711 
 H                    -0.38575   0.84981   0.55886 
 H                    -0.3601   -0.96738   0.52175 
 
                          Input orientation:                          
 ---------------------------------------------------------------------
 Center     Atomic      Atomic             Coordinates (Angstroms)
 Number     Number       Type             X           Y           Z
 ---------------------------------------------------------------------
      1          6           0        0.000000    0.000000    0.000000
      2          1           0        1.083400    0.000000    0.000000
      3          1           0       -0.385750    0.000000   -1.017110
      4          1           0       -0.385750    0.849810    0.558860
      5          1           0       -0.360100   -0.967380    0.521750
 ---------------------------------------------------------------------
                    Distance matrix (angstroms):
                    1          2          3          4          5
     1  C    0.000000
     2  H    1.083400   0.000000
     3  H    1.087803   1.786873   0.000000
     4  H    1.087798   1.786870   1.790491   0.000000
     5  H    1.156598   1.814315   1.817848   1.817750   0.000000
 Stoichiometry    CH4
 Framework group  C1[X(CH4)]
 Deg. of freedom     9
 Full point group                 C1      NOp   1
 Largest Abelian subgroup         C1      NOp   1
 Largest concise Abelian subgroup C1      NOp   1
                         Standard orientation:                         
 ---------------------------------------------------------------------
 Center     Atomic      Atomic             Coordinates (Angstroms)
 Number     Number       Type             X           Y           Z
 ---------------------------------------------------------------------
      1          6           0        0.014176    0.000012    0.000900
      2          1           0        0.316503    0.000397    1.041262
      3          1           0        0.371427   -0.894677   -0.504293
      4          1           0        0.368771    0.895812   -0.504183
      5          1           0       -1.141760   -0.001603   -0.038184
 ---------------------------------------------------------------------
 Rotational constants (GHZ):         156.8451760         153.1676247         152.7605717
 Standard basis: 6-31+G(d) (6D, 7F)
 There are    27 symmetry adapted cartesian basis functions of A   symmetry.
 There are    27 symmetry adapted basis functions of A   symmetry.
    27 basis functions,    48 primitive gaussians,    27 cartesian basis functions
     5 alpha electrons        5 beta electrons
       nuclear repulsion energy        13.2751332058 Hartrees.
 NAtoms=    5 NActive=    5 NUniq=    5 SFac= 1.00D+00 NAtFMM=   60 NAOKFM=F Big=F
 Integral buffers will be    131072 words long.
 Raffenetti 2 integral format.
 Two-electron integral symmetry is turned on.
 ------------------------------------------------------------------------------
 Polarizable Continuum Model (PCM)
 =================================
 Model                : PCM.
 Atomic radii         : UFF (Universal Force Field).
 Polarization charges : Total charges.
 Charge compensation  : None.
 Solution method      : On-the-fly selection.
 Cavity type          : Scaled VdW (van der Waals Surface) (Alpha=1.100).
 Cavity algorithm     : GePol (No added spheres)
                        Default sphere list used, NSphG=    5.
                        Lebedev-Laikov grids with approx.  5.0 points / Ang**2.
                        Smoothing algorithm: York/Karplus (Gamma=1.0000).
                        Polarization charges: spherical gaussians, with
                                              point-specific exponents (IZeta= 3).
                        Self-potential: point-specific (ISelfS= 7).
                        Self-field    : sphere-specific E.n sum rule (ISelfD= 2).
 Solvent              : Water, Eps=  78.355300 Eps(inf)=   1.777849
 ------------------------------------------------------------------------------
 Spheres list:
 ISph  on   Nord     Re0    Alpha      Xe            Ye            Ze
    1   C      1    1.9255  1.100      0.014176      0.000012      0.000900
    2   H      2    1.4430  1.100      0.316503      0.000397      1.041262
    3   H      3    1.4430  1.100      0.371427     -0.894677     -0.504293
    4   H      4    1.4430  1.100      0.368771      0.895812     -0.504183
    5   H      5    1.4430  1.100     -1.141760     -0.001603     -0.038184
 ------------------------------------------------------------------------------
 One-electron integrals computed using PRISM.
 NBasis=    27 RedAO= T EigKep=  1.29D-02  NBF=    27
 NBsUse=    27 1.00D-06 EigRej= -1.00D+00 NBFU=    27
 ExpMin= 4.38D-02 ExpMax= 3.05D+03 ExpMxC= 4.57D+02 IAcc=3 IRadAn=         5 AccDes= 0.00D+00
 Harris functional with IExCor= 1009 and IRadAn=       5 diagonalized for initial guess.
 HarFok:  IExCor= 1009 AccDes= 0.00D+00 IRadAn=         5 IDoV= 1 UseB2=F ITyADJ=14
 ICtDFT=  3500011 ScaDFX=  1.000000  1.000000  1.000000  1.000000
 FoFCou: FMM=F IPFlag=           0 FMFlag=      100000 FMFlg1=           0
         NFxFlg=           0 DoJE=T BraDBF=F KetDBF=T FulRan=T
         wScrn=  0.000000 ICntrl=       500 IOpCl=  0 I1Cent=   200000004 NGrid=           0
         NMat0=    1 NMatS0=      1 NMatT0=    0 NMatD0=    1 NMtDS0=    0 NMtDT0=    0
 Petite list used in FoFCou.
 Keep R1 ints in memory in canonical form, NReq=1797958.
 Requested convergence on RMS density matrix=1.00D-08 within 128 cycles.
 Requested convergence on MAX density matrix=1.00D-06.
 Requested convergence on             energy=1.00D-06.
 No special actions if energy rises.
 Inv3:  Mode=1 IEnd=      726192.
 Iteration    1 A*A^-1 deviation from unit magnitude is 3.22D-15 for    483.
 Iteration    1 A*A^-1 deviation from orthogonality  is 9.99D-16 for    387    119.
 Iteration    1 A^-1*A deviation from unit magnitude is 3.22D-15 for    483.
 Iteration    1 A^-1*A deviation from orthogonality  is 1.00D-15 for    488    244.
 Error on total polarization charges =  0.00833
 SCF Done:  E(RM062X) =  -40.4813188353     A.U. after    9 cycles
            NFock=  9  Conv=0.20D-09     -V/T= 2.0112

 **********************************************************************

            Population analysis using the SCF density.

 **********************************************************************

 Orbital symmetries:
       Occupied  (A) (A) (A) (A) (A)
       Virtual   (A) (A) (A) (A) (A) (A) (A) (A) (A) (A) (A) (A)
                 (A) (A) (A) (A) (A) (A) (A) (A) (A) (A)
 The electronic state is 1-A.
 Alpha  occ. eigenvalues --  -10.53144  -0.78210  -0.46046  -0.45973  -0.44095
 Alpha virt. eigenvalues --    0.03930   0.07147   0.07156   0.07351   0.21204
 Alpha virt. eigenvalues --    0.23334   0.23429   0.30745   0.68904   0.69003
 Alpha virt. eigenvalues --    0.70528   0.96537   1.00498   1.00689   1.10813
 Alpha virt. eigenvalues --    1.17452   1.71072   1.71075   2.27430   2.33307
 Alpha virt. eigenvalues --    2.33747   4.23536
          Condensed to atoms (all electrons):
               1          2          3          4          5
     1  C    5.321835   0.377692   0.377514   0.377512   0.373847
     2  H    0.377692   0.478451  -0.022538  -0.022537  -0.023379
     3  H    0.377514  -0.022538   0.479386  -0.022436  -0.023276
     4  H    0.377512  -0.022537  -0.022436   0.479397  -0.023285
     5  H    0.373847  -0.023379  -0.023276  -0.023285   0.502701
 Mulliken charges:
               1
     1  C   -0.828401
     2  H    0.212311
     3  H    0.211349
     4  H    0.211349
     5  H    0.193392
 Sum of Mulliken charges =   0.00000
 Mulliken charges with hydrogens summed into heavy atoms:
               1
     1  C    0.000000
 Electronic spatial extent (au):  <R**2>=             36.3952
 Charge=              0.0000 electrons
 Dipole moment (field-independent basis, Debye):
    X=              0.0272    Y=              0.0001    Z=              0.0036  Tot=              0.0275
 Quadrupole moment (field-independent basis, Debye-Ang):
   XX=             -8.5894   YY=             -8.4700   ZZ=             -8.4726
   XY=             -0.0004   XZ=             -0.0046   YZ=             -0.0000
 Traceless Quadrupole moment (field-independent basis, Debye-Ang):
   XX=             -0.0788   YY=              0.0407   ZZ=              0.0381
   XY=             -0.0004   XZ=             -0.0046   YZ=             -0.0000
 Octapole moment (field-independent basis, Debye-Ang**2):
  XXX=             -0.7557  YYY=              0.0026  ZZZ=              0.7288  XYY=              0.5503
  XXY=             -0.0026  XXZ=             -0.0553  XZZ=              0.4991  YZZ=              0.0006
  YYZ=             -0.6452  XYZ=              0.0009
 Hexadecapole moment (field-independent basis, Debye-Ang**3):
 XXXX=            -17.0538 YYYY=            -16.2651 ZZZZ=            -16.1690 XXXY=              0.0009
 XXXZ=              0.0348 YYYX=             -0.0019 YYYZ=             -0.0015 ZZZX=              0.2892
 ZZZY=              0.0004 XXYY=             -5.8895 XXZZ=             -5.9222 YYZZ=             -5.4328
 XXYZ=              0.0011 YYXZ=             -0.3470 ZZXY=             -0.0007
 N-N= 1.327513320576D+01 E-N=-1.194949542016D+02  KE= 4.003183542075D+01
 1\1\GINC-NODE60\SP\RM062X\6-31+G(d)\C1H4\YANZ\22-Sep-2023\0\\# 6-31+g(
 d) scrf=(solvent=water,pcm) int=ultrafine m062x scf=tight\\tmpdir/M2_c
 onf_30_2.gjf\\0,1\C,0,0.,0.,0.\H,0,1.0834,0.,0.\H,0,-0.38575,0.,-1.017
 11\H,0,-0.38575,0.84981,0.55886\H,0,-0.3601,-0.96738,0.52175\\Version=
 ES64L-G16RevA.03\State=1-A\HF=-40.4813188\RMSD=2.043e-10\Dipole=0.0043
 649,0.0087155,-0.0046794\Quadrupole=0.0197171,-0.0320071,0.01229,-0.02
 30223,0.0123735,0.0334458\PG=C01 [X(C1H4)]\\@


 ALL OUR THINKING ABOUT NATURE MUST NECESSARILY MOVE IN CIRCLES OR SPIRALS;
 FOR WE CAN ONLY UNDERSTAND NATURE IF WE THINK ABOUT HER, AND WE CAN ONLY
 THINK BECAUSE OUR BRAIN IS BUILT IN ACCORDANCE WITH NATURE'S LAWS.

                                             -- TIMOTHY FERRIS, "GALAXIES"
 Job cpu time:       0 days  0 hours  0 minutes 10.3 seconds.
 Elapsed time:       0 days  0 hours  0 minutes  5.2 seconds.
 File lengths (MBytes):  RWF=     11 Int=      0 D2E=      0 Chk=      1 Scr=      1
 Normal termination of Gaussian 16 at Fri Sep 22 17:11:24 2023.
