 Entering Gaussian System, Link 0=g16
 Initial command:
 /share/apps/gaussian/g16/l1.exe "/tmp/55661.mgr/Gau-127108.inp" -scrdir="/tmp/55661.mgr/"
 Entering Link 1 = /share/apps/gaussian/g16/l1.exe PID=    127128.
  
 Copyright (c) 1988,1990,1992,1993,1995,1998,2003,2009,2016,
            Gaussian, Inc.  All Rights Reserved.
  
 This is part of the Gaussian(R) 16 program.  It is based on
 the Gaussian(R) 09 system (copyright 2009, Gaussian, Inc.),
 the Gaussian(R) 03 system (copyright 2003, Gaussian, Inc.),
 the Gaussian(R) 98 system (copyright 1998, Gaussian, Inc.),
 the Gaussian(R) 94 system (copyright 1995, Gaussian, Inc.),
 the Gaussian 92(TM) system (copyright 1992, Gaussian, Inc.),
 the Gaussian 90(TM) system (copyright 1990, Gaussian, Inc.),
 the Gaussian 88(TM) system (copyright 1988, Gaussian, Inc.),
 the Gaussian 86(TM) system (copyright 1986, Carnegie Mellon
 University), and the Gaussian 82(TM) system (copyright 1983,
 Carnegie Mellon University). Gaussian is a federally registered
 trademark of Gaussian, Inc.
  
 This software contains proprietary and confidential information,
 including trade secrets, belonging to Gaussian, Inc.
  
 This software is provided under written license and may be
 used, copied, transmitted, or stored only in accord with that
 written license.
  
 The following legend is applicable only to US Government
 contracts under FAR:
  
                    RESTRICTED RIGHTS LEGEND
  
 Use, reproduction and disclosure by the US Government is
 subject to restrictions as set forth in subparagraphs (a)
 and (c) of the Commercial Computer Software - Restricted
 Rights clause in FAR 52.227-19.
  
 Gaussian, Inc.
 340 Quinnipiac St., Bldg. 40, Wallingford CT 06492
  
  
 ---------------------------------------------------------------
 Warning -- This program may not be used in any manner that
 competes with the business of Gaussian, Inc. or will provide
 assistance to any competitor of Gaussian, Inc.  The licensee
 of this program is prohibited from giving any competitor of
 Gaussian, Inc. access to this program.  By using this program,
 the user acknowledges that Gaussian, Inc. is engaged in the
 business of creating and licensing software in the field of
 computational chemistry and represents and warrants to the
 licensee that it is not a competitor of Gaussian, Inc. and that
 it will not use this program in any manner prohibited above.
 ---------------------------------------------------------------
  

 Cite this work as:
 Gaussian 16, Revision A.03,
 M. J. Frisch, G. W. Trucks, H. B. Schlegel, G. E. Scuseria, 
 M. A. Robb, J. R. Cheeseman, G. Scalmani, V. Barone, 
 G. A. Petersson, H. Nakatsuji, X. Li, M. Caricato, A. V. Marenich, 
 J. Bloino, B. G. Janesko, R. Gomperts, B. Mennucci, H. P. Hratchian, 
 J. V. Ortiz, A. F. Izmaylov, J. L. Sonnenberg, D. Williams-Young, 
 F. Ding, F. Lipparini, F. Egidi, J. Goings, B. Peng, A. Petrone, 
 T. Henderson, D. Ranasinghe, V. G. Zakrzewski, J. Gao, N. Rega, 
 G. Zheng, W. Liang, M. Hada, M. Ehara, K. Toyota, R. Fukuda, 
 J. Hasegawa, M. Ishida, T. Nakajima, Y. Honda, O. Kitao, H. Nakai, 
 T. Vreven, K. Throssell, J. A. Montgomery, Jr., J. E. Peralta, 
 F. Ogliaro, M. J. Bearpark, J. J. Heyd, E. N. Brothers, K. N. Kudin, 
 V. N. Staroverov, T. A. Keith, R. Kobayashi, J. Normand, 
 K. Raghavachari, A. P. Rendell, J. C. Burant, S. S. Iyengar, 
 J. Tomasi, M. Cossi, J. M. Millam, M. Klene, C. Adamo, R. Cammi, 
 J. W. Ochterski, R. L. Martin, K. Morokuma, O. Farkas, 
 J. B. Foresman, and D. J. Fox, Gaussian, Inc., Wallingford CT, 2016.
 
 ******************************************
 Gaussian 16:  ES64L-G16RevA.03 25-Dec-2016
                22-Sep-2023 
 ******************************************
 %nprocshared=2
 Will use up to    2 processors via shared memory.
 %mem=2GB
 ------------------------------------------------------------------
 # 6-31+g(d) scrf=(solvent=water,pcm) int=ultrafine m062x scf=tight
 ------------------------------------------------------------------
 1/38=1,172=1/1;
 2/12=2,17=6,18=5,40=1/2;
 3/5=1,6=6,7=11,11=2,25=1,30=1,70=2201,72=1,74=-55,75=-5/1,2,3;
 4//1;
 5/5=2,32=2,38=5,53=1/2;
 6/7=2,8=2,9=2,10=2,28=1/1;
 99/5=1,9=1/99;
 -------------------
 tmpdir/M2_ref_9.gjf
 -------------------
 Symbolic Z-matrix:
 Charge =  0 Multiplicity = 1
 H                    -0.89523  -0.51686  -1.47486 
 C                     0.        0.       -1.13618 
 Cl                    0.        0.        0.66128 
 H                     0.        1.03373  -1.47486 
 H                     0.89523  -0.51686  -1.47486 
 
                          Input orientation:                          
 ---------------------------------------------------------------------
 Center     Atomic      Atomic             Coordinates (Angstroms)
 Number     Number       Type             X           Y           Z
 ---------------------------------------------------------------------
      1          1           0       -0.895232   -0.516862   -1.474862
      2          6           0        0.000000    0.000000   -1.136183
      3         17           0        0.000000    0.000000    0.661275
      4          1           0        0.000000    1.033725   -1.474862
      5          1           0        0.895232   -0.516862   -1.474862
 ---------------------------------------------------------------------
                    Distance matrix (angstroms):
                    1          2          3          4          5
     1  H    0.000000
     2  C    1.087792   0.000000
     3  Cl   2.373114   1.797458   0.000000
     4  H    1.790465   1.087792   2.373114   0.000000
     5  H    1.790465   1.087792   2.373114   1.790465   0.000000
 Stoichiometry    CH3Cl
 Framework group  C3V[C3(CCl),3SGV(H)]
 Deg. of freedom     3
 Full point group                 C3V     NOp   6
 Largest Abelian subgroup         CS      NOp   2
 Largest concise Abelian subgroup CS      NOp   2
                         Standard orientation:                         
 ---------------------------------------------------------------------
 Center     Atomic      Atomic             Coordinates (Angstroms)
 Number     Number       Type             X           Y           Z
 ---------------------------------------------------------------------
      1          1           0        0.000000    1.033725   -1.474862
      2          6           0       -0.000000   -0.000000   -1.136183
      3         17           0       -0.000000   -0.000000    0.661275
      4          1           0        0.895232   -0.516863   -1.474862
      5          1           0       -0.895232   -0.516863   -1.474862
 ---------------------------------------------------------------------
 Rotational constants (GHZ):         156.4230070          13.1375792          13.1375792
 Standard basis: 6-31+G(d) (6D, 7F)
 There are    35 symmetry adapted cartesian basis functions of A'  symmetry.
 There are    13 symmetry adapted cartesian basis functions of A"  symmetry.
 There are    35 symmetry adapted basis functions of A'  symmetry.
 There are    13 symmetry adapted basis functions of A"  symmetry.
    48 basis functions,   100 primitive gaussians,    48 cartesian basis functions
    13 alpha electrons       13 beta electrons
       nuclear repulsion energy        51.0446391266 Hartrees.
 NAtoms=    5 NActive=    5 NUniq=    3 SFac= 2.78D+00 NAtFMM=   60 NAOKFM=F Big=F
 Integral buffers will be    131072 words long.
 Raffenetti 2 integral format.
 Two-electron integral symmetry is turned on.
 ------------------------------------------------------------------------------
 Polarizable Continuum Model (PCM)
 =================================
 Model                : PCM.
 Atomic radii         : UFF (Universal Force Field).
 Polarization charges : Total charges.
 Charge compensation  : None.
 Solution method      : On-the-fly selection.
 Cavity type          : Scaled VdW (van der Waals Surface) (Alpha=1.100).
 Cavity algorithm     : GePol (No added spheres)
                        Default sphere list used, NSphG=    5.
                        Lebedev-Laikov grids with approx.  5.0 points / Ang**2.
                        Smoothing algorithm: York/Karplus (Gamma=1.0000).
                        Polarization charges: spherical gaussians, with
                                              point-specific exponents (IZeta= 3).
                        Self-potential: point-specific (ISelfS= 7).
                        Self-field    : sphere-specific E.n sum rule (ISelfD= 2).
 Solvent              : Water, Eps=  78.355300 Eps(inf)=   1.777849
 ------------------------------------------------------------------------------
 Spheres list:
 ISph  on   Nord     Re0    Alpha      Xe            Ye            Ze
    1   H      1    1.4430  1.100      0.000000      1.033725     -1.474862
    2   C      2    1.9255  1.100     -0.000000     -0.000000     -1.136183
    3  Cl      3    1.9735  1.100     -0.000000     -0.000000      0.661275
    4   H      4    1.4430  1.100      0.895232     -0.516863     -1.474862
    5   H      5    1.4430  1.100     -0.895232     -0.516863     -1.474862
 ------------------------------------------------------------------------------
 One-electron integrals computed using PRISM.
 NBasis=    48 RedAO= T EigKep=  1.40D-03  NBF=    35    13
 NBsUse=    48 1.00D-06 EigRej= -1.00D+00 NBFU=    35    13
 ExpMin= 4.38D-02 ExpMax= 2.52D+04 ExpMxC= 3.78D+03 IAcc=3 IRadAn=         5 AccDes= 0.00D+00
 Harris functional with IExCor= 1009 and IRadAn=       5 diagonalized for initial guess.
 HarFok:  IExCor= 1009 AccDes= 0.00D+00 IRadAn=         5 IDoV= 1 UseB2=F ITyADJ=14
 ICtDFT=  3500011 ScaDFX=  1.000000  1.000000  1.000000  1.000000
 FoFCou: FMM=F IPFlag=           0 FMFlag=      100000 FMFlg1=           0
         NFxFlg=           0 DoJE=T BraDBF=F KetDBF=T FulRan=T
         wScrn=  0.000000 ICntrl=       500 IOpCl=  0 I1Cent=   200000004 NGrid=           0
         NMat0=    1 NMatS0=      1 NMatT0=    0 NMatD0=    1 NMtDS0=    0 NMtDT0=    0
 Petite list used in FoFCou.
 Initial guess orbital symmetries:
       Occupied  (A1) (A1) (A1) (A1) (E) (E) (A1) (A1) (E) (E)
                 (A1) (E) (E)
       Virtual   (A1) (A1) (E) (E) (A1) (A1) (E) (E) (E) (E) (A1)
                 (A1) (E) (E) (A1) (A1) (E) (E) (A1) (E) (E) (E)
                 (E) (A1) (E) (E) (A1) (A1) (E) (E) (A1) (E) (E)
                 (A1) (A1)
 The electronic state of the initial guess is 1-A1.
 Keep R1 ints in memory in symmetry-blocked form, NReq=2439743.
 Requested convergence on RMS density matrix=1.00D-08 within 128 cycles.
 Requested convergence on MAX density matrix=1.00D-06.
 Requested convergence on             energy=1.00D-06.
 No special actions if energy rises.
 Inv3:  Mode=1 IEnd=     1054947.
 Iteration    1 A*A^-1 deviation from unit magnitude is 2.66D-15 for    471.
 Iteration    1 A*A^-1 deviation from orthogonality  is 1.67D-15 for    591    491.
 Iteration    1 A^-1*A deviation from unit magnitude is 2.22D-15 for    576.
 Iteration    1 A^-1*A deviation from orthogonality  is 1.44D-15 for    593    545.
 Error on total polarization charges =  0.01061
 SCF Done:  E(RM062X) =  -500.050895767     A.U. after   10 cycles
            NFock= 10  Conv=0.23D-08     -V/T= 2.0032

 **********************************************************************

            Population analysis using the SCF density.

 **********************************************************************

 Orbital symmetries:
       Occupied  (A1) (A1) (A1) (A1) (E) (E) (A1) (A1) (E) (E)
                 (A1) (E) (E)
       Virtual   (A1) (A1) (E) (E) (A1) (E) (E) (A1) (A1) (E) (E)
                 (A1) (A1) (E) (E) (E) (E) (A1) (A1) (E) (E) (E)
                 (E) (A1) (E) (E) (A1) (A1) (E) (E) (A1) (E) (E)
                 (A1) (A1)
 The electronic state is 1-A1.
 Alpha  occ. eigenvalues -- -102.66257 -10.60049  -9.80988  -7.53380  -7.52730
 Alpha  occ. eigenvalues --   -7.52730  -0.95381  -0.76692  -0.51754  -0.51754
 Alpha  occ. eigenvalues --   -0.47409  -0.36759  -0.36758
 Alpha virt. eigenvalues --    0.02819   0.03489   0.06921   0.06922   0.09130
 Alpha virt. eigenvalues --    0.11099   0.11100   0.12223   0.17792   0.21939
 Alpha virt. eigenvalues --    0.21940   0.29745   0.60633   0.63751   0.63752
 Alpha virt. eigenvalues --    0.66833   0.66834   0.68240   0.72324   0.91384
 Alpha virt. eigenvalues --    0.91384   0.96590   0.96590   1.02455   1.03853
 Alpha virt. eigenvalues --    1.03853   1.16631   1.32757   1.74351   1.74351
 Alpha virt. eigenvalues --    2.20224   2.29532   2.29532   4.17899   4.43218
          Condensed to atoms (all electrons):
               1          2          3          4          5
     1  H    0.455282   0.376116  -0.046077  -0.023757  -0.023757
     2  C    0.376116   5.457048   0.116590   0.376116   0.376116
     3  Cl  -0.046077   0.116590  17.106235  -0.046077  -0.046077
     4  H   -0.023757   0.376116  -0.046077   0.455282  -0.023757
     5  H   -0.023757   0.376116  -0.046077  -0.023757   0.455282
 Mulliken charges:
               1
     1  H    0.262193
     2  C   -0.701985
     3  Cl  -0.084595
     4  H    0.262193
     5  H    0.262193
 Sum of Mulliken charges =   0.00000
 Mulliken charges with hydrogens summed into heavy atoms:
               1
     2  C    0.084595
     3  Cl  -0.084595
 Electronic spatial extent (au):  <R**2>=            132.2500
 Charge=              0.0000 electrons
 Dipole moment (field-independent basis, Debye):
    X=             -0.0000    Y=             -0.0000    Z=             -2.6311  Tot=              2.6311
 Quadrupole moment (field-independent basis, Debye-Ang):
   XX=            -20.0474   YY=            -20.0474   ZZ=            -18.1347
   XY=             -0.0000   XZ=              0.0000   YZ=              0.0000
 Traceless Quadrupole moment (field-independent basis, Debye-Ang):
   XX=             -0.6376   YY=             -0.6376   ZZ=              1.2752
   XY=             -0.0000   XZ=              0.0000   YZ=              0.0000
 Octapole moment (field-independent basis, Debye-Ang**2):
  XXX=             -0.0000  YYY=              0.9238  ZZZ=             -0.0595  XYY=              0.0000
  XXY=             -0.9238  XXZ=             -1.5285  XZZ=             -0.0000  YZZ=             -0.0000
  YYZ=             -1.5285  XYZ=              0.0000
 Hexadecapole moment (field-independent basis, Debye-Ang**3):
 XXXX=            -29.2115 YYYY=            -29.2115 ZZZZ=           -117.2723 XXXY=              0.0000
 XXXZ=              0.0000 YYYX=             -0.0000 YYYZ=             -1.3421 ZZZX=              0.0000
 ZZZY=              0.0000 XXYY=             -9.7372 XXZZ=            -24.4511 YYZZ=            -24.4511
 XXYZ=              1.3421 YYXZ=             -0.0000 ZZXY=             -0.0000
 N-N= 5.104463912656D+01 E-N=-1.288144119220D+03  KE= 4.984746585497D+02
 Symmetry A'   KE= 4.506660533140D+02
 Symmetry A"   KE= 4.780860523574D+01
 1\1\GINC-NODE60\SP\RM062X\6-31+G(d)\C1H3Cl1\YANZ\22-Sep-2023\0\\# 6-31
 +g(d) scrf=(solvent=water,pcm) int=ultrafine m062x scf=tight\\tmpdir/M
 2_ref_9.gjf\\0,1\H,0,-0.89523242,-0.51686224,-1.47486169\C,0,0.,0.,-1.
 13618253\Cl,0,0.,0.,0.66127531\H,0,0.,1.03372549,-1.47486169\H,0,0.895
 23242,-0.51686224,-1.47486169\\Version=ES64L-G16RevA.03\State=1-A1\HF=
 -500.0508958\RMSD=2.297e-09\Dipole=0.,0.,-1.0351397\Quadrupole=-0.4740
 3,-0.47403,0.94806,0.,0.,0.\PG=C03V [C3(C1Cl1),3SGV(H1)]\\@


 THE WORLD IS MADE UP OF THE WILLS, THE WON'TS, AND THE CANT'S:
 THE WILLS DO EVERYTHING,
 THE WON'TS DO NOTHING,
 THE CAN'TS CAN'T DO ANYTHING.

                               -- FROM WALT DISNEY'S "BLACK HOLE"
 Job cpu time:       0 days  0 hours  0 minutes 11.1 seconds.
 Elapsed time:       0 days  0 hours  0 minutes  5.7 seconds.
 File lengths (MBytes):  RWF=     13 Int=      0 D2E=      0 Chk=      1 Scr=      1
 Normal termination of Gaussian 16 at Fri Sep 22 17:07:56 2023.
