 Entering Gaussian System, Link 0=g16
 Initial command:
 /share/apps/gaussian/g16/l1.exe "/tmp/55668.mgr/Gau-144161.inp" -scrdir="/tmp/55668.mgr/"
 Entering Link 1 = /share/apps/gaussian/g16/l1.exe PID=    144164.
  
 Copyright (c) 1988,1990,1992,1993,1995,1998,2003,2009,2016,
            Gaussian, Inc.  All Rights Reserved.
  
 This is part of the Gaussian(R) 16 program.  It is based on
 the Gaussian(R) 09 system (copyright 2009, Gaussian, Inc.),
 the Gaussian(R) 03 system (copyright 2003, Gaussian, Inc.),
 the Gaussian(R) 98 system (copyright 1998, Gaussian, Inc.),
 the Gaussian(R) 94 system (copyright 1995, Gaussian, Inc.),
 the Gaussian 92(TM) system (copyright 1992, Gaussian, Inc.),
 the Gaussian 90(TM) system (copyright 1990, Gaussian, Inc.),
 the Gaussian 88(TM) system (copyright 1988, Gaussian, Inc.),
 the Gaussian 86(TM) system (copyright 1986, Carnegie Mellon
 University), and the Gaussian 82(TM) system (copyright 1983,
 Carnegie Mellon University). Gaussian is a federally registered
 trademark of Gaussian, Inc.
  
 This software contains proprietary and confidential information,
 including trade secrets, belonging to Gaussian, Inc.
  
 This software is provided under written license and may be
 used, copied, transmitted, or stored only in accord with that
 written license.
  
 The following legend is applicable only to US Government
 contracts under FAR:
  
                    RESTRICTED RIGHTS LEGEND
  
 Use, reproduction and disclosure by the US Government is
 subject to restrictions as set forth in subparagraphs (a)
 and (c) of the Commercial Computer Software - Restricted
 Rights clause in FAR 52.227-19.
  
 Gaussian, Inc.
 340 Quinnipiac St., Bldg. 40, Wallingford CT 06492
  
  
 ---------------------------------------------------------------
 Warning -- This program may not be used in any manner that
 competes with the business of Gaussian, Inc. or will provide
 assistance to any competitor of Gaussian, Inc.  The licensee
 of this program is prohibited from giving any competitor of
 Gaussian, Inc. access to this program.  By using this program,
 the user acknowledges that Gaussian, Inc. is engaged in the
 business of creating and licensing software in the field of
 computational chemistry and represents and warrants to the
 licensee that it is not a competitor of Gaussian, Inc. and that
 it will not use this program in any manner prohibited above.
 ---------------------------------------------------------------
  

 Cite this work as:
 Gaussian 16, Revision A.03,
 M. J. Frisch, G. W. Trucks, H. B. Schlegel, G. E. Scuseria, 
 M. A. Robb, J. R. Cheeseman, G. Scalmani, V. Barone, 
 G. A. Petersson, H. Nakatsuji, X. Li, M. Caricato, A. V. Marenich, 
 J. Bloino, B. G. Janesko, R. Gomperts, B. Mennucci, H. P. Hratchian, 
 J. V. Ortiz, A. F. Izmaylov, J. L. Sonnenberg, D. Williams-Young, 
 F. Ding, F. Lipparini, F. Egidi, J. Goings, B. Peng, A. Petrone, 
 T. Henderson, D. Ranasinghe, V. G. Zakrzewski, J. Gao, N. Rega, 
 G. Zheng, W. Liang, M. Hada, M. Ehara, K. Toyota, R. Fukuda, 
 J. Hasegawa, M. Ishida, T. Nakajima, Y. Honda, O. Kitao, H. Nakai, 
 T. Vreven, K. Throssell, J. A. Montgomery, Jr., J. E. Peralta, 
 F. Ogliaro, M. J. Bearpark, J. J. Heyd, E. N. Brothers, K. N. Kudin, 
 V. N. Staroverov, T. A. Keith, R. Kobayashi, J. Normand, 
 K. Raghavachari, A. P. Rendell, J. C. Burant, S. S. Iyengar, 
 J. Tomasi, M. Cossi, J. M. Millam, M. Klene, C. Adamo, R. Cammi, 
 J. W. Ochterski, R. L. Martin, K. Morokuma, O. Farkas, 
 J. B. Foresman, and D. J. Fox, Gaussian, Inc., Wallingford CT, 2016.
 
 ******************************************
 Gaussian 16:  ES64L-G16RevA.03 25-Dec-2016
                22-Sep-2023 
 ******************************************
 %nprocshared=2
 Will use up to    2 processors via shared memory.
 %mem=2GB
 ----------
 # hf/3-21g
 ----------
 1/38=1,172=1/1;
 2/12=2,17=6,18=5,40=1/2;
 3/5=5,11=9,25=1,30=1/1,2,3;
 4//1;
 5/5=2,38=5/2;
 6/7=2,8=2,9=2,10=2,28=1/1;
 99/5=1,9=1/99;
 ------------------------
 tmpdir/M1_conf_176_0.gjf
 ------------------------
 Symbolic Z-matrix:
 Charge =  0 Multiplicity = 1
 C                     0.02279   0.04262  -0.2223 
 H                     0.12406   1.16428  -0.15623 
 H                     0.96006  -0.42891  -0.09101 
 H                    -0.80181  -0.71473   0.17986 
 H                     0.00207   0.00957   1.4458 
 
                          Input orientation:                          
 ---------------------------------------------------------------------
 Center     Atomic      Atomic             Coordinates (Angstroms)
 Number     Number       Type             X           Y           Z
 ---------------------------------------------------------------------
      1          6           0        0.022792    0.042620   -0.222299
      2          1           0        0.124058    1.164279   -0.156235
      3          1           0        0.960063   -0.428910   -0.091007
      4          1           0       -0.801808   -0.714730    0.179858
      5          1           0        0.002068    0.009572    1.445797
 ---------------------------------------------------------------------
                    Distance matrix (angstroms):
                    1          2          3          4          5
     1  C    0.000000
     2  H    1.128157   0.000000
     3  H    1.057380   1.800391   0.000000
     4  H    1.189653   2.121523   1.805338   0.000000
     5  H    1.668552   1.978569   1.863273   1.665362   0.000000
 Stoichiometry    CH4
 Framework group  C1[X(CH4)]
 Deg. of freedom     9
 Full point group                 C1      NOp   1
 Largest Abelian subgroup         C1      NOp   1
 Largest concise Abelian subgroup C1      NOp   1
                         Standard orientation:                         
 ---------------------------------------------------------------------
 Center     Atomic      Atomic             Coordinates (Angstroms)
 Number     Number       Type             X           Y           Z
 ---------------------------------------------------------------------
      1          6           0        0.184095   -0.123070   -0.054343
      2          1           0        0.720893    0.822504   -0.355137
      3          1           0        0.139060   -0.212442    0.998291
      4          1           0       -0.777904   -0.673182   -0.487018
      5          1           0       -1.186621    0.801541    0.169923
 ---------------------------------------------------------------------
 Rotational constants (GHZ):         148.6603627         116.4633396         103.4413696
 Standard basis: 3-21G (6D, 7F)
 There are    17 symmetry adapted cartesian basis functions of A   symmetry.
 There are    17 symmetry adapted basis functions of A   symmetry.
    17 basis functions,    27 primitive gaussians,    17 cartesian basis functions
     5 alpha electrons        5 beta electrons
       nuclear repulsion energy        12.0946166443 Hartrees.
 NAtoms=    5 NActive=    5 NUniq=    5 SFac= 1.00D+00 NAtFMM=   60 NAOKFM=F Big=F
 Integral buffers will be    131072 words long.
 Raffenetti 1 integral format.
 Two-electron integral symmetry is turned on.
 One-electron integrals computed using PRISM.
 NBasis=    17 RedAO= T EigKep=  4.43D-02  NBF=    17
 NBsUse=    17 1.00D-06 EigRej= -1.00D+00 NBFU=    17
 ExpMin= 1.83D-01 ExpMax= 1.72D+02 ExpMxC= 1.72D+02 IAcc=3 IRadAn=         5 AccDes= 0.00D+00
 Harris functional with IExCor=  205 and IRadAn=       5 diagonalized for initial guess.
 HarFok:  IExCor=  205 AccDes= 0.00D+00 IRadAn=         5 IDoV= 1 UseB2=F ITyADJ=14
 ICtDFT=  3500011 ScaDFX=  1.000000  1.000000  1.000000  1.000000
 FoFCou: FMM=F IPFlag=           0 FMFlag=      100000 FMFlg1=           0
         NFxFlg=           0 DoJE=T BraDBF=F KetDBF=T FulRan=T
         wScrn=  0.000000 ICntrl=       500 IOpCl=  0 I1Cent=   200000004 NGrid=           0
         NMat0=    1 NMatS0=      1 NMatT0=    0 NMatD0=    1 NMtDS0=    0 NMtDT0=    0
 Petite list used in FoFCou.
 Keep R1 ints in memory in canonical form, NReq=816379.
 Requested convergence on RMS density matrix=1.00D-08 within 128 cycles.
 Requested convergence on MAX density matrix=1.00D-06.
 Requested convergence on             energy=1.00D-06.
 No special actions if energy rises.
 SCF Done:  E(RHF) =  -39.8211032027     A.U. after   10 cycles
            NFock= 10  Conv=0.70D-08     -V/T= 2.0112

 **********************************************************************

            Population analysis using the SCF density.

 **********************************************************************

 Orbital symmetries:
       Occupied  (A) (A) (A) (A) (A)
       Virtual   (A) (A) (A) (A) (A) (A) (A) (A) (A) (A) (A) (A)
 The electronic state is 1-A.
 Alpha  occ. eigenvalues --  -11.21858  -0.92721  -0.58626  -0.55291  -0.37134
 Alpha virt. eigenvalues --    0.13315   0.24776   0.33405   0.34583   0.89886
 Alpha virt. eigenvalues --    1.01886   1.03078   1.19209   1.25300   1.28206
 Alpha virt. eigenvalues --    1.35318   1.85852
          Condensed to atoms (all electrons):
               1          2          3          4          5
     1  C    5.394188   0.362826   0.353245   0.355791   0.215716
     2  H    0.362826   0.439378  -0.032947  -0.010848  -0.009709
     3  H    0.353245  -0.032947   0.485981  -0.036258  -0.016107
     4  H    0.355791  -0.010848  -0.036258   0.455240  -0.017302
     5  H    0.215716  -0.009709  -0.016107  -0.017302   0.896400
 Mulliken charges:
               1
     1  C   -0.681766
     2  H    0.251300
     3  H    0.246086
     4  H    0.253379
     5  H   -0.068998
 Sum of Mulliken charges =  -0.00000
 Mulliken charges with hydrogens summed into heavy atoms:
               1
     1  C   -0.000000
 Electronic spatial extent (au):  <R**2>=             42.2893
 Charge=             -0.0000 electrons
 Dipole moment (field-independent basis, Debye):
    X=             -0.0145    Y=              0.0527    Z=              0.1746  Tot=              0.1830
 Quadrupole moment (field-independent basis, Debye-Ang):
   XX=             -9.1541   YY=             -9.4416   ZZ=             -9.1283
   XY=              1.6853   XZ=              0.4119   YZ=             -0.3432
 Traceless Quadrupole moment (field-independent basis, Debye-Ang):
   XX=              0.0872   YY=             -0.2003   ZZ=              0.1131
   XY=              1.6853   XZ=              0.4119   YZ=             -0.3432
 Octapole moment (field-independent basis, Debye-Ang**2):
  XXX=              0.9030  YYY=             -0.1242  ZZZ=              1.1828  XYY=              0.7622
  XXY=             -0.5222  XXZ=             -0.4763  XZZ=              0.2816  YZZ=             -0.3399
  YYZ=             -0.3272  XYZ=             -0.4869
 Hexadecapole moment (field-independent basis, Debye-Ang**3):
 XXXX=            -25.7996 YYYY=            -20.3181 ZZZZ=            -14.8649 XXXY=              3.1719
 XXXZ=              0.8189 YYYX=              3.3193 YYYZ=             -0.7436 ZZZX=              0.7160
 ZZZY=             -0.7273 XXYY=             -7.0345 XXZZ=             -6.9340 YYZZ=             -6.0073
 XXYZ=             -0.0279 YYXZ=              0.1563 ZZXY=              1.0378
 N-N= 1.209461664435D+01 E-N=-1.158973568640D+02  KE= 3.937851796619D+01
 1\1\GINC-NODE61\SP\RHF\3-21G\C1H4\YANZ\22-Sep-2023\0\\# hf/3-21g\\tmpd
 ir/M1_conf_176_0.gjf\\0,1\C,0,0.0227921,0.0426199,-0.2222988\H,0,0.124
 0576,1.1642789,-0.1562348\H,0,0.9600625,-0.4289096,-0.0910069\H,0,-0.8
 018075,-0.7147304,0.1798576\H,0,0.00206754,0.00957165,1.44579701\\Vers
 ion=ES64L-G16RevA.03\State=1-A\HF=-39.8211032\RMSD=6.980e-09\Dipole=0.
 0661755,-0.0111944,0.0260095\Quadrupole=0.3198674,0.9537795,-1.273647,
 0.3468092,-0.3800418,-0.404748\PG=C01 [X(C1H4)]\\@


 You can't act like a skunk without someone's getting wind of it.
 -- Lorene Workman
 Job cpu time:       0 days  0 hours  0 minutes  1.6 seconds.
 Elapsed time:       0 days  0 hours  0 minutes  0.9 seconds.
 File lengths (MBytes):  RWF=      6 Int=      0 D2E=      0 Chk=      1 Scr=      1
 Normal termination of Gaussian 16 at Fri Sep 22 17:14:49 2023.
