 Entering Gaussian System, Link 0=g16
 Initial command:
 /share/apps/gaussian/g16/l1.exe "/tmp/55668.mgr/Gau-149251.inp" -scrdir="/tmp/55668.mgr/"
 Entering Link 1 = /share/apps/gaussian/g16/l1.exe PID=    149254.
  
 Copyright (c) 1988,1990,1992,1993,1995,1998,2003,2009,2016,
            Gaussian, Inc.  All Rights Reserved.
  
 This is part of the Gaussian(R) 16 program.  It is based on
 the Gaussian(R) 09 system (copyright 2009, Gaussian, Inc.),
 the Gaussian(R) 03 system (copyright 2003, Gaussian, Inc.),
 the Gaussian(R) 98 system (copyright 1998, Gaussian, Inc.),
 the Gaussian(R) 94 system (copyright 1995, Gaussian, Inc.),
 the Gaussian 92(TM) system (copyright 1992, Gaussian, Inc.),
 the Gaussian 90(TM) system (copyright 1990, Gaussian, Inc.),
 the Gaussian 88(TM) system (copyright 1988, Gaussian, Inc.),
 the Gaussian 86(TM) system (copyright 1986, Carnegie Mellon
 University), and the Gaussian 82(TM) system (copyright 1983,
 Carnegie Mellon University). Gaussian is a federally registered
 trademark of Gaussian, Inc.
  
 This software contains proprietary and confidential information,
 including trade secrets, belonging to Gaussian, Inc.
  
 This software is provided under written license and may be
 used, copied, transmitted, or stored only in accord with that
 written license.
  
 The following legend is applicable only to US Government
 contracts under FAR:
  
                    RESTRICTED RIGHTS LEGEND
  
 Use, reproduction and disclosure by the US Government is
 subject to restrictions as set forth in subparagraphs (a)
 and (c) of the Commercial Computer Software - Restricted
 Rights clause in FAR 52.227-19.
  
 Gaussian, Inc.
 340 Quinnipiac St., Bldg. 40, Wallingford CT 06492
  
  
 ---------------------------------------------------------------
 Warning -- This program may not be used in any manner that
 competes with the business of Gaussian, Inc. or will provide
 assistance to any competitor of Gaussian, Inc.  The licensee
 of this program is prohibited from giving any competitor of
 Gaussian, Inc. access to this program.  By using this program,
 the user acknowledges that Gaussian, Inc. is engaged in the
 business of creating and licensing software in the field of
 computational chemistry and represents and warrants to the
 licensee that it is not a competitor of Gaussian, Inc. and that
 it will not use this program in any manner prohibited above.
 ---------------------------------------------------------------
  

 Cite this work as:
 Gaussian 16, Revision A.03,
 M. J. Frisch, G. W. Trucks, H. B. Schlegel, G. E. Scuseria, 
 M. A. Robb, J. R. Cheeseman, G. Scalmani, V. Barone, 
 G. A. Petersson, H. Nakatsuji, X. Li, M. Caricato, A. V. Marenich, 
 J. Bloino, B. G. Janesko, R. Gomperts, B. Mennucci, H. P. Hratchian, 
 J. V. Ortiz, A. F. Izmaylov, J. L. Sonnenberg, D. Williams-Young, 
 F. Ding, F. Lipparini, F. Egidi, J. Goings, B. Peng, A. Petrone, 
 T. Henderson, D. Ranasinghe, V. G. Zakrzewski, J. Gao, N. Rega, 
 G. Zheng, W. Liang, M. Hada, M. Ehara, K. Toyota, R. Fukuda, 
 J. Hasegawa, M. Ishida, T. Nakajima, Y. Honda, O. Kitao, H. Nakai, 
 T. Vreven, K. Throssell, J. A. Montgomery, Jr., J. E. Peralta, 
 F. Ogliaro, M. J. Bearpark, J. J. Heyd, E. N. Brothers, K. N. Kudin, 
 V. N. Staroverov, T. A. Keith, R. Kobayashi, J. Normand, 
 K. Raghavachari, A. P. Rendell, J. C. Burant, S. S. Iyengar, 
 J. Tomasi, M. Cossi, J. M. Millam, M. Klene, C. Adamo, R. Cammi, 
 J. W. Ochterski, R. L. Martin, K. Morokuma, O. Farkas, 
 J. B. Foresman, and D. J. Fox, Gaussian, Inc., Wallingford CT, 2016.
 
 ******************************************
 Gaussian 16:  ES64L-G16RevA.03 25-Dec-2016
                22-Sep-2023 
 ******************************************
 %nprocshared=2
 Will use up to    2 processors via shared memory.
 %mem=2GB
 ----------
 # hf/3-21g
 ----------
 1/38=1,172=1/1;
 2/12=2,17=6,18=5,40=1/2;
 3/5=5,11=9,25=1,30=1/1,2,3;
 4//1;
 5/5=2,38=5/2;
 6/7=2,8=2,9=2,10=2,28=1/1;
 99/5=1,9=1/99;
 ------------------------
 tmpdir/M1_conf_270_0.gjf
 ------------------------
 Symbolic Z-matrix:
 Charge =  0 Multiplicity = 1
 C                    -0.48056   0.10611  -0.83113 
 H                    -0.84291   1.26895  -0.74209 
 H                     0.4568    0.00667  -0.26937 
 H                    -1.392    -0.47422  -0.53818 
 H                    -0.09711   0.01114   1.62558 
 
                          Input orientation:                          
 ---------------------------------------------------------------------
 Center     Atomic      Atomic             Coordinates (Angstroms)
 Number     Number       Type             X           Y           Z
 ---------------------------------------------------------------------
      1          6           0       -0.480560    0.106115   -0.831129
      2          1           0       -0.842908    1.268951   -0.742086
      3          1           0        0.456804    0.006670   -0.269374
      4          1           0       -1.392005   -0.474217   -0.538179
      5          1           0       -0.097106    0.011139    1.625582
 ---------------------------------------------------------------------
                    Distance matrix (angstroms):
                    1          2          3          4          5
     1  C    0.000000
     2  H    1.221235   0.000000
     3  H    1.097319   1.872448   0.000000
     4  H    1.119525   1.838946   1.929145   0.000000
     5  H    2.488270   2.782834   1.974258   2.567916   0.000000
 Stoichiometry    CH4
 Framework group  C1[X(CH4)]
 Deg. of freedom     9
 Full point group                 C1      NOp   1
 Largest Abelian subgroup         C1      NOp   1
 Largest concise Abelian subgroup C1      NOp   1
                         Standard orientation:                         
 ---------------------------------------------------------------------
 Center     Atomic      Atomic             Coordinates (Angstroms)
 Number     Number       Type             X           Y           Z
 ---------------------------------------------------------------------
      1          6           0        0.319337   -0.010824   -0.122744
      2          1           0        0.477714   -0.589770    0.940813
      3          1           0       -0.501392   -0.509899   -0.653249
      4          1           0        0.242345    1.065575    0.175205
      5          1           0       -2.134691    0.099038    0.273695
 ---------------------------------------------------------------------
 Rotational constants (GHZ):         151.3454266          65.5537701          63.9220967
 Standard basis: 3-21G (6D, 7F)
 There are    17 symmetry adapted cartesian basis functions of A   symmetry.
 There are    17 symmetry adapted basis functions of A   symmetry.
    17 basis functions,    27 primitive gaussians,    17 cartesian basis functions
     5 alpha electrons        5 beta electrons
       nuclear repulsion energy        11.1143952760 Hartrees.
 NAtoms=    5 NActive=    5 NUniq=    5 SFac= 1.00D+00 NAtFMM=   60 NAOKFM=F Big=F
 Integral buffers will be    131072 words long.
 Raffenetti 1 integral format.
 Two-electron integral symmetry is turned on.
 One-electron integrals computed using PRISM.
 NBasis=    17 RedAO= T EigKep=  4.90D-02  NBF=    17
 NBsUse=    17 1.00D-06 EigRej= -1.00D+00 NBFU=    17
 ExpMin= 1.83D-01 ExpMax= 1.72D+02 ExpMxC= 1.72D+02 IAcc=3 IRadAn=         5 AccDes= 0.00D+00
 Harris functional with IExCor=  205 and IRadAn=       5 diagonalized for initial guess.
 HarFok:  IExCor=  205 AccDes= 0.00D+00 IRadAn=         5 IDoV= 1 UseB2=F ITyADJ=14
 ICtDFT=  3500011 ScaDFX=  1.000000  1.000000  1.000000  1.000000
 FoFCou: FMM=F IPFlag=           0 FMFlag=      100000 FMFlg1=           0
         NFxFlg=           0 DoJE=T BraDBF=F KetDBF=T FulRan=T
         wScrn=  0.000000 ICntrl=       500 IOpCl=  0 I1Cent=   200000004 NGrid=           0
         NMat0=    1 NMatS0=      1 NMatT0=    0 NMatD0=    1 NMtDS0=    0 NMtDT0=    0
 Petite list used in FoFCou.
 Keep R1 ints in memory in canonical form, NReq=816322.
 Requested convergence on RMS density matrix=1.00D-08 within 128 cycles.
 Requested convergence on MAX density matrix=1.00D-06.
 Requested convergence on             energy=1.00D-06.
 No special actions if energy rises.
 SCF Done:  E(RHF) =  -39.7026113311     A.U. after   13 cycles
            NFock= 13  Conv=0.83D-08     -V/T= 2.0107

 **********************************************************************

            Population analysis using the SCF density.

 **********************************************************************

 Orbital symmetries:
       Occupied  (A) (A) (A) (A) (A)
       Virtual   (A) (A) (A) (A) (A) (A) (A) (A) (A) (A) (A) (A)
 The electronic state is 1-A.
 Alpha  occ. eigenvalues --  -11.26439  -0.93166  -0.61045  -0.54720  -0.30099
 Alpha virt. eigenvalues --   -0.00764   0.25585   0.28964   0.33909   0.92830
 Alpha virt. eigenvalues --    0.93758   0.98936   1.14457   1.22078   1.29603
 Alpha virt. eigenvalues --    1.31041   1.71849
          Condensed to atoms (all electrons):
               1          2          3          4          5
     1  C    5.503841   0.329286   0.308369   0.334903   0.065380
     2  H    0.329286   0.521205  -0.024000  -0.032227   0.004602
     3  H    0.308369  -0.024000   0.413947  -0.015277   0.040777
     4  H    0.334903  -0.032227  -0.015277   0.451960   0.007174
     5  H    0.065380   0.004602   0.040777   0.007174   1.071074
 Mulliken charges:
               1
     1  C   -0.541779
     2  H    0.201134
     3  H    0.276185
     4  H    0.253467
     5  H   -0.189007
 Sum of Mulliken charges =   0.00000
 Mulliken charges with hydrogens summed into heavy atoms:
               1
     1  C    0.000000
 Electronic spatial extent (au):  <R**2>=             55.0832
 Charge=              0.0000 electrons
 Dipole moment (field-independent basis, Debye):
    X=              1.4361    Y=              0.0523    Z=              0.2325  Tot=              1.4558
 Quadrupole moment (field-independent basis, Debye-Ang):
   XX=            -12.9292   YY=             -8.7203   ZZ=             -9.3606
   XY=              0.5471   XZ=              1.1732   YZ=              0.1630
 Traceless Quadrupole moment (field-independent basis, Debye-Ang):
   XX=             -2.5925   YY=              1.6164   ZZ=              0.9761
   XY=              0.5471   XZ=              1.1732   YZ=              0.1630
 Octapole moment (field-independent basis, Debye-Ang**2):
  XXX=              9.5960  YYY=              1.0360  ZZZ=              0.3494  XYY=              1.4412
  XXY=             -0.3463  XXZ=             -0.8696  XZZ=              1.4108  YZZ=             -0.6796
  YYZ=              0.2876  XYZ=             -0.3396
 Hexadecapole moment (field-independent basis, Debye-Ang**3):
 XXXX=            -69.8105 YYYY=            -15.5631 ZZZZ=            -16.5369 XXXY=              1.2654
 XXXZ=              3.0778 YYYX=              1.1557 YYYZ=              0.5020 ZZZX=              2.5362
 ZZZY=             -0.2518 XXYY=            -12.8087 XXZZ=            -12.8094 YYZZ=             -5.2827
 XXYZ=              0.0646 YYXZ=              0.9899 ZZXY=              0.2182
 N-N= 1.111439527597D+01 E-N=-1.136083599975D+02  KE= 3.928370476718D+01
 1\1\GINC-NODE61\SP\RHF\3-21G\C1H4\YANZ\22-Sep-2023\0\\# hf/3-21g\\tmpd
 ir/M1_conf_270_0.gjf\\0,1\C,0,-0.4805599,0.1061146,-0.8311293\H,0,-0.8
 429083,1.2689514,-0.7420859\H,0,0.4568035,0.0066696,-0.2693743\H,0,-1.
 3920048,-0.4742171,-0.5381789\H,0,-0.09710649,0.01113892,1.62558225\\V
 ersion=ES64L-G16RevA.03\State=1-A\HF=-39.7026113\RMSD=8.267e-09\Dipole
 =-0.241772,0.113822,-0.5065861\Quadrupole=1.3352411,0.8879035,-2.22314
 47,0.1370669,-0.089681,-0.0155818\PG=C01 [X(C1H4)]\\@


 ROSE IS A RED
 TY COBB IS BLUE
 'CAUSE PETE JUST HIT
 NO. 4592.
 Job cpu time:       0 days  0 hours  0 minutes  1.6 seconds.
 Elapsed time:       0 days  0 hours  0 minutes  0.9 seconds.
 File lengths (MBytes):  RWF=      6 Int=      0 D2E=      0 Chk=      1 Scr=      1
 Normal termination of Gaussian 16 at Fri Sep 22 17:16:40 2023.
