 Entering Gaussian System, Link 0=g16
 Initial command:
 /share/apps/gaussian/g16/l1.exe "/tmp/55668.mgr/Gau-144864.inp" -scrdir="/tmp/55668.mgr/"
 Entering Link 1 = /share/apps/gaussian/g16/l1.exe PID=    144866.
  
 Copyright (c) 1988,1990,1992,1993,1995,1998,2003,2009,2016,
            Gaussian, Inc.  All Rights Reserved.
  
 This is part of the Gaussian(R) 16 program.  It is based on
 the Gaussian(R) 09 system (copyright 2009, Gaussian, Inc.),
 the Gaussian(R) 03 system (copyright 2003, Gaussian, Inc.),
 the Gaussian(R) 98 system (copyright 1998, Gaussian, Inc.),
 the Gaussian(R) 94 system (copyright 1995, Gaussian, Inc.),
 the Gaussian 92(TM) system (copyright 1992, Gaussian, Inc.),
 the Gaussian 90(TM) system (copyright 1990, Gaussian, Inc.),
 the Gaussian 88(TM) system (copyright 1988, Gaussian, Inc.),
 the Gaussian 86(TM) system (copyright 1986, Carnegie Mellon
 University), and the Gaussian 82(TM) system (copyright 1983,
 Carnegie Mellon University). Gaussian is a federally registered
 trademark of Gaussian, Inc.
  
 This software contains proprietary and confidential information,
 including trade secrets, belonging to Gaussian, Inc.
  
 This software is provided under written license and may be
 used, copied, transmitted, or stored only in accord with that
 written license.
  
 The following legend is applicable only to US Government
 contracts under FAR:
  
                    RESTRICTED RIGHTS LEGEND
  
 Use, reproduction and disclosure by the US Government is
 subject to restrictions as set forth in subparagraphs (a)
 and (c) of the Commercial Computer Software - Restricted
 Rights clause in FAR 52.227-19.
  
 Gaussian, Inc.
 340 Quinnipiac St., Bldg. 40, Wallingford CT 06492
  
  
 ---------------------------------------------------------------
 Warning -- This program may not be used in any manner that
 competes with the business of Gaussian, Inc. or will provide
 assistance to any competitor of Gaussian, Inc.  The licensee
 of this program is prohibited from giving any competitor of
 Gaussian, Inc. access to this program.  By using this program,
 the user acknowledges that Gaussian, Inc. is engaged in the
 business of creating and licensing software in the field of
 computational chemistry and represents and warrants to the
 licensee that it is not a competitor of Gaussian, Inc. and that
 it will not use this program in any manner prohibited above.
 ---------------------------------------------------------------
  

 Cite this work as:
 Gaussian 16, Revision A.03,
 M. J. Frisch, G. W. Trucks, H. B. Schlegel, G. E. Scuseria, 
 M. A. Robb, J. R. Cheeseman, G. Scalmani, V. Barone, 
 G. A. Petersson, H. Nakatsuji, X. Li, M. Caricato, A. V. Marenich, 
 J. Bloino, B. G. Janesko, R. Gomperts, B. Mennucci, H. P. Hratchian, 
 J. V. Ortiz, A. F. Izmaylov, J. L. Sonnenberg, D. Williams-Young, 
 F. Ding, F. Lipparini, F. Egidi, J. Goings, B. Peng, A. Petrone, 
 T. Henderson, D. Ranasinghe, V. G. Zakrzewski, J. Gao, N. Rega, 
 G. Zheng, W. Liang, M. Hada, M. Ehara, K. Toyota, R. Fukuda, 
 J. Hasegawa, M. Ishida, T. Nakajima, Y. Honda, O. Kitao, H. Nakai, 
 T. Vreven, K. Throssell, J. A. Montgomery, Jr., J. E. Peralta, 
 F. Ogliaro, M. J. Bearpark, J. J. Heyd, E. N. Brothers, K. N. Kudin, 
 V. N. Staroverov, T. A. Keith, R. Kobayashi, J. Normand, 
 K. Raghavachari, A. P. Rendell, J. C. Burant, S. S. Iyengar, 
 J. Tomasi, M. Cossi, J. M. Millam, M. Klene, C. Adamo, R. Cammi, 
 J. W. Ochterski, R. L. Martin, K. Morokuma, O. Farkas, 
 J. B. Foresman, and D. J. Fox, Gaussian, Inc., Wallingford CT, 2016.
 
 ******************************************
 Gaussian 16:  ES64L-G16RevA.03 25-Dec-2016
                22-Sep-2023 
 ******************************************
 %nprocshared=2
 Will use up to    2 processors via shared memory.
 %mem=2GB
 ----------
 # hf/3-21g
 ----------
 1/38=1,172=1/1;
 2/12=2,17=6,18=5,40=1/2;
 3/5=5,11=9,25=1,30=1/1,2,3;
 4//1;
 5/5=2,38=5/2;
 6/7=2,8=2,9=2,10=2,28=1/1;
 99/5=1,9=1/99;
 ------------------------
 tmpdir/M1_conf_189_0.gjf
 ------------------------
 Symbolic Z-matrix:
 Charge =  0 Multiplicity = 1
 C                    -0.03566   0.08655  -0.40325 
 H                    -0.25531   0.98496   0.0101 
 H                     0.92809  -0.39781  -0.00734 
 H                    -1.07073  -0.45113  -0.26822 
 H                    -0.00424   0.02079   1.42975 
 
                          Input orientation:                          
 ---------------------------------------------------------------------
 Center     Atomic      Atomic             Coordinates (Angstroms)
 Number     Number       Type             X           Y           Z
 ---------------------------------------------------------------------
      1          6           0       -0.035659    0.086552   -0.403253
      2          1           0       -0.255311    0.984957    0.010102
      3          1           0        0.928093   -0.397811   -0.007337
      4          1           0       -1.070730   -0.451129   -0.268219
      5          1           0       -0.004236    0.020794    1.429745
 ---------------------------------------------------------------------
                    Distance matrix (angstroms):
                    1          2          3          4          5
     1  C    0.000000
     2  H    1.013035   0.000000
     3  H    1.148988   1.820108   0.000000
     4  H    1.174183   1.674728   2.016480   0.000000
     5  H    1.834446   1.734369   1.763426   2.059903   0.000000
 Stoichiometry    CH4
 Framework group  C1[X(CH4)]
 Deg. of freedom     9
 Full point group                 C1      NOp   1
 Largest Abelian subgroup         C1      NOp   1
 Largest concise Abelian subgroup C1      NOp   1
                         Standard orientation:                         
 ---------------------------------------------------------------------
 Center     Atomic      Atomic             Coordinates (Angstroms)
 Number     Number       Type             X           Y           Z
 ---------------------------------------------------------------------
      1          6           0       -0.259620    0.096517    0.038057
      2          1           0        0.079854   -0.387026    0.860970
      3          1           0        0.385980    0.987967   -0.291626
      4          1           0       -0.418298   -0.820333   -0.678122
      5          1           0        1.510183   -0.359710   -0.119565
 ---------------------------------------------------------------------
 Rotational constants (GHZ):         150.7867009         109.3219990          94.8777955
 Standard basis: 3-21G (6D, 7F)
 There are    17 symmetry adapted cartesian basis functions of A   symmetry.
 There are    17 symmetry adapted basis functions of A   symmetry.
    17 basis functions,    27 primitive gaussians,    17 cartesian basis functions
     5 alpha electrons        5 beta electrons
       nuclear repulsion energy        12.0636621543 Hartrees.
 NAtoms=    5 NActive=    5 NUniq=    5 SFac= 1.00D+00 NAtFMM=   60 NAOKFM=F Big=F
 Integral buffers will be    131072 words long.
 Raffenetti 1 integral format.
 Two-electron integral symmetry is turned on.
 One-electron integrals computed using PRISM.
 NBasis=    17 RedAO= T EigKep=  4.09D-02  NBF=    17
 NBsUse=    17 1.00D-06 EigRej= -1.00D+00 NBFU=    17
 ExpMin= 1.83D-01 ExpMax= 1.72D+02 ExpMxC= 1.72D+02 IAcc=3 IRadAn=         5 AccDes= 0.00D+00
 Harris functional with IExCor=  205 and IRadAn=       5 diagonalized for initial guess.
 HarFok:  IExCor=  205 AccDes= 0.00D+00 IRadAn=         5 IDoV= 1 UseB2=F ITyADJ=14
 ICtDFT=  3500011 ScaDFX=  1.000000  1.000000  1.000000  1.000000
 FoFCou: FMM=F IPFlag=           0 FMFlag=      100000 FMFlg1=           0
         NFxFlg=           0 DoJE=T BraDBF=F KetDBF=T FulRan=T
         wScrn=  0.000000 ICntrl=       500 IOpCl=  0 I1Cent=   200000004 NGrid=           0
         NMat0=    1 NMatS0=      1 NMatT0=    0 NMatD0=    1 NMtDS0=    0 NMtDT0=    0
 Petite list used in FoFCou.
 Keep R1 ints in memory in canonical form, NReq=816379.
 Requested convergence on RMS density matrix=1.00D-08 within 128 cycles.
 Requested convergence on MAX density matrix=1.00D-06.
 Requested convergence on             energy=1.00D-06.
 No special actions if energy rises.
 SCF Done:  E(RHF) =  -39.7775141385     A.U. after   11 cycles
            NFock= 11  Conv=0.73D-08     -V/T= 2.0081

 **********************************************************************

            Population analysis using the SCF density.

 **********************************************************************

 Orbital symmetries:
       Occupied  (A) (A) (A) (A) (A)
       Virtual   (A) (A) (A) (A) (A) (A) (A) (A) (A) (A) (A) (A)
 The electronic state is 1-A.
 Alpha  occ. eigenvalues --  -11.22547  -0.94287  -0.59121  -0.55161  -0.35795
 Alpha virt. eigenvalues --    0.08008   0.26265   0.32170   0.34996   0.87878
 Alpha virt. eigenvalues --    0.98697   1.02547   1.22526   1.23700   1.27537
 Alpha virt. eigenvalues --    1.39656   1.81574
          Condensed to atoms (all electrons):
               1          2          3          4          5
     1  C    5.440107   0.345943   0.349573   0.348500   0.151031
     2  H    0.345943   0.471775  -0.030668  -0.048599  -0.005268
     3  H    0.349573  -0.030668   0.437242  -0.018078   0.006009
     4  H    0.348500  -0.048599  -0.018078   0.496470   0.002963
     5  H    0.151031  -0.005268   0.006009   0.002963   0.951593
 Mulliken charges:
               1
     1  C   -0.635153
     2  H    0.266816
     3  H    0.255922
     4  H    0.218743
     5  H   -0.106329
 Sum of Mulliken charges =  -0.00000
 Mulliken charges with hydrogens summed into heavy atoms:
               1
     1  C   -0.000000
 Electronic spatial extent (au):  <R**2>=             43.7113
 Charge=             -0.0000 electrons
 Dipole moment (field-independent basis, Debye):
    X=             -0.0286    Y=             -0.1532    Z=             -0.0038  Tot=              0.1559
 Quadrupole moment (field-independent basis, Debye-Ang):
   XX=            -10.8180   YY=             -8.4576   ZZ=             -9.2158
   XY=              1.0955   XZ=              0.2951   YZ=             -0.2652
 Traceless Quadrupole moment (field-independent basis, Debye-Ang):
   XX=             -1.3209   YY=              1.0395   ZZ=              0.2814
   XY=              1.0955   XZ=              0.2951   YZ=             -0.2652
 Octapole moment (field-independent basis, Debye-Ang**2):
  XXX=             -2.3566  YYY=              0.3648  ZZZ=              0.6720  XYY=             -0.2054
  XXY=              0.4040  XXZ=              0.2046  XZZ=             -0.4643  YZZ=             -0.5158
  YYZ=             -0.5079  XYZ=             -0.4326
 Hexadecapole moment (field-independent basis, Debye-Ang**3):
 XXXX=            -34.1173 YYYY=            -17.0591 ZZZZ=            -14.8810 XXXY=              1.7421
 XXXZ=              0.4948 YYYX=              2.5273 YYYZ=             -0.3628 ZZZX=              0.7371
 ZZZY=             -0.4202 XXYY=             -8.4627 XXZZ=             -8.1886 YYZZ=             -5.0675
 XXYZ=             -0.1738 YYXZ=              0.2166 ZZXY=              0.6871
 N-N= 1.206366215428D+01 E-N=-1.158024933552D+02  KE= 3.945834893025D+01
 1\1\GINC-NODE61\SP\RHF\3-21G\C1H4\YANZ\22-Sep-2023\0\\# hf/3-21g\\tmpd
 ir/M1_conf_189_0.gjf\\0,1\C,0,-0.0356594,0.086552,-0.4032525\H,0,-0.25
 53106,0.9849574,0.0101017\H,0,0.9280927,-0.3978105,-0.007337\H,0,-1.07
 07297,-0.4511291,-0.2682186\H,0,-0.004236,0.02079403,1.429745\\Version
 =ES64L-G16RevA.03\State=1-A\HF=-39.7775141\RMSD=7.258e-09\Dipole=-0.06
 03408,0.0094653,0.0056478\Quadrupole=1.0036887,0.2989836,-1.3026723,-0
 .253694,0.2694929,0.1385742\PG=C01 [X(C1H4)]\\@


 Some scientists claim that hydrogen, because it is so
 plentiful, is the basic building block of the universe. 
 I dispute that. I say that stupidity is far more
 abundant than hydrogen, and THAT is the basic building 
 block of the universe.
                   --Frank Zappa
 Job cpu time:       0 days  0 hours  0 minutes  1.6 seconds.
 Elapsed time:       0 days  0 hours  0 minutes  0.9 seconds.
 File lengths (MBytes):  RWF=      6 Int=      0 D2E=      0 Chk=      1 Scr=      1
 Normal termination of Gaussian 16 at Fri Sep 22 17:15:04 2023.
