 Entering Gaussian System, Link 0=g16
 Initial command:
 /share/apps/gaussian/g16/l1.exe "/tmp/55668.mgr/Gau-144323.inp" -scrdir="/tmp/55668.mgr/"
 Entering Link 1 = /share/apps/gaussian/g16/l1.exe PID=    144326.
  
 Copyright (c) 1988,1990,1992,1993,1995,1998,2003,2009,2016,
            Gaussian, Inc.  All Rights Reserved.
  
 This is part of the Gaussian(R) 16 program.  It is based on
 the Gaussian(R) 09 system (copyright 2009, Gaussian, Inc.),
 the Gaussian(R) 03 system (copyright 2003, Gaussian, Inc.),
 the Gaussian(R) 98 system (copyright 1998, Gaussian, Inc.),
 the Gaussian(R) 94 system (copyright 1995, Gaussian, Inc.),
 the Gaussian 92(TM) system (copyright 1992, Gaussian, Inc.),
 the Gaussian 90(TM) system (copyright 1990, Gaussian, Inc.),
 the Gaussian 88(TM) system (copyright 1988, Gaussian, Inc.),
 the Gaussian 86(TM) system (copyright 1986, Carnegie Mellon
 University), and the Gaussian 82(TM) system (copyright 1983,
 Carnegie Mellon University). Gaussian is a federally registered
 trademark of Gaussian, Inc.
  
 This software contains proprietary and confidential information,
 including trade secrets, belonging to Gaussian, Inc.
  
 This software is provided under written license and may be
 used, copied, transmitted, or stored only in accord with that
 written license.
  
 The following legend is applicable only to US Government
 contracts under FAR:
  
                    RESTRICTED RIGHTS LEGEND
  
 Use, reproduction and disclosure by the US Government is
 subject to restrictions as set forth in subparagraphs (a)
 and (c) of the Commercial Computer Software - Restricted
 Rights clause in FAR 52.227-19.
  
 Gaussian, Inc.
 340 Quinnipiac St., Bldg. 40, Wallingford CT 06492
  
  
 ---------------------------------------------------------------
 Warning -- This program may not be used in any manner that
 competes with the business of Gaussian, Inc. or will provide
 assistance to any competitor of Gaussian, Inc.  The licensee
 of this program is prohibited from giving any competitor of
 Gaussian, Inc. access to this program.  By using this program,
 the user acknowledges that Gaussian, Inc. is engaged in the
 business of creating and licensing software in the field of
 computational chemistry and represents and warrants to the
 licensee that it is not a competitor of Gaussian, Inc. and that
 it will not use this program in any manner prohibited above.
 ---------------------------------------------------------------
  

 Cite this work as:
 Gaussian 16, Revision A.03,
 M. J. Frisch, G. W. Trucks, H. B. Schlegel, G. E. Scuseria, 
 M. A. Robb, J. R. Cheeseman, G. Scalmani, V. Barone, 
 G. A. Petersson, H. Nakatsuji, X. Li, M. Caricato, A. V. Marenich, 
 J. Bloino, B. G. Janesko, R. Gomperts, B. Mennucci, H. P. Hratchian, 
 J. V. Ortiz, A. F. Izmaylov, J. L. Sonnenberg, D. Williams-Young, 
 F. Ding, F. Lipparini, F. Egidi, J. Goings, B. Peng, A. Petrone, 
 T. Henderson, D. Ranasinghe, V. G. Zakrzewski, J. Gao, N. Rega, 
 G. Zheng, W. Liang, M. Hada, M. Ehara, K. Toyota, R. Fukuda, 
 J. Hasegawa, M. Ishida, T. Nakajima, Y. Honda, O. Kitao, H. Nakai, 
 T. Vreven, K. Throssell, J. A. Montgomery, Jr., J. E. Peralta, 
 F. Ogliaro, M. J. Bearpark, J. J. Heyd, E. N. Brothers, K. N. Kudin, 
 V. N. Staroverov, T. A. Keith, R. Kobayashi, J. Normand, 
 K. Raghavachari, A. P. Rendell, J. C. Burant, S. S. Iyengar, 
 J. Tomasi, M. Cossi, J. M. Millam, M. Klene, C. Adamo, R. Cammi, 
 J. W. Ochterski, R. L. Martin, K. Morokuma, O. Farkas, 
 J. B. Foresman, and D. J. Fox, Gaussian, Inc., Wallingford CT, 2016.
 
 ******************************************
 Gaussian 16:  ES64L-G16RevA.03 25-Dec-2016
                22-Sep-2023 
 ******************************************
 %nprocshared=2
 Will use up to    2 processors via shared memory.
 %mem=2GB
 ----------
 # hf/3-21g
 ----------
 1/38=1,172=1/1;
 2/12=2,17=6,18=5,40=1/2;
 3/5=5,11=9,25=1,30=1/1,2,3;
 4//1;
 5/5=2,38=5/2;
 6/7=2,8=2,9=2,10=2,28=1/1;
 99/5=1,9=1/99;
 ------------------------
 tmpdir/M1_conf_179_0.gjf
 ------------------------
 Symbolic Z-matrix:
 Charge =  0 Multiplicity = 1
 C                     0.00008   0.06939  -0.25931 
 H                     0.06372   1.06133  -0.13464 
 H                     0.99201  -0.45577  -0.16947 
 H                    -0.83668  -0.71297   0.03202 
 H                    -0.00275   0.01805   1.44233 
 
                          Input orientation:                          
 ---------------------------------------------------------------------
 Center     Atomic      Atomic             Coordinates (Angstroms)
 Number     Number       Type             X           Y           Z
 ---------------------------------------------------------------------
      1          6           0        0.000084    0.069388   -0.259308
      2          1           0        0.063719    1.061329   -0.134643
      3          1           0        0.992014   -0.455766   -0.169467
      4          1           0       -0.836683   -0.712971    0.032023
      5          1           0       -0.002749    0.018048    1.442329
 ---------------------------------------------------------------------
                    Distance matrix (angstroms):
                    1          2          3          4          5
     1  C    0.000000
     2  H    1.001768   0.000000
     3  H    1.125959   1.778910   0.000000
     4  H    1.182006   1.996658   1.857656   0.000000
     5  H    1.702414   1.892008   1.952419   1.794101   0.000000
 Stoichiometry    CH4
 Framework group  C1[X(CH4)]
 Deg. of freedom     9
 Full point group                 C1      NOp   1
 Largest Abelian subgroup         C1      NOp   1
 Largest concise Abelian subgroup C1      NOp   1
                         Standard orientation:                         
 ---------------------------------------------------------------------
 Center     Atomic      Atomic             Coordinates (Angstroms)
 Number     Number       Type             X           Y           Z
 ---------------------------------------------------------------------
      1          6           0       -0.209401    0.057958   -0.057740
      2          1           0       -0.371484   -0.830357   -0.491519
      3          1           0       -0.241749    0.017370    1.067022
      4          1           0        0.482510    0.969233   -0.354349
      5          1           0        1.387132   -0.503996    0.125288
 ---------------------------------------------------------------------
 Rotational constants (GHZ):         144.6954805         115.6718224         106.7578213
 Standard basis: 3-21G (6D, 7F)
 There are    17 symmetry adapted cartesian basis functions of A   symmetry.
 There are    17 symmetry adapted basis functions of A   symmetry.
    17 basis functions,    27 primitive gaussians,    17 cartesian basis functions
     5 alpha electrons        5 beta electrons
       nuclear repulsion energy        12.2335850243 Hartrees.
 NAtoms=    5 NActive=    5 NUniq=    5 SFac= 1.00D+00 NAtFMM=   60 NAOKFM=F Big=F
 Integral buffers will be    131072 words long.
 Raffenetti 1 integral format.
 Two-electron integral symmetry is turned on.
 One-electron integrals computed using PRISM.
 NBasis=    17 RedAO= T EigKep=  4.27D-02  NBF=    17
 NBsUse=    17 1.00D-06 EigRej= -1.00D+00 NBFU=    17
 ExpMin= 1.83D-01 ExpMax= 1.72D+02 ExpMxC= 1.72D+02 IAcc=3 IRadAn=         5 AccDes= 0.00D+00
 Harris functional with IExCor=  205 and IRadAn=       5 diagonalized for initial guess.
 HarFok:  IExCor=  205 AccDes= 0.00D+00 IRadAn=         5 IDoV= 1 UseB2=F ITyADJ=14
 ICtDFT=  3500011 ScaDFX=  1.000000  1.000000  1.000000  1.000000
 FoFCou: FMM=F IPFlag=           0 FMFlag=      100000 FMFlg1=           0
         NFxFlg=           0 DoJE=T BraDBF=F KetDBF=T FulRan=T
         wScrn=  0.000000 ICntrl=       500 IOpCl=  0 I1Cent=   200000004 NGrid=           0
         NMat0=    1 NMatS0=      1 NMatT0=    0 NMatD0=    1 NMtDS0=    0 NMtDT0=    0
 Petite list used in FoFCou.
 Keep R1 ints in memory in canonical form, NReq=816379.
 Requested convergence on RMS density matrix=1.00D-08 within 128 cycles.
 Requested convergence on MAX density matrix=1.00D-06.
 Requested convergence on             energy=1.00D-06.
 No special actions if energy rises.
 SCF Done:  E(RHF) =  -39.8217395028     A.U. after   11 cycles
            NFock= 11  Conv=0.22D-08     -V/T= 2.0092

 **********************************************************************

            Population analysis using the SCF density.

 **********************************************************************

 Orbital symmetries:
       Occupied  (A) (A) (A) (A) (A)
       Virtual   (A) (A) (A) (A) (A) (A) (A) (A) (A) (A) (A) (A)
 The electronic state is 1-A.
 Alpha  occ. eigenvalues --  -11.21597  -0.93280  -0.61449  -0.54271  -0.36932
 Alpha virt. eigenvalues --    0.12930   0.26408   0.31865   0.36665   0.90471
 Alpha virt. eigenvalues --    0.98314   1.02597   1.20561   1.25021   1.28690
 Alpha virt. eigenvalues --    1.39603   1.85619
          Condensed to atoms (all electrons):
               1          2          3          4          5
     1  C    5.359812   0.371844   0.357041   0.356112   0.226589
     2  H    0.371844   0.416273  -0.031317  -0.012237  -0.014880
     3  H    0.357041  -0.031317   0.490572  -0.032175  -0.011336
     4  H    0.356112  -0.012237  -0.032175   0.451123  -0.014570
     5  H    0.226589  -0.014880  -0.011336  -0.014570   0.892077
 Mulliken charges:
               1
     1  C   -0.671398
     2  H    0.270317
     3  H    0.227215
     4  H    0.251746
     5  H   -0.077880
 Sum of Mulliken charges =   0.00000
 Mulliken charges with hydrogens summed into heavy atoms:
               1
     1  C    0.000000
 Electronic spatial extent (au):  <R**2>=             42.1781
 Charge=              0.0000 electrons
 Dipole moment (field-independent basis, Debye):
    X=             -0.1472    Y=              0.0690    Z=              0.0886  Tot=              0.1852
 Quadrupole moment (field-independent basis, Debye-Ang):
   XX=            -10.2370   YY=             -8.5213   ZZ=             -8.8592
   XY=              1.3270   XZ=             -0.2691   YZ=              0.2455
 Traceless Quadrupole moment (field-independent basis, Debye-Ang):
   XX=             -1.0312   YY=              0.6846   ZZ=              0.3466
   XY=              1.3270   XZ=             -0.2691   YZ=              0.2455
 Octapole moment (field-independent basis, Debye-Ang**2):
  XXX=             -1.7544  YYY=              0.3607  ZZZ=              1.0023  XYY=             -0.1996
  XXY=              0.4923  XXZ=             -0.2256  XZZ=             -0.6707  YZZ=             -0.0843
  YYZ=             -0.7288  XYZ=             -0.3359
 Hexadecapole moment (field-independent basis, Debye-Ang**3):
 XXXX=            -28.5331 YYYY=            -16.6316 ZZZZ=            -14.8159 XXXY=              2.0606
 XXXZ=             -0.3553 YYYX=              2.9804 YYYZ=              0.5040 ZZZX=             -0.5945
 ZZZY=              0.5505 XXYY=             -7.4192 XXZZ=             -7.5459 YYZZ=             -5.5222
 XXYZ=              0.0328 YYXZ=             -0.2223 ZZXY=              0.8140
 N-N= 1.223358502426D+01 E-N=-1.162200410625D+02  KE= 3.945995134316D+01
 1\1\GINC-NODE61\SP\RHF\3-21G\C1H4\YANZ\22-Sep-2023\0\\# hf/3-21g\\tmpd
 ir/M1_conf_179_0.gjf\\0,1\C,0,0.0000838,0.0693878,-0.2593081\H,0,0.063
 7188,1.0613291,-0.1346428\H,0,0.9920143,-0.4557655,-0.1694671\H,0,-0.8
 36683,-0.7129714,0.0320229\H,0,-0.00274901,0.01804757,1.44232917\\Vers
 ion=ES64L-G16RevA.03\State=1-A\HF=-39.8217395\RMSD=2.219e-09\Dipole=0.
 0327428,-0.0246171,-0.0602379\Quadrupole=0.4135164,0.8825242,-1.296040
 6,0.2775309,-0.2515616,-0.2196138\PG=C01 [X(C1H4)]\\@


 I LOVE MANKIND - IT'S PEOPLE I CAN'T STAND.
     -- LINUS OF PEANUTS
 Job cpu time:       0 days  0 hours  0 minutes  1.6 seconds.
 Elapsed time:       0 days  0 hours  0 minutes  0.9 seconds.
 File lengths (MBytes):  RWF=      6 Int=      0 D2E=      0 Chk=      1 Scr=      1
 Normal termination of Gaussian 16 at Fri Sep 22 17:14:52 2023.
