 Entering Gaussian System, Link 0=g16
 Initial command:
 /share/apps/gaussian/g16/l1.exe "/tmp/55668.mgr/Gau-146108.inp" -scrdir="/tmp/55668.mgr/"
 Entering Link 1 = /share/apps/gaussian/g16/l1.exe PID=    146110.
  
 Copyright (c) 1988,1990,1992,1993,1995,1998,2003,2009,2016,
            Gaussian, Inc.  All Rights Reserved.
  
 This is part of the Gaussian(R) 16 program.  It is based on
 the Gaussian(R) 09 system (copyright 2009, Gaussian, Inc.),
 the Gaussian(R) 03 system (copyright 2003, Gaussian, Inc.),
 the Gaussian(R) 98 system (copyright 1998, Gaussian, Inc.),
 the Gaussian(R) 94 system (copyright 1995, Gaussian, Inc.),
 the Gaussian 92(TM) system (copyright 1992, Gaussian, Inc.),
 the Gaussian 90(TM) system (copyright 1990, Gaussian, Inc.),
 the Gaussian 88(TM) system (copyright 1988, Gaussian, Inc.),
 the Gaussian 86(TM) system (copyright 1986, Carnegie Mellon
 University), and the Gaussian 82(TM) system (copyright 1983,
 Carnegie Mellon University). Gaussian is a federally registered
 trademark of Gaussian, Inc.
  
 This software contains proprietary and confidential information,
 including trade secrets, belonging to Gaussian, Inc.
  
 This software is provided under written license and may be
 used, copied, transmitted, or stored only in accord with that
 written license.
  
 The following legend is applicable only to US Government
 contracts under FAR:
  
                    RESTRICTED RIGHTS LEGEND
  
 Use, reproduction and disclosure by the US Government is
 subject to restrictions as set forth in subparagraphs (a)
 and (c) of the Commercial Computer Software - Restricted
 Rights clause in FAR 52.227-19.
  
 Gaussian, Inc.
 340 Quinnipiac St., Bldg. 40, Wallingford CT 06492
  
  
 ---------------------------------------------------------------
 Warning -- This program may not be used in any manner that
 competes with the business of Gaussian, Inc. or will provide
 assistance to any competitor of Gaussian, Inc.  The licensee
 of this program is prohibited from giving any competitor of
 Gaussian, Inc. access to this program.  By using this program,
 the user acknowledges that Gaussian, Inc. is engaged in the
 business of creating and licensing software in the field of
 computational chemistry and represents and warrants to the
 licensee that it is not a competitor of Gaussian, Inc. and that
 it will not use this program in any manner prohibited above.
 ---------------------------------------------------------------
  

 Cite this work as:
 Gaussian 16, Revision A.03,
 M. J. Frisch, G. W. Trucks, H. B. Schlegel, G. E. Scuseria, 
 M. A. Robb, J. R. Cheeseman, G. Scalmani, V. Barone, 
 G. A. Petersson, H. Nakatsuji, X. Li, M. Caricato, A. V. Marenich, 
 J. Bloino, B. G. Janesko, R. Gomperts, B. Mennucci, H. P. Hratchian, 
 J. V. Ortiz, A. F. Izmaylov, J. L. Sonnenberg, D. Williams-Young, 
 F. Ding, F. Lipparini, F. Egidi, J. Goings, B. Peng, A. Petrone, 
 T. Henderson, D. Ranasinghe, V. G. Zakrzewski, J. Gao, N. Rega, 
 G. Zheng, W. Liang, M. Hada, M. Ehara, K. Toyota, R. Fukuda, 
 J. Hasegawa, M. Ishida, T. Nakajima, Y. Honda, O. Kitao, H. Nakai, 
 T. Vreven, K. Throssell, J. A. Montgomery, Jr., J. E. Peralta, 
 F. Ogliaro, M. J. Bearpark, J. J. Heyd, E. N. Brothers, K. N. Kudin, 
 V. N. Staroverov, T. A. Keith, R. Kobayashi, J. Normand, 
 K. Raghavachari, A. P. Rendell, J. C. Burant, S. S. Iyengar, 
 J. Tomasi, M. Cossi, J. M. Millam, M. Klene, C. Adamo, R. Cammi, 
 J. W. Ochterski, R. L. Martin, K. Morokuma, O. Farkas, 
 J. B. Foresman, and D. J. Fox, Gaussian, Inc., Wallingford CT, 2016.
 
 ******************************************
 Gaussian 16:  ES64L-G16RevA.03 25-Dec-2016
                22-Sep-2023 
 ******************************************
 %nprocshared=2
 Will use up to    2 processors via shared memory.
 %mem=2GB
 ----------
 # hf/3-21g
 ----------
 1/38=1,172=1/1;
 2/12=2,17=6,18=5,40=1/2;
 3/5=5,11=9,25=1,30=1/1,2,3;
 4//1;
 5/5=2,38=5/2;
 6/7=2,8=2,9=2,10=2,28=1/1;
 99/5=1,9=1/99;
 ------------------------
 tmpdir/M1_conf_212_0.gjf
 ------------------------
 Symbolic Z-matrix:
 Charge =  0 Multiplicity = 1
 C                    -0.24817   0.11102  -0.45326 
 H                    -0.4699    1.17067  -0.14724 
 H                     0.63795  -0.2527   -0.12216 
 H                    -1.02991  -0.4022   -0.27386 
 H                    -0.05569   0.02227   1.52543 
 
                          Input orientation:                          
 ---------------------------------------------------------------------
 Center     Atomic      Atomic             Coordinates (Angstroms)
 Number     Number       Type             X           Y           Z
 ---------------------------------------------------------------------
      1          6           0       -0.248172    0.111018   -0.453257
      2          1           0       -0.469901    1.170667   -0.147239
      3          1           0        0.637948   -0.252699   -0.122165
      4          1           0       -1.029915   -0.402204   -0.273859
      5          1           0       -0.055687    0.022267    1.525431
 ---------------------------------------------------------------------
                    Distance matrix (angstroms):
                    1          2          3          4          5
     1  C    0.000000
     2  H    1.125019   0.000000
     3  H    1.013469   1.803865   0.000000
     4  H    0.952209   1.674386   1.681406   0.000000
     5  H    1.990009   2.070802   1.808676   2.089675   0.000000
 Stoichiometry    CH4
 Framework group  C1[X(CH4)]
 Deg. of freedom     9
 Full point group                 C1      NOp   1
 Largest Abelian subgroup         C1      NOp   1
 Largest concise Abelian subgroup C1      NOp   1
                         Standard orientation:                         
 ---------------------------------------------------------------------
 Center     Atomic      Atomic             Coordinates (Angstroms)
 Number     Number       Type             X           Y           Z
 ---------------------------------------------------------------------
      1          6           0       -0.272966   -0.052652   -0.031522
      2          1           0       -0.093259    1.003440   -0.375095
      3          1           0        0.269957   -0.757821   -0.516385
      4          1           0       -0.239300   -0.047639    0.920078
      5          1           0        1.700395    0.117929    0.160533
 ---------------------------------------------------------------------
 Rotational constants (GHZ):         172.2118816          99.4064032          93.2294335
 Standard basis: 3-21G (6D, 7F)
 There are    17 symmetry adapted cartesian basis functions of A   symmetry.
 There are    17 symmetry adapted basis functions of A   symmetry.
    17 basis functions,    27 primitive gaussians,    17 cartesian basis functions
     5 alpha electrons        5 beta electrons
       nuclear repulsion energy        12.6104962309 Hartrees.
 NAtoms=    5 NActive=    5 NUniq=    5 SFac= 1.00D+00 NAtFMM=   60 NAOKFM=F Big=F
 Integral buffers will be    131072 words long.
 Raffenetti 1 integral format.
 Two-electron integral symmetry is turned on.
 One-electron integrals computed using PRISM.
 NBasis=    17 RedAO= T EigKep=  3.45D-02  NBF=    17
 NBsUse=    17 1.00D-06 EigRej= -1.00D+00 NBFU=    17
 ExpMin= 1.83D-01 ExpMax= 1.72D+02 ExpMxC= 1.72D+02 IAcc=3 IRadAn=         5 AccDes= 0.00D+00
 Harris functional with IExCor=  205 and IRadAn=       5 diagonalized for initial guess.
 HarFok:  IExCor=  205 AccDes= 0.00D+00 IRadAn=         5 IDoV= 1 UseB2=F ITyADJ=14
 ICtDFT=  3500011 ScaDFX=  1.000000  1.000000  1.000000  1.000000
 FoFCou: FMM=F IPFlag=           0 FMFlag=      100000 FMFlg1=           0
         NFxFlg=           0 DoJE=T BraDBF=F KetDBF=T FulRan=T
         wScrn=  0.000000 ICntrl=       500 IOpCl=  0 I1Cent=   200000004 NGrid=           0
         NMat0=    1 NMatS0=      1 NMatT0=    0 NMatD0=    1 NMtDS0=    0 NMtDT0=    0
 Petite list used in FoFCou.
 Keep R1 ints in memory in canonical form, NReq=816365.
 Requested convergence on RMS density matrix=1.00D-08 within 128 cycles.
 Requested convergence on MAX density matrix=1.00D-06.
 Requested convergence on             energy=1.00D-06.
 No special actions if energy rises.
 SCF Done:  E(RHF) =  -39.7616362797     A.U. after   12 cycles
            NFock= 12  Conv=0.99D-09     -V/T= 1.9994

 **********************************************************************

            Population analysis using the SCF density.

 **********************************************************************

 Orbital symmetries:
       Occupied  (A) (A) (A) (A) (A)
       Virtual   (A) (A) (A) (A) (A) (A) (A) (A) (A) (A) (A) (A)
 The electronic state is 1-A.
 Alpha  occ. eigenvalues --  -11.21096  -0.96884  -0.63533  -0.57965  -0.33917
 Alpha virt. eigenvalues --    0.05891   0.29499   0.34501   0.37255   0.84558
 Alpha virt. eigenvalues --    0.90377   1.03075   1.23982   1.28298   1.35427
 Alpha virt. eigenvalues --    1.45104   1.81330
          Condensed to atoms (all electrons):
               1          2          3          4          5
     1  C    5.389575   0.357382   0.363598   0.359841   0.153332
     2  H    0.357382   0.468169  -0.025044  -0.037794   0.003698
     3  H    0.363598  -0.025044   0.415069  -0.029514   0.005243
     4  H    0.359841  -0.037794  -0.029514   0.443776  -0.000153
     5  H    0.153332   0.003698   0.005243  -0.000153   0.982231
 Mulliken charges:
               1
     1  C   -0.623728
     2  H    0.233589
     3  H    0.270648
     4  H    0.263844
     5  H   -0.144353
 Sum of Mulliken charges =  -0.00000
 Mulliken charges with hydrogens summed into heavy atoms:
               1
     1  C   -0.000000
 Electronic spatial extent (au):  <R**2>=             43.8303
 Charge=             -0.0000 electrons
 Dipole moment (field-independent basis, Debye):
    X=             -0.6710    Y=              0.0370    Z=              0.0730  Tot=              0.6759
 Quadrupole moment (field-independent basis, Debye-Ang):
   XX=            -11.1815   YY=             -8.3849   ZZ=             -8.7575
   XY=             -0.4422   XZ=             -0.6753   YZ=              0.0573
 Traceless Quadrupole moment (field-independent basis, Debye-Ang):
   XX=             -1.7402   YY=              1.0564   ZZ=              0.6838
   XY=             -0.4422   XZ=             -0.6753   YZ=              0.0573
 Octapole moment (field-independent basis, Debye-Ang**2):
  XXX=             -4.3168  YYY=              0.3262  ZZZ=              0.7361  XYY=             -0.6484
  XXY=             -0.3727  XXZ=             -0.1264  XZZ=             -0.8971  YZZ=             -0.2008
  YYZ=             -0.6031  XYZ=              0.1337
 Hexadecapole moment (field-independent basis, Debye-Ang**3):
 XXXX=            -40.1642 YYYY=            -14.2503 ZZZZ=            -13.3004 XXXY=             -0.7997
 XXXZ=             -1.2836 YYYX=             -0.9279 YYYZ=             -0.1304 ZZZX=             -1.3170
 ZZZY=              0.1574 XXYY=             -9.1322 XXZZ=             -8.8575 YYZZ=             -4.7062
 XXYZ=              0.0976 YYXZ=             -0.5243 ZZXY=             -0.3344
 N-N= 1.261049623091D+01 E-N=-1.170632916072D+02  KE= 3.978691606442D+01
 1\1\GINC-NODE61\SP\RHF\3-21G\C1H4\YANZ\22-Sep-2023\0\\# hf/3-21g\\tmpd
 ir/M1_conf_212_0.gjf\\0,1\C,0,-0.2481719,0.1110175,-0.4532571\H,0,-0.4
 699011,1.1706665,-0.1472393\H,0,0.6379476,-0.2526994,-0.1221648\H,0,-1
 .0299145,-0.4022037,-0.2738586\H,0,-0.05568695,0.02226718,1.52543145\\
 Version=ES64L-G16RevA.03\State=1-A\HF=-39.7616363\RMSD=9.875e-10\Dipol
 e=-0.0900412,0.0137624,-0.2498477\Quadrupole=0.7898735,0.6573329,-1.44
 72063,-0.1503303,0.1143728,0.1604203\PG=C01 [X(C1H4)]\\@


 IT IS DOUBTED WHETHER A MAN EVER BRINGS HIS FACULTIES TO BEAR WITH THEIR FULL FORCE
 ON A SUBJECT UNTIL HE WRITES UPON IT.

                          -- CICERO
 Job cpu time:       0 days  0 hours  0 minutes  1.7 seconds.
 Elapsed time:       0 days  0 hours  0 minutes  0.9 seconds.
 File lengths (MBytes):  RWF=      6 Int=      0 D2E=      0 Chk=      1 Scr=      1
 Normal termination of Gaussian 16 at Fri Sep 22 17:15:32 2023.
