 Entering Gaussian System, Link 0=g16
 Initial command:
 /share/apps/gaussian/g16/l1.exe "/tmp/55668.mgr/Gau-148117.inp" -scrdir="/tmp/55668.mgr/"
 Entering Link 1 = /share/apps/gaussian/g16/l1.exe PID=    148120.
  
 Copyright (c) 1988,1990,1992,1993,1995,1998,2003,2009,2016,
            Gaussian, Inc.  All Rights Reserved.
  
 This is part of the Gaussian(R) 16 program.  It is based on
 the Gaussian(R) 09 system (copyright 2009, Gaussian, Inc.),
 the Gaussian(R) 03 system (copyright 2003, Gaussian, Inc.),
 the Gaussian(R) 98 system (copyright 1998, Gaussian, Inc.),
 the Gaussian(R) 94 system (copyright 1995, Gaussian, Inc.),
 the Gaussian 92(TM) system (copyright 1992, Gaussian, Inc.),
 the Gaussian 90(TM) system (copyright 1990, Gaussian, Inc.),
 the Gaussian 88(TM) system (copyright 1988, Gaussian, Inc.),
 the Gaussian 86(TM) system (copyright 1986, Carnegie Mellon
 University), and the Gaussian 82(TM) system (copyright 1983,
 Carnegie Mellon University). Gaussian is a federally registered
 trademark of Gaussian, Inc.
  
 This software contains proprietary and confidential information,
 including trade secrets, belonging to Gaussian, Inc.
  
 This software is provided under written license and may be
 used, copied, transmitted, or stored only in accord with that
 written license.
  
 The following legend is applicable only to US Government
 contracts under FAR:
  
                    RESTRICTED RIGHTS LEGEND
  
 Use, reproduction and disclosure by the US Government is
 subject to restrictions as set forth in subparagraphs (a)
 and (c) of the Commercial Computer Software - Restricted
 Rights clause in FAR 52.227-19.
  
 Gaussian, Inc.
 340 Quinnipiac St., Bldg. 40, Wallingford CT 06492
  
  
 ---------------------------------------------------------------
 Warning -- This program may not be used in any manner that
 competes with the business of Gaussian, Inc. or will provide
 assistance to any competitor of Gaussian, Inc.  The licensee
 of this program is prohibited from giving any competitor of
 Gaussian, Inc. access to this program.  By using this program,
 the user acknowledges that Gaussian, Inc. is engaged in the
 business of creating and licensing software in the field of
 computational chemistry and represents and warrants to the
 licensee that it is not a competitor of Gaussian, Inc. and that
 it will not use this program in any manner prohibited above.
 ---------------------------------------------------------------
  

 Cite this work as:
 Gaussian 16, Revision A.03,
 M. J. Frisch, G. W. Trucks, H. B. Schlegel, G. E. Scuseria, 
 M. A. Robb, J. R. Cheeseman, G. Scalmani, V. Barone, 
 G. A. Petersson, H. Nakatsuji, X. Li, M. Caricato, A. V. Marenich, 
 J. Bloino, B. G. Janesko, R. Gomperts, B. Mennucci, H. P. Hratchian, 
 J. V. Ortiz, A. F. Izmaylov, J. L. Sonnenberg, D. Williams-Young, 
 F. Ding, F. Lipparini, F. Egidi, J. Goings, B. Peng, A. Petrone, 
 T. Henderson, D. Ranasinghe, V. G. Zakrzewski, J. Gao, N. Rega, 
 G. Zheng, W. Liang, M. Hada, M. Ehara, K. Toyota, R. Fukuda, 
 J. Hasegawa, M. Ishida, T. Nakajima, Y. Honda, O. Kitao, H. Nakai, 
 T. Vreven, K. Throssell, J. A. Montgomery, Jr., J. E. Peralta, 
 F. Ogliaro, M. J. Bearpark, J. J. Heyd, E. N. Brothers, K. N. Kudin, 
 V. N. Staroverov, T. A. Keith, R. Kobayashi, J. Normand, 
 K. Raghavachari, A. P. Rendell, J. C. Burant, S. S. Iyengar, 
 J. Tomasi, M. Cossi, J. M. Millam, M. Klene, C. Adamo, R. Cammi, 
 J. W. Ochterski, R. L. Martin, K. Morokuma, O. Farkas, 
 J. B. Foresman, and D. J. Fox, Gaussian, Inc., Wallingford CT, 2016.
 
 ******************************************
 Gaussian 16:  ES64L-G16RevA.03 25-Dec-2016
                22-Sep-2023 
 ******************************************
 %nprocshared=2
 Will use up to    2 processors via shared memory.
 %mem=2GB
 ----------
 # hf/3-21g
 ----------
 1/38=1,172=1/1;
 2/12=2,17=6,18=5,40=1/2;
 3/5=5,11=9,25=1,30=1/1,2,3;
 4//1;
 5/5=2,38=5/2;
 6/7=2,8=2,9=2,10=2,28=1/1;
 99/5=1,9=1/99;
 ------------------------
 tmpdir/M1_conf_249_0.gjf
 ------------------------
 Symbolic Z-matrix:
 Charge =  0 Multiplicity = 1
 C                    -0.38597   0.1514   -0.74406 
 H                    -0.79093   1.20144  -0.4399 
 H                     0.57974  -0.14482  -0.25005 
 H                    -1.33638  -0.5515   -0.69803 
 H                    -0.07589   0.02968   1.58718 
 
                          Input orientation:                          
 ---------------------------------------------------------------------
 Center     Atomic      Atomic             Coordinates (Angstroms)
 Number     Number       Type             X           Y           Z
 ---------------------------------------------------------------------
      1          6           0       -0.385969    0.151404   -0.744058
      2          1           0       -0.790930    1.201435   -0.439900
      3          1           0        0.579741   -0.144820   -0.250054
      4          1           0       -1.336377   -0.551505   -0.698032
      5          1           0       -0.075889    0.029684    1.587184
 ---------------------------------------------------------------------
                    Distance matrix (angstroms):
                    1          2          3          4          5
     1  C    0.000000
     2  H    1.165792   0.000000
     3  H    1.124448   1.930592   0.000000
     4  H    1.182993   1.853899   2.009374   0.000000
     5  H    2.354920   2.448133   1.958505   2.673727   0.000000
 Stoichiometry    CH4
 Framework group  C1[X(CH4)]
 Deg. of freedom     9
 Full point group                 C1      NOp   1
 Largest Abelian subgroup         C1      NOp   1
 Largest concise Abelian subgroup C1      NOp   1
                         Standard orientation:                         
 ---------------------------------------------------------------------
 Center     Atomic      Atomic             Coordinates (Angstroms)
 Number     Number       Type             X           Y           Z
 ---------------------------------------------------------------------
      1          6           0       -0.297245   -0.096958   -0.056491
      2          1           0       -0.186472    0.880557   -0.682002
      3          1           0        0.498710   -0.869564   -0.240658
      4          1           0       -0.537866    0.283383    1.037546
      5          1           0        2.009101    0.287372    0.224058
 ---------------------------------------------------------------------
 Rotational constants (GHZ):         144.8322315          70.1520571          69.0947950
 Standard basis: 3-21G (6D, 7F)
 There are    17 symmetry adapted cartesian basis functions of A   symmetry.
 There are    17 symmetry adapted basis functions of A   symmetry.
    17 basis functions,    27 primitive gaussians,    17 cartesian basis functions
     5 alpha electrons        5 beta electrons
       nuclear repulsion energy        11.0865420801 Hartrees.
 NAtoms=    5 NActive=    5 NUniq=    5 SFac= 1.00D+00 NAtFMM=   60 NAOKFM=F Big=F
 Integral buffers will be    131072 words long.
 Raffenetti 1 integral format.
 Two-electron integral symmetry is turned on.
 One-electron integrals computed using PRISM.
 NBasis=    17 RedAO= T EigKep=  5.29D-02  NBF=    17
 NBsUse=    17 1.00D-06 EigRej= -1.00D+00 NBFU=    17
 ExpMin= 1.83D-01 ExpMax= 1.72D+02 ExpMxC= 1.72D+02 IAcc=3 IRadAn=         5 AccDes= 0.00D+00
 Harris functional with IExCor=  205 and IRadAn=       5 diagonalized for initial guess.
 HarFok:  IExCor=  205 AccDes= 0.00D+00 IRadAn=         5 IDoV= 1 UseB2=F ITyADJ=14
 ICtDFT=  3500011 ScaDFX=  1.000000  1.000000  1.000000  1.000000
 FoFCou: FMM=F IPFlag=           0 FMFlag=      100000 FMFlg1=           0
         NFxFlg=           0 DoJE=T BraDBF=F KetDBF=T FulRan=T
         wScrn=  0.000000 ICntrl=       500 IOpCl=  0 I1Cent=   200000004 NGrid=           0
         NMat0=    1 NMatS0=      1 NMatT0=    0 NMatD0=    1 NMtDS0=    0 NMtDT0=    0
 Petite list used in FoFCou.
 Keep R1 ints in memory in canonical form, NReq=816308.
 Requested convergence on RMS density matrix=1.00D-08 within 128 cycles.
 Requested convergence on MAX density matrix=1.00D-06.
 Requested convergence on             energy=1.00D-06.
 No special actions if energy rises.
 SCF Done:  E(RHF) =  -39.7253883140     A.U. after   12 cycles
            NFock= 12  Conv=0.27D-08     -V/T= 2.0131

 **********************************************************************

            Population analysis using the SCF density.

 **********************************************************************

 Orbital symmetries:
       Occupied  (A) (A) (A) (A) (A)
       Virtual   (A) (A) (A) (A) (A) (A) (A) (A) (A) (A) (A) (A)
 The electronic state is 1-A.
 Alpha  occ. eigenvalues --  -11.26517  -0.92149  -0.59818  -0.55547  -0.30716
 Alpha virt. eigenvalues --    0.01482   0.25256   0.29304   0.32679   0.93190
 Alpha virt. eigenvalues --    0.96348   1.00127   1.13009   1.23017   1.28228
 Alpha virt. eigenvalues --    1.29662   1.70431
          Condensed to atoms (all electrons):
               1          2          3          4          5
     1  C    5.461389   0.335282   0.323550   0.337049   0.090062
     2  H    0.335282   0.474628  -0.020354  -0.032795   0.006768
     3  H    0.323550  -0.020354   0.403630  -0.015075   0.030972
     4  H    0.337049  -0.032795  -0.015075   0.476718   0.004586
     5  H    0.090062   0.006768   0.030972   0.004586   1.063542
 Mulliken charges:
               1
     1  C   -0.547333
     2  H    0.236470
     3  H    0.277276
     4  H    0.229517
     5  H   -0.195931
 Sum of Mulliken charges =   0.00000
 Mulliken charges with hydrogens summed into heavy atoms:
               1
     1  C    0.000000
 Electronic spatial extent (au):  <R**2>=             53.2562
 Charge=              0.0000 electrons
 Dipole moment (field-independent basis, Debye):
    X=             -1.3833    Y=              0.0890    Z=             -0.0120  Tot=              1.3863
 Quadrupole moment (field-independent basis, Debye-Ang):
   XX=            -12.5903   YY=             -8.8494   ZZ=             -9.0805
   XY=             -1.3278   XZ=             -0.9335   YZ=             -0.0609
 Traceless Quadrupole moment (field-independent basis, Debye-Ang):
   XX=             -2.4169   YY=              1.3240   ZZ=              1.0929
   XY=             -1.3278   XZ=             -0.9335   YZ=             -0.0609
 Octapole moment (field-independent basis, Debye-Ang**2):
  XXX=             -8.4265  YYY=             -0.2403  ZZZ=              0.5885  XYY=             -0.9114
  XXY=             -0.9528  XXZ=             -0.5134  XZZ=             -1.8168  YZZ=              0.6470
  YYZ=             -0.8002  XYZ=             -0.0243
 Hexadecapole moment (field-independent basis, Debye-Ang**3):
 XXXX=            -61.9079 YYYY=            -16.4085 ZZZZ=            -16.2269 XXXY=             -3.1132
 XXXZ=             -2.3917 YYYX=             -2.7120 YYYZ=             -0.5639 ZZZX=             -2.1519
 ZZZY=              0.0254 XXYY=            -11.9244 XXZZ=            -11.8900 YYZZ=             -5.3514
 XXYZ=              0.0461 YYXZ=             -0.6380 ZZXY=             -1.0030
 N-N= 1.108654208014D+01 E-N=-1.135396439806D+02  KE= 3.921073269309D+01
 1\1\GINC-NODE61\SP\RHF\3-21G\C1H4\YANZ\22-Sep-2023\0\\# hf/3-21g\\tmpd
 ir/M1_conf_249_0.gjf\\0,1\C,0,-0.385969,0.1514039,-0.7440576\H,0,-0.79
 09304,1.201435,-0.4399004\H,0,0.5797406,-0.1448201,-0.2500536\H,0,-1.3
 363768,-0.5515045,-0.6980318\H,0,-0.07588948,0.02968389,1.58718351\\Ve
 rsion=ES64L-G16RevA.03\State=1-A\HF=-39.7253883\RMSD=2.699e-09\Dipole=
 -0.2041766,0.0451703,-0.5037156\Quadrupole=1.3486771,0.8958151,-2.2444
 922,-0.0858253,0.1065235,0.1977415\PG=C01 [X(C1H4)]\\@


 I WANT IT ALL - RICH, THIN, AND CHOCOLATE.
 Job cpu time:       0 days  0 hours  0 minutes  1.6 seconds.
 Elapsed time:       0 days  0 hours  0 minutes  0.9 seconds.
 File lengths (MBytes):  RWF=      6 Int=      0 D2E=      0 Chk=      1 Scr=      1
 Normal termination of Gaussian 16 at Fri Sep 22 17:16:15 2023.
