 Entering Gaussian System, Link 0=g16
 Initial command:
 /share/apps/gaussian/g16/l1.exe "/tmp/55668.mgr/Gau-134830.inp" -scrdir="/tmp/55668.mgr/"
 Entering Link 1 = /share/apps/gaussian/g16/l1.exe PID=    134833.
  
 Copyright (c) 1988,1990,1992,1993,1995,1998,2003,2009,2016,
            Gaussian, Inc.  All Rights Reserved.
  
 This is part of the Gaussian(R) 16 program.  It is based on
 the Gaussian(R) 09 system (copyright 2009, Gaussian, Inc.),
 the Gaussian(R) 03 system (copyright 2003, Gaussian, Inc.),
 the Gaussian(R) 98 system (copyright 1998, Gaussian, Inc.),
 the Gaussian(R) 94 system (copyright 1995, Gaussian, Inc.),
 the Gaussian 92(TM) system (copyright 1992, Gaussian, Inc.),
 the Gaussian 90(TM) system (copyright 1990, Gaussian, Inc.),
 the Gaussian 88(TM) system (copyright 1988, Gaussian, Inc.),
 the Gaussian 86(TM) system (copyright 1986, Carnegie Mellon
 University), and the Gaussian 82(TM) system (copyright 1983,
 Carnegie Mellon University). Gaussian is a federally registered
 trademark of Gaussian, Inc.
  
 This software contains proprietary and confidential information,
 including trade secrets, belonging to Gaussian, Inc.
  
 This software is provided under written license and may be
 used, copied, transmitted, or stored only in accord with that
 written license.
  
 The following legend is applicable only to US Government
 contracts under FAR:
  
                    RESTRICTED RIGHTS LEGEND
  
 Use, reproduction and disclosure by the US Government is
 subject to restrictions as set forth in subparagraphs (a)
 and (c) of the Commercial Computer Software - Restricted
 Rights clause in FAR 52.227-19.
  
 Gaussian, Inc.
 340 Quinnipiac St., Bldg. 40, Wallingford CT 06492
  
  
 ---------------------------------------------------------------
 Warning -- This program may not be used in any manner that
 competes with the business of Gaussian, Inc. or will provide
 assistance to any competitor of Gaussian, Inc.  The licensee
 of this program is prohibited from giving any competitor of
 Gaussian, Inc. access to this program.  By using this program,
 the user acknowledges that Gaussian, Inc. is engaged in the
 business of creating and licensing software in the field of
 computational chemistry and represents and warrants to the
 licensee that it is not a competitor of Gaussian, Inc. and that
 it will not use this program in any manner prohibited above.
 ---------------------------------------------------------------
  

 Cite this work as:
 Gaussian 16, Revision A.03,
 M. J. Frisch, G. W. Trucks, H. B. Schlegel, G. E. Scuseria, 
 M. A. Robb, J. R. Cheeseman, G. Scalmani, V. Barone, 
 G. A. Petersson, H. Nakatsuji, X. Li, M. Caricato, A. V. Marenich, 
 J. Bloino, B. G. Janesko, R. Gomperts, B. Mennucci, H. P. Hratchian, 
 J. V. Ortiz, A. F. Izmaylov, J. L. Sonnenberg, D. Williams-Young, 
 F. Ding, F. Lipparini, F. Egidi, J. Goings, B. Peng, A. Petrone, 
 T. Henderson, D. Ranasinghe, V. G. Zakrzewski, J. Gao, N. Rega, 
 G. Zheng, W. Liang, M. Hada, M. Ehara, K. Toyota, R. Fukuda, 
 J. Hasegawa, M. Ishida, T. Nakajima, Y. Honda, O. Kitao, H. Nakai, 
 T. Vreven, K. Throssell, J. A. Montgomery, Jr., J. E. Peralta, 
 F. Ogliaro, M. J. Bearpark, J. J. Heyd, E. N. Brothers, K. N. Kudin, 
 V. N. Staroverov, T. A. Keith, R. Kobayashi, J. Normand, 
 K. Raghavachari, A. P. Rendell, J. C. Burant, S. S. Iyengar, 
 J. Tomasi, M. Cossi, J. M. Millam, M. Klene, C. Adamo, R. Cammi, 
 J. W. Ochterski, R. L. Martin, K. Morokuma, O. Farkas, 
 J. B. Foresman, and D. J. Fox, Gaussian, Inc., Wallingford CT, 2016.
 
 ******************************************
 Gaussian 16:  ES64L-G16RevA.03 25-Dec-2016
                22-Sep-2023 
 ******************************************
 %nprocshared=2
 Will use up to    2 processors via shared memory.
 %mem=2GB
 ----------
 # hf/3-21g
 ----------
 1/38=1,172=1/1;
 2/12=2,17=6,18=5,40=1/2;
 3/5=5,11=9,25=1,30=1/1,2,3;
 4//1;
 5/5=2,38=5/2;
 6/7=2,8=2,9=2,10=2,28=1/1;
 99/5=1,9=1/99;
 ----------------------
 tmpdir/M1_conf_4_0.gjf
 ----------------------
 Symbolic Z-matrix:
 Charge =  0 Multiplicity = 1
 C                    -0.30957   0.00915   0.63871 
 H                    -0.0297    0.91209   0.25685 
 H                     0.41933  -0.68251   0.29732 
 H                    -1.38471  -0.58924   0.6865 
 H                    -0.06061   0.00308   1.98814 
 
                          Input orientation:                          
 ---------------------------------------------------------------------
 Center     Atomic      Atomic             Coordinates (Angstroms)
 Number     Number       Type             X           Y           Z
 ---------------------------------------------------------------------
      1          6           0       -0.309565    0.009151    0.638709
      2          1           0       -0.029697    0.912090    0.256849
      3          1           0        0.419331   -0.682511    0.297319
      4          1           0       -1.384714   -0.589242    0.686495
      5          1           0       -0.060613    0.003077    1.988143
 ---------------------------------------------------------------------
                    Distance matrix (angstroms):
                    1          2          3          4          5
     1  C    0.000000
     2  H    1.019531   0.000000
     3  H    1.061241   1.657111   0.000000
     4  H    1.231382   2.067526   1.847900   0.000000
     5  H    1.372220   1.955669   1.886601   1.948942   0.000000
 Stoichiometry    CH4
 Framework group  C1[X(CH4)]
 Deg. of freedom     9
 Full point group                 C1      NOp   1
 Largest Abelian subgroup         C1      NOp   1
 Largest concise Abelian subgroup C1      NOp   1
                         Standard orientation:                         
 ---------------------------------------------------------------------
 Center     Atomic      Atomic             Coordinates (Angstroms)
 Number     Number       Type             X           Y           Z
 ---------------------------------------------------------------------
      1          6           0        0.048371   -0.051226   -0.038182
      2          1           0        0.918854    0.061588   -0.556810
      3          1           0        0.336073   -0.192168    0.973547
      4          1           0       -0.963407   -0.727410   -0.226289
      5          1           0       -0.581744    1.165344    0.038647
 ---------------------------------------------------------------------
 Rotational constants (GHZ):         152.9894368         140.4068353         119.3930240
 Standard basis: 3-21G (6D, 7F)
 There are    17 symmetry adapted cartesian basis functions of A   symmetry.
 There are    17 symmetry adapted basis functions of A   symmetry.
    17 basis functions,    27 primitive gaussians,    17 cartesian basis functions
     5 alpha electrons        5 beta electrons
       nuclear repulsion energy        12.6825987561 Hartrees.
 NAtoms=    5 NActive=    5 NUniq=    5 SFac= 1.00D+00 NAtFMM=   60 NAOKFM=F Big=F
 Integral buffers will be    131072 words long.
 Raffenetti 1 integral format.
 Two-electron integral symmetry is turned on.
 One-electron integrals computed using PRISM.
 NBasis=    17 RedAO= T EigKep=  3.82D-02  NBF=    17
 NBsUse=    17 1.00D-06 EigRej= -1.00D+00 NBFU=    17
 ExpMin= 1.83D-01 ExpMax= 1.72D+02 ExpMxC= 1.72D+02 IAcc=3 IRadAn=         5 AccDes= 0.00D+00
 Harris functional with IExCor=  205 and IRadAn=       5 diagonalized for initial guess.
 HarFok:  IExCor=  205 AccDes= 0.00D+00 IRadAn=         5 IDoV= 1 UseB2=F ITyADJ=14
 ICtDFT=  3500011 ScaDFX=  1.000000  1.000000  1.000000  1.000000
 FoFCou: FMM=F IPFlag=           0 FMFlag=      100000 FMFlg1=           0
         NFxFlg=           0 DoJE=T BraDBF=F KetDBF=T FulRan=T
         wScrn=  0.000000 ICntrl=       500 IOpCl=  0 I1Cent=   200000004 NGrid=           0
         NMat0=    1 NMatS0=      1 NMatT0=    0 NMatD0=    1 NMtDS0=    0 NMtDT0=    0
 Petite list used in FoFCou.
 Keep R1 ints in memory in canonical form, NReq=816379.
 Requested convergence on RMS density matrix=1.00D-08 within 128 cycles.
 Requested convergence on MAX density matrix=1.00D-06.
 Requested convergence on             energy=1.00D-06.
 No special actions if energy rises.
 SCF Done:  E(RHF) =  -39.9153552014     A.U. after    9 cycles
            NFock=  9  Conv=0.79D-08     -V/T= 2.0093

 **********************************************************************

            Population analysis using the SCF density.

 **********************************************************************

 Orbital symmetries:
       Occupied  (A) (A) (A) (A) (A)
       Virtual   (A) (A) (A) (A) (A) (A) (A) (A) (A) (A) (A) (A)
 The electronic state is 1-A.
 Alpha  occ. eigenvalues --  -11.18462  -0.92829  -0.58492  -0.52870  -0.45247
 Alpha virt. eigenvalues --    0.24528   0.26839   0.34179   0.36907   0.88494
 Alpha virt. eigenvalues --    1.00474   1.03956   1.19757   1.22344   1.36059
 Alpha virt. eigenvalues --    1.39910   1.91826
          Condensed to atoms (all electrons):
               1          2          3          4          5
     1  C    5.292687   0.375868   0.359034   0.359605   0.344092
     2  H    0.375868   0.455873  -0.040914  -0.005499  -0.019236
     3  H    0.359034  -0.040914   0.517264  -0.026899  -0.024145
     4  H    0.359605  -0.005499  -0.026899   0.511097  -0.027652
     5  H    0.344092  -0.019236  -0.024145  -0.027652   0.634571
 Mulliken charges:
               1
     1  C   -0.731286
     2  H    0.233908
     3  H    0.215659
     4  H    0.189349
     5  H    0.092371
 Sum of Mulliken charges =  -0.00000
 Mulliken charges with hydrogens summed into heavy atoms:
               1
     1  C   -0.000000
 Electronic spatial extent (au):  <R**2>=             38.9514
 Charge=             -0.0000 electrons
 Dipole moment (field-independent basis, Debye):
    X=              0.1381    Y=             -0.1552    Z=              0.1663  Tot=              0.2661
 Quadrupole moment (field-independent basis, Debye-Ang):
   XX=             -7.8744   YY=             -9.1067   ZZ=             -8.9887
   XY=              0.3083   XZ=             -0.1168   YZ=             -0.0612
 Traceless Quadrupole moment (field-independent basis, Debye-Ang):
   XX=              0.7822   YY=             -0.4502   ZZ=             -0.3321
   XY=              0.3083   XZ=             -0.1168   YZ=             -0.0612
 Octapole moment (field-independent basis, Debye-Ang**2):
  XXX=              0.6775  YYY=             -0.0140  ZZZ=              0.8137  XYY=             -0.5658
  XXY=             -0.5336  XXZ=             -0.4105  XZZ=              0.7449  YZZ=             -0.2734
  YYZ=              0.1112  XYZ=             -0.2252
 Hexadecapole moment (field-independent basis, Debye-Ang**3):
 XXXX=            -17.0101 YYYY=            -19.3401 ZZZZ=            -14.2647 XXXY=              1.1795
 XXXZ=             -0.4687 YYYX=              0.0168 YYYZ=             -0.0021 ZZZX=             -0.0760
 ZZZY=             -0.3418 XXYY=             -5.6929 XXZZ=             -5.3419 YYZZ=             -6.0511
 XXYZ=              0.0694 YYXZ=             -0.0010 ZZXY=              0.1595
 N-N= 1.268259875606D+01 E-N=-1.173845060121D+02  KE= 3.954660190629D+01
 1\1\GINC-NODE61\SP\RHF\3-21G\C1H4\YANZ\22-Sep-2023\0\\# hf/3-21g\\tmpd
 ir/M1_conf_4_0.gjf\\0,1\C,0,-0.3095654,0.0091509,0.6387085\H,0,-0.0296
 965,0.91209,0.2568488\H,0,0.4193311,-0.6825114,0.2973193\H,0,-1.384714
 1,-0.5892415,0.686495\H,0,-0.06061318,0.0030774,1.98814337\\Version=ES
 64L-G16RevA.03\State=1-A\HF=-39.9153552\RMSD=7.857e-09\Dipole=0.044011
 3,-0.0424321,-0.0849973\Quadrupole=0.0993658,0.1449045,-0.2442704,0.38
 52986,-0.2698803,-0.2262361\PG=C01 [X(C1H4)]\\@


 HICKORY, DICKORY, DOCK
 TWO MICE RAN UP THE CLOCK
 THE CLOCK STRUCK ONE...
 THE OTHER ESCAPED WITH MINOR INJURIES.
 Job cpu time:       0 days  0 hours  0 minutes  1.6 seconds.
 Elapsed time:       0 days  0 hours  0 minutes  0.9 seconds.
 File lengths (MBytes):  RWF=      6 Int=      0 D2E=      0 Chk=      1 Scr=      1
 Normal termination of Gaussian 16 at Fri Sep 22 17:11:15 2023.
