 Entering Gaussian System, Link 0=g16
 Initial command:
 /share/apps/gaussian/g16/l1.exe "/tmp/55668.mgr/Gau-137707.inp" -scrdir="/tmp/55668.mgr/"
 Entering Link 1 = /share/apps/gaussian/g16/l1.exe PID=    137709.
  
 Copyright (c) 1988,1990,1992,1993,1995,1998,2003,2009,2016,
            Gaussian, Inc.  All Rights Reserved.
  
 This is part of the Gaussian(R) 16 program.  It is based on
 the Gaussian(R) 09 system (copyright 2009, Gaussian, Inc.),
 the Gaussian(R) 03 system (copyright 2003, Gaussian, Inc.),
 the Gaussian(R) 98 system (copyright 1998, Gaussian, Inc.),
 the Gaussian(R) 94 system (copyright 1995, Gaussian, Inc.),
 the Gaussian 92(TM) system (copyright 1992, Gaussian, Inc.),
 the Gaussian 90(TM) system (copyright 1990, Gaussian, Inc.),
 the Gaussian 88(TM) system (copyright 1988, Gaussian, Inc.),
 the Gaussian 86(TM) system (copyright 1986, Carnegie Mellon
 University), and the Gaussian 82(TM) system (copyright 1983,
 Carnegie Mellon University). Gaussian is a federally registered
 trademark of Gaussian, Inc.
  
 This software contains proprietary and confidential information,
 including trade secrets, belonging to Gaussian, Inc.
  
 This software is provided under written license and may be
 used, copied, transmitted, or stored only in accord with that
 written license.
  
 The following legend is applicable only to US Government
 contracts under FAR:
  
                    RESTRICTED RIGHTS LEGEND
  
 Use, reproduction and disclosure by the US Government is
 subject to restrictions as set forth in subparagraphs (a)
 and (c) of the Commercial Computer Software - Restricted
 Rights clause in FAR 52.227-19.
  
 Gaussian, Inc.
 340 Quinnipiac St., Bldg. 40, Wallingford CT 06492
  
  
 ---------------------------------------------------------------
 Warning -- This program may not be used in any manner that
 competes with the business of Gaussian, Inc. or will provide
 assistance to any competitor of Gaussian, Inc.  The licensee
 of this program is prohibited from giving any competitor of
 Gaussian, Inc. access to this program.  By using this program,
 the user acknowledges that Gaussian, Inc. is engaged in the
 business of creating and licensing software in the field of
 computational chemistry and represents and warrants to the
 licensee that it is not a competitor of Gaussian, Inc. and that
 it will not use this program in any manner prohibited above.
 ---------------------------------------------------------------
  

 Cite this work as:
 Gaussian 16, Revision A.03,
 M. J. Frisch, G. W. Trucks, H. B. Schlegel, G. E. Scuseria, 
 M. A. Robb, J. R. Cheeseman, G. Scalmani, V. Barone, 
 G. A. Petersson, H. Nakatsuji, X. Li, M. Caricato, A. V. Marenich, 
 J. Bloino, B. G. Janesko, R. Gomperts, B. Mennucci, H. P. Hratchian, 
 J. V. Ortiz, A. F. Izmaylov, J. L. Sonnenberg, D. Williams-Young, 
 F. Ding, F. Lipparini, F. Egidi, J. Goings, B. Peng, A. Petrone, 
 T. Henderson, D. Ranasinghe, V. G. Zakrzewski, J. Gao, N. Rega, 
 G. Zheng, W. Liang, M. Hada, M. Ehara, K. Toyota, R. Fukuda, 
 J. Hasegawa, M. Ishida, T. Nakajima, Y. Honda, O. Kitao, H. Nakai, 
 T. Vreven, K. Throssell, J. A. Montgomery, Jr., J. E. Peralta, 
 F. Ogliaro, M. J. Bearpark, J. J. Heyd, E. N. Brothers, K. N. Kudin, 
 V. N. Staroverov, T. A. Keith, R. Kobayashi, J. Normand, 
 K. Raghavachari, A. P. Rendell, J. C. Burant, S. S. Iyengar, 
 J. Tomasi, M. Cossi, J. M. Millam, M. Klene, C. Adamo, R. Cammi, 
 J. W. Ochterski, R. L. Martin, K. Morokuma, O. Farkas, 
 J. B. Foresman, and D. J. Fox, Gaussian, Inc., Wallingford CT, 2016.
 
 ******************************************
 Gaussian 16:  ES64L-G16RevA.03 25-Dec-2016
                22-Sep-2023 
 ******************************************
 %nprocshared=2
 Will use up to    2 processors via shared memory.
 %mem=2GB
 ----------
 # hf/3-21g
 ----------
 1/38=1,172=1/1;
 2/12=2,17=6,18=5,40=1/2;
 3/5=5,11=9,25=1,30=1/1,2,3;
 4//1;
 5/5=2,38=5/2;
 6/7=2,8=2,9=2,10=2,28=1/1;
 99/5=1,9=1/99;
 -----------------------
 tmpdir/M1_conf_57_0.gjf
 -----------------------
 Symbolic Z-matrix:
 Charge =  0 Multiplicity = 1
 C                    -0.135    -0.12922   0.57536 
 H                    -0.17614   1.01029   0.33568 
 H                     0.76748  -0.796     0.19657 
 H                    -1.0708   -0.39663   0.16194 
 H                    -0.02413  -0.0279    1.92593 
 
                          Input orientation:                          
 ---------------------------------------------------------------------
 Center     Atomic      Atomic             Coordinates (Angstroms)
 Number     Number       Type             X           Y           Z
 ---------------------------------------------------------------------
      1          6           0       -0.134995   -0.129221    0.575359
      2          1           0       -0.176145    1.010292    0.335681
      3          1           0        0.767476   -0.795999    0.196567
      4          1           0       -1.070795   -0.396631    0.161940
      5          1           0       -0.024135   -0.027897    1.925929
 ---------------------------------------------------------------------
                    Distance matrix (angstroms):
                    1          2          3          4          5
     1  C    0.000000
     2  H    1.165173   0.000000
     3  H    1.184285   2.042659   0.000000
     4  H    1.057424   1.676311   1.881472   0.000000
     5  H    1.358896   1.905211   2.051176   2.084016   0.000000
 Stoichiometry    CH4
 Framework group  C1[X(CH4)]
 Deg. of freedom     9
 Full point group                 C1      NOp   1
 Largest Abelian subgroup         C1      NOp   1
 Largest concise Abelian subgroup C1      NOp   1
                         Standard orientation:                         
 ---------------------------------------------------------------------
 Center     Atomic      Atomic             Coordinates (Angstroms)
 Number     Number       Type             X           Y           Z
 ---------------------------------------------------------------------
      1          6           0       -0.040872    0.012319   -0.012120
      2          1           0        0.137334   -0.849327    0.751711
      3          1           0       -0.550859    1.026235    0.326136
      4          1           0       -0.602968   -0.537053   -0.719499
      5          1           0        1.261725    0.286233   -0.285630
 ---------------------------------------------------------------------
 Rotational constants (GHZ):         146.6912028         140.6132862         112.9301209
 Standard basis: 3-21G (6D, 7F)
 There are    17 symmetry adapted cartesian basis functions of A   symmetry.
 There are    17 symmetry adapted basis functions of A   symmetry.
    17 basis functions,    27 primitive gaussians,    17 cartesian basis functions
     5 alpha electrons        5 beta electrons
       nuclear repulsion energy        12.3907729914 Hartrees.
 NAtoms=    5 NActive=    5 NUniq=    5 SFac= 1.00D+00 NAtFMM=   60 NAOKFM=F Big=F
 Integral buffers will be    131072 words long.
 Raffenetti 1 integral format.
 Two-electron integral symmetry is turned on.
 One-electron integrals computed using PRISM.
 NBasis=    17 RedAO= T EigKep=  4.26D-02  NBF=    17
 NBsUse=    17 1.00D-06 EigRej= -1.00D+00 NBFU=    17
 ExpMin= 1.83D-01 ExpMax= 1.72D+02 ExpMxC= 1.72D+02 IAcc=3 IRadAn=         5 AccDes= 0.00D+00
 Harris functional with IExCor=  205 and IRadAn=       5 diagonalized for initial guess.
 HarFok:  IExCor=  205 AccDes= 0.00D+00 IRadAn=         5 IDoV= 1 UseB2=F ITyADJ=14
 ICtDFT=  3500011 ScaDFX=  1.000000  1.000000  1.000000  1.000000
 FoFCou: FMM=F IPFlag=           0 FMFlag=      100000 FMFlg1=           0
         NFxFlg=           0 DoJE=T BraDBF=F KetDBF=T FulRan=T
         wScrn=  0.000000 ICntrl=       500 IOpCl=  0 I1Cent=   200000004 NGrid=           0
         NMat0=    1 NMatS0=      1 NMatT0=    0 NMatD0=    1 NMtDS0=    0 NMtDT0=    0
 Petite list used in FoFCou.
 Keep R1 ints in memory in canonical form, NReq=816365.
 Requested convergence on RMS density matrix=1.00D-08 within 128 cycles.
 Requested convergence on MAX density matrix=1.00D-06.
 Requested convergence on             energy=1.00D-06.
 No special actions if energy rises.
 SCF Done:  E(RHF) =  -39.9232901647     A.U. after    9 cycles
            NFock=  9  Conv=0.54D-08     -V/T= 2.0132

 **********************************************************************

            Population analysis using the SCF density.

 **********************************************************************

 Orbital symmetries:
       Occupied  (A) (A) (A) (A) (A)
       Virtual   (A) (A) (A) (A) (A) (A) (A) (A) (A) (A) (A) (A)
 The electronic state is 1-A.
 Alpha  occ. eigenvalues --  -11.19340  -0.91465  -0.55662  -0.53102  -0.46101
 Alpha virt. eigenvalues --    0.24116   0.28014   0.33146   0.35090   0.91509
 Alpha virt. eigenvalues --    1.01043   1.03913   1.18511   1.23640   1.28436
 Alpha virt. eigenvalues --    1.36532   1.88636
          Condensed to atoms (all electrons):
               1          2          3          4          5
     1  C    5.282142   0.356194   0.365293   0.362264   0.347502
     2  H    0.356194   0.547032  -0.011394  -0.046093  -0.029876
     3  H    0.365293  -0.011394   0.499479  -0.023523  -0.020038
     4  H    0.362264  -0.046093  -0.023523   0.497620  -0.010196
     5  H    0.347502  -0.029876  -0.020038  -0.010196   0.593464
 Mulliken charges:
               1
     1  C   -0.713394
     2  H    0.184137
     3  H    0.190184
     4  H    0.219929
     5  H    0.119144
 Sum of Mulliken charges =  -0.00000
 Mulliken charges with hydrogens summed into heavy atoms:
               1
     1  C   -0.000000
 Electronic spatial extent (au):  <R**2>=             39.7646
 Charge=             -0.0000 electrons
 Dipole moment (field-independent basis, Debye):
    X=             -0.1720    Y=             -0.1680    Z=              0.0499  Tot=              0.2456
 Quadrupole moment (field-independent basis, Debye-Ang):
   XX=             -8.4988   YY=             -8.1818   ZZ=             -9.4008
   XY=             -0.0742   XZ=              0.2173   YZ=              0.1679
 Traceless Quadrupole moment (field-independent basis, Debye-Ang):
   XX=              0.1950   YY=              0.5120   ZZ=             -0.7070
   XY=             -0.0742   XZ=              0.2173   YZ=              0.1679
 Octapole moment (field-independent basis, Debye-Ang**2):
  XXX=              0.4041  YYY=             -0.1529  ZZZ=             -0.0237  XYY=             -0.8437
  XXY=              0.2231  XXZ=             -0.3755  XZZ=             -0.4426  YZZ=             -0.5743
  YYZ=              0.5052  XYZ=             -0.4943
 Hexadecapole moment (field-independent basis, Debye-Ang**3):
 XXXX=            -18.8304 YYYY=            -17.2164 ZZZZ=            -15.7075 XXXY=              0.4319
 XXXZ=              0.0304 YYYX=             -0.8017 YYYZ=              0.3568 ZZZX=              0.7354
 ZZZY=              0.1724 XXYY=             -6.2088 XXZZ=             -6.0072 YYZZ=             -5.2097
 XXYZ=              0.2271 YYXZ=              0.1471 ZZXY=              0.0179
 N-N= 1.239077299145D+01 E-N=-1.167171706780D+02  KE= 3.940241970691D+01
 1\1\GINC-NODE61\SP\RHF\3-21G\C1H4\YANZ\22-Sep-2023\0\\# hf/3-21g\\tmpd
 ir/M1_conf_57_0.gjf\\0,1\C,0,-0.1349953,-0.129221,0.5753586\H,0,-0.176
 1446,1.0102915,0.3356813\H,0,0.7674763,-0.7959986,0.1965667\H,0,-1.070
 7953,-0.3966313,0.16194\H,0,-0.02413461,-0.02789656,1.92592917\\Versio
 n=ES64L-G16RevA.03\State=1-A\HF=-39.9232902\RMSD=5.407e-09\Dipole=-0.0
 380513,0.0339044,-0.0820795\Quadrupole=0.0570387,-0.0193183,-0.0377204
 ,-0.3813205,0.2361542,0.2491858\PG=C01 [X(C1H4)]\\@


 CONFIDENCE IS WHAT YOU FEEL BEFORE YOU FULLY
 COMPREHEND THE SITUATION.
 Job cpu time:       0 days  0 hours  0 minutes  1.6 seconds.
 Elapsed time:       0 days  0 hours  0 minutes  0.9 seconds.
 File lengths (MBytes):  RWF=      6 Int=      0 D2E=      0 Chk=      1 Scr=      1
 Normal termination of Gaussian 16 at Fri Sep 22 17:12:17 2023.
