 Entering Gaussian System, Link 0=g16
 Initial command:
 /share/apps/gaussian/g16/l1.exe "/tmp/55668.mgr/Gau-143016.inp" -scrdir="/tmp/55668.mgr/"
 Entering Link 1 = /share/apps/gaussian/g16/l1.exe PID=    143020.
  
 Copyright (c) 1988,1990,1992,1993,1995,1998,2003,2009,2016,
            Gaussian, Inc.  All Rights Reserved.
  
 This is part of the Gaussian(R) 16 program.  It is based on
 the Gaussian(R) 09 system (copyright 2009, Gaussian, Inc.),
 the Gaussian(R) 03 system (copyright 2003, Gaussian, Inc.),
 the Gaussian(R) 98 system (copyright 1998, Gaussian, Inc.),
 the Gaussian(R) 94 system (copyright 1995, Gaussian, Inc.),
 the Gaussian 92(TM) system (copyright 1992, Gaussian, Inc.),
 the Gaussian 90(TM) system (copyright 1990, Gaussian, Inc.),
 the Gaussian 88(TM) system (copyright 1988, Gaussian, Inc.),
 the Gaussian 86(TM) system (copyright 1986, Carnegie Mellon
 University), and the Gaussian 82(TM) system (copyright 1983,
 Carnegie Mellon University). Gaussian is a federally registered
 trademark of Gaussian, Inc.
  
 This software contains proprietary and confidential information,
 including trade secrets, belonging to Gaussian, Inc.
  
 This software is provided under written license and may be
 used, copied, transmitted, or stored only in accord with that
 written license.
  
 The following legend is applicable only to US Government
 contracts under FAR:
  
                    RESTRICTED RIGHTS LEGEND
  
 Use, reproduction and disclosure by the US Government is
 subject to restrictions as set forth in subparagraphs (a)
 and (c) of the Commercial Computer Software - Restricted
 Rights clause in FAR 52.227-19.
  
 Gaussian, Inc.
 340 Quinnipiac St., Bldg. 40, Wallingford CT 06492
  
  
 ---------------------------------------------------------------
 Warning -- This program may not be used in any manner that
 competes with the business of Gaussian, Inc. or will provide
 assistance to any competitor of Gaussian, Inc.  The licensee
 of this program is prohibited from giving any competitor of
 Gaussian, Inc. access to this program.  By using this program,
 the user acknowledges that Gaussian, Inc. is engaged in the
 business of creating and licensing software in the field of
 computational chemistry and represents and warrants to the
 licensee that it is not a competitor of Gaussian, Inc. and that
 it will not use this program in any manner prohibited above.
 ---------------------------------------------------------------
  

 Cite this work as:
 Gaussian 16, Revision A.03,
 M. J. Frisch, G. W. Trucks, H. B. Schlegel, G. E. Scuseria, 
 M. A. Robb, J. R. Cheeseman, G. Scalmani, V. Barone, 
 G. A. Petersson, H. Nakatsuji, X. Li, M. Caricato, A. V. Marenich, 
 J. Bloino, B. G. Janesko, R. Gomperts, B. Mennucci, H. P. Hratchian, 
 J. V. Ortiz, A. F. Izmaylov, J. L. Sonnenberg, D. Williams-Young, 
 F. Ding, F. Lipparini, F. Egidi, J. Goings, B. Peng, A. Petrone, 
 T. Henderson, D. Ranasinghe, V. G. Zakrzewski, J. Gao, N. Rega, 
 G. Zheng, W. Liang, M. Hada, M. Ehara, K. Toyota, R. Fukuda, 
 J. Hasegawa, M. Ishida, T. Nakajima, Y. Honda, O. Kitao, H. Nakai, 
 T. Vreven, K. Throssell, J. A. Montgomery, Jr., J. E. Peralta, 
 F. Ogliaro, M. J. Bearpark, J. J. Heyd, E. N. Brothers, K. N. Kudin, 
 V. N. Staroverov, T. A. Keith, R. Kobayashi, J. Normand, 
 K. Raghavachari, A. P. Rendell, J. C. Burant, S. S. Iyengar, 
 J. Tomasi, M. Cossi, J. M. Millam, M. Klene, C. Adamo, R. Cammi, 
 J. W. Ochterski, R. L. Martin, K. Morokuma, O. Farkas, 
 J. B. Foresman, and D. J. Fox, Gaussian, Inc., Wallingford CT, 2016.
 
 ******************************************
 Gaussian 16:  ES64L-G16RevA.03 25-Dec-2016
                22-Sep-2023 
 ******************************************
 %nprocshared=2
 Will use up to    2 processors via shared memory.
 %mem=2GB
 ----------
 # hf/3-21g
 ----------
 1/38=1,172=1/1;
 2/12=2,17=6,18=5,40=1/2;
 3/5=5,11=9,25=1,30=1/1,2,3;
 4//1;
 5/5=2,38=5/2;
 6/7=2,8=2,9=2,10=2,28=1/1;
 99/5=1,9=1/99;
 ------------------------
 tmpdir/M1_conf_155_0.gjf
 ------------------------
 Symbolic Z-matrix:
 Charge =  0 Multiplicity = 1
 C                     0.16111  -0.02787  -0.02975 
 H                     0.30832   1.12784   0.04973 
 H                     1.06137  -0.57931  -0.08243 
 H                    -0.62031  -0.69098  -0.25665 
 H                     0.03325  -0.00476   1.49637 
 
                          Input orientation:                          
 ---------------------------------------------------------------------
 Center     Atomic      Atomic             Coordinates (Angstroms)
 Number     Number       Type             X           Y           Z
 ---------------------------------------------------------------------
      1          6           0        0.161109   -0.027870   -0.029751
      2          1           0        0.308318    1.127845    0.049732
      3          1           0        1.061374   -0.579312   -0.082433
      4          1           0       -0.620305   -0.690980   -0.256647
      5          1           0        0.033252   -0.004760    1.496370
 ---------------------------------------------------------------------
                    Distance matrix (angstroms):
                    1          2          3          4          5
     1  C    0.000000
     2  H    1.167760   0.000000
     3  H    1.057043   1.870546   0.000000
     4  H    1.049669   2.065026   1.694363   0.000000
     5  H    1.531642   1.857745   1.969711   1.992763   0.000000
 Stoichiometry    CH4
 Framework group  C1[X(CH4)]
 Deg. of freedom     9
 Full point group                 C1      NOp   1
 Largest Abelian subgroup         C1      NOp   1
 Largest concise Abelian subgroup C1      NOp   1
                         Standard orientation:                         
 ---------------------------------------------------------------------
 Center     Atomic      Atomic             Coordinates (Angstroms)
 Number     Number       Type             X           Y           Z
 ---------------------------------------------------------------------
      1          6           0       -0.099871   -0.078415   -0.040793
      2          1           0        0.712864   -0.883004   -0.276928
      3          1           0       -0.434926   -0.078508    0.961743
      4          1           0       -0.750590    0.541356   -0.583245
      5          1           0        1.071881    0.890644    0.143185
 ---------------------------------------------------------------------
 Rotational constants (GHZ):         151.5568433         129.0328297         112.9689025
 Standard basis: 3-21G (6D, 7F)
 There are    17 symmetry adapted cartesian basis functions of A   symmetry.
 There are    17 symmetry adapted basis functions of A   symmetry.
    17 basis functions,    27 primitive gaussians,    17 cartesian basis functions
     5 alpha electrons        5 beta electrons
       nuclear repulsion energy        12.4909883502 Hartrees.
 NAtoms=    5 NActive=    5 NUniq=    5 SFac= 1.00D+00 NAtFMM=   60 NAOKFM=F Big=F
 Integral buffers will be    131072 words long.
 Raffenetti 1 integral format.
 Two-electron integral symmetry is turned on.
 One-electron integrals computed using PRISM.
 NBasis=    17 RedAO= T EigKep=  4.09D-02  NBF=    17
 NBsUse=    17 1.00D-06 EigRej= -1.00D+00 NBFU=    17
 ExpMin= 1.83D-01 ExpMax= 1.72D+02 ExpMxC= 1.72D+02 IAcc=3 IRadAn=         5 AccDes= 0.00D+00
 Harris functional with IExCor=  205 and IRadAn=       5 diagonalized for initial guess.
 HarFok:  IExCor=  205 AccDes= 0.00D+00 IRadAn=         5 IDoV= 1 UseB2=F ITyADJ=14
 ICtDFT=  3500011 ScaDFX=  1.000000  1.000000  1.000000  1.000000
 FoFCou: FMM=F IPFlag=           0 FMFlag=      100000 FMFlg1=           0
         NFxFlg=           0 DoJE=T BraDBF=F KetDBF=T FulRan=T
         wScrn=  0.000000 ICntrl=       500 IOpCl=  0 I1Cent=   200000004 NGrid=           0
         NMat0=    1 NMatS0=      1 NMatT0=    0 NMatD0=    1 NMtDS0=    0 NMtDT0=    0
 Petite list used in FoFCou.
 Keep R1 ints in memory in canonical form, NReq=816365.
 Requested convergence on RMS density matrix=1.00D-08 within 128 cycles.
 Requested convergence on MAX density matrix=1.00D-06.
 Requested convergence on             energy=1.00D-06.
 No special actions if energy rises.
 SCF Done:  E(RHF) =  -39.8844083230     A.U. after   10 cycles
            NFock= 10  Conv=0.43D-08     -V/T= 2.0098

 **********************************************************************

            Population analysis using the SCF density.

 **********************************************************************

 Orbital symmetries:
       Occupied  (A) (A) (A) (A) (A)
       Virtual   (A) (A) (A) (A) (A) (A) (A) (A) (A) (A) (A) (A)
 The electronic state is 1-A.
 Alpha  occ. eigenvalues --  -11.19728  -0.92648  -0.59579  -0.55217  -0.40562
 Alpha virt. eigenvalues --    0.19668   0.26746   0.34514   0.36349   0.88746
 Alpha virt. eigenvalues --    1.02233   1.02916   1.19604   1.23980   1.35710
 Alpha virt. eigenvalues --    1.36976   1.88135
          Condensed to atoms (all electrons):
               1          2          3          4          5
     1  C    5.305819   0.364606   0.362374   0.372295   0.307803
     2  H    0.364606   0.460762  -0.023600  -0.005726  -0.031248
     3  H    0.362374  -0.023600   0.490685  -0.039166  -0.018002
     4  H    0.372295  -0.005726  -0.039166   0.444736  -0.018323
     5  H    0.307803  -0.031248  -0.018002  -0.018323   0.755973
 Mulliken charges:
               1
     1  C   -0.712897
     2  H    0.235206
     3  H    0.227709
     4  H    0.246184
     5  H    0.003797
 Sum of Mulliken charges =  -0.00000
 Mulliken charges with hydrogens summed into heavy atoms:
               1
     1  C   -0.000000
 Electronic spatial extent (au):  <R**2>=             40.2256
 Charge=              0.0000 electrons
 Dipole moment (field-independent basis, Debye):
    X=             -0.2424    Y=             -0.2197    Z=              0.0589  Tot=              0.3324
 Quadrupole moment (field-independent basis, Debye-Ang):
   XX=             -8.4573   YY=             -9.0948   ZZ=             -8.9301
   XY=             -1.1544   XZ=             -0.1435   YZ=             -0.2086
 Traceless Quadrupole moment (field-independent basis, Debye-Ang):
   XX=              0.3701   YY=             -0.2674   ZZ=             -0.1027
   XY=             -1.1544   XZ=             -0.1435   YZ=             -0.2086
 Octapole moment (field-independent basis, Debye-Ang**2):
  XXX=             -0.8650  YYY=             -0.9567  ZZZ=              0.7029  XYY=              0.0569
  XXY=             -0.2360  XXZ=             -0.2550  XZZ=             -0.9198  YZZ=             -0.0952
  YYZ=             -0.3158  XYZ=              0.4632
 Hexadecapole moment (field-independent basis, Debye-Ang**3):
 XXXX=            -21.2076 YYYY=            -19.5037 ZZZZ=            -14.3725 XXXY=             -2.0089
 XXXZ=             -0.0793 YYYX=             -2.2538 YYYZ=             -0.2865 ZZZX=             -0.5083
 ZZZY=             -0.5557 XXYY=             -5.9046 XXZZ=             -5.9668 YYZZ=             -5.8287
 XXYZ=             -0.0964 YYXZ=             -0.0118 ZZXY=             -0.7991
 N-N= 1.249098835019D+01 E-N=-1.168918762970D+02  KE= 3.949576058638D+01
 1\1\GINC-NODE61\SP\RHF\3-21G\C1H4\YANZ\22-Sep-2023\0\\# hf/3-21g\\tmpd
 ir/M1_conf_155_0.gjf\\0,1\C,0,0.1611091,-0.0278696,-0.029751\H,0,0.308
 3177,1.1278445,0.0497317\H,0,1.0613738,-0.5793115,-0.0824328\H,0,-0.62
 03051,-0.6909802,-0.2566468\H,0,0.03325228,-0.00475989,1.49637042\\Ver
 sion=ES64L-G16RevA.03\State=1-A\HF=-39.8844083\RMSD=4.278e-09\Dipole=0
 .0484305,-0.0094749,-0.1211086\Quadrupole=0.0479565,0.7446145,-0.79257
 1,0.2518106,0.1135076,0.4047993\PG=C01 [X(C1H4)]\\@


      HUMANKIND PERIODICALLY GOES THROUGH A SPEEDUP OF ITS AFFAIRS, 
      THEREBY EXPERIENCING THE RACE BETWEEN THE RENEWABLE VITALITY
      OF THE LIVING, AND THE BECKONING VITIATION OF DECADENCE.
      IN THIS PERIODIC RACE, ANY PAUSE BECOMES A LUXURY.
      ONLY THEN CAN ONE REFLECT THAT ALL IS PERMITTED;
      ALL IS POSSIBLE.

                              -- THE APOCRYPHA OF MUAD'DIB
                                 CHILDREN OF DUNE, BY FRANK HERBERT
 Job cpu time:       0 days  0 hours  0 minutes  1.6 seconds.
 Elapsed time:       0 days  0 hours  0 minutes  0.9 seconds.
 File lengths (MBytes):  RWF=      6 Int=      0 D2E=      0 Chk=      1 Scr=      1
 Normal termination of Gaussian 16 at Fri Sep 22 17:14:24 2023.
