 Entering Gaussian System, Link 0=g16
 Initial command:
 /share/apps/gaussian/g16/l1.exe "/tmp/55669.mgr/Gau-49290.inp" -scrdir="/tmp/55669.mgr/"
 Entering Link 1 = /share/apps/gaussian/g16/l1.exe PID=     49299.
  
 Copyright (c) 1988,1990,1992,1993,1995,1998,2003,2009,2016,
            Gaussian, Inc.  All Rights Reserved.
  
 This is part of the Gaussian(R) 16 program.  It is based on
 the Gaussian(R) 09 system (copyright 2009, Gaussian, Inc.),
 the Gaussian(R) 03 system (copyright 2003, Gaussian, Inc.),
 the Gaussian(R) 98 system (copyright 1998, Gaussian, Inc.),
 the Gaussian(R) 94 system (copyright 1995, Gaussian, Inc.),
 the Gaussian 92(TM) system (copyright 1992, Gaussian, Inc.),
 the Gaussian 90(TM) system (copyright 1990, Gaussian, Inc.),
 the Gaussian 88(TM) system (copyright 1988, Gaussian, Inc.),
 the Gaussian 86(TM) system (copyright 1986, Carnegie Mellon
 University), and the Gaussian 82(TM) system (copyright 1983,
 Carnegie Mellon University). Gaussian is a federally registered
 trademark of Gaussian, Inc.
  
 This software contains proprietary and confidential information,
 including trade secrets, belonging to Gaussian, Inc.
  
 This software is provided under written license and may be
 used, copied, transmitted, or stored only in accord with that
 written license.
  
 The following legend is applicable only to US Government
 contracts under FAR:
  
                    RESTRICTED RIGHTS LEGEND
  
 Use, reproduction and disclosure by the US Government is
 subject to restrictions as set forth in subparagraphs (a)
 and (c) of the Commercial Computer Software - Restricted
 Rights clause in FAR 52.227-19.
  
 Gaussian, Inc.
 340 Quinnipiac St., Bldg. 40, Wallingford CT 06492
  
  
 ---------------------------------------------------------------
 Warning -- This program may not be used in any manner that
 competes with the business of Gaussian, Inc. or will provide
 assistance to any competitor of Gaussian, Inc.  The licensee
 of this program is prohibited from giving any competitor of
 Gaussian, Inc. access to this program.  By using this program,
 the user acknowledges that Gaussian, Inc. is engaged in the
 business of creating and licensing software in the field of
 computational chemistry and represents and warrants to the
 licensee that it is not a competitor of Gaussian, Inc. and that
 it will not use this program in any manner prohibited above.
 ---------------------------------------------------------------
  

 Cite this work as:
 Gaussian 16, Revision A.03,
 M. J. Frisch, G. W. Trucks, H. B. Schlegel, G. E. Scuseria, 
 M. A. Robb, J. R. Cheeseman, G. Scalmani, V. Barone, 
 G. A. Petersson, H. Nakatsuji, X. Li, M. Caricato, A. V. Marenich, 
 J. Bloino, B. G. Janesko, R. Gomperts, B. Mennucci, H. P. Hratchian, 
 J. V. Ortiz, A. F. Izmaylov, J. L. Sonnenberg, D. Williams-Young, 
 F. Ding, F. Lipparini, F. Egidi, J. Goings, B. Peng, A. Petrone, 
 T. Henderson, D. Ranasinghe, V. G. Zakrzewski, J. Gao, N. Rega, 
 G. Zheng, W. Liang, M. Hada, M. Ehara, K. Toyota, R. Fukuda, 
 J. Hasegawa, M. Ishida, T. Nakajima, Y. Honda, O. Kitao, H. Nakai, 
 T. Vreven, K. Throssell, J. A. Montgomery, Jr., J. E. Peralta, 
 F. Ogliaro, M. J. Bearpark, J. J. Heyd, E. N. Brothers, K. N. Kudin, 
 V. N. Staroverov, T. A. Keith, R. Kobayashi, J. Normand, 
 K. Raghavachari, A. P. Rendell, J. C. Burant, S. S. Iyengar, 
 J. Tomasi, M. Cossi, J. M. Millam, M. Klene, C. Adamo, R. Cammi, 
 J. W. Ochterski, R. L. Martin, K. Morokuma, O. Farkas, 
 J. B. Foresman, and D. J. Fox, Gaussian, Inc., Wallingford CT, 2016.
 
 ******************************************
 Gaussian 16:  ES64L-G16RevA.03 25-Dec-2016
                22-Sep-2023 
 ******************************************
 %nprocshared=2
 Will use up to    2 processors via shared memory.
 %mem=2GB
 ----------
 # hf/3-21g
 ----------
 1/38=1,172=1/1;
 2/12=2,17=6,18=5,40=1/2;
 3/5=5,11=9,25=1,30=1/1,2,3;
 4//1;
 5/5=2,38=5/2;
 6/7=2,8=2,9=2,10=2,28=1/1;
 99/5=1,9=1/99;
 ------------------------
 tmpdir/M2_conf_298_3.gjf
 ------------------------
 Symbolic Z-matrix:
 Charge =  0 Multiplicity = 1
 C                     0.        0.        0. 
 Cl                    3.9749    0.        0. 
 H                    -0.30037   0.       -1.03052 
 H                    -0.30006  -0.89271   0.51541 
 H                    -0.3006    0.89267   0.51517 
 
                          Input orientation:                          
 ---------------------------------------------------------------------
 Center     Atomic      Atomic             Coordinates (Angstroms)
 Number     Number       Type             X           Y           Z
 ---------------------------------------------------------------------
      1          6           0        0.000000    0.000000    0.000000
      2         17           0        3.974900    0.000000    0.000000
      3          1           0       -0.300370    0.000000   -1.030520
      4          1           0       -0.300060   -0.892710    0.515410
      5          1           0       -0.300600    0.892670    0.515170
 ---------------------------------------------------------------------
                    Distance matrix (angstroms):
                    1          2          3          4          5
     1  C    0.000000
     2  Cl   3.974900   0.000000
     3  H    1.073403   4.397716   0.000000
     4  H    1.073599   4.397484   1.785170   0.000000
     5  H    1.073602   4.397972   1.784942   1.785380   0.000000
 Stoichiometry    CH3Cl
 Framework group  C1[X(CH3Cl)]
 Deg. of freedom     9
 Full point group                 C1      NOp   1
 Largest Abelian subgroup         C1      NOp   1
 Largest concise Abelian subgroup C1      NOp   1
                         Standard orientation:                         
 ---------------------------------------------------------------------
 Center     Atomic      Atomic             Coordinates (Angstroms)
 Number     Number       Type             X           Y           Z
 ---------------------------------------------------------------------
      1          6           0       -2.564318    0.000006    0.000008
      2         17           0        1.410582   -0.000007   -0.000001
      3          1           0       -2.864687   -0.278197    0.992265
      4          1           0       -2.864375    0.998714   -0.255263
      5          1           0       -2.864922   -0.720440   -0.737023
 ---------------------------------------------------------------------
 Rotational constants (GHZ):         157.3533138           2.9221657           2.9221503
 Standard basis: 3-21G (6D, 7F)
 There are    28 symmetry adapted cartesian basis functions of A   symmetry.
 There are    28 symmetry adapted basis functions of A   symmetry.
    28 basis functions,    51 primitive gaussians,    28 cartesian basis functions
    13 alpha electrons       13 beta electrons
       nuclear repulsion energy        29.4780781255 Hartrees.
 NAtoms=    5 NActive=    5 NUniq=    5 SFac= 1.00D+00 NAtFMM=   60 NAOKFM=F Big=F
 Integral buffers will be    131072 words long.
 Raffenetti 1 integral format.
 Two-electron integral symmetry is turned on.
 One-electron integrals computed using PRISM.
 NBasis=    28 RedAO= T EigKep=  4.14D-02  NBF=    28
 NBsUse=    28 1.00D-06 EigRej= -1.00D+00 NBFU=    28
 ExpMin= 1.67D-01 ExpMax= 1.38D+03 ExpMxC= 1.38D+03 IAcc=3 IRadAn=         5 AccDes= 0.00D+00
 Harris functional with IExCor=  205 and IRadAn=       5 diagonalized for initial guess.
 HarFok:  IExCor=  205 AccDes= 0.00D+00 IRadAn=         5 IDoV= 1 UseB2=F ITyADJ=14
 ICtDFT=  3500011 ScaDFX=  1.000000  1.000000  1.000000  1.000000
 FoFCou: FMM=F IPFlag=           0 FMFlag=      100000 FMFlg1=           0
         NFxFlg=           0 DoJE=T BraDBF=F KetDBF=T FulRan=T
         wScrn=  0.000000 ICntrl=       500 IOpCl=  0 I1Cent=   200000004 NGrid=           0
         NMat0=    1 NMatS0=      1 NMatT0=    0 NMatD0=    1 NMtDS0=    0 NMtDT0=    0
 Petite list used in FoFCou.
 Keep R1 ints in memory in canonical form, NReq=888668.
 Requested convergence on RMS density matrix=1.00D-08 within 128 cycles.
 Requested convergence on MAX density matrix=1.00D-06.
 Requested convergence on             energy=1.00D-06.
 No special actions if energy rises.
 SCF Done:  E(RHF) =  -496.489077367     A.U. after   10 cycles
            NFock= 10  Conv=0.95D-08     -V/T= 2.0012

 **********************************************************************

            Population analysis using the SCF density.

 **********************************************************************

 Orbital symmetries:
       Occupied  (A) (A) (A) (A) (A) (A) (A) (A) (A) (A) (A) (A)
                 (A)
       Virtual   (A) (A) (A) (A) (A) (A) (A) (A) (A) (A) (A) (A)
                 (A) (A) (A)
 The electronic state is 1-A.
 Alpha  occ. eigenvalues -- -103.98084 -11.39188 -10.36876  -7.83195  -7.83020
 Alpha  occ. eigenvalues --   -7.83020  -1.07365  -0.92153  -0.72611  -0.72606
 Alpha  occ. eigenvalues --   -0.34113  -0.34113  -0.30230
 Alpha virt. eigenvalues --   -0.12229   0.19298   0.23875   0.23879   0.75425
 Alpha virt. eigenvalues --    0.78145   0.78159   0.83614   0.90486   0.90486
 Alpha virt. eigenvalues --    0.94365   1.08659   1.20668   1.20677   1.61071
          Condensed to atoms (all electrons):
               1          2          3          4          5
     1  C    5.297333   0.021647   0.338899   0.338908   0.338896
     2  Cl   0.021647  17.592276  -0.000149  -0.000149  -0.000149
     3  H    0.338899  -0.000149   0.389399  -0.022257  -0.022280
     4  H    0.338908  -0.000149  -0.022257   0.389347  -0.022246
     5  H    0.338896  -0.000149  -0.022280  -0.022246   0.389407
 Mulliken charges:
               1
     1  C   -0.335683
     2  Cl  -0.613475
     3  H    0.316388
     4  H    0.316398
     5  H    0.316372
 Sum of Mulliken charges =  -0.00000
 Mulliken charges with hydrogens summed into heavy atoms:
               1
     1  C    0.613475
     2  Cl  -0.613475
 Electronic spatial extent (au):  <R**2>=            393.7961
 Charge=             -0.0000 electrons
 Dipole moment (field-independent basis, Debye):
    X=            -12.1115    Y=              0.0001    Z=              0.0000  Tot=             12.1115
 Quadrupole moment (field-independent basis, Debye-Ang):
   XX=             -3.3810   YY=            -20.3759   ZZ=            -20.3775
   XY=              0.0002   XZ=              0.0000   YZ=             -0.0001
 Traceless Quadrupole moment (field-independent basis, Debye-Ang):
   XX=             11.3305   YY=             -5.6644   ZZ=             -5.6661
   XY=              0.0002   XZ=              0.0000   YZ=             -0.0001
 Octapole moment (field-independent basis, Debye-Ang**2):
  XXX=            -76.7109  YYY=              0.8089  ZZZ=              0.7543  XYY=             -5.9345
  XXY=             -0.0013  XXZ=             -0.0004  XZZ=             -5.9301  YZZ=             -0.8080
  YYZ=             -0.7543  XYZ=             -0.0000
 Hexadecapole moment (field-independent basis, Debye-Ang**3):
 XXXX=           -298.6876 YYYY=            -27.4575 ZZZZ=            -27.4577 XXXY=              0.0081
 XXXZ=              0.0015 YYYX=             -2.3935 YYYZ=             -0.0004 ZZZX=             -2.2324
 ZZZY=             -0.0001 XXYY=            -74.3145 XXZZ=            -74.3258 YYZZ=             -9.1526
 XXYZ=              0.0008 YYXZ=              2.2329 ZZXY=              2.3920
 N-N= 2.947807812549D+01 E-N=-1.240508492912D+03  KE= 4.959056611655D+02
 1\1\GINC-NODE62\SP\RHF\3-21G\C1H3Cl1\YANZ\22-Sep-2023\0\\# hf/3-21g\\t
 mpdir/M2_conf_298_3.gjf\\0,1\C,0,0.,0.,0.\Cl,0,3.9749,0.,0.\H,0,-0.300
 37,0.,-1.03052\H,0,-0.30006,-0.89271,0.51541\H,0,-0.3006,0.89267,0.515
 17\\Version=ES64L-G16RevA.03\State=1-A\HF=-496.4890774\RMSD=9.470e-09\
 Dipole=-4.7650231,-0.0000075,-0.0000062\Quadrupole=8.4239293,-4.211482
 5,-4.2124469,-0.0002026,-0.0000067,-0.0003822\PG=C01 [X(C1H3Cl1)]\\@


 THE PROGRESS OF RIVERS TO THE SEA IS NOT AS RAPID
 AS THAT OF MAN TO ERROR.
                                              -- VOLTAIRE
 Job cpu time:       0 days  0 hours  0 minutes  2.0 seconds.
 Elapsed time:       0 days  0 hours  0 minutes  1.1 seconds.
 File lengths (MBytes):  RWF=      6 Int=      0 D2E=      0 Chk=      1 Scr=      1
 Normal termination of Gaussian 16 at Fri Sep 22 17:21:46 2023.
