 Entering Gaussian System, Link 0=g16
 Initial command:
 /share/apps/gaussian/g16/l1.exe "/tmp/55669.mgr/Gau-8750.inp" -scrdir="/tmp/55669.mgr/"
 Entering Link 1 = /share/apps/gaussian/g16/l1.exe PID=      8757.
  
 Copyright (c) 1988,1990,1992,1993,1995,1998,2003,2009,2016,
            Gaussian, Inc.  All Rights Reserved.
  
 This is part of the Gaussian(R) 16 program.  It is based on
 the Gaussian(R) 09 system (copyright 2009, Gaussian, Inc.),
 the Gaussian(R) 03 system (copyright 2003, Gaussian, Inc.),
 the Gaussian(R) 98 system (copyright 1998, Gaussian, Inc.),
 the Gaussian(R) 94 system (copyright 1995, Gaussian, Inc.),
 the Gaussian 92(TM) system (copyright 1992, Gaussian, Inc.),
 the Gaussian 90(TM) system (copyright 1990, Gaussian, Inc.),
 the Gaussian 88(TM) system (copyright 1988, Gaussian, Inc.),
 the Gaussian 86(TM) system (copyright 1986, Carnegie Mellon
 University), and the Gaussian 82(TM) system (copyright 1983,
 Carnegie Mellon University). Gaussian is a federally registered
 trademark of Gaussian, Inc.
  
 This software contains proprietary and confidential information,
 including trade secrets, belonging to Gaussian, Inc.
  
 This software is provided under written license and may be
 used, copied, transmitted, or stored only in accord with that
 written license.
  
 The following legend is applicable only to US Government
 contracts under FAR:
  
                    RESTRICTED RIGHTS LEGEND
  
 Use, reproduction and disclosure by the US Government is
 subject to restrictions as set forth in subparagraphs (a)
 and (c) of the Commercial Computer Software - Restricted
 Rights clause in FAR 52.227-19.
  
 Gaussian, Inc.
 340 Quinnipiac St., Bldg. 40, Wallingford CT 06492
  
  
 ---------------------------------------------------------------
 Warning -- This program may not be used in any manner that
 competes with the business of Gaussian, Inc. or will provide
 assistance to any competitor of Gaussian, Inc.  The licensee
 of this program is prohibited from giving any competitor of
 Gaussian, Inc. access to this program.  By using this program,
 the user acknowledges that Gaussian, Inc. is engaged in the
 business of creating and licensing software in the field of
 computational chemistry and represents and warrants to the
 licensee that it is not a competitor of Gaussian, Inc. and that
 it will not use this program in any manner prohibited above.
 ---------------------------------------------------------------
  

 Cite this work as:
 Gaussian 16, Revision A.03,
 M. J. Frisch, G. W. Trucks, H. B. Schlegel, G. E. Scuseria, 
 M. A. Robb, J. R. Cheeseman, G. Scalmani, V. Barone, 
 G. A. Petersson, H. Nakatsuji, X. Li, M. Caricato, A. V. Marenich, 
 J. Bloino, B. G. Janesko, R. Gomperts, B. Mennucci, H. P. Hratchian, 
 J. V. Ortiz, A. F. Izmaylov, J. L. Sonnenberg, D. Williams-Young, 
 F. Ding, F. Lipparini, F. Egidi, J. Goings, B. Peng, A. Petrone, 
 T. Henderson, D. Ranasinghe, V. G. Zakrzewski, J. Gao, N. Rega, 
 G. Zheng, W. Liang, M. Hada, M. Ehara, K. Toyota, R. Fukuda, 
 J. Hasegawa, M. Ishida, T. Nakajima, Y. Honda, O. Kitao, H. Nakai, 
 T. Vreven, K. Throssell, J. A. Montgomery, Jr., J. E. Peralta, 
 F. Ogliaro, M. J. Bearpark, J. J. Heyd, E. N. Brothers, K. N. Kudin, 
 V. N. Staroverov, T. A. Keith, R. Kobayashi, J. Normand, 
 K. Raghavachari, A. P. Rendell, J. C. Burant, S. S. Iyengar, 
 J. Tomasi, M. Cossi, J. M. Millam, M. Klene, C. Adamo, R. Cammi, 
 J. W. Ochterski, R. L. Martin, K. Morokuma, O. Farkas, 
 J. B. Foresman, and D. J. Fox, Gaussian, Inc., Wallingford CT, 2016.
 
 ******************************************
 Gaussian 16:  ES64L-G16RevA.03 25-Dec-2016
                22-Sep-2023 
 ******************************************
 %nprocshared=2
 Will use up to    2 processors via shared memory.
 %mem=2GB
 ----------
 # hf/3-21g
 ----------
 1/38=1,172=1/1;
 2/12=2,17=6,18=5,40=1/2;
 3/5=5,11=9,25=1,30=1/1,2,3;
 4//1;
 5/5=2,38=5/2;
 6/7=2,8=2,9=2,10=2,28=1/1;
 99/5=1,9=1/99;
 -----------------------
 tmpdir/M2_conf_19_2.gjf
 -----------------------
 Symbolic Z-matrix:
 Charge =  0 Multiplicity = 1
 C                     0.        0.        0. 
 H                     0.9498    0.        0. 
 H                    -0.41043   0.       -0.99184 
 H                    -0.41102   0.77835   0.6147 
 H                    -0.34087  -1.05167   0.50976 
 
                          Input orientation:                          
 ---------------------------------------------------------------------
 Center     Atomic      Atomic             Coordinates (Angstroms)
 Number     Number       Type             X           Y           Z
 ---------------------------------------------------------------------
      1          6           0        0.000000    0.000000    0.000000
      2          1           0        0.949800    0.000000    0.000000
      3          1           0       -0.410430    0.000000   -0.991840
      4          1           0       -0.411020    0.778350    0.614700
      5          1           0       -0.340870   -1.051670    0.509760
 ---------------------------------------------------------------------
                    Distance matrix (angstroms):
                    1          2          3          4          5
     1  C    0.000000
     2  H    0.949800   0.000000
     3  H    1.073406   1.683441   0.000000
     4  H    1.073602   1.683899   1.785161   0.000000
     5  H    1.217398   1.741176   1.834571   1.834368   0.000000
 Stoichiometry    CH4
 Framework group  C1[X(CH4)]
 Deg. of freedom     9
 Full point group                 C1      NOp   1
 Largest Abelian subgroup         C1      NOp   1
 Largest concise Abelian subgroup C1      NOp   1
                         Standard orientation:                         
 ---------------------------------------------------------------------
 Center     Atomic      Atomic             Coordinates (Angstroms)
 Number     Number       Type             X           Y           Z
 ---------------------------------------------------------------------
      1          6           0        0.032267    0.000013    0.018259
      2          1           0        0.122821   -0.001917    0.963730
      3          1           0        0.425611   -0.890693   -0.433542
      4          1           0        0.421571    0.894461   -0.430103
      5          1           0       -1.163607   -0.001928   -0.209639
 ---------------------------------------------------------------------
 Rotational constants (GHZ):         170.4297516         162.4431584         150.5211187
 Standard basis: 3-21G (6D, 7F)
 There are    17 symmetry adapted cartesian basis functions of A   symmetry.
 There are    17 symmetry adapted basis functions of A   symmetry.
    17 basis functions,    27 primitive gaussians,    17 cartesian basis functions
     5 alpha electrons        5 beta electrons
       nuclear repulsion energy        13.6721528299 Hartrees.
 NAtoms=    5 NActive=    5 NUniq=    5 SFac= 1.00D+00 NAtFMM=   60 NAOKFM=F Big=F
 Integral buffers will be    131072 words long.
 Raffenetti 1 integral format.
 Two-electron integral symmetry is turned on.
 One-electron integrals computed using PRISM.
 NBasis=    17 RedAO= T EigKep=  3.05D-02  NBF=    17
 NBsUse=    17 1.00D-06 EigRej= -1.00D+00 NBFU=    17
 ExpMin= 1.83D-01 ExpMax= 1.72D+02 ExpMxC= 1.72D+02 IAcc=3 IRadAn=         5 AccDes= 0.00D+00
 Harris functional with IExCor=  205 and IRadAn=       5 diagonalized for initial guess.
 HarFok:  IExCor=  205 AccDes= 0.00D+00 IRadAn=         5 IDoV= 1 UseB2=F ITyADJ=14
 ICtDFT=  3500011 ScaDFX=  1.000000  1.000000  1.000000  1.000000
 FoFCou: FMM=F IPFlag=           0 FMFlag=      100000 FMFlg1=           0
         NFxFlg=           0 DoJE=T BraDBF=F KetDBF=T FulRan=T
         wScrn=  0.000000 ICntrl=       500 IOpCl=  0 I1Cent=   200000004 NGrid=           0
         NMat0=    1 NMatS0=      1 NMatT0=    0 NMatD0=    1 NMtDS0=    0 NMtDT0=    0
 Petite list used in FoFCou.
 Keep R1 ints in memory in canonical form, NReq=816445.
 Requested convergence on RMS density matrix=1.00D-08 within 128 cycles.
 Requested convergence on MAX density matrix=1.00D-06.
 Requested convergence on             energy=1.00D-06.
 No special actions if energy rises.
 SCF Done:  E(RHF) =  -39.9518231618     A.U. after    9 cycles
            NFock=  9  Conv=0.17D-08     -V/T= 1.9993

 **********************************************************************

            Population analysis using the SCF density.

 **********************************************************************

 Orbital symmetries:
       Occupied  (A) (A) (A) (A) (A)
       Virtual   (A) (A) (A) (A) (A) (A) (A) (A) (A) (A) (A) (A)
 The electronic state is 1-A.
 Alpha  occ. eigenvalues --  -11.14305  -0.95495  -0.58362  -0.55483  -0.50289
 Alpha virt. eigenvalues --    0.28592   0.32688   0.35680   0.38488   0.86334
 Alpha virt. eigenvalues --    0.92220   0.97599   1.25490   1.34485   1.37158
 Alpha virt. eigenvalues --    1.49750   1.96876
          Condensed to atoms (all electrons):
               1          2          3          4          5
     1  C    5.296398   0.373853   0.374233   0.374224   0.364095
     2  H    0.373853   0.475878  -0.027946  -0.027894  -0.028211
     3  H    0.374233  -0.027946   0.499242  -0.022929  -0.023968
     4  H    0.374224  -0.027894  -0.022929   0.499275  -0.024002
     5  H    0.364095  -0.028211  -0.023968  -0.024002   0.566296
 Mulliken charges:
               1
     1  C   -0.782803
     2  H    0.234319
     3  H    0.201369
     4  H    0.201326
     5  H    0.145789
 Sum of Mulliken charges =  -0.00000
 Mulliken charges with hydrogens summed into heavy atoms:
               1
     1  C   -0.000000
 Electronic spatial extent (au):  <R**2>=             35.3974
 Charge=             -0.0000 electrons
 Dipole moment (field-independent basis, Debye):
    X=              0.0876    Y=             -0.0000    Z=              0.0765  Tot=              0.1163
 Quadrupole moment (field-independent basis, Debye-Ang):
   XX=             -8.5228   YY=             -8.2632   ZZ=             -8.3685
   XY=             -0.0010   XZ=             -0.0493   YZ=             -0.0006
 Traceless Quadrupole moment (field-independent basis, Debye-Ang):
   XX=             -0.1379   YY=              0.1216   ZZ=              0.0163
   XY=             -0.0010   XZ=             -0.0493   YZ=             -0.0006
 Octapole moment (field-independent basis, Debye-Ang**2):
  XXX=             -0.4177  YYY=              0.0065  ZZZ=              0.9735  XYY=              0.6730
  XXY=             -0.0037  XXZ=             -0.1274  XZZ=              0.3231  YZZ=             -0.0030
  YYZ=             -0.3843  XYZ=              0.0012
 Hexadecapole moment (field-independent basis, Debye-Ang**3):
 XXXX=            -16.0807 YYYY=            -14.4412 ZZZZ=            -13.1500 XXXY=             -0.0007
 XXXZ=              0.2005 YYYX=             -0.0012 YYYZ=             -0.0028 ZZZX=             -0.0582
 ZZZY=             -0.0013 XXYY=             -5.3585 XXZZ=             -5.2131 YYZZ=             -4.6501
 XXYZ=              0.0019 YYXZ=             -0.3486 ZZXY=             -0.0024
 N-N= 1.367215282992D+01 E-N=-1.197504473727D+02  KE= 3.998116096152D+01
 1\1\GINC-NODE62\SP\RHF\3-21G\C1H4\YANZ\22-Sep-2023\0\\# hf/3-21g\\tmpd
 ir/M2_conf_19_2.gjf\\0,1\C,0,0.,0.,0.\H,0,0.9498,0.,0.\H,0,-0.41043,0.
 ,-0.99184\H,0,-0.41102,0.77835,0.6147\H,0,-0.34087,-1.05167,0.50976\\V
 ersion=ES64L-G16RevA.03\State=1-A\HF=-39.9518232\RMSD=1.738e-09\Dipole
 =0.0332346,0.0282989,-0.0137386\Quadrupole=0.0041564,-0.0596866,0.0555
 303,-0.042417,0.0199408,0.0723385\PG=C01 [X(C1H4)]\\@


 ERWIN WITH HIS PSI CAN DO
 CALCULATIONS QUITE A FEW.
 BUT ONE THING HAS NOT BEEN SEEN
 JUST WHAT DOES PSI REALLY MEAN.
 -- WALTER HUCKEL, TRANS. BY FELIX BLOCH
 Job cpu time:       0 days  0 hours  0 minutes  1.8 seconds.
 Elapsed time:       0 days  0 hours  0 minutes  1.0 seconds.
 File lengths (MBytes):  RWF=      6 Int=      0 D2E=      0 Chk=      1 Scr=      1
 Normal termination of Gaussian 16 at Fri Sep 22 17:14:36 2023.
