 Entering Gaussian System, Link 0=g16
 Initial command:
 /share/apps/gaussian/g16/l1.exe "/tmp/55669.mgr/Gau-42458.inp" -scrdir="/tmp/55669.mgr/"
 Entering Link 1 = /share/apps/gaussian/g16/l1.exe PID=     42468.
  
 Copyright (c) 1988,1990,1992,1993,1995,1998,2003,2009,2016,
            Gaussian, Inc.  All Rights Reserved.
  
 This is part of the Gaussian(R) 16 program.  It is based on
 the Gaussian(R) 09 system (copyright 2009, Gaussian, Inc.),
 the Gaussian(R) 03 system (copyright 2003, Gaussian, Inc.),
 the Gaussian(R) 98 system (copyright 1998, Gaussian, Inc.),
 the Gaussian(R) 94 system (copyright 1995, Gaussian, Inc.),
 the Gaussian 92(TM) system (copyright 1992, Gaussian, Inc.),
 the Gaussian 90(TM) system (copyright 1990, Gaussian, Inc.),
 the Gaussian 88(TM) system (copyright 1988, Gaussian, Inc.),
 the Gaussian 86(TM) system (copyright 1986, Carnegie Mellon
 University), and the Gaussian 82(TM) system (copyright 1983,
 Carnegie Mellon University). Gaussian is a federally registered
 trademark of Gaussian, Inc.
  
 This software contains proprietary and confidential information,
 including trade secrets, belonging to Gaussian, Inc.
  
 This software is provided under written license and may be
 used, copied, transmitted, or stored only in accord with that
 written license.
  
 The following legend is applicable only to US Government
 contracts under FAR:
  
                    RESTRICTED RIGHTS LEGEND
  
 Use, reproduction and disclosure by the US Government is
 subject to restrictions as set forth in subparagraphs (a)
 and (c) of the Commercial Computer Software - Restricted
 Rights clause in FAR 52.227-19.
  
 Gaussian, Inc.
 340 Quinnipiac St., Bldg. 40, Wallingford CT 06492
  
  
 ---------------------------------------------------------------
 Warning -- This program may not be used in any manner that
 competes with the business of Gaussian, Inc. or will provide
 assistance to any competitor of Gaussian, Inc.  The licensee
 of this program is prohibited from giving any competitor of
 Gaussian, Inc. access to this program.  By using this program,
 the user acknowledges that Gaussian, Inc. is engaged in the
 business of creating and licensing software in the field of
 computational chemistry and represents and warrants to the
 licensee that it is not a competitor of Gaussian, Inc. and that
 it will not use this program in any manner prohibited above.
 ---------------------------------------------------------------
  

 Cite this work as:
 Gaussian 16, Revision A.03,
 M. J. Frisch, G. W. Trucks, H. B. Schlegel, G. E. Scuseria, 
 M. A. Robb, J. R. Cheeseman, G. Scalmani, V. Barone, 
 G. A. Petersson, H. Nakatsuji, X. Li, M. Caricato, A. V. Marenich, 
 J. Bloino, B. G. Janesko, R. Gomperts, B. Mennucci, H. P. Hratchian, 
 J. V. Ortiz, A. F. Izmaylov, J. L. Sonnenberg, D. Williams-Young, 
 F. Ding, F. Lipparini, F. Egidi, J. Goings, B. Peng, A. Petrone, 
 T. Henderson, D. Ranasinghe, V. G. Zakrzewski, J. Gao, N. Rega, 
 G. Zheng, W. Liang, M. Hada, M. Ehara, K. Toyota, R. Fukuda, 
 J. Hasegawa, M. Ishida, T. Nakajima, Y. Honda, O. Kitao, H. Nakai, 
 T. Vreven, K. Throssell, J. A. Montgomery, Jr., J. E. Peralta, 
 F. Ogliaro, M. J. Bearpark, J. J. Heyd, E. N. Brothers, K. N. Kudin, 
 V. N. Staroverov, T. A. Keith, R. Kobayashi, J. Normand, 
 K. Raghavachari, A. P. Rendell, J. C. Burant, S. S. Iyengar, 
 J. Tomasi, M. Cossi, J. M. Millam, M. Klene, C. Adamo, R. Cammi, 
 J. W. Ochterski, R. L. Martin, K. Morokuma, O. Farkas, 
 J. B. Foresman, and D. J. Fox, Gaussian, Inc., Wallingford CT, 2016.
 
 ******************************************
 Gaussian 16:  ES64L-G16RevA.03 25-Dec-2016
                22-Sep-2023 
 ******************************************
 %nprocshared=2
 Will use up to    2 processors via shared memory.
 %mem=2GB
 ----------
 # hf/3-21g
 ----------
 1/38=1,172=1/1;
 2/12=2,17=6,18=5,40=1/2;
 3/5=5,11=9,25=1,30=1/1,2,3;
 4//1;
 5/5=2,38=5/2;
 6/7=2,8=2,9=2,10=2,28=1/1;
 99/5=1,9=1/99;
 ------------------------
 tmpdir/M2_conf_251_7.gjf
 ------------------------
 Symbolic Z-matrix:
 Charge =  0 Multiplicity = 1
 H                     0.        0.        0. 
 C                     1.0736    0.        0. 
 H                     1.6387    0.        0.91284 
 H                     1.48437   0.77836  -0.61449 
 H                     1.41386  -1.05183  -0.50984 
 
                          Input orientation:                          
 ---------------------------------------------------------------------
 Center     Atomic      Atomic             Coordinates (Angstroms)
 Number     Number       Type             X           Y           Z
 ---------------------------------------------------------------------
      1          1           0        0.000000    0.000000    0.000000
      2          6           0        1.073600    0.000000    0.000000
      3          1           0        1.638700    0.000000    0.912840
      4          1           0        1.484370    0.778360   -0.614490
      5          1           0        1.413860   -1.051830   -0.509840
 ---------------------------------------------------------------------
                    Distance matrix (angstroms):
                    1          2          3          4          5
     1  H    0.000000
     2  C    1.073600   0.000000
     3  H    1.875797   1.073599   0.000000
     4  H    1.785160   1.073394   1.721162   0.000000
     5  H    1.834471   1.217399   1.783513   1.834535   0.000000
 Stoichiometry    CH4
 Framework group  C1[X(CH4)]
 Deg. of freedom     9
 Full point group                 C1      NOp   1
 Largest Abelian subgroup         C1      NOp   1
 Largest concise Abelian subgroup C1      NOp   1
                         Standard orientation:                         
 ---------------------------------------------------------------------
 Center     Atomic      Atomic             Coordinates (Angstroms)
 Number     Number       Type             X           Y           Z
 ---------------------------------------------------------------------
      1          1           0       -1.037467    0.132940   -0.335360
      2          6           0       -0.023551   -0.027933   -0.021176
      3          1           0        0.736722   -0.348768   -0.707955
      4          1           0        0.044045   -0.673273    0.833892
      5          1           0        0.398005    1.056702    0.336479
 ---------------------------------------------------------------------
 Rotational constants (GHZ):         159.5301335         156.1425467         143.2048318
 Standard basis: 3-21G (6D, 7F)
 There are    17 symmetry adapted cartesian basis functions of A   symmetry.
 There are    17 symmetry adapted basis functions of A   symmetry.
    17 basis functions,    27 primitive gaussians,    17 cartesian basis functions
     5 alpha electrons        5 beta electrons
       nuclear repulsion energy        13.2404522210 Hartrees.
 NAtoms=    5 NActive=    5 NUniq=    5 SFac= 1.00D+00 NAtFMM=   60 NAOKFM=F Big=F
 Integral buffers will be    131072 words long.
 Raffenetti 1 integral format.
 Two-electron integral symmetry is turned on.
 One-electron integrals computed using PRISM.
 NBasis=    17 RedAO= T EigKep=  3.55D-02  NBF=    17
 NBsUse=    17 1.00D-06 EigRej= -1.00D+00 NBFU=    17
 ExpMin= 1.83D-01 ExpMax= 1.72D+02 ExpMxC= 1.72D+02 IAcc=3 IRadAn=         5 AccDes= 0.00D+00
 Harris functional with IExCor=  205 and IRadAn=       5 diagonalized for initial guess.
 HarFok:  IExCor=  205 AccDes= 0.00D+00 IRadAn=         5 IDoV= 1 UseB2=F ITyADJ=14
 ICtDFT=  3500011 ScaDFX=  1.000000  1.000000  1.000000  1.000000
 FoFCou: FMM=F IPFlag=           0 FMFlag=      100000 FMFlg1=           0
         NFxFlg=           0 DoJE=T BraDBF=F KetDBF=T FulRan=T
         wScrn=  0.000000 ICntrl=       500 IOpCl=  0 I1Cent=   200000004 NGrid=           0
         NMat0=    1 NMatS0=      1 NMatT0=    0 NMatD0=    1 NMtDS0=    0 NMtDT0=    0
 Petite list used in FoFCou.
 Keep R1 ints in memory in canonical form, NReq=816445.
 Requested convergence on RMS density matrix=1.00D-08 within 128 cycles.
 Requested convergence on MAX density matrix=1.00D-06.
 Requested convergence on             energy=1.00D-06.
 No special actions if energy rises.
 SCF Done:  E(RHF) =  -39.9632255165     A.U. after    9 cycles
            NFock=  9  Conv=0.26D-08     -V/T= 2.0050

 **********************************************************************

            Population analysis using the SCF density.

 **********************************************************************

 Orbital symmetries:
       Occupied  (A) (A) (A) (A) (A)
       Virtual   (A) (A) (A) (A) (A) (A) (A) (A) (A) (A) (A) (A)
 The electronic state is 1-A.
 Alpha  occ. eigenvalues --  -11.15751  -0.93834  -0.57428  -0.54334  -0.49656
 Alpha virt. eigenvalues --    0.28323   0.31769   0.35099   0.36370   0.90679
 Alpha virt. eigenvalues --    0.94209   0.97346   1.25292   1.31687   1.35814
 Alpha virt. eigenvalues --    1.38820   1.94598
          Condensed to atoms (all electrons):
               1          2          3          4          5
     1  H    0.479572   0.374141  -0.014226  -0.024543  -0.025565
     2  C    0.374141   5.306470   0.369035   0.367516   0.359601
     3  H   -0.014226   0.369035   0.497592  -0.032180  -0.030754
     4  H   -0.024543   0.367516  -0.032180   0.507070  -0.023976
     5  H   -0.025565   0.359601  -0.030754  -0.023976   0.571196
 Mulliken charges:
               1
     1  H    0.210621
     2  C   -0.776763
     3  H    0.210532
     4  H    0.206112
     5  H    0.149497
 Sum of Mulliken charges =   0.00000
 Mulliken charges with hydrogens summed into heavy atoms:
               1
     2  C    0.000000
 Electronic spatial extent (au):  <R**2>=             36.5033
 Charge=              0.0000 electrons
 Dipole moment (field-independent basis, Debye):
    X=              0.0260    Y=             -0.0669    Z=              0.0160  Tot=              0.0735
 Quadrupole moment (field-independent basis, Debye-Ang):
   XX=             -8.1257   YY=             -8.6304   ZZ=             -8.7025
   XY=             -0.1588   XZ=             -0.0409   YZ=             -0.1283
 Traceless Quadrupole moment (field-independent basis, Debye-Ang):
   XX=              0.3605   YY=             -0.1442   ZZ=             -0.2163
   XY=             -0.1588   XZ=             -0.0409   YZ=             -0.1283
 Octapole moment (field-independent basis, Debye-Ang**2):
  XXX=             -0.6341  YYY=              0.0855  ZZZ=              0.1435  XYY=              0.3402
  XXY=             -0.0270  XXZ=             -0.5991  XZZ=              0.2339  YZZ=             -0.5055
  YYZ=              0.4180  XYZ=              0.2425
 Hexadecapole moment (field-independent basis, Debye-Ang**3):
 XXXX=            -14.8921 YYYY=            -16.3927 ZZZZ=            -14.9199 XXXY=             -0.5853
 XXXZ=              0.0172 YYYX=              0.1415 YYYZ=             -0.0791 ZZZX=             -0.2676
 ZZZY=             -0.5174 XXYY=             -5.4653 XXZZ=             -4.9434 YYZZ=             -5.0764
 XXYZ=              0.0627 YYXZ=              0.0957 ZZXY=             -0.2310
 N-N= 1.324045222097D+01 E-N=-1.187531809007D+02  KE= 3.976586214029D+01
 1\1\GINC-NODE62\SP\RHF\3-21G\C1H4\YANZ\22-Sep-2023\0\\# hf/3-21g\\tmpd
 ir/M2_conf_251_7.gjf\\0,1\H,0,0.,0.,0.\C,0,1.0736,0.,0.\H,0,1.6387,0.,
 0.91284\H,0,1.48437,0.77836,-0.61449\H,0,1.41386,-1.05183,-0.50984\\Ve
 rsion=ES64L-G16RevA.03\State=1-A\HF=-39.9632255\RMSD=2.588e-09\Dipole=
 0.0154384,0.0241948,0.0034833\Quadrupole=0.2477994,-0.1001928,-0.14760
 66,0.0485001,0.1543303,-0.075916\PG=C01 [X(C1H4)]\\@


 The arm of the moral universe is long, but it bends toward justice.
 -- Martin Luther King, Jr.
 Job cpu time:       0 days  0 hours  0 minutes  2.3 seconds.
 Elapsed time:       0 days  0 hours  0 minutes  1.3 seconds.
 File lengths (MBytes):  RWF=      6 Int=      0 D2E=      0 Chk=      1 Scr=      1
 Normal termination of Gaussian 16 at Fri Sep 22 17:20:30 2023.
