 Entering Gaussian System, Link 0=g16
 Initial command:
 /share/apps/gaussian/g16/l1.exe "/tmp/55669.mgr/Gau-35195.inp" -scrdir="/tmp/55669.mgr/"
 Entering Link 1 = /share/apps/gaussian/g16/l1.exe PID=     35205.
  
 Copyright (c) 1988,1990,1992,1993,1995,1998,2003,2009,2016,
            Gaussian, Inc.  All Rights Reserved.
  
 This is part of the Gaussian(R) 16 program.  It is based on
 the Gaussian(R) 09 system (copyright 2009, Gaussian, Inc.),
 the Gaussian(R) 03 system (copyright 2003, Gaussian, Inc.),
 the Gaussian(R) 98 system (copyright 1998, Gaussian, Inc.),
 the Gaussian(R) 94 system (copyright 1995, Gaussian, Inc.),
 the Gaussian 92(TM) system (copyright 1992, Gaussian, Inc.),
 the Gaussian 90(TM) system (copyright 1990, Gaussian, Inc.),
 the Gaussian 88(TM) system (copyright 1988, Gaussian, Inc.),
 the Gaussian 86(TM) system (copyright 1986, Carnegie Mellon
 University), and the Gaussian 82(TM) system (copyright 1983,
 Carnegie Mellon University). Gaussian is a federally registered
 trademark of Gaussian, Inc.
  
 This software contains proprietary and confidential information,
 including trade secrets, belonging to Gaussian, Inc.
  
 This software is provided under written license and may be
 used, copied, transmitted, or stored only in accord with that
 written license.
  
 The following legend is applicable only to US Government
 contracts under FAR:
  
                    RESTRICTED RIGHTS LEGEND
  
 Use, reproduction and disclosure by the US Government is
 subject to restrictions as set forth in subparagraphs (a)
 and (c) of the Commercial Computer Software - Restricted
 Rights clause in FAR 52.227-19.
  
 Gaussian, Inc.
 340 Quinnipiac St., Bldg. 40, Wallingford CT 06492
  
  
 ---------------------------------------------------------------
 Warning -- This program may not be used in any manner that
 competes with the business of Gaussian, Inc. or will provide
 assistance to any competitor of Gaussian, Inc.  The licensee
 of this program is prohibited from giving any competitor of
 Gaussian, Inc. access to this program.  By using this program,
 the user acknowledges that Gaussian, Inc. is engaged in the
 business of creating and licensing software in the field of
 computational chemistry and represents and warrants to the
 licensee that it is not a competitor of Gaussian, Inc. and that
 it will not use this program in any manner prohibited above.
 ---------------------------------------------------------------
  

 Cite this work as:
 Gaussian 16, Revision A.03,
 M. J. Frisch, G. W. Trucks, H. B. Schlegel, G. E. Scuseria, 
 M. A. Robb, J. R. Cheeseman, G. Scalmani, V. Barone, 
 G. A. Petersson, H. Nakatsuji, X. Li, M. Caricato, A. V. Marenich, 
 J. Bloino, B. G. Janesko, R. Gomperts, B. Mennucci, H. P. Hratchian, 
 J. V. Ortiz, A. F. Izmaylov, J. L. Sonnenberg, D. Williams-Young, 
 F. Ding, F. Lipparini, F. Egidi, J. Goings, B. Peng, A. Petrone, 
 T. Henderson, D. Ranasinghe, V. G. Zakrzewski, J. Gao, N. Rega, 
 G. Zheng, W. Liang, M. Hada, M. Ehara, K. Toyota, R. Fukuda, 
 J. Hasegawa, M. Ishida, T. Nakajima, Y. Honda, O. Kitao, H. Nakai, 
 T. Vreven, K. Throssell, J. A. Montgomery, Jr., J. E. Peralta, 
 F. Ogliaro, M. J. Bearpark, J. J. Heyd, E. N. Brothers, K. N. Kudin, 
 V. N. Staroverov, T. A. Keith, R. Kobayashi, J. Normand, 
 K. Raghavachari, A. P. Rendell, J. C. Burant, S. S. Iyengar, 
 J. Tomasi, M. Cossi, J. M. Millam, M. Klene, C. Adamo, R. Cammi, 
 J. W. Ochterski, R. L. Martin, K. Morokuma, O. Farkas, 
 J. B. Foresman, and D. J. Fox, Gaussian, Inc., Wallingford CT, 2016.
 
 ******************************************
 Gaussian 16:  ES64L-G16RevA.03 25-Dec-2016
                22-Sep-2023 
 ******************************************
 %nprocshared=2
 Will use up to    2 processors via shared memory.
 %mem=2GB
 ----------
 # hf/3-21g
 ----------
 1/38=1,172=1/1;
 2/12=2,17=6,18=5,40=1/2;
 3/5=5,11=9,25=1,30=1/1,2,3;
 4//1;
 5/5=2,38=5/2;
 6/7=2,8=2,9=2,10=2,28=1/1;
 99/5=1,9=1/99;
 ------------------------
 tmpdir/M2_conf_201_8.gjf
 ------------------------
 Symbolic Z-matrix:
 Charge =  0 Multiplicity = 1
 H                     0.        0.        0. 
 C                     1.0736    0.        0. 
 Cl                    0.18628   0.        1.67091 
 H                     1.48437  -0.89246  -0.43239 
 H                     1.48462   0.89249  -0.4326 
 
                          Input orientation:                          
 ---------------------------------------------------------------------
 Center     Atomic      Atomic             Coordinates (Angstroms)
 Number     Number       Type             X           Y           Z
 ---------------------------------------------------------------------
      1          1           0        0.000000    0.000000    0.000000
      2          6           0        1.073600    0.000000    0.000000
      3         17           0        0.186280    0.000000    1.670910
      4          1           0        1.484370   -0.892460   -0.432390
      5          1           0        1.484620    0.892490   -0.432600
 ---------------------------------------------------------------------
                    Distance matrix (angstroms):
                    1          2          3          4          5
     1  H    0.000000
     2  C    1.073600   0.000000
     3  Cl   1.681262   1.891898   0.000000
     4  H    1.785161   1.073396   2.627812   0.000000
     5  H    1.785435   1.073601   2.628113   1.784950   0.000000
 Stoichiometry    CH3Cl
 Framework group  C1[X(CH3Cl)]
 Deg. of freedom     9
 Full point group                 C1      NOp   1
 Largest Abelian subgroup         C1      NOp   1
 Largest concise Abelian subgroup C1      NOp   1
                         Standard orientation:                         
 ---------------------------------------------------------------------
 Center     Atomic      Atomic             Coordinates (Angstroms)
 Number     Number       Type             X           Y           Z
 ---------------------------------------------------------------------
      1          1           0       -0.712715   -0.000174    0.920899
      2          6           0       -1.212051   -0.000014   -0.029512
      3         17           0        0.679828    0.000013   -0.021154
      4          1           0       -1.785865   -0.892454   -0.192199
      5          1           0       -1.786193    0.892496   -0.192008
 ---------------------------------------------------------------------
 Rotational constants (GHZ):         197.8352503          12.2668552          12.0744689
 Standard basis: 3-21G (6D, 7F)
 There are    28 symmetry adapted cartesian basis functions of A   symmetry.
 There are    28 symmetry adapted basis functions of A   symmetry.
    28 basis functions,    51 primitive gaussians,    28 cartesian basis functions
    13 alpha electrons       13 beta electrons
       nuclear repulsion energy        50.4892933553 Hartrees.
 NAtoms=    5 NActive=    5 NUniq=    5 SFac= 1.00D+00 NAtFMM=   60 NAOKFM=F Big=F
 Integral buffers will be    131072 words long.
 Raffenetti 1 integral format.
 Two-electron integral symmetry is turned on.
 One-electron integrals computed using PRISM.
 NBasis=    28 RedAO= T EigKep=  3.72D-02  NBF=    28
 NBsUse=    28 1.00D-06 EigRej= -1.00D+00 NBFU=    28
 ExpMin= 1.67D-01 ExpMax= 1.38D+03 ExpMxC= 1.38D+03 IAcc=3 IRadAn=         5 AccDes= 0.00D+00
 Harris functional with IExCor=  205 and IRadAn=       5 diagonalized for initial guess.
 HarFok:  IExCor=  205 AccDes= 0.00D+00 IRadAn=         5 IDoV= 1 UseB2=F ITyADJ=14
 ICtDFT=  3500011 ScaDFX=  1.000000  1.000000  1.000000  1.000000
 FoFCou: FMM=F IPFlag=           0 FMFlag=      100000 FMFlg1=           0
         NFxFlg=           0 DoJE=T BraDBF=F KetDBF=T FulRan=T
         wScrn=  0.000000 ICntrl=       500 IOpCl=  0 I1Cent=   200000004 NGrid=           0
         NMat0=    1 NMatS0=      1 NMatT0=    0 NMatD0=    1 NMtDS0=    0 NMtDT0=    0
 Petite list used in FoFCou.
 Keep R1 ints in memory in canonical form, NReq=889291.
 Requested convergence on RMS density matrix=1.00D-08 within 128 cycles.
 Requested convergence on MAX density matrix=1.00D-06.
 Requested convergence on             energy=1.00D-06.
 No special actions if energy rises.
 SCF Done:  E(RHF) =  -496.590163935     A.U. after   12 cycles
            NFock= 12  Conv=0.14D-08     -V/T= 2.0003

 **********************************************************************

            Population analysis using the SCF density.

 **********************************************************************

 Orbital symmetries:
       Occupied  (A) (A) (A) (A) (A) (A) (A) (A) (A) (A) (A) (A)
                 (A)
       Virtual   (A) (A) (A) (A) (A) (A) (A) (A) (A) (A) (A) (A)
                 (A) (A) (A)
 The electronic state is 1-A.
 Alpha  occ. eigenvalues -- -104.10161 -11.23888 -10.49799  -7.96153  -7.95719
 Alpha  occ. eigenvalues --   -7.95678  -1.14835  -0.92546  -0.65798  -0.62762
 Alpha  occ. eigenvalues --   -0.50689  -0.45512  -0.40184
 Alpha virt. eigenvalues --    0.12691   0.29108   0.31994   0.32030   0.74105
 Alpha virt. eigenvalues --    0.78071   0.80241   0.84489   0.94081   0.97932
 Alpha virt. eigenvalues --    1.03087   1.24886   1.31152   1.31640   1.82527
          Condensed to atoms (all electrons):
               1          2          3          4          5
     1  H    0.570575   0.368307  -0.191037  -0.021147  -0.021132
     2  C    0.368307   5.564706   0.069825   0.358570   0.358571
     3  Cl  -0.191037   0.069825  17.260418  -0.013948  -0.013933
     4  H   -0.021147   0.358570  -0.013948   0.433341  -0.025271
     5  H   -0.021132   0.358571  -0.013933  -0.025271   0.433352
 Mulliken charges:
               1
     1  H    0.294434
     2  C   -0.719978
     3  Cl  -0.111325
     4  H    0.268455
     5  H    0.268414
 Sum of Mulliken charges =  -0.00000
 Mulliken charges with hydrogens summed into heavy atoms:
               1
     2  C    0.111325
     3  Cl  -0.111325
 Electronic spatial extent (au):  <R**2>=            137.6667
 Charge=             -0.0000 electrons
 Dipole moment (field-independent basis, Debye):
    X=             -2.3984    Y=             -0.0002    Z=              0.4880  Tot=              2.4475
 Quadrupole moment (field-independent basis, Debye-Ang):
   XX=            -18.6104   YY=            -20.1211   ZZ=            -21.1351
   XY=             -0.0003   XZ=              0.7136   YZ=              0.0000
 Traceless Quadrupole moment (field-independent basis, Debye-Ang):
   XX=              1.3452   YY=             -0.1656   ZZ=             -1.1796
   XY=             -0.0003   XZ=              0.7136   YZ=              0.0000
 Octapole moment (field-independent basis, Debye-Ang**2):
  XXX=             -1.4733  YYY=             -0.0005  ZZZ=              0.9644  XYY=             -1.7242
  XXY=              0.0010  XXZ=             -0.5419  XZZ=              1.1920  YZZ=             -0.0004
  YYZ=             -0.0910  XYZ=             -0.0002
 Hexadecapole moment (field-independent basis, Debye-Ang**3):
 XXXX=           -119.9044 YYYY=            -27.1625 ZZZZ=            -26.4725 XXXY=             -0.0030
 XXXZ=              3.0943 YYYX=             -0.0001 YYYZ=              0.0003 ZZZX=              0.3834
 ZZZY=              0.0000 XXYY=            -23.0135 XXZZ=            -28.7994 YYZZ=             -9.3029
 XXYZ=              0.0004 YYXZ=              0.6443 ZZXY=              0.0003
 N-N= 5.048929335527D+01 E-N=-1.281715271434D+03  KE= 4.964308473872D+02
 1\1\GINC-NODE62\SP\RHF\3-21G\C1H3Cl1\YANZ\22-Sep-2023\0\\# hf/3-21g\\t
 mpdir/M2_conf_201_8.gjf\\0,1\H,0,0.,0.,0.\C,0,1.0736,0.,0.\Cl,0,0.1862
 8,0.,1.67091\H,0,1.48437,-0.89246,-0.43239\H,0,1.48462,0.89249,-0.4326
 \\Version=ES64L-G16RevA.03\State=1-A\HF=-496.5901639\RMSD=1.359e-09\Di
 pole=0.2689073,-0.000022,-0.9246273\Quadrupole=-0.034047,-0.1230914,0.
 1571384,0.0001909,-1.0738801,-0.0000979\PG=C01 [X(C1H3Cl1)]\\@


 NEVER LOSE YOUR IGNORANCE, IT CAN'T BE REPLACED.
   -- ANDY CAPP
 Job cpu time:       0 days  0 hours  0 minutes  2.3 seconds.
 Elapsed time:       0 days  0 hours  0 minutes  1.3 seconds.
 File lengths (MBytes):  RWF=      6 Int=      0 D2E=      0 Chk=      1 Scr=      1
 Normal termination of Gaussian 16 at Fri Sep 22 17:19:14 2023.
