 Entering Gaussian System, Link 0=g16
 Initial command:
 /share/apps/gaussian/g16/l1.exe "/tmp/55669.mgr/Gau-36502.inp" -scrdir="/tmp/55669.mgr/"
 Entering Link 1 = /share/apps/gaussian/g16/l1.exe PID=     36513.
  
 Copyright (c) 1988,1990,1992,1993,1995,1998,2003,2009,2016,
            Gaussian, Inc.  All Rights Reserved.
  
 This is part of the Gaussian(R) 16 program.  It is based on
 the Gaussian(R) 09 system (copyright 2009, Gaussian, Inc.),
 the Gaussian(R) 03 system (copyright 2003, Gaussian, Inc.),
 the Gaussian(R) 98 system (copyright 1998, Gaussian, Inc.),
 the Gaussian(R) 94 system (copyright 1995, Gaussian, Inc.),
 the Gaussian 92(TM) system (copyright 1992, Gaussian, Inc.),
 the Gaussian 90(TM) system (copyright 1990, Gaussian, Inc.),
 the Gaussian 88(TM) system (copyright 1988, Gaussian, Inc.),
 the Gaussian 86(TM) system (copyright 1986, Carnegie Mellon
 University), and the Gaussian 82(TM) system (copyright 1983,
 Carnegie Mellon University). Gaussian is a federally registered
 trademark of Gaussian, Inc.
  
 This software contains proprietary and confidential information,
 including trade secrets, belonging to Gaussian, Inc.
  
 This software is provided under written license and may be
 used, copied, transmitted, or stored only in accord with that
 written license.
  
 The following legend is applicable only to US Government
 contracts under FAR:
  
                    RESTRICTED RIGHTS LEGEND
  
 Use, reproduction and disclosure by the US Government is
 subject to restrictions as set forth in subparagraphs (a)
 and (c) of the Commercial Computer Software - Restricted
 Rights clause in FAR 52.227-19.
  
 Gaussian, Inc.
 340 Quinnipiac St., Bldg. 40, Wallingford CT 06492
  
  
 ---------------------------------------------------------------
 Warning -- This program may not be used in any manner that
 competes with the business of Gaussian, Inc. or will provide
 assistance to any competitor of Gaussian, Inc.  The licensee
 of this program is prohibited from giving any competitor of
 Gaussian, Inc. access to this program.  By using this program,
 the user acknowledges that Gaussian, Inc. is engaged in the
 business of creating and licensing software in the field of
 computational chemistry and represents and warrants to the
 licensee that it is not a competitor of Gaussian, Inc. and that
 it will not use this program in any manner prohibited above.
 ---------------------------------------------------------------
  

 Cite this work as:
 Gaussian 16, Revision A.03,
 M. J. Frisch, G. W. Trucks, H. B. Schlegel, G. E. Scuseria, 
 M. A. Robb, J. R. Cheeseman, G. Scalmani, V. Barone, 
 G. A. Petersson, H. Nakatsuji, X. Li, M. Caricato, A. V. Marenich, 
 J. Bloino, B. G. Janesko, R. Gomperts, B. Mennucci, H. P. Hratchian, 
 J. V. Ortiz, A. F. Izmaylov, J. L. Sonnenberg, D. Williams-Young, 
 F. Ding, F. Lipparini, F. Egidi, J. Goings, B. Peng, A. Petrone, 
 T. Henderson, D. Ranasinghe, V. G. Zakrzewski, J. Gao, N. Rega, 
 G. Zheng, W. Liang, M. Hada, M. Ehara, K. Toyota, R. Fukuda, 
 J. Hasegawa, M. Ishida, T. Nakajima, Y. Honda, O. Kitao, H. Nakai, 
 T. Vreven, K. Throssell, J. A. Montgomery, Jr., J. E. Peralta, 
 F. Ogliaro, M. J. Bearpark, J. J. Heyd, E. N. Brothers, K. N. Kudin, 
 V. N. Staroverov, T. A. Keith, R. Kobayashi, J. Normand, 
 K. Raghavachari, A. P. Rendell, J. C. Burant, S. S. Iyengar, 
 J. Tomasi, M. Cossi, J. M. Millam, M. Klene, C. Adamo, R. Cammi, 
 J. W. Ochterski, R. L. Martin, K. Morokuma, O. Farkas, 
 J. B. Foresman, and D. J. Fox, Gaussian, Inc., Wallingford CT, 2016.
 
 ******************************************
 Gaussian 16:  ES64L-G16RevA.03 25-Dec-2016
                22-Sep-2023 
 ******************************************
 %nprocshared=2
 Will use up to    2 processors via shared memory.
 %mem=2GB
 ----------
 # hf/3-21g
 ----------
 1/38=1,172=1/1;
 2/12=2,17=6,18=5,40=1/2;
 3/5=5,11=9,25=1,30=1/1,2,3;
 4//1;
 5/5=2,38=5/2;
 6/7=2,8=2,9=2,10=2,28=1/1;
 99/5=1,9=1/99;
 ------------------------
 tmpdir/M2_conf_210_8.gjf
 ------------------------
 Symbolic Z-matrix:
 Charge =  0 Multiplicity = 1
 H                     0.        0.        0. 
 C                     1.0736    0.        0. 
 Cl                    0.4287    0.        1.77859 
 H                     1.48437  -0.89246  -0.43239 
 H                     1.48462   0.89249  -0.4326 
 
                          Input orientation:                          
 ---------------------------------------------------------------------
 Center     Atomic      Atomic             Coordinates (Angstroms)
 Number     Number       Type             X           Y           Z
 ---------------------------------------------------------------------
      1          1           0        0.000000    0.000000    0.000000
      2          6           0        1.073600    0.000000    0.000000
      3         17           0        0.428700    0.000000    1.778590
      4          1           0        1.484370   -0.892460   -0.432390
      5          1           0        1.484620    0.892490   -0.432600
 ---------------------------------------------------------------------
                    Distance matrix (angstroms):
                    1          2          3          4          5
     1  H    0.000000
     2  C    1.073600   0.000000
     3  Cl   1.829526   1.891898   0.000000
     4  H    1.785161   1.073396   2.607558   0.000000
     5  H    1.785435   1.073601   2.607847   1.784950   0.000000
 Stoichiometry    CH3Cl
 Framework group  C1[X(CH3Cl)]
 Deg. of freedom     9
 Full point group                 C1      NOp   1
 Largest Abelian subgroup         C1      NOp   1
 Largest concise Abelian subgroup C1      NOp   1
                         Standard orientation:                         
 ---------------------------------------------------------------------
 Center     Atomic      Atomic             Coordinates (Angstroms)
 Number     Number       Type             X           Y           Z
 ---------------------------------------------------------------------
      1          1           0       -0.843609   -0.000336    0.988398
      2          6           0       -1.209024   -0.000011   -0.021102
      3         17           0        0.682874    0.000015   -0.020075
      4          1           0       -1.755397   -0.892401   -0.260467
      5          1           0       -1.755704    0.892549   -0.260048
 ---------------------------------------------------------------------
 Rotational constants (GHZ):         184.3576141          12.2024634          12.0656330
 Standard basis: 3-21G (6D, 7F)
 There are    28 symmetry adapted cartesian basis functions of A   symmetry.
 There are    28 symmetry adapted basis functions of A   symmetry.
    28 basis functions,    51 primitive gaussians,    28 cartesian basis functions
    13 alpha electrons       13 beta electrons
       nuclear repulsion energy        50.1088551068 Hartrees.
 NAtoms=    5 NActive=    5 NUniq=    5 SFac= 1.00D+00 NAtFMM=   60 NAOKFM=F Big=F
 Integral buffers will be    131072 words long.
 Raffenetti 1 integral format.
 Two-electron integral symmetry is turned on.
 One-electron integrals computed using PRISM.
 NBasis=    28 RedAO= T EigKep=  3.72D-02  NBF=    28
 NBsUse=    28 1.00D-06 EigRej= -1.00D+00 NBFU=    28
 ExpMin= 1.67D-01 ExpMax= 1.38D+03 ExpMxC= 1.38D+03 IAcc=3 IRadAn=         5 AccDes= 0.00D+00
 Harris functional with IExCor=  205 and IRadAn=       5 diagonalized for initial guess.
 HarFok:  IExCor=  205 AccDes= 0.00D+00 IRadAn=         5 IDoV= 1 UseB2=F ITyADJ=14
 ICtDFT=  3500011 ScaDFX=  1.000000  1.000000  1.000000  1.000000
 FoFCou: FMM=F IPFlag=           0 FMFlag=      100000 FMFlg1=           0
         NFxFlg=           0 DoJE=T BraDBF=F KetDBF=T FulRan=T
         wScrn=  0.000000 ICntrl=       500 IOpCl=  0 I1Cent=   200000004 NGrid=           0
         NMat0=    1 NMatS0=      1 NMatT0=    0 NMatD0=    1 NMtDS0=    0 NMtDT0=    0
 Petite list used in FoFCou.
 Keep R1 ints in memory in canonical form, NReq=889276.
 Requested convergence on RMS density matrix=1.00D-08 within 128 cycles.
 Requested convergence on MAX density matrix=1.00D-06.
 Requested convergence on             energy=1.00D-06.
 No special actions if energy rises.
 SCF Done:  E(RHF) =  -496.625842200     A.U. after   11 cycles
            NFock= 11  Conv=0.80D-08     -V/T= 2.0005

 **********************************************************************

            Population analysis using the SCF density.

 **********************************************************************

 Orbital symmetries:
       Occupied  (A) (A) (A) (A) (A) (A) (A) (A) (A) (A) (A) (A)
                 (A)
       Virtual   (A) (A) (A) (A) (A) (A) (A) (A) (A) (A) (A) (A)
                 (A) (A) (A)
 The electronic state is 1-A.
 Alpha  occ. eigenvalues -- -104.09587 -11.24449 -10.49097  -7.95457  -7.95039
 Alpha  occ. eigenvalues --   -7.95014  -1.13343  -0.92862  -0.65039  -0.62979
 Alpha  occ. eigenvalues --   -0.50419  -0.44850  -0.41596
 Alpha virt. eigenvalues --    0.13748   0.28296   0.31679   0.31786   0.74190
 Alpha virt. eigenvalues --    0.78640   0.80473   0.84604   0.94123   0.97395
 Alpha virt. eigenvalues --    1.02528   1.27319   1.31360   1.31515   1.84666
          Condensed to atoms (all electrons):
               1          2          3          4          5
     1  H    0.534335   0.365479  -0.150119  -0.020431  -0.020416
     2  C    0.365479   5.521392   0.108934   0.358032   0.358034
     3  Cl  -0.150119   0.108934  17.188239  -0.016802  -0.016786
     4  H   -0.020431   0.358032  -0.016802   0.437109  -0.025021
     5  H   -0.020416   0.358034  -0.016786  -0.025021   0.437119
 Mulliken charges:
               1
     1  H    0.291153
     2  C   -0.711871
     3  Cl  -0.113465
     4  H    0.267113
     5  H    0.267070
 Sum of Mulliken charges =  -0.00000
 Mulliken charges with hydrogens summed into heavy atoms:
               1
     2  C    0.113465
     3  Cl  -0.113465
 Electronic spatial extent (au):  <R**2>=            138.1442
 Charge=             -0.0000 electrons
 Dipole moment (field-independent basis, Debye):
    X=             -2.6056    Y=             -0.0002    Z=              0.3874  Tot=              2.6343
 Quadrupole moment (field-independent basis, Debye-Ang):
   XX=            -18.5319   YY=            -20.1568   ZZ=            -20.8517
   XY=             -0.0004   XZ=              0.7232   YZ=              0.0000
 Traceless Quadrupole moment (field-independent basis, Debye-Ang):
   XX=              1.3149   YY=             -0.3100   ZZ=             -1.0049
   XY=             -0.0004   XZ=              0.7232   YZ=              0.0000
 Octapole moment (field-independent basis, Debye-Ang**2):
  XXX=             -1.2154  YYY=             -0.0002  ZZZ=              1.1152  XYY=             -1.7235
  XXY=              0.0010  XXZ=             -0.8792  XZZ=              0.6135  YZZ=             -0.0007
  YYZ=             -0.2846  XYZ=             -0.0003
 Hexadecapole moment (field-independent basis, Debye-Ang**3):
 XXXX=           -121.1042 YYYY=            -27.2191 ZZZZ=            -26.6289 XXXY=             -0.0033
 XXXZ=              3.6244 YYYX=             -0.0006 YYYZ=              0.0004 ZZZX=              0.1646
 ZZZY=             -0.0001 XXYY=            -23.2834 XXZZ=            -28.2983 YYZZ=             -9.3286
 XXYZ=              0.0008 YYXZ=              0.9181 ZZXY=              0.0006
 N-N= 5.010885510676D+01 E-N=-1.281035578562D+03  KE= 4.963607907024D+02
 1\1\GINC-NODE62\SP\RHF\3-21G\C1H3Cl1\YANZ\22-Sep-2023\0\\# hf/3-21g\\t
 mpdir/M2_conf_210_8.gjf\\0,1\H,0,0.,0.,0.\C,0,1.0736,0.,0.\Cl,0,0.4287
 ,0.,1.77859\H,0,1.48437,-0.89246,-0.43239\H,0,1.48462,0.89249,-0.4326\
 \Version=ES64L-G16RevA.03\State=1-A\HF=-496.6258422\RMSD=8.020e-09\Dip
 ole=0.2056192,-0.0000255,-1.0158014\Quadrupole=-0.2031643,-0.230465,0.
 4336293,0.0001919,-0.9650887,-0.0000873\PG=C01 [X(C1H3Cl1)]\\@


 I take a simple view of life: keep your eyes open and get on with it.
 -- Laurence Olivier
 Job cpu time:       0 days  0 hours  0 minutes  2.1 seconds.
 Elapsed time:       0 days  0 hours  0 minutes  1.2 seconds.
 File lengths (MBytes):  RWF=      6 Int=      0 D2E=      0 Chk=      1 Scr=      1
 Normal termination of Gaussian 16 at Fri Sep 22 17:19:28 2023.
