 Entering Gaussian System, Link 0=g16
 Initial command:
 /share/apps/gaussian/g16/l1.exe "/tmp/55669.mgr/Gau-30691.inp" -scrdir="/tmp/55669.mgr/"
 Entering Link 1 = /share/apps/gaussian/g16/l1.exe PID=     30701.
  
 Copyright (c) 1988,1990,1992,1993,1995,1998,2003,2009,2016,
            Gaussian, Inc.  All Rights Reserved.
  
 This is part of the Gaussian(R) 16 program.  It is based on
 the Gaussian(R) 09 system (copyright 2009, Gaussian, Inc.),
 the Gaussian(R) 03 system (copyright 2003, Gaussian, Inc.),
 the Gaussian(R) 98 system (copyright 1998, Gaussian, Inc.),
 the Gaussian(R) 94 system (copyright 1995, Gaussian, Inc.),
 the Gaussian 92(TM) system (copyright 1992, Gaussian, Inc.),
 the Gaussian 90(TM) system (copyright 1990, Gaussian, Inc.),
 the Gaussian 88(TM) system (copyright 1988, Gaussian, Inc.),
 the Gaussian 86(TM) system (copyright 1986, Carnegie Mellon
 University), and the Gaussian 82(TM) system (copyright 1983,
 Carnegie Mellon University). Gaussian is a federally registered
 trademark of Gaussian, Inc.
  
 This software contains proprietary and confidential information,
 including trade secrets, belonging to Gaussian, Inc.
  
 This software is provided under written license and may be
 used, copied, transmitted, or stored only in accord with that
 written license.
  
 The following legend is applicable only to US Government
 contracts under FAR:
  
                    RESTRICTED RIGHTS LEGEND
  
 Use, reproduction and disclosure by the US Government is
 subject to restrictions as set forth in subparagraphs (a)
 and (c) of the Commercial Computer Software - Restricted
 Rights clause in FAR 52.227-19.
  
 Gaussian, Inc.
 340 Quinnipiac St., Bldg. 40, Wallingford CT 06492
  
  
 ---------------------------------------------------------------
 Warning -- This program may not be used in any manner that
 competes with the business of Gaussian, Inc. or will provide
 assistance to any competitor of Gaussian, Inc.  The licensee
 of this program is prohibited from giving any competitor of
 Gaussian, Inc. access to this program.  By using this program,
 the user acknowledges that Gaussian, Inc. is engaged in the
 business of creating and licensing software in the field of
 computational chemistry and represents and warrants to the
 licensee that it is not a competitor of Gaussian, Inc. and that
 it will not use this program in any manner prohibited above.
 ---------------------------------------------------------------
  

 Cite this work as:
 Gaussian 16, Revision A.03,
 M. J. Frisch, G. W. Trucks, H. B. Schlegel, G. E. Scuseria, 
 M. A. Robb, J. R. Cheeseman, G. Scalmani, V. Barone, 
 G. A. Petersson, H. Nakatsuji, X. Li, M. Caricato, A. V. Marenich, 
 J. Bloino, B. G. Janesko, R. Gomperts, B. Mennucci, H. P. Hratchian, 
 J. V. Ortiz, A. F. Izmaylov, J. L. Sonnenberg, D. Williams-Young, 
 F. Ding, F. Lipparini, F. Egidi, J. Goings, B. Peng, A. Petrone, 
 T. Henderson, D. Ranasinghe, V. G. Zakrzewski, J. Gao, N. Rega, 
 G. Zheng, W. Liang, M. Hada, M. Ehara, K. Toyota, R. Fukuda, 
 J. Hasegawa, M. Ishida, T. Nakajima, Y. Honda, O. Kitao, H. Nakai, 
 T. Vreven, K. Throssell, J. A. Montgomery, Jr., J. E. Peralta, 
 F. Ogliaro, M. J. Bearpark, J. J. Heyd, E. N. Brothers, K. N. Kudin, 
 V. N. Staroverov, T. A. Keith, R. Kobayashi, J. Normand, 
 K. Raghavachari, A. P. Rendell, J. C. Burant, S. S. Iyengar, 
 J. Tomasi, M. Cossi, J. M. Millam, M. Klene, C. Adamo, R. Cammi, 
 J. W. Ochterski, R. L. Martin, K. Morokuma, O. Farkas, 
 J. B. Foresman, and D. J. Fox, Gaussian, Inc., Wallingford CT, 2016.
 
 ******************************************
 Gaussian 16:  ES64L-G16RevA.03 25-Dec-2016
                22-Sep-2023 
 ******************************************
 %nprocshared=2
 Will use up to    2 processors via shared memory.
 %mem=2GB
 ----------
 # hf/3-21g
 ----------
 1/38=1,172=1/1;
 2/12=2,17=6,18=5,40=1/2;
 3/5=5,11=9,25=1,30=1/1,2,3;
 4//1;
 5/5=2,38=5/2;
 6/7=2,8=2,9=2,10=2,28=1/1;
 99/5=1,9=1/99;
 ------------------------
 tmpdir/M2_conf_170_8.gjf
 ------------------------
 Symbolic Z-matrix:
 Charge =  0 Multiplicity = 1
 H                     0.        0.        0. 
 C                     1.0736    0.        0. 
 Cl                    0.75516   0.        1.86491 
 H                     1.48437  -0.89246  -0.43239 
 H                     1.48462   0.89249  -0.4326 
 
                          Input orientation:                          
 ---------------------------------------------------------------------
 Center     Atomic      Atomic             Coordinates (Angstroms)
 Number     Number       Type             X           Y           Z
 ---------------------------------------------------------------------
      1          1           0        0.000000    0.000000    0.000000
      2          6           0        1.073600    0.000000    0.000000
      3         17           0        0.755160    0.000000    1.864910
      4          1           0        1.484370   -0.892460   -0.432390
      5          1           0        1.484620    0.892490   -0.432600
 ---------------------------------------------------------------------
                    Distance matrix (angstroms):
                    1          2          3          4          5
     1  H    0.000000
     2  C    1.073600   0.000000
     3  Cl   2.012003   1.891902   0.000000
     4  H    1.785161   1.073396   2.570179   0.000000
     5  H    1.785435   1.073601   2.570448   1.784950   0.000000
 Stoichiometry    CH3Cl
 Framework group  C1[X(CH3Cl)]
 Deg. of freedom     9
 Full point group                 C1      NOp   1
 Largest Abelian subgroup         C1      NOp   1
 Largest concise Abelian subgroup C1      NOp   1
                         Standard orientation:                         
 ---------------------------------------------------------------------
 Center     Atomic      Atomic             Coordinates (Angstroms)
 Number     Number       Type             X           Y           Z
 ---------------------------------------------------------------------
      1          1           0       -1.023002   -0.000816    1.045236
      2          6           0       -1.205877   -0.000006   -0.012673
      3         17           0        0.686021    0.000020   -0.016554
      4          1           0       -1.701907   -0.892218   -0.344472
      5          1           0       -1.702179    0.892731   -0.343313
 ---------------------------------------------------------------------
 Rotational constants (GHZ):         171.1088629          12.1375986          12.0630186
 Standard basis: 3-21G (6D, 7F)
 There are    28 symmetry adapted cartesian basis functions of A   symmetry.
 There are    28 symmetry adapted basis functions of A   symmetry.
    28 basis functions,    51 primitive gaussians,    28 cartesian basis functions
    13 alpha electrons       13 beta electrons
       nuclear repulsion energy        49.7632055428 Hartrees.
 NAtoms=    5 NActive=    5 NUniq=    5 SFac= 1.00D+00 NAtFMM=   60 NAOKFM=F Big=F
 Integral buffers will be    131072 words long.
 Raffenetti 1 integral format.
 Two-electron integral symmetry is turned on.
 One-electron integrals computed using PRISM.
 NBasis=    28 RedAO= T EigKep=  3.61D-02  NBF=    28
 NBsUse=    28 1.00D-06 EigRej= -1.00D+00 NBFU=    28
 ExpMin= 1.67D-01 ExpMax= 1.38D+03 ExpMxC= 1.38D+03 IAcc=3 IRadAn=         5 AccDes= 0.00D+00
 Harris functional with IExCor=  205 and IRadAn=       5 diagonalized for initial guess.
 HarFok:  IExCor=  205 AccDes= 0.00D+00 IRadAn=         5 IDoV= 1 UseB2=F ITyADJ=14
 ICtDFT=  3500011 ScaDFX=  1.000000  1.000000  1.000000  1.000000
 FoFCou: FMM=F IPFlag=           0 FMFlag=      100000 FMFlg1=           0
         NFxFlg=           0 DoJE=T BraDBF=F KetDBF=T FulRan=T
         wScrn=  0.000000 ICntrl=       500 IOpCl=  0 I1Cent=   200000004 NGrid=           0
         NMat0=    1 NMatS0=      1 NMatT0=    0 NMatD0=    1 NMtDS0=    0 NMtDT0=    0
 Petite list used in FoFCou.
 Keep R1 ints in memory in canonical form, NReq=889276.
 Requested convergence on RMS density matrix=1.00D-08 within 128 cycles.
 Requested convergence on MAX density matrix=1.00D-06.
 Requested convergence on             energy=1.00D-06.
 No special actions if energy rises.
 SCF Done:  E(RHF) =  -496.658525474     A.U. after   11 cycles
            NFock= 11  Conv=0.44D-08     -V/T= 2.0007

 **********************************************************************

            Population analysis using the SCF density.

 **********************************************************************

 Orbital symmetries:
       Occupied  (A) (A) (A) (A) (A) (A) (A) (A) (A) (A) (A) (A)
                 (A)
       Virtual   (A) (A) (A) (A) (A) (A) (A) (A) (A) (A) (A) (A)
                 (A) (A) (A)
 The electronic state is 1-A.
 Alpha  occ. eigenvalues -- -104.09131 -11.24812 -10.48558  -7.94925  -7.94516
 Alpha  occ. eigenvalues --   -7.94506  -1.12185  -0.93116  -0.64247  -0.63110
 Alpha  occ. eigenvalues --   -0.50570  -0.44301  -0.42741
 Alpha virt. eigenvalues --    0.14995   0.27686   0.31487   0.31598   0.74112
 Alpha virt. eigenvalues --    0.79261   0.80802   0.85139   0.93187   0.96549
 Alpha virt. eigenvalues --    1.01644   1.29163   1.31202   1.32043   1.87779
          Condensed to atoms (all electrons):
               1          2          3          4          5
     1  H    0.501437   0.360366  -0.107954  -0.019857  -0.019841
     2  C    0.360366   5.490066   0.141641   0.357775   0.357779
     3  Cl  -0.107954   0.141641  17.119693  -0.021453  -0.021438
     4  H   -0.019857   0.357775  -0.021453   0.441713  -0.024334
     5  H   -0.019841   0.357779  -0.021438  -0.024334   0.441723
 Mulliken charges:
               1
     1  H    0.285850
     2  C   -0.707627
     3  Cl  -0.110488
     4  H    0.266155
     5  H    0.266110
 Sum of Mulliken charges =  -0.00000
 Mulliken charges with hydrogens summed into heavy atoms:
               1
     2  C    0.110488
     3  Cl  -0.110488
 Electronic spatial extent (au):  <R**2>=            138.6469
 Charge=             -0.0000 electrons
 Dipole moment (field-independent basis, Debye):
    X=             -2.7556    Y=             -0.0003    Z=              0.2716  Tot=              2.7690
 Quadrupole moment (field-independent basis, Debye-Ang):
   XX=            -18.5145   YY=            -20.1772   ZZ=            -20.5391
   XY=             -0.0006   XZ=              0.6132   YZ=              0.0000
 Traceless Quadrupole moment (field-independent basis, Debye-Ang):
   XX=              1.2291   YY=             -0.4336   ZZ=             -0.7955
   XY=             -0.0006   XZ=              0.6132   YZ=              0.0000
 Octapole moment (field-independent basis, Debye-Ang**2):
  XXX=             -0.6340  YYY=              0.0007  ZZZ=              1.2705  XYY=             -1.6501
  XXY=              0.0013  XXZ=             -1.0207  XZZ=             -0.0748  YZZ=             -0.0018
  YYZ=             -0.5032  XYZ=             -0.0007
 Hexadecapole moment (field-independent basis, Debye-Ang**3):
 XXXX=           -122.9525 YYYY=            -27.2532 ZZZZ=            -26.7690 XXXY=             -0.0042
 XXXZ=              3.5891 YYYX=             -0.0024 YYYZ=              0.0008 ZZZX=             -0.3128
 ZZZY=             -0.0005 XXYY=            -23.7272 XXZZ=            -27.4753 YYZZ=             -9.3120
 XXYZ=              0.0019 YYXZ=              1.1799 ZZXY=              0.0020
 N-N= 4.976320554283D+01 E-N=-1.280415651054D+03  KE= 4.963065276046D+02
 1\1\GINC-NODE62\SP\RHF\3-21G\C1H3Cl1\YANZ\22-Sep-2023\0\\# hf/3-21g\\t
 mpdir/M2_conf_170_8.gjf\\0,1\H,0,0.,0.,0.\C,0,1.0736,0.,0.\Cl,0,0.7551
 6,0.,1.86491\H,0,1.48437,-0.89246,-0.43239\H,0,1.48462,0.89249,-0.4326
 \\Version=ES64L-G16RevA.03\State=1-A\HF=-496.6585255\RMSD=4.416e-09\Di
 pole=0.0793905,-0.0000297,-1.0865031\Quadrupole=-0.3946892,-0.322359,0
 .7170482,0.0001975,-0.6821009,-0.0000727\PG=C01 [X(C1H3Cl1)]\\@


 HOW IS IT THAT THE SKY FEEDS THE STARS?

                           -- LUCRETIUS
 Job cpu time:       0 days  0 hours  0 minutes  1.9 seconds.
 Elapsed time:       0 days  0 hours  0 minutes  1.1 seconds.
 File lengths (MBytes):  RWF=      6 Int=      0 D2E=      0 Chk=      1 Scr=      1
 Normal termination of Gaussian 16 at Fri Sep 22 17:18:22 2023.
