 Entering Gaussian System, Link 0=g16
 Initial command:
 /share/apps/gaussian/g16/l1.exe "/tmp/55669.mgr/Gau-26758.inp" -scrdir="/tmp/55669.mgr/"
 Entering Link 1 = /share/apps/gaussian/g16/l1.exe PID=     26770.
  
 Copyright (c) 1988,1990,1992,1993,1995,1998,2003,2009,2016,
            Gaussian, Inc.  All Rights Reserved.
  
 This is part of the Gaussian(R) 16 program.  It is based on
 the Gaussian(R) 09 system (copyright 2009, Gaussian, Inc.),
 the Gaussian(R) 03 system (copyright 2003, Gaussian, Inc.),
 the Gaussian(R) 98 system (copyright 1998, Gaussian, Inc.),
 the Gaussian(R) 94 system (copyright 1995, Gaussian, Inc.),
 the Gaussian 92(TM) system (copyright 1992, Gaussian, Inc.),
 the Gaussian 90(TM) system (copyright 1990, Gaussian, Inc.),
 the Gaussian 88(TM) system (copyright 1988, Gaussian, Inc.),
 the Gaussian 86(TM) system (copyright 1986, Carnegie Mellon
 University), and the Gaussian 82(TM) system (copyright 1983,
 Carnegie Mellon University). Gaussian is a federally registered
 trademark of Gaussian, Inc.
  
 This software contains proprietary and confidential information,
 including trade secrets, belonging to Gaussian, Inc.
  
 This software is provided under written license and may be
 used, copied, transmitted, or stored only in accord with that
 written license.
  
 The following legend is applicable only to US Government
 contracts under FAR:
  
                    RESTRICTED RIGHTS LEGEND
  
 Use, reproduction and disclosure by the US Government is
 subject to restrictions as set forth in subparagraphs (a)
 and (c) of the Commercial Computer Software - Restricted
 Rights clause in FAR 52.227-19.
  
 Gaussian, Inc.
 340 Quinnipiac St., Bldg. 40, Wallingford CT 06492
  
  
 ---------------------------------------------------------------
 Warning -- This program may not be used in any manner that
 competes with the business of Gaussian, Inc. or will provide
 assistance to any competitor of Gaussian, Inc.  The licensee
 of this program is prohibited from giving any competitor of
 Gaussian, Inc. access to this program.  By using this program,
 the user acknowledges that Gaussian, Inc. is engaged in the
 business of creating and licensing software in the field of
 computational chemistry and represents and warrants to the
 licensee that it is not a competitor of Gaussian, Inc. and that
 it will not use this program in any manner prohibited above.
 ---------------------------------------------------------------
  

 Cite this work as:
 Gaussian 16, Revision A.03,
 M. J. Frisch, G. W. Trucks, H. B. Schlegel, G. E. Scuseria, 
 M. A. Robb, J. R. Cheeseman, G. Scalmani, V. Barone, 
 G. A. Petersson, H. Nakatsuji, X. Li, M. Caricato, A. V. Marenich, 
 J. Bloino, B. G. Janesko, R. Gomperts, B. Mennucci, H. P. Hratchian, 
 J. V. Ortiz, A. F. Izmaylov, J. L. Sonnenberg, D. Williams-Young, 
 F. Ding, F. Lipparini, F. Egidi, J. Goings, B. Peng, A. Petrone, 
 T. Henderson, D. Ranasinghe, V. G. Zakrzewski, J. Gao, N. Rega, 
 G. Zheng, W. Liang, M. Hada, M. Ehara, K. Toyota, R. Fukuda, 
 J. Hasegawa, M. Ishida, T. Nakajima, Y. Honda, O. Kitao, H. Nakai, 
 T. Vreven, K. Throssell, J. A. Montgomery, Jr., J. E. Peralta, 
 F. Ogliaro, M. J. Bearpark, J. J. Heyd, E. N. Brothers, K. N. Kudin, 
 V. N. Staroverov, T. A. Keith, R. Kobayashi, J. Normand, 
 K. Raghavachari, A. P. Rendell, J. C. Burant, S. S. Iyengar, 
 J. Tomasi, M. Cossi, J. M. Millam, M. Klene, C. Adamo, R. Cammi, 
 J. W. Ochterski, R. L. Martin, K. Morokuma, O. Farkas, 
 J. B. Foresman, and D. J. Fox, Gaussian, Inc., Wallingford CT, 2016.
 
 ******************************************
 Gaussian 16:  ES64L-G16RevA.03 25-Dec-2016
                22-Sep-2023 
 ******************************************
 %nprocshared=2
 Will use up to    2 processors via shared memory.
 %mem=2GB
 ----------
 # hf/3-21g
 ----------
 1/38=1,172=1/1;
 2/12=2,17=6,18=5,40=1/2;
 3/5=5,11=9,25=1,30=1/1,2,3;
 4//1;
 5/5=2,38=5/2;
 6/7=2,8=2,9=2,10=2,28=1/1;
 99/5=1,9=1/99;
 ------------------------
 tmpdir/M2_conf_143_4.gjf
 ------------------------
 Symbolic Z-matrix:
 Charge =  0 Multiplicity = 1
 H                     0.        0.        0. 
 C                     1.0734    0.        0. 
 H                     1.65529   0.        0.90223 
 H                     1.4839    0.77851  -0.61483 
 H                     1.41406  -1.05191  -0.50942 
 
                          Input orientation:                          
 ---------------------------------------------------------------------
 Center     Atomic      Atomic             Coordinates (Angstroms)
 Number     Number       Type             X           Y           Z
 ---------------------------------------------------------------------
      1          1           0        0.000000    0.000000    0.000000
      2          6           0        1.073400    0.000000    0.000000
      3          1           0        1.655290    0.000000    0.902230
      4          1           0        1.483900    0.778510   -0.614830
      5          1           0        1.414060   -1.051910   -0.509420
 ---------------------------------------------------------------------
                    Distance matrix (angstroms):
                    1          2          3          4          5
     1  H    0.000000
     2  C    1.073400   0.000000
     3  H    1.885207   1.073599   0.000000
     4  H    1.784952   1.073594   1.713745   0.000000
     5  H    1.834554   1.217404   1.776925   1.834782   0.000000
 Stoichiometry    CH4
 Framework group  C1[X(CH4)]
 Deg. of freedom     9
 Full point group                 C1      NOp   1
 Largest Abelian subgroup         C1      NOp   1
 Largest concise Abelian subgroup C1      NOp   1
                         Standard orientation:                         
 ---------------------------------------------------------------------
 Center     Atomic      Atomic             Coordinates (Angstroms)
 Number     Number       Type             X           Y           Z
 ---------------------------------------------------------------------
      1          1           0       -1.044569    0.096221   -0.330850
      2          6           0       -0.023824   -0.028518   -0.023103
      3          1           0        0.759510   -0.304327   -0.703494
      4          1           0        0.073355   -0.686428    0.819698
      5          1           0        0.354647    1.065640    0.353265
 ---------------------------------------------------------------------
 Rotational constants (GHZ):         160.5832461         156.1702055         142.4093947
 Standard basis: 3-21G (6D, 7F)
 There are    17 symmetry adapted cartesian basis functions of A   symmetry.
 There are    17 symmetry adapted basis functions of A   symmetry.
    17 basis functions,    27 primitive gaussians,    17 cartesian basis functions
     5 alpha electrons        5 beta electrons
       nuclear repulsion energy        13.2414457162 Hartrees.
 NAtoms=    5 NActive=    5 NUniq=    5 SFac= 1.00D+00 NAtFMM=   60 NAOKFM=F Big=F
 Integral buffers will be    131072 words long.
 Raffenetti 1 integral format.
 Two-electron integral symmetry is turned on.
 One-electron integrals computed using PRISM.
 NBasis=    17 RedAO= T EigKep=  3.55D-02  NBF=    17
 NBsUse=    17 1.00D-06 EigRej= -1.00D+00 NBFU=    17
 ExpMin= 1.83D-01 ExpMax= 1.72D+02 ExpMxC= 1.72D+02 IAcc=3 IRadAn=         5 AccDes= 0.00D+00
 Harris functional with IExCor=  205 and IRadAn=       5 diagonalized for initial guess.
 HarFok:  IExCor=  205 AccDes= 0.00D+00 IRadAn=         5 IDoV= 1 UseB2=F ITyADJ=14
 ICtDFT=  3500011 ScaDFX=  1.000000  1.000000  1.000000  1.000000
 FoFCou: FMM=F IPFlag=           0 FMFlag=      100000 FMFlg1=           0
         NFxFlg=           0 DoJE=T BraDBF=F KetDBF=T FulRan=T
         wScrn=  0.000000 ICntrl=       500 IOpCl=  0 I1Cent=   200000004 NGrid=           0
         NMat0=    1 NMatS0=      1 NMatT0=    0 NMatD0=    1 NMtDS0=    0 NMtDT0=    0
 Petite list used in FoFCou.
 Keep R1 ints in memory in canonical form, NReq=816445.
 Requested convergence on RMS density matrix=1.00D-08 within 128 cycles.
 Requested convergence on MAX density matrix=1.00D-06.
 Requested convergence on             energy=1.00D-06.
 No special actions if energy rises.
 SCF Done:  E(RHF) =  -39.9624189397     A.U. after    9 cycles
            NFock=  9  Conv=0.28D-08     -V/T= 2.0049

 **********************************************************************

            Population analysis using the SCF density.

 **********************************************************************

 Orbital symmetries:
       Occupied  (A) (A) (A) (A) (A)
       Virtual   (A) (A) (A) (A) (A) (A) (A) (A) (A) (A) (A) (A)
 The electronic state is 1-A.
 Alpha  occ. eigenvalues --  -11.15755  -0.93848  -0.57626  -0.54199  -0.49560
 Alpha virt. eigenvalues --    0.28318   0.31686   0.35035   0.36446   0.90575
 Alpha virt. eigenvalues --    0.94520   0.97330   1.25308   1.31596   1.35706
 Alpha virt. eigenvalues --    1.39047   1.94576
          Condensed to atoms (all electrons):
               1          2          3          4          5
     1  H    0.477498   0.374567  -0.013237  -0.024598  -0.025587
     2  C    0.374567   5.308082   0.368796   0.367215   0.359463
     3  H   -0.013237   0.368796   0.497772  -0.033167  -0.031529
     4  H   -0.024598   0.367215  -0.033167   0.508305  -0.023827
     5  H   -0.025587   0.359463  -0.031529  -0.023827   0.572151
 Mulliken charges:
               1
     1  H    0.211358
     2  C   -0.778124
     3  H    0.211365
     4  H    0.206072
     5  H    0.149329
 Sum of Mulliken charges =   0.00000
 Mulliken charges with hydrogens summed into heavy atoms:
               1
     2  C    0.000000
 Electronic spatial extent (au):  <R**2>=             36.5012
 Charge=              0.0000 electrons
 Dipole moment (field-independent basis, Debye):
    X=              0.0341    Y=             -0.0662    Z=              0.0187  Tot=              0.0767
 Quadrupole moment (field-independent basis, Debye-Ang):
   XX=             -8.0790   YY=             -8.6424   ZZ=             -8.7406
   XY=             -0.1422   XZ=             -0.0369   YZ=             -0.1359
 Traceless Quadrupole moment (field-independent basis, Debye-Ang):
   XX=              0.4083   YY=             -0.1551   ZZ=             -0.2533
   XY=             -0.1422   XZ=             -0.0369   YZ=             -0.1359
 Octapole moment (field-independent basis, Debye-Ang**2):
  XXX=             -0.6200  YYY=              0.0964  ZZZ=              0.1335  XYY=              0.3286
  XXY=             -0.0702  XXZ=             -0.6193  XZZ=              0.2587  YZZ=             -0.4742
  YYZ=              0.4533  XYZ=              0.1974
 Hexadecapole moment (field-independent basis, Debye-Ang**3):
 XXXX=            -14.8007 YYYY=            -16.3777 ZZZZ=            -14.9328 XXXY=             -0.5230
 XXXZ=             -0.0063 YYYX=              0.1330 YYYZ=             -0.0834 ZZZX=             -0.2452
 ZZZY=             -0.5283 XXYY=             -5.5305 XXZZ=             -4.9269 YYZZ=             -5.0782
 XXYZ=              0.0471 YYXZ=              0.1151 ZZXY=             -0.2135
 N-N= 1.324144571622D+01 E-N=-1.187537999581D+02  KE= 3.976582211776D+01
 1\1\GINC-NODE62\SP\RHF\3-21G\C1H4\YANZ\22-Sep-2023\0\\# hf/3-21g\\tmpd
 ir/M2_conf_143_4.gjf\\0,1\H,0,0.,0.,0.\C,0,1.0734,0.,0.\H,0,1.65529,0.
 ,0.90223\H,0,1.4839,0.77851,-0.61483\H,0,1.41406,-1.05191,-0.50942\\Ve
 rsion=ES64L-G16RevA.03\State=1-A\HF=-39.9624189\RMSD=2.803e-09\Dipole=
 0.0178819,0.0241966,0.0024956\Quadrupole=0.2726201,-0.1019663,-0.17065
 38,0.0478181,0.1657068,-0.0770302\PG=C01 [X(C1H4)]\\@


 HIGGLEDY-PIGGLEDY
 NIC'LAUS COPERNICUS
 LOOKED AT THE UNIVERSE,
 SPOKE TO THE THRONG;
 GIVE UP YOUR PTOLOMY,
 RISE UP AND FOLLOW ME,
 HELIOCENTRICALLY
 PTOLEMY'S WRONG.
   -- NANCY L. STARK
 Job cpu time:       0 days  0 hours  0 minutes  1.6 seconds.
 Elapsed time:       0 days  0 hours  0 minutes  0.9 seconds.
 File lengths (MBytes):  RWF=      6 Int=      0 D2E=      0 Chk=      1 Scr=      1
 Normal termination of Gaussian 16 at Fri Sep 22 17:17:41 2023.
