 Entering Gaussian System, Link 0=g16
 Initial command:
 /share/apps/gaussian/g16/l1.exe "/tmp/55669.mgr/Gau-30395.inp" -scrdir="/tmp/55669.mgr/"
 Entering Link 1 = /share/apps/gaussian/g16/l1.exe PID=     30406.
  
 Copyright (c) 1988,1990,1992,1993,1995,1998,2003,2009,2016,
            Gaussian, Inc.  All Rights Reserved.
  
 This is part of the Gaussian(R) 16 program.  It is based on
 the Gaussian(R) 09 system (copyright 2009, Gaussian, Inc.),
 the Gaussian(R) 03 system (copyright 2003, Gaussian, Inc.),
 the Gaussian(R) 98 system (copyright 1998, Gaussian, Inc.),
 the Gaussian(R) 94 system (copyright 1995, Gaussian, Inc.),
 the Gaussian 92(TM) system (copyright 1992, Gaussian, Inc.),
 the Gaussian 90(TM) system (copyright 1990, Gaussian, Inc.),
 the Gaussian 88(TM) system (copyright 1988, Gaussian, Inc.),
 the Gaussian 86(TM) system (copyright 1986, Carnegie Mellon
 University), and the Gaussian 82(TM) system (copyright 1983,
 Carnegie Mellon University). Gaussian is a federally registered
 trademark of Gaussian, Inc.
  
 This software contains proprietary and confidential information,
 including trade secrets, belonging to Gaussian, Inc.
  
 This software is provided under written license and may be
 used, copied, transmitted, or stored only in accord with that
 written license.
  
 The following legend is applicable only to US Government
 contracts under FAR:
  
                    RESTRICTED RIGHTS LEGEND
  
 Use, reproduction and disclosure by the US Government is
 subject to restrictions as set forth in subparagraphs (a)
 and (c) of the Commercial Computer Software - Restricted
 Rights clause in FAR 52.227-19.
  
 Gaussian, Inc.
 340 Quinnipiac St., Bldg. 40, Wallingford CT 06492
  
  
 ---------------------------------------------------------------
 Warning -- This program may not be used in any manner that
 competes with the business of Gaussian, Inc. or will provide
 assistance to any competitor of Gaussian, Inc.  The licensee
 of this program is prohibited from giving any competitor of
 Gaussian, Inc. access to this program.  By using this program,
 the user acknowledges that Gaussian, Inc. is engaged in the
 business of creating and licensing software in the field of
 computational chemistry and represents and warrants to the
 licensee that it is not a competitor of Gaussian, Inc. and that
 it will not use this program in any manner prohibited above.
 ---------------------------------------------------------------
  

 Cite this work as:
 Gaussian 16, Revision A.03,
 M. J. Frisch, G. W. Trucks, H. B. Schlegel, G. E. Scuseria, 
 M. A. Robb, J. R. Cheeseman, G. Scalmani, V. Barone, 
 G. A. Petersson, H. Nakatsuji, X. Li, M. Caricato, A. V. Marenich, 
 J. Bloino, B. G. Janesko, R. Gomperts, B. Mennucci, H. P. Hratchian, 
 J. V. Ortiz, A. F. Izmaylov, J. L. Sonnenberg, D. Williams-Young, 
 F. Ding, F. Lipparini, F. Egidi, J. Goings, B. Peng, A. Petrone, 
 T. Henderson, D. Ranasinghe, V. G. Zakrzewski, J. Gao, N. Rega, 
 G. Zheng, W. Liang, M. Hada, M. Ehara, K. Toyota, R. Fukuda, 
 J. Hasegawa, M. Ishida, T. Nakajima, Y. Honda, O. Kitao, H. Nakai, 
 T. Vreven, K. Throssell, J. A. Montgomery, Jr., J. E. Peralta, 
 F. Ogliaro, M. J. Bearpark, J. J. Heyd, E. N. Brothers, K. N. Kudin, 
 V. N. Staroverov, T. A. Keith, R. Kobayashi, J. Normand, 
 K. Raghavachari, A. P. Rendell, J. C. Burant, S. S. Iyengar, 
 J. Tomasi, M. Cossi, J. M. Millam, M. Klene, C. Adamo, R. Cammi, 
 J. W. Ochterski, R. L. Martin, K. Morokuma, O. Farkas, 
 J. B. Foresman, and D. J. Fox, Gaussian, Inc., Wallingford CT, 2016.
 
 ******************************************
 Gaussian 16:  ES64L-G16RevA.03 25-Dec-2016
                22-Sep-2023 
 ******************************************
 %nprocshared=2
 Will use up to    2 processors via shared memory.
 %mem=2GB
 ----------
 # hf/3-21g
 ----------
 1/38=1,172=1/1;
 2/12=2,17=6,18=5,40=1/2;
 3/5=5,11=9,25=1,30=1/1,2,3;
 4//1;
 5/5=2,38=5/2;
 6/7=2,8=2,9=2,10=2,28=1/1;
 99/5=1,9=1/99;
 ------------------------
 tmpdir/M2_conf_168_9.gjf
 ------------------------
 Symbolic Z-matrix:
 Charge =  0 Multiplicity = 1
 H                     0.        0.        0. 
 C                     1.0736    0.        0. 
 Cl                    0.35999   0.        1.75215 
 H                     1.48403   0.89252  -0.43261 
 H                     1.48462  -0.89256  -0.43244 
 
                          Input orientation:                          
 ---------------------------------------------------------------------
 Center     Atomic      Atomic             Coordinates (Angstroms)
 Number     Number       Type             X           Y           Z
 ---------------------------------------------------------------------
      1          1           0        0.000000    0.000000    0.000000
      2          6           0        1.073600    0.000000    0.000000
      3         17           0        0.359990    0.000000    1.752150
      4          1           0        1.484030    0.892520   -0.432610
      5          1           0        1.484620   -0.892560   -0.432440
 ---------------------------------------------------------------------
                    Distance matrix (angstroms):
                    1          2          3          4          5
     1  H    0.000000
     2  C    1.073600   0.000000
     3  Cl   1.788749   1.891896   0.000000
     4  H    1.784962   1.073404   2.614046   0.000000
     5  H    1.785431   1.073594   2.614171   1.785080   0.000000
 Stoichiometry    CH3Cl
 Framework group  C1[X(CH3Cl)]
 Deg. of freedom     9
 Full point group                 C1      NOp   1
 Largest Abelian subgroup         C1      NOp   1
 Largest concise Abelian subgroup C1      NOp   1
                         Standard orientation:                         
 ---------------------------------------------------------------------
 Center     Atomic      Atomic             Coordinates (Angstroms)
 Number     Number       Type             X           Y           Z
 ---------------------------------------------------------------------
      1          1           0        0.806337   -0.001038    0.971574
      2          6           0        1.209820    0.000016   -0.023322
      3         17           0       -0.682074    0.000024   -0.020522
      4          1           0        1.764960   -0.892275   -0.242027
      5          1           0        1.765034    0.892804   -0.240742
 ---------------------------------------------------------------------
 Rotational constants (GHZ):         187.8284336          12.2193304          12.0673744
 Standard basis: 3-21G (6D, 7F)
 There are    28 symmetry adapted cartesian basis functions of A   symmetry.
 There are    28 symmetry adapted basis functions of A   symmetry.
    28 basis functions,    51 primitive gaussians,    28 cartesian basis functions
    13 alpha electrons       13 beta electrons
       nuclear repulsion energy        50.2040854519 Hartrees.
 NAtoms=    5 NActive=    5 NUniq=    5 SFac= 1.00D+00 NAtFMM=   60 NAOKFM=F Big=F
 Integral buffers will be    131072 words long.
 Raffenetti 1 integral format.
 Two-electron integral symmetry is turned on.
 One-electron integrals computed using PRISM.
 NBasis=    28 RedAO= T EigKep=  3.73D-02  NBF=    28
 NBsUse=    28 1.00D-06 EigRej= -1.00D+00 NBFU=    28
 ExpMin= 1.67D-01 ExpMax= 1.38D+03 ExpMxC= 1.38D+03 IAcc=3 IRadAn=         5 AccDes= 0.00D+00
 Harris functional with IExCor=  205 and IRadAn=       5 diagonalized for initial guess.
 HarFok:  IExCor=  205 AccDes= 0.00D+00 IRadAn=         5 IDoV= 1 UseB2=F ITyADJ=14
 ICtDFT=  3500011 ScaDFX=  1.000000  1.000000  1.000000  1.000000
 FoFCou: FMM=F IPFlag=           0 FMFlag=      100000 FMFlg1=           0
         NFxFlg=           0 DoJE=T BraDBF=F KetDBF=T FulRan=T
         wScrn=  0.000000 ICntrl=       500 IOpCl=  0 I1Cent=   200000004 NGrid=           0
         NMat0=    1 NMatS0=      1 NMatT0=    0 NMatD0=    1 NMtDS0=    0 NMtDT0=    0
 Petite list used in FoFCou.
 Keep R1 ints in memory in canonical form, NReq=889276.
 Requested convergence on RMS density matrix=1.00D-08 within 128 cycles.
 Requested convergence on MAX density matrix=1.00D-06.
 Requested convergence on             energy=1.00D-06.
 No special actions if energy rises.
 SCF Done:  E(RHF) =  -496.616866129     A.U. after   11 cycles
            NFock= 11  Conv=0.93D-08     -V/T= 2.0005

 **********************************************************************

            Population analysis using the SCF density.

 **********************************************************************

 Orbital symmetries:
       Occupied  (A) (A) (A) (A) (A) (A) (A) (A) (A) (A) (A) (A)
                 (A)
       Virtual   (A) (A) (A) (A) (A) (A) (A) (A) (A) (A) (A) (A)
                 (A) (A) (A)
 The electronic state is 1-A.
 Alpha  occ. eigenvalues -- -104.09724 -11.24324 -10.49263  -7.95621  -7.95199
 Alpha  occ. eigenvalues --   -7.95171  -1.13696  -0.92787  -0.65234  -0.62934
 Alpha  occ. eigenvalues --   -0.50454  -0.45010  -0.41252
 Alpha virt. eigenvalues --    0.13456   0.28488   0.31745   0.31844   0.74183
 Alpha virt. eigenvalues --    0.78492   0.80408   0.84540   0.94216   0.97558
 Alpha virt. eigenvalues --    1.02686   1.26757   1.31390   1.31423   1.84021
          Condensed to atoms (all electrons):
               1          2          3          4          5
     1  H    0.543338   0.366516  -0.160820  -0.020633  -0.020590
     2  C    0.366516   5.531415   0.099347   0.358116   0.358132
     3  Cl  -0.160820   0.099347  17.206890  -0.015934  -0.015941
     4  H   -0.020633   0.358116  -0.015934   0.436095  -0.025099
     5  H   -0.020590   0.358132  -0.015941  -0.025099   0.436077
 Mulliken charges:
               1
     1  H    0.292190
     2  C   -0.713526
     3  Cl  -0.113541
     4  H    0.267455
     5  H    0.267421
 Sum of Mulliken charges =   0.00000
 Mulliken charges with hydrogens summed into heavy atoms:
               1
     2  C    0.113541
     3  Cl  -0.113541
 Electronic spatial extent (au):  <R**2>=            138.0178
 Charge=              0.0000 electrons
 Dipole moment (field-independent basis, Debye):
    X=              2.5579    Y=             -0.0005    Z=              0.4142  Tot=              2.5912
 Quadrupole moment (field-independent basis, Debye-Ang):
   XX=            -18.5468   YY=            -20.1487   ZZ=            -20.9282
   XY=              0.0007   XZ=             -0.7299   YZ=             -0.0000
 Traceless Quadrupole moment (field-independent basis, Debye-Ang):
   XX=              1.3278   YY=             -0.2741   ZZ=             -1.0536
   XY=              0.0007   XZ=             -0.7299   YZ=             -0.0000
 Octapole moment (field-independent basis, Debye-Ang**2):
  XXX=              1.3121  YYY=              0.0006  ZZZ=              1.0722  XYY=              1.7303
  XXY=              0.0011  XXZ=             -0.8032  XZZ=             -0.7707  YZZ=             -0.0016
  YYZ=             -0.2327  XYZ=              0.0012
 Hexadecapole moment (field-independent basis, Debye-Ang**3):
 XXXX=           -120.7417 YYYY=            -27.2067 ZZZZ=            -26.5921 XXXY=              0.0039
 XXXZ=             -3.5232 YYYX=              0.0024 YYYZ=              0.0009 ZZZX=             -0.2428
 ZZZY=             -0.0008 XXYY=            -23.2002 XXZZ=            -28.4506 YYZZ=             -9.3253
 XXYZ=              0.0032 YYXZ=             -0.8474 ZZXY=             -0.0013
 N-N= 5.020408545186D+01 E-N=-1.281206035944D+03  KE= 4.963774943096D+02
 1\1\GINC-NODE62\SP\RHF\3-21G\C1H3Cl1\YANZ\22-Sep-2023\0\\# hf/3-21g\\t
 mpdir/M2_conf_168_9.gjf\\0,1\H,0,0.,0.,0.\C,0,1.0736,0.,0.\Cl,0,0.3599
 9,0.,1.75215\H,0,1.48403,0.89252,-0.43261\H,0,1.48462,-0.89256,-0.4324
 4\\Version=ES64L-G16RevA.03\State=1-A\HF=-496.6168661\RMSD=9.257e-09\D
 ipole=0.2271892,0.0000185,-0.993833\Quadrupole=-0.1553238,-0.2037949,0
 .3591187,-0.0005873,-1.0059621,-0.0002703\PG=C01 [X(C1H3Cl1)]\\@


 I DON'T EXACTLY UNDERSTAND WHAT YOU ARE SAYING,
 BUT YOU ARE ABSOLUTELY RIGHT.
     M.S.GORDON, IN A NDSU FACULTY MEETING
 Job cpu time:       0 days  0 hours  0 minutes  2.0 seconds.
 Elapsed time:       0 days  0 hours  0 minutes  1.1 seconds.
 File lengths (MBytes):  RWF=      6 Int=      0 D2E=      0 Chk=      1 Scr=      1
 Normal termination of Gaussian 16 at Fri Sep 22 17:18:19 2023.
