 Entering Gaussian System, Link 0=g16
 Initial command:
 /share/apps/gaussian/g16/l1.exe "/tmp/55669.mgr/Gau-34319.inp" -scrdir="/tmp/55669.mgr/"
 Entering Link 1 = /share/apps/gaussian/g16/l1.exe PID=     34330.
  
 Copyright (c) 1988,1990,1992,1993,1995,1998,2003,2009,2016,
            Gaussian, Inc.  All Rights Reserved.
  
 This is part of the Gaussian(R) 16 program.  It is based on
 the Gaussian(R) 09 system (copyright 2009, Gaussian, Inc.),
 the Gaussian(R) 03 system (copyright 2003, Gaussian, Inc.),
 the Gaussian(R) 98 system (copyright 1998, Gaussian, Inc.),
 the Gaussian(R) 94 system (copyright 1995, Gaussian, Inc.),
 the Gaussian 92(TM) system (copyright 1992, Gaussian, Inc.),
 the Gaussian 90(TM) system (copyright 1990, Gaussian, Inc.),
 the Gaussian 88(TM) system (copyright 1988, Gaussian, Inc.),
 the Gaussian 86(TM) system (copyright 1986, Carnegie Mellon
 University), and the Gaussian 82(TM) system (copyright 1983,
 Carnegie Mellon University). Gaussian is a federally registered
 trademark of Gaussian, Inc.
  
 This software contains proprietary and confidential information,
 including trade secrets, belonging to Gaussian, Inc.
  
 This software is provided under written license and may be
 used, copied, transmitted, or stored only in accord with that
 written license.
  
 The following legend is applicable only to US Government
 contracts under FAR:
  
                    RESTRICTED RIGHTS LEGEND
  
 Use, reproduction and disclosure by the US Government is
 subject to restrictions as set forth in subparagraphs (a)
 and (c) of the Commercial Computer Software - Restricted
 Rights clause in FAR 52.227-19.
  
 Gaussian, Inc.
 340 Quinnipiac St., Bldg. 40, Wallingford CT 06492
  
  
 ---------------------------------------------------------------
 Warning -- This program may not be used in any manner that
 competes with the business of Gaussian, Inc. or will provide
 assistance to any competitor of Gaussian, Inc.  The licensee
 of this program is prohibited from giving any competitor of
 Gaussian, Inc. access to this program.  By using this program,
 the user acknowledges that Gaussian, Inc. is engaged in the
 business of creating and licensing software in the field of
 computational chemistry and represents and warrants to the
 licensee that it is not a competitor of Gaussian, Inc. and that
 it will not use this program in any manner prohibited above.
 ---------------------------------------------------------------
  

 Cite this work as:
 Gaussian 16, Revision A.03,
 M. J. Frisch, G. W. Trucks, H. B. Schlegel, G. E. Scuseria, 
 M. A. Robb, J. R. Cheeseman, G. Scalmani, V. Barone, 
 G. A. Petersson, H. Nakatsuji, X. Li, M. Caricato, A. V. Marenich, 
 J. Bloino, B. G. Janesko, R. Gomperts, B. Mennucci, H. P. Hratchian, 
 J. V. Ortiz, A. F. Izmaylov, J. L. Sonnenberg, D. Williams-Young, 
 F. Ding, F. Lipparini, F. Egidi, J. Goings, B. Peng, A. Petrone, 
 T. Henderson, D. Ranasinghe, V. G. Zakrzewski, J. Gao, N. Rega, 
 G. Zheng, W. Liang, M. Hada, M. Ehara, K. Toyota, R. Fukuda, 
 J. Hasegawa, M. Ishida, T. Nakajima, Y. Honda, O. Kitao, H. Nakai, 
 T. Vreven, K. Throssell, J. A. Montgomery, Jr., J. E. Peralta, 
 F. Ogliaro, M. J. Bearpark, J. J. Heyd, E. N. Brothers, K. N. Kudin, 
 V. N. Staroverov, T. A. Keith, R. Kobayashi, J. Normand, 
 K. Raghavachari, A. P. Rendell, J. C. Burant, S. S. Iyengar, 
 J. Tomasi, M. Cossi, J. M. Millam, M. Klene, C. Adamo, R. Cammi, 
 J. W. Ochterski, R. L. Martin, K. Morokuma, O. Farkas, 
 J. B. Foresman, and D. J. Fox, Gaussian, Inc., Wallingford CT, 2016.
 
 ******************************************
 Gaussian 16:  ES64L-G16RevA.03 25-Dec-2016
                22-Sep-2023 
 ******************************************
 %nprocshared=2
 Will use up to    2 processors via shared memory.
 %mem=2GB
 ----------
 # hf/3-21g
 ----------
 1/38=1,172=1/1;
 2/12=2,17=6,18=5,40=1/2;
 3/5=5,11=9,25=1,30=1/1,2,3;
 4//1;
 5/5=2,38=5/2;
 6/7=2,8=2,9=2,10=2,28=1/1;
 99/5=1,9=1/99;
 ------------------------
 tmpdir/M2_conf_195_7.gjf
 ------------------------
 Symbolic Z-matrix:
 Charge =  0 Multiplicity = 1
 H                     0.        0.        0. 
 C                     1.0736    0.        0. 
 H                     1.22469   0.        1.06292 
 H                     1.48437   0.77836  -0.61449 
 H                     1.41386  -1.05183  -0.50984 
 
                          Input orientation:                          
 ---------------------------------------------------------------------
 Center     Atomic      Atomic             Coordinates (Angstroms)
 Number     Number       Type             X           Y           Z
 ---------------------------------------------------------------------
      1          1           0        0.000000    0.000000    0.000000
      2          6           0        1.073600    0.000000    0.000000
      3          1           0        1.224690    0.000000    1.062920
      4          1           0        1.484370    0.778360   -0.614490
      5          1           0        1.413860   -1.051830   -0.509840
 ---------------------------------------------------------------------
                    Distance matrix (angstroms):
                    1          2          3          4          5
     1  H    0.000000
     2  C    1.073600   0.000000
     3  H    1.621624   1.073605   0.000000
     4  H    1.785160   1.073394   1.867346   0.000000
     5  H    1.834471   1.217399   1.901501   1.834535   0.000000
 Stoichiometry    CH4
 Framework group  C1[X(CH4)]
 Deg. of freedom     9
 Full point group                 C1      NOp   1
 Largest Abelian subgroup         C1      NOp   1
 Largest concise Abelian subgroup C1      NOp   1
                         Standard orientation:                         
 ---------------------------------------------------------------------
 Center     Atomic      Atomic             Coordinates (Angstroms)
 Number     Number       Type             X           Y           Z
 ---------------------------------------------------------------------
      1          1           0        0.521470   -0.104421    0.913259
      2          6           0        0.004624    0.026715   -0.018562
      3          1           0        0.812971   -0.229414   -0.677046
      4          1           0       -0.480806    0.981535   -0.088210
      5          1           0       -0.881379   -0.807990   -0.036629
 ---------------------------------------------------------------------
 Rotational constants (GHZ):         167.6195674         154.4860119         138.2257479
 Standard basis: 3-21G (6D, 7F)
 There are    17 symmetry adapted cartesian basis functions of A   symmetry.
 There are    17 symmetry adapted basis functions of A   symmetry.
    17 basis functions,    27 primitive gaussians,    17 cartesian basis functions
     5 alpha electrons        5 beta electrons
       nuclear repulsion energy        13.2421746759 Hartrees.
 NAtoms=    5 NActive=    5 NUniq=    5 SFac= 1.00D+00 NAtFMM=   60 NAOKFM=F Big=F
 Integral buffers will be    131072 words long.
 Raffenetti 1 integral format.
 Two-electron integral symmetry is turned on.
 One-electron integrals computed using PRISM.
 NBasis=    17 RedAO= T EigKep=  3.53D-02  NBF=    17
 NBsUse=    17 1.00D-06 EigRej= -1.00D+00 NBFU=    17
 ExpMin= 1.83D-01 ExpMax= 1.72D+02 ExpMxC= 1.72D+02 IAcc=3 IRadAn=         5 AccDes= 0.00D+00
 Harris functional with IExCor=  205 and IRadAn=       5 diagonalized for initial guess.
 HarFok:  IExCor=  205 AccDes= 0.00D+00 IRadAn=         5 IDoV= 1 UseB2=F ITyADJ=14
 ICtDFT=  3500011 ScaDFX=  1.000000  1.000000  1.000000  1.000000
 FoFCou: FMM=F IPFlag=           0 FMFlag=      100000 FMFlg1=           0
         NFxFlg=           0 DoJE=T BraDBF=F KetDBF=T FulRan=T
         wScrn=  0.000000 ICntrl=       500 IOpCl=  0 I1Cent=   200000004 NGrid=           0
         NMat0=    1 NMatS0=      1 NMatT0=    0 NMatD0=    1 NMtDS0=    0 NMtDT0=    0
 Petite list used in FoFCou.
 Keep R1 ints in memory in canonical form, NReq=816431.
 Requested convergence on RMS density matrix=1.00D-08 within 128 cycles.
 Requested convergence on MAX density matrix=1.00D-06.
 Requested convergence on             energy=1.00D-06.
 No special actions if energy rises.
 SCF Done:  E(RHF) =  -39.9605889990     A.U. after    9 cycles
            NFock=  9  Conv=0.18D-08     -V/T= 2.0049

 **********************************************************************

            Population analysis using the SCF density.

 **********************************************************************

 Orbital symmetries:
       Occupied  (A) (A) (A) (A) (A)
       Virtual   (A) (A) (A) (A) (A) (A) (A) (A) (A) (A) (A) (A)
 The electronic state is 1-A.
 Alpha  occ. eigenvalues --  -11.15728  -0.93953  -0.57901  -0.52533  -0.50765
 Alpha virt. eigenvalues --    0.28120   0.32308   0.34524   0.36430   0.90104
 Alpha virt. eigenvalues --    0.94051   0.98912   1.24656   1.32384   1.34637
 Alpha virt. eigenvalues --    1.39818   1.93680
          Condensed to atoms (all electrons):
               1          2          3          4          5
     1  H    0.527369   0.363243  -0.045878  -0.023733  -0.024405
     2  C    0.363243   5.306671   0.369862   0.374342   0.363328
     3  H   -0.045878   0.369862   0.501834  -0.015186  -0.018622
     4  H   -0.023733   0.374342  -0.015186   0.481226  -0.026644
     5  H   -0.024405   0.363328  -0.018622  -0.026644   0.550285
 Mulliken charges:
               1
     1  H    0.203404
     2  C   -0.777447
     3  H    0.207990
     4  H    0.209995
     5  H    0.156059
 Sum of Mulliken charges =   0.00000
 Mulliken charges with hydrogens summed into heavy atoms:
               1
     2  C    0.000000
 Electronic spatial extent (au):  <R**2>=             36.5179
 Charge=              0.0000 electrons
 Dipole moment (field-independent basis, Debye):
    X=              0.1319    Y=              0.0298    Z=              0.0948  Tot=              0.1651
 Quadrupole moment (field-independent basis, Debye-Ang):
   XX=             -8.0972   YY=             -8.4411   ZZ=             -8.9061
   XY=             -0.2380   XZ=             -0.0244   YZ=             -0.0146
 Traceless Quadrupole moment (field-independent basis, Debye-Ang):
   XX=              0.3843   YY=              0.0403   ZZ=             -0.4246
   XY=             -0.2380   XZ=             -0.0244   YZ=             -0.0146
 Octapole moment (field-independent basis, Debye-Ang**2):
  XXX=              0.4434  YYY=              0.6748  ZZZ=              0.4172  XYY=             -0.6339
  XXY=             -0.3344  XXZ=             -0.1351  XZZ=              0.6782  YZZ=             -0.0525
  YYZ=             -0.0233  XYZ=              0.0863
 Hexadecapole moment (field-independent basis, Debye-Ang**3):
 XXXX=            -16.5577 YYYY=            -15.5241 ZZZZ=            -14.4888 XXXY=             -0.1747
 XXXZ=             -0.2714 YYYX=             -0.5019 YYYZ=             -0.0830 ZZZX=              0.1184
 ZZZY=             -0.0447 XXYY=             -4.9434 XXZZ=             -4.9928 YYZZ=             -5.3577
 XXYZ=              0.0770 YYXZ=              0.0155 ZZXY=             -0.3088
 N-N= 1.324217467590D+01 E-N=-1.187520509557D+02  KE= 3.976412841743D+01
 1\1\GINC-NODE62\SP\RHF\3-21G\C1H4\YANZ\22-Sep-2023\0\\# hf/3-21g\\tmpd
 ir/M2_conf_195_7.gjf\\0,1\H,0,0.,0.,0.\C,0,1.0736,0.,0.\H,0,1.22469,0.
 ,1.06292\H,0,1.48437,0.77836,-0.61449\H,0,1.41386,-1.05183,-0.50984\\V
 ersion=ES64L-G16RevA.03\State=1-A\HF=-39.960589\RMSD=1.805e-09\Dipole=
 -0.0559158,0.0251518,0.0214957\Quadrupole=-0.1631949,-0.0453043,0.2084
 991,0.0467717,-0.2838867,-0.0631221\PG=C01 [X(C1H4)]\\@


 THE POLHOLDE ROLLS WITHOUT SLIPPING ON THE HERPOLHOLDE LYING IN
 THE INVARIABLE PLANE.
 H.GOLDSTEIN, "CLASSICAL MECHANICS", PG 161
 Job cpu time:       0 days  0 hours  0 minutes  2.4 seconds.
 Elapsed time:       0 days  0 hours  0 minutes  1.4 seconds.
 File lengths (MBytes):  RWF=      6 Int=      0 D2E=      0 Chk=      1 Scr=      1
 Normal termination of Gaussian 16 at Fri Sep 22 17:19:05 2023.
