 Entering Gaussian System, Link 0=g16
 Initial command:
 /share/apps/gaussian/g16/l1.exe "/tmp/55669.mgr/Gau-5850.inp" -scrdir="/tmp/55669.mgr/"
 Entering Link 1 = /share/apps/gaussian/g16/l1.exe PID=      5857.
  
 Copyright (c) 1988,1990,1992,1993,1995,1998,2003,2009,2016,
            Gaussian, Inc.  All Rights Reserved.
  
 This is part of the Gaussian(R) 16 program.  It is based on
 the Gaussian(R) 09 system (copyright 2009, Gaussian, Inc.),
 the Gaussian(R) 03 system (copyright 2003, Gaussian, Inc.),
 the Gaussian(R) 98 system (copyright 1998, Gaussian, Inc.),
 the Gaussian(R) 94 system (copyright 1995, Gaussian, Inc.),
 the Gaussian 92(TM) system (copyright 1992, Gaussian, Inc.),
 the Gaussian 90(TM) system (copyright 1990, Gaussian, Inc.),
 the Gaussian 88(TM) system (copyright 1988, Gaussian, Inc.),
 the Gaussian 86(TM) system (copyright 1986, Carnegie Mellon
 University), and the Gaussian 82(TM) system (copyright 1983,
 Carnegie Mellon University). Gaussian is a federally registered
 trademark of Gaussian, Inc.
  
 This software contains proprietary and confidential information,
 including trade secrets, belonging to Gaussian, Inc.
  
 This software is provided under written license and may be
 used, copied, transmitted, or stored only in accord with that
 written license.
  
 The following legend is applicable only to US Government
 contracts under FAR:
  
                    RESTRICTED RIGHTS LEGEND
  
 Use, reproduction and disclosure by the US Government is
 subject to restrictions as set forth in subparagraphs (a)
 and (c) of the Commercial Computer Software - Restricted
 Rights clause in FAR 52.227-19.
  
 Gaussian, Inc.
 340 Quinnipiac St., Bldg. 40, Wallingford CT 06492
  
  
 ---------------------------------------------------------------
 Warning -- This program may not be used in any manner that
 competes with the business of Gaussian, Inc. or will provide
 assistance to any competitor of Gaussian, Inc.  The licensee
 of this program is prohibited from giving any competitor of
 Gaussian, Inc. access to this program.  By using this program,
 the user acknowledges that Gaussian, Inc. is engaged in the
 business of creating and licensing software in the field of
 computational chemistry and represents and warrants to the
 licensee that it is not a competitor of Gaussian, Inc. and that
 it will not use this program in any manner prohibited above.
 ---------------------------------------------------------------
  

 Cite this work as:
 Gaussian 16, Revision A.03,
 M. J. Frisch, G. W. Trucks, H. B. Schlegel, G. E. Scuseria, 
 M. A. Robb, J. R. Cheeseman, G. Scalmani, V. Barone, 
 G. A. Petersson, H. Nakatsuji, X. Li, M. Caricato, A. V. Marenich, 
 J. Bloino, B. G. Janesko, R. Gomperts, B. Mennucci, H. P. Hratchian, 
 J. V. Ortiz, A. F. Izmaylov, J. L. Sonnenberg, D. Williams-Young, 
 F. Ding, F. Lipparini, F. Egidi, J. Goings, B. Peng, A. Petrone, 
 T. Henderson, D. Ranasinghe, V. G. Zakrzewski, J. Gao, N. Rega, 
 G. Zheng, W. Liang, M. Hada, M. Ehara, K. Toyota, R. Fukuda, 
 J. Hasegawa, M. Ishida, T. Nakajima, Y. Honda, O. Kitao, H. Nakai, 
 T. Vreven, K. Throssell, J. A. Montgomery, Jr., J. E. Peralta, 
 F. Ogliaro, M. J. Bearpark, J. J. Heyd, E. N. Brothers, K. N. Kudin, 
 V. N. Staroverov, T. A. Keith, R. Kobayashi, J. Normand, 
 K. Raghavachari, A. P. Rendell, J. C. Burant, S. S. Iyengar, 
 J. Tomasi, M. Cossi, J. M. Millam, M. Klene, C. Adamo, R. Cammi, 
 J. W. Ochterski, R. L. Martin, K. Morokuma, O. Farkas, 
 J. B. Foresman, and D. J. Fox, Gaussian, Inc., Wallingford CT, 2016.
 
 ******************************************
 Gaussian 16:  ES64L-G16RevA.03 25-Dec-2016
                22-Sep-2023 
 ******************************************
 %nprocshared=2
 Will use up to    2 processors via shared memory.
 %mem=2GB
 ----------
 # hf/3-21g
 ----------
 1/38=1,172=1/1;
 2/12=2,17=6,18=5,40=1/2;
 3/5=5,11=9,25=1,30=1/1,2,3;
 4//1;
 5/5=2,38=5/2;
 6/7=2,8=2,9=2,10=2,28=1/1;
 99/5=1,9=1/99;
 -------------------
 tmpdir/M2_ref_3.gjf
 -------------------
 Symbolic Z-matrix:
 Charge =  0 Multiplicity = 1
 C                    -1.20238   0.00001   0. 
 Cl                    0.68956  -0.00001   0. 
 H                    -1.50281  -0.27125   0.9942 
 H                    -1.50241   0.99697  -0.26222 
 H                    -1.50296  -0.72556  -0.73198 
 
                          Input orientation:                          
 ---------------------------------------------------------------------
 Center     Atomic      Atomic             Coordinates (Angstroms)
 Number     Number       Type             X           Y           Z
 ---------------------------------------------------------------------
      1          6           0       -1.202384    0.000013    0.000000
      2         17           0        0.689558   -0.000014    0.000000
      3          1           0       -1.502812   -0.271247    0.994201
      4          1           0       -1.502409    0.996965   -0.262217
      5          1           0       -1.502957   -0.725555   -0.731984
 ---------------------------------------------------------------------
                    Distance matrix (angstroms):
                    1          2          3          4          5
     1  C    0.000000
     2  Cl   1.891942   0.000000
     3  H    1.073441   2.422496   0.000000
     4  H    1.073632   2.422281   1.785203   0.000000
     5  H    1.073589   2.422670   1.784968   1.785429   0.000000
 Stoichiometry    CH3Cl
 Framework group  C1[X(CH3Cl)]
 Deg. of freedom     9
 Full point group                 C1      NOp   1
 Largest Abelian subgroup         C1      NOp   1
 Largest concise Abelian subgroup C1      NOp   1
                         Standard orientation:                         
 ---------------------------------------------------------------------
 Center     Atomic      Atomic             Coordinates (Angstroms)
 Number     Number       Type             X           Y           Z
 ---------------------------------------------------------------------
      1          6           0       -1.202384    0.000013    0.000000
      2         17           0        0.689558   -0.000014   -0.000000
      3          1           0       -1.502812   -0.271832    0.994041
      4          1           0       -1.502409    0.997119   -0.261631
      5          1           0       -1.502957   -0.725124   -0.732411
 ---------------------------------------------------------------------
 Rotational constants (GHZ):         157.3469825          12.0671889          12.0669130
 Standard basis: 3-21G (6D, 7F)
 There are    28 symmetry adapted cartesian basis functions of A   symmetry.
 There are    28 symmetry adapted basis functions of A   symmetry.
    28 basis functions,    51 primitive gaussians,    28 cartesian basis functions
    13 alpha electrons       13 beta electrons
       nuclear repulsion energy        49.4319594248 Hartrees.
 NAtoms=    5 NActive=    5 NUniq=    5 SFac= 1.00D+00 NAtFMM=   60 NAOKFM=F Big=F
 Integral buffers will be    131072 words long.
 Raffenetti 1 integral format.
 Two-electron integral symmetry is turned on.
 One-electron integrals computed using PRISM.
 NBasis=    28 RedAO= T EigKep=  3.41D-02  NBF=    28
 NBsUse=    28 1.00D-06 EigRej= -1.00D+00 NBFU=    28
 ExpMin= 1.67D-01 ExpMax= 1.38D+03 ExpMxC= 1.38D+03 IAcc=3 IRadAn=         5 AccDes= 0.00D+00
 Harris functional with IExCor=  205 and IRadAn=       5 diagonalized for initial guess.
 HarFok:  IExCor=  205 AccDes= 0.00D+00 IRadAn=         5 IDoV= 1 UseB2=F ITyADJ=14
 ICtDFT=  3500011 ScaDFX=  1.000000  1.000000  1.000000  1.000000
 FoFCou: FMM=F IPFlag=           0 FMFlag=      100000 FMFlg1=           0
         NFxFlg=           0 DoJE=T BraDBF=F KetDBF=T FulRan=T
         wScrn=  0.000000 ICntrl=       500 IOpCl=  0 I1Cent=   200000004 NGrid=           0
         NMat0=    1 NMatS0=      1 NMatT0=    0 NMatD0=    1 NMtDS0=    0 NMtDT0=    0
 Petite list used in FoFCou.
 Keep R1 ints in memory in canonical form, NReq=889261.
 Requested convergence on RMS density matrix=1.00D-08 within 128 cycles.
 Requested convergence on MAX density matrix=1.00D-06.
 Requested convergence on             energy=1.00D-06.
 No special actions if energy rises.
 SCF Done:  E(RHF) =  -496.689483625     A.U. after   10 cycles
            NFock= 10  Conv=0.17D-08     -V/T= 2.0009

 **********************************************************************

            Population analysis using the SCF density.

 **********************************************************************

 Orbital symmetries:
       Occupied  (A) (A) (A) (A) (A) (A) (A) (A) (A) (A) (A) (A)
                 (A)
       Virtual   (A) (A) (A) (A) (A) (A) (A) (A) (A) (A) (A) (A)
                 (A) (A) (A)
 The electronic state is 1-A.
 Alpha  occ. eigenvalues -- -104.08772 -11.25002 -10.48162  -7.94536  -7.94132
 Alpha  occ. eigenvalues --   -7.94132  -1.11279  -0.93337  -0.63246  -0.63242
 Alpha  occ. eigenvalues --   -0.51323  -0.43727  -0.43727
 Alpha virt. eigenvalues --    0.16605   0.27331   0.31377   0.31378   0.73824
 Alpha virt. eigenvalues --    0.80680   0.80684   0.85497   0.93658   0.93669
 Alpha virt. eigenvalues --    0.99527   1.31223   1.31229   1.32193   1.92007
          Condensed to atoms (all electrons):
               1          2          3          4          5
     1  C    5.464400   0.168715   0.356480   0.356495   0.356488
     2  Cl   0.168715  17.058073  -0.039894  -0.039936  -0.039880
     3  H    0.356480  -0.039894   0.454777  -0.020619  -0.020648
     4  H    0.356495  -0.039936  -0.020619   0.454782  -0.020605
     5  H    0.356488  -0.039880  -0.020648  -0.020605   0.454777
 Mulliken charges:
               1
     1  C   -0.702577
     2  Cl  -0.107078
     3  H    0.269904
     4  H    0.269883
     5  H    0.269868
 Sum of Mulliken charges =   0.00000
 Mulliken charges with hydrogens summed into heavy atoms:
               1
     1  C    0.107078
     2  Cl  -0.107078
 Electronic spatial extent (au):  <R**2>=            139.2297
 Charge=              0.0000 electrons
 Dipole moment (field-independent basis, Debye):
    X=             -2.8664    Y=              0.0001    Z=              0.0001  Tot=              2.8664
 Quadrupole moment (field-independent basis, Debye-Ang):
   XX=            -18.5700   YY=            -20.1798   ZZ=            -20.1812
   XY=              0.0007   XZ=             -0.0002   YZ=             -0.0001
 Traceless Quadrupole moment (field-independent basis, Debye-Ang):
   XX=              1.0737   YY=             -0.5361   ZZ=             -0.5375
   XY=              0.0007   XZ=             -0.0002   YZ=             -0.0001
 Octapole moment (field-independent basis, Debye-Ang**2):
  XXX=              0.3836  YYY=              0.6604  ZZZ=              0.6401  XYY=             -1.2631
  XXY=             -0.0017  XXZ=              0.0005  XZZ=             -1.2615  YZZ=             -0.6598
  YYZ=             -0.6400  XYZ=             -0.0001
 Hexadecapole moment (field-independent basis, Debye-Ang**3):
 XXXX=           -126.0746 YYYY=            -27.2723 ZZZZ=            -27.2715 XXXY=              0.0050
 XXXZ=             -0.0014 YYYX=             -0.9857 YYYZ=             -0.0003 ZZZX=             -0.9567
 ZZZY=             -0.0001 XXYY=            -25.2036 XXZZ=            -25.2045 YYZZ=             -9.0907
 XXYZ=              0.0006 YYXZ=              0.9564 ZZXY=              0.9865
 N-N= 4.943195942485D+01 E-N=-1.279817350804D+03  KE= 4.962668022881D+02
 1\1\GINC-NODE62\SP\RHF\3-21G\C1H3Cl1\YANZ\22-Sep-2023\0\\# hf/3-21g\\t
 mpdir/M2_ref_3.gjf\\0,1\C,0,-1.202384,0.000013,0.\Cl,0,0.689558,-0.000
 014,0.\H,0,-1.502812,-0.271247,0.994201\H,0,-1.502409,0.996965,-0.2622
 17\H,0,-1.502957,-0.725555,-0.731984\\Version=ES64L-G16RevA.03\State=1
 -A\HF=-496.6894836\RMSD=1.656e-09\Dipole=-1.1277454,0.0000238,0.000037
 8\Quadrupole=0.7982556,-0.3986088,-0.3996468,0.0005328,-0.0001531,-0.0
 000494\PG=C01 [X(C1H3Cl1)]\\@


 THE SCIENTIFIC THEORIST IS NOT TO BE ENVIED. FOR NATURE, OR MORE
 PRECISELY EXPERIMENT, IS AN INEXORABLE AND NOT VERY FRIENDLY JUDGE OF HIS
 WORK.  IT NEVER SAYS "YES" TO A THEORY. IN THE MOST FAVORABLE CASES
 IT SAYS "MAYBE", AND IN THE GREAT MAJORITY OF CASES SIMPLY "NO"...
 PROBABLY EVERY THEORY WILL SOME DAY EXPERIENCE ITS "NO" - MOST
 THEORIES, SOON AFTER CONCEPTION.  -- A.EINSTEIN, NOV 11, 1922.
 Job cpu time:       0 days  0 hours  0 minutes  1.7 seconds.
 Elapsed time:       0 days  0 hours  0 minutes  1.0 seconds.
 File lengths (MBytes):  RWF=      6 Int=      0 D2E=      0 Chk=      1 Scr=      1
 Normal termination of Gaussian 16 at Fri Sep 22 17:14:05 2023.
