This job is running on host node109
Current directory: /share/home/Liaoyt/system-test/bnts-ome/Whole-FSV
Wed Jun 26 11:01:04 CST 2024
/tmp/93069.mgr
 Entering Gaussian System, Link 0=g16
 Initial command:
 /share/apps/gaussian/g16/l1.exe "/tmp/93069.mgr/Gau-149114.inp" -scrdir="/tmp/93069.mgr/"
 Entering Link 1 = /share/apps/gaussian/g16/l1.exe PID=    149116.
  
 Copyright (c) 1988,1990,1992,1993,1995,1998,2003,2009,2016,
            Gaussian, Inc.  All Rights Reserved.
  
 This is part of the Gaussian(R) 16 program.  It is based on
 the Gaussian(R) 09 system (copyright 2009, Gaussian, Inc.),
 the Gaussian(R) 03 system (copyright 2003, Gaussian, Inc.),
 the Gaussian(R) 98 system (copyright 1998, Gaussian, Inc.),
 the Gaussian(R) 94 system (copyright 1995, Gaussian, Inc.),
 the Gaussian 92(TM) system (copyright 1992, Gaussian, Inc.),
 the Gaussian 90(TM) system (copyright 1990, Gaussian, Inc.),
 the Gaussian 88(TM) system (copyright 1988, Gaussian, Inc.),
 the Gaussian 86(TM) system (copyright 1986, Carnegie Mellon
 University), and the Gaussian 82(TM) system (copyright 1983,
 Carnegie Mellon University). Gaussian is a federally registered
 trademark of Gaussian, Inc.
  
 This software contains proprietary and confidential information,
 including trade secrets, belonging to Gaussian, Inc.
  
 This software is provided under written license and may be
 used, copied, transmitted, or stored only in accord with that
 written license.
  
 The following legend is applicable only to US Government
 contracts under FAR:
  
                    RESTRICTED RIGHTS LEGEND
  
 Use, reproduction and disclosure by the US Government is
 subject to restrictions as set forth in subparagraphs (a)
 and (c) of the Commercial Computer Software - Restricted
 Rights clause in FAR 52.227-19.
  
 Gaussian, Inc.
 340 Quinnipiac St., Bldg. 40, Wallingford CT 06492
  
  
 ---------------------------------------------------------------
 Warning -- This program may not be used in any manner that
 competes with the business of Gaussian, Inc. or will provide
 assistance to any competitor of Gaussian, Inc.  The licensee
 of this program is prohibited from giving any competitor of
 Gaussian, Inc. access to this program.  By using this program,
 the user acknowledges that Gaussian, Inc. is engaged in the
 business of creating and licensing software in the field of
 computational chemistry and represents and warrants to the
 licensee that it is not a competitor of Gaussian, Inc. and that
 it will not use this program in any manner prohibited above.
 ---------------------------------------------------------------
  

 Cite this work as:
 Gaussian 16, Revision A.03,
 M. J. Frisch, G. W. Trucks, H. B. Schlegel, G. E. Scuseria, 
 M. A. Robb, J. R. Cheeseman, G. Scalmani, V. Barone, 
 G. A. Petersson, H. Nakatsuji, X. Li, M. Caricato, A. V. Marenich, 
 J. Bloino, B. G. Janesko, R. Gomperts, B. Mennucci, H. P. Hratchian, 
 J. V. Ortiz, A. F. Izmaylov, J. L. Sonnenberg, D. Williams-Young, 
 F. Ding, F. Lipparini, F. Egidi, J. Goings, B. Peng, A. Petrone, 
 T. Henderson, D. Ranasinghe, V. G. Zakrzewski, J. Gao, N. Rega, 
 G. Zheng, W. Liang, M. Hada, M. Ehara, K. Toyota, R. Fukuda, 
 J. Hasegawa, M. Ishida, T. Nakajima, Y. Honda, O. Kitao, H. Nakai, 
 T. Vreven, K. Throssell, J. A. Montgomery, Jr., J. E. Peralta, 
 F. Ogliaro, M. J. Bearpark, J. J. Heyd, E. N. Brothers, K. N. Kudin, 
 V. N. Staroverov, T. A. Keith, R. Kobayashi, J. Normand, 
 K. Raghavachari, A. P. Rendell, J. C. Burant, S. S. Iyengar, 
 J. Tomasi, M. Cossi, J. M. Millam, M. Klene, C. Adamo, R. Cammi, 
 J. W. Ochterski, R. L. Martin, K. Morokuma, O. Farkas, 
 J. B. Foresman, and D. J. Fox, Gaussian, Inc., Wallingford CT, 2016.
 
 ******************************************
 Gaussian 16:  ES64L-G16RevA.03 25-Dec-2016
                26-Jun-2024 
 ******************************************
 %chk=bnmoe.chk
 %nprocshared=16
 Will use up to   16 processors via shared memory.
 %mem=16GB
 ----------------------------------
 # b3lyp/6-31g(d) geom=connectivity
 ----------------------------------
 1/38=1,57=2,172=1/1;
 2/12=2,17=6,18=5,40=1/2;
 3/5=1,6=6,7=1,11=2,25=1,30=1,74=-5/1,2,3;
 4//1;
 5/5=2,38=5/2;
 6/7=2,8=2,9=2,10=2,28=1/1;
 99/5=1,9=1/99;
 -----
 title
 -----
 Symbolic Z-matrix:
 Charge =  0 Multiplicity = 1
 C                    -0.60648   1.61121   0.34595 
 C                    -1.8997    1.18402  -0.42363 
 C                    -2.80943   0.09913   0.20928 
 C                    -2.43448  -1.37143  -0.12933 
 C                     0.76846   1.14678  -0.20198 
 C                     1.27729  -0.2263    0.32118 
 H                    -0.69479   1.32204   1.40231 
 H                    -1.63877   0.88728  -1.44823 
 H                    -2.80456   0.21851   1.30042 
 H                    -0.58315   2.70806   0.34805 
 H                    -2.52023   2.08295  -0.52774 
 H                    -3.84544   0.26372  -0.1157 
 H                    -3.01433  -2.06339   0.49447 
 H                    -2.69653  -1.59376  -1.17314 
 H                     1.52179   1.90552   0.04701 
 H                     0.73576   1.07979  -1.29627 
 H                     1.51941  -0.13441   1.39535 
 C                     0.16749  -1.16448   0.15455 
 C                    -0.99264  -1.4966    0.05981 
 N                     2.22392  -0.79147   30.00378 
 N                     2.46788   0.3206    29.5231 
 N                     2.78513   1.28786   29.00411 
 C                     1.15615  -0.81771   31.04648 
 H                     1.14246  -1.85736   31.38093 
 H                     1.45905  -0.19669   31.89954 
 C                    -0.20298  -0.39175   30.53635 
 C                    -0.9357   -1.23058   29.68505 
 C                    -0.73539   0.85498   30.88218 
 C                    -2.1763   -0.83018   29.19302 
 H                    -0.52576  -2.19821   29.40544 
 C                    -1.9794    1.25817   30.39149 
 H                    -0.17603   1.51346   31.54321 
 C                    -2.70147   0.41623   29.54608 
 H                    -2.73599  -1.49051   28.53601 
 H                    -2.38171   2.22826   30.67045 
 H                    -3.66986   0.72719   29.16358 
 O                     2.43497  -0.67561  -0.37599 
 C                     3.63468  -0.04736   0.02949 
 H                     4.44739  -0.55819  -0.49361 
 H                     3.66711   1.02057  -0.23268 
 H                     3.79547  -0.14356   1.11572 
 
                          Input orientation:                          
 ---------------------------------------------------------------------
 Center     Atomic      Atomic             Coordinates (Angstroms)
 Number     Number       Type             X           Y           Z
 ---------------------------------------------------------------------
      1          6           0       -0.606482    1.611214    0.345947
      2          6           0       -1.899702    1.184016   -0.423626
      3          6           0       -2.809433    0.099125    0.209283
      4          6           0       -2.434475   -1.371426   -0.129325
      5          6           0        0.768456    1.146780   -0.201981
      6          6           0        1.277293   -0.226303    0.321176
      7          1           0       -0.694786    1.322041    1.402307
      8          1           0       -1.638771    0.887282   -1.448230
      9          1           0       -2.804560    0.218507    1.300420
     10          1           0       -0.583150    2.708055    0.348052
     11          1           0       -2.520225    2.082946   -0.527744
     12          1           0       -3.845443    0.263720   -0.115704
     13          1           0       -3.014333   -2.063392    0.494468
     14          1           0       -2.696534   -1.593761   -1.173141
     15          1           0        1.521792    1.905516    0.047011
     16          1           0        0.735760    1.079786   -1.296274
     17          1           0        1.519410   -0.134405    1.395353
     18          6           0        0.167485   -1.164485    0.154552
     19          6           0       -0.992636   -1.496604    0.059811
     20          7           0        2.223918   -0.791472   30.003777
     21          7           0        2.467876    0.320595   29.523101
     22          7           0        2.785125    1.287862   29.004110
     23          6           0        1.156149   -0.817712   31.046479
     24          1           0        1.142456   -1.857358   31.380926
     25          1           0        1.459053   -0.196692   31.899535
     26          6           0       -0.202984   -0.391750   30.536350
     27          6           0       -0.935704   -1.230580   29.685052
     28          6           0       -0.735392    0.854981   30.882185
     29          6           0       -2.176300   -0.830175   29.193023
     30          1           0       -0.525758   -2.198205   29.405435
     31          6           0       -1.979399    1.258167   30.391492
     32          1           0       -0.176028    1.513463   31.543208
     33          6           0       -2.701470    0.416228   29.546076
     34          1           0       -2.735985   -1.490513   28.536011
     35          1           0       -2.381706    2.228263   30.670452
     36          1           0       -3.669857    0.727191   29.163584
     37          8           0        2.434966   -0.675605   -0.375986
     38          6           0        3.634684   -0.047362    0.029488
     39          1           0        4.447390   -0.558189   -0.493610
     40          1           0        3.667109    1.020568   -0.232683
     41          1           0        3.795474   -0.143555    1.115716
 ---------------------------------------------------------------------
                    Distance matrix (angstroms):
                    1          2          3          4          5
     1  C    0.000000
     2  C    1.564340   0.000000
     3  C    2.675459   1.550862   0.000000
     4  C    3.530380   2.627333   1.554918   0.000000
     5  C    1.551251   2.677607   3.750734   4.074973   0.000000
     6  C    2.631671   3.554860   4.101189   3.910432   1.554981
     7  H    1.098779   2.192009   2.718559   3.553474   2.178425
     8  H    2.192891   1.098157   2.176922   2.733938   2.723090
     9  H    2.771678   2.173318   1.097659   2.170028   3.985642
    10  H    1.097091   2.156732   3.432508   4.505270   2.137043
    11  H    2.155987   1.097253   2.135977   3.478330   3.434815
    12  H    3.538323   2.174320   1.098192   2.159796   4.698436
    13  H    4.395740   3.554006   2.190843   1.097347   5.009964
    14  H    4.116772   2.985424   2.188540   1.098936   4.523259
    15  H    2.169223   3.528269   4.695625   5.140184   1.097813
    16  H    2.186531   2.778136   3.974518   4.173799   1.096829
    17  H    2.944122   4.091118   4.494461   4.414529   2.181019
    18  C    2.887934   3.181668   3.234462   2.625568   2.414586
    19  C    3.144761   2.870924   2.422694   1.459569   3.187077
    20  N   29.889312  30.769037  30.229781  30.496570  30.302855
    21  N   29.367051  30.275860  29.785885  30.102531  29.785082
    22  N   28.859970  29.798490  29.357354  29.716545  29.275973
    23  C   30.846867  31.681424  31.104647  31.386780  31.312550
    24  H   31.277143  32.094146  31.482004  31.716344  31.727665
    25  H   31.672762  32.526517  31.977798  32.286025  32.137037
    26  C   30.259463  31.046449  30.442824  30.762362  30.792138
    27  C   29.478251  30.220722  29.565181  29.852357  30.029831
    28  C   30.545873  31.329183  30.752234  31.137719  31.121891
    29  C   28.992732  29.686350  29.005545  29.328479  29.608212
    30  H   29.308225  30.051623  29.375299  29.607918  29.823866
    31  C   30.078968  30.815310  30.215858  30.637267  30.716831
    32  H   31.200384  32.014966  31.476182  31.883734  31.761353
    33  C   29.299565  29.990255  29.338705  29.730396  29.958655
    34  H   28.440028  29.094897  28.371392  28.667169  29.070752
    35  H   30.382689  31.115341  30.538484  31.009463  31.051574
    36  H   28.993481  29.643636  28.973891  29.393960  29.702038
    37  O    3.873130   4.716970   5.333523   4.925085   2.475605
    38  C    4.564922   5.687797   6.448289   6.213941   3.113650
    39  H    5.563523   6.582230   7.320355   6.939317   4.065283
    40  H    4.352845   5.572482   6.556675   6.554513   2.901562
    41  H    4.800935   6.047069   6.671230   6.470708   3.544591
                    6          7          8          9         10
     6  C    0.000000
     7  H    2.730441   0.000000
     8  H    3.588077   3.034087   0.000000
     9  H    4.221173   2.383131   3.059641   0.000000
    10  H    3.474540   1.744979   2.766980   3.469801   0.000000
    11  H    4.524869   2.763386   1.747532   2.626626   2.215861
    12  H    5.164631   3.653908   2.652142   1.758092   4.102731
    13  H    4.671507   4.203050   3.791137   2.429120   5.357126
    14  H    4.460294   4.375138   2.711109   3.068304   5.028523
    15  H    2.163238   2.662797   3.641662   4.809819   2.272768
    16  H    2.148318   3.063901   2.387163   4.474202   2.663567
    17  H    1.104953   2.650273   4.370803   4.339387   3.687435
    18  C    1.462745   2.912596   3.168788   3.472568   3.949362
    19  C    2.614298   3.136203   2.893888   2.786357   4.234374
    20  N   29.703069  28.827588  31.732748  29.157989  29.993138
    21  N   29.231302  28.315797  31.247544  28.711125  29.431144
    22  N   28.762423  27.820325  30.774605  28.282195  28.888266
    23  C   30.731233  29.778876  32.659221  30.026472  30.949146
    24  H   31.102839  30.202676  33.060880  30.409291  31.414328
    25  H   31.578896  30.610888  33.508879  30.897518  31.750657
    26  C   30.251865  29.188549  32.042328  29.357796  30.349409
    27  C   29.464269  28.398725  31.213153  28.482974  29.602309
    28  C   30.646294  29.483606  32.343050  29.660873  30.590690
    29  C   29.083939  27.913273  30.694054  27.919379  29.104803
    30  H   29.206737  28.224030  31.027531  28.300624  29.468732
    31  C   30.282563  29.017704  31.843704  29.121337  30.110795
    32  H   31.304220  30.145973  33.029785  30.384409  31.220675
    33  C   29.501495  28.229754  31.016096  28.246536  29.364338
    34  H   28.526856  27.355344  30.098380  27.289245  28.580128
    35  H   30.667437  29.330722  32.155247  29.441751  30.379482
    36  H   29.279138  27.926571  30.679539  27.881238  29.048003
    37  O    1.424119   4.116827   4.493068   5.573366   4.591559
    38  C    2.382099   4.743860   5.555766   6.568852   5.048161
    39  H    3.289915   5.794113   6.327878   7.510831   6.056656
    40  H    2.751848   4.667998   5.444969   6.698971   4.609725
    41  H    2.641851   4.732076   6.096512   6.612538   5.281414
                   11         12         13         14         15
    11  H    0.000000
    12  H    2.288135   0.000000
    13  H    4.298974   2.545291   0.000000
    14  H    3.737084   2.426603   1.761383   0.000000
    15  H    4.086530   5.615085   6.043913   5.614979   0.000000
    16  H    3.492622   4.800743   5.210520   4.352431   1.761843
    17  H    4.993355   5.587794   5.008733   5.147919   2.445263
    18  C    4.270260   4.268067   3.323784   3.185852   3.357174
    19  C    3.935979   3.356792   2.144163   2.105440   4.230477
    20  N   31.031322  30.743027  29.997606  31.573006  30.086119
    21  N   30.512953  30.303795  29.637806  31.186458  29.533827
    22  N   30.015151  29.882719  29.285906  30.806149  28.991224
    23  C   31.919604  31.579536  30.860493  32.458425  31.121001
    24  H   32.358993  31.959597  31.165600  32.780705  31.561327
    25  H   32.749959  32.454972  31.776941  33.361993  31.921881
    26  C   31.248547  30.874675  30.219410  31.830087  30.624371
    27  C   30.435230  29.979736  29.276347  30.910524  29.904646
    28  C   31.484554  31.159126  30.612478  32.208482  30.935521
    29  C   29.865173  29.376591  28.737261  30.380218  29.506777
    30  H   30.303488  29.809043  29.018187  30.661489  29.714475
    31  C   30.934963  30.580387  30.098769  31.701322  30.552658
    32  H   32.161554  31.895347  31.382704  32.960086  31.544361
    33  C   30.120515  29.684224  29.158915  30.784905  29.837037
    34  H   29.283409  28.726799  28.048775  29.709358  29.004910
    35  H   31.198842  30.883480  30.486202  32.073687  30.872910
    36  H   29.744490  29.283482  28.812068  30.440944  29.599265
    37  O    5.673319   6.355597   5.690211   5.273591   2.770379
    38  C    6.536943   7.488001   6.963477   6.627367   2.877213
    39  H    7.451471   8.342028   7.675887   7.250505   3.862802
    40  H    6.284808   7.551486   7.394675   6.943712   2.337466
    41  H    6.895384   7.750218   7.102478   7.034780   3.241983
                   16         17         18         19         20
    16  H    0.000000
    17  H    3.055032   0.000000
    18  C    2.732139   2.104365   0.000000
    19  C    3.385868   3.154304   1.210438   0.000000
    20  N   31.391231  28.624640  29.922304  30.124484   0.000000
    21  N   30.877346  28.147412  29.495914  29.721420   1.235823
    22  N   30.370322  27.674326  29.071688  29.322298   2.374430
    23  C   32.401094  29.661223  30.909689  31.068501   1.492664
    24  H   32.811456  30.037398  31.249273  31.395876   2.049930
    25  H   33.228215  30.504305  31.785983  31.960422   2.129009
    26  C   31.880442  29.192988  30.393881  30.506781   2.516598
    27  C   31.112283  28.417182  29.551173  29.626490   3.205872
    28  C   32.212855  29.589462  30.807156  30.913021   3.498560
    29  C   30.687543  28.050897  29.134823  29.164863   4.474454
    30  H   30.901967  28.160374  29.277352  29.357722   3.146050
    31  C   31.804377  29.239648  30.409717  30.472501   4.692464
    32  H   32.855000  30.240422  31.504557  31.637504   3.666376
    33  C   31.040384  28.470726  29.573489  29.597616   5.091903
    34  H   30.143402  27.505685  28.531450  28.529516   5.219543
    35  H   32.138904  29.628235  30.809565  30.867710   5.547524
    36  H   30.778836  28.262086  29.322817  29.311131   6.144009
    37  O    2.610676   2.066103   2.379484   3.551396  30.380717
    38  C    3.381105   2.519434   3.644870   4.849053  30.016695
    39  H    4.135629   3.510106   4.370960   5.548043  30.579223
    40  H    3.118900   2.932077   4.143884   5.304237  30.325069
    41  H    4.083639   2.293196   3.889529   5.086421  28.938031
                   21         22         23         24         25
    21  N    0.000000
    22  N    1.142630   0.000000
    23  C    2.310206   3.355335   0.000000
    24  H    3.154636   4.270834   1.092202   0.000000
    25  H    2.633011   3.513667   1.097780   1.768333   0.000000
    26  C    2.944079   3.754684   1.512917   2.161371   2.158399
    27  C    3.743892   4.544315   2.529781   2.754558   3.421655
    28  C    3.520455   4.013551   2.530380   3.336441   2.637538
    29  C    4.795998   5.397917   3.813223   4.105626   4.576276
    30  H    3.914083   4.824487   2.725362   2.608003   3.763783
    31  C    4.627245   4.962499   3.817059   4.520117   4.026631
    32  H    3.534685   3.907217   2.730533   3.623144   2.392716
    33  C    5.170282   5.581774   4.319148   4.828212   4.819169
    34  H    5.597734   6.198479   4.680151   4.823942   5.530426
    35  H    5.336109   5.509736   4.683565   5.442131   4.705580
    36  H    6.161683   6.481248   5.405770   5.895325   5.885975
    37  O   29.915697  29.447714  31.448798  31.805166  32.293823
    38  C   29.518978  29.017810  31.125396  31.502380  31.944570
    39  H   30.094745  29.602137  31.712408  32.071739  32.532702
    40  H   29.788165  29.251315  31.433583  31.844569  32.230989
    41  H   28.442178  27.943376  30.054469  30.429567  30.872402
                   26         27         28         29         30
    26  C    0.000000
    27  C    1.401864   0.000000
    28  C    1.399071   2.413051   0.000000
    29  C    2.427081   1.393375   2.787335   0.000000
    30  H    2.155558   1.087446   3.398041   2.154278   0.000000
    31  C    2.428757   2.789663   1.396743   2.415837   3.877098
    32  H    2.155070   3.399945   1.087859   3.875190   4.297542
    33  C    2.806404   2.418516   2.417262   1.397845   3.404227
    34  H    3.409506   2.151481   3.874048   1.086719   2.478271
    35  H    3.410173   3.876278   2.154318   3.402798   4.963711
    36  H    3.893035   3.402997   3.403087   2.158001   4.301371
    37  O   31.025987  30.254511  31.455796  29.926810  29.966936
    38  C   30.749226  30.029001  31.173718  29.747136  29.746961
    39  H   31.376936  30.662378  31.832354  30.417814  30.354155
    40  H   31.043609  30.353326  31.425220  30.057326  30.105791
    41  H   29.692137  28.978831  30.125878  28.713563  28.691512
                   31         32         33         34         35
    31  C    0.000000
    32  H    2.154941   0.000000
    33  C    1.394624   3.401517   0.000000
    34  H    3.401540   4.961903   2.158028   0.000000
    35  H    1.086626   2.477430   2.156372   4.302400   0.000000
    36  H    2.155769   4.299730   1.086633   2.486800   2.486604
    37  O   31.142636  32.100534  30.379349  29.382076  31.551768
    38  C   30.904265  31.781634  30.192561  29.245341  31.308850
    39  H   31.598929  32.434942  30.893987  29.919709  32.024984
    40  H   31.141284  32.011246  30.458144  29.579434  31.512703
    41  H   29.872814  30.730291  29.168631  28.219618  30.286391
                   36         37         38         39         40
    36  H    0.000000
    37  O   30.196405   0.000000
    38  C   30.045828   1.413655   0.000000
    39  H   30.774845   2.019275   1.093191   0.000000
    40  H   30.299466   2.101360   1.100118   1.780279   0.000000
    41  H   29.037429   2.087878   1.102269   1.785174   1.786012
                   41
    41  H    0.000000
 Stoichiometry    C16H21N3O
 Framework group  C1[X(C16H21N3O)]
 Deg. of freedom   117
 Full point group                 C1      NOp   1
 Largest Abelian subgroup         C1      NOp   1
 Largest concise Abelian subgroup C1      NOp   1
                         Standard orientation:                         
 ---------------------------------------------------------------------
 Center     Atomic      Atomic             Coordinates (Angstroms)
 Number     Number       Type             X           Y           Z
 ---------------------------------------------------------------------
      1          6           0      -14.037615   -0.606482    1.611214
      2          6           0      -14.807188   -1.899702    1.184016
      3          6           0      -14.174279   -2.809433    0.099125
      4          6           0      -14.512887   -2.434475   -1.371426
      5          6           0      -14.585543    0.768456    1.146780
      6          6           0      -14.062386    1.277293   -0.226303
      7          1           0      -12.981255   -0.694786    1.322041
      8          1           0      -15.831792   -1.638771    0.887282
      9          1           0      -13.083142   -2.804560    0.218507
     10          1           0      -14.035510   -0.583150    2.708055
     11          1           0      -14.911306   -2.520225    2.082946
     12          1           0      -14.499266   -3.845443    0.263720
     13          1           0      -13.889094   -3.014333   -2.063392
     14          1           0      -15.556703   -2.696534   -1.593761
     15          1           0      -14.336551    1.521792    1.905516
     16          1           0      -15.679836    0.735760    1.079786
     17          1           0      -12.988209    1.519410   -0.134405
     18          6           0      -14.229010    0.167485   -1.164485
     19          6           0      -14.323751   -0.992636   -1.496604
     20          7           0       15.620215    2.223918   -0.791472
     21          7           0       15.139539    2.467876    0.320595
     22          7           0       14.620548    2.785125    1.287862
     23          6           0       16.662917    1.156149   -0.817712
     24          1           0       16.997364    1.142456   -1.857358
     25          1           0       17.515973    1.459053   -0.196692
     26          6           0       16.152788   -0.202984   -0.391750
     27          6           0       15.301490   -0.935704   -1.230580
     28          6           0       16.498623   -0.735392    0.854981
     29          6           0       14.809461   -2.176300   -0.830175
     30          1           0       15.021873   -0.525758   -2.198205
     31          6           0       16.007930   -1.979399    1.258167
     32          1           0       17.159646   -0.176028    1.513463
     33          6           0       15.162514   -2.701470    0.416228
     34          1           0       14.152449   -2.735985   -1.490513
     35          1           0       16.286890   -2.381706    2.228263
     36          1           0       14.780022   -3.669857    0.727191
     37          8           0      -14.759548    2.434966   -0.675605
     38          6           0      -14.354074    3.634684   -0.047362
     39          1           0      -14.877172    4.447390   -0.558189
     40          1           0      -14.616245    3.667109    1.020568
     41          1           0      -13.267846    3.795474   -0.143555
 ---------------------------------------------------------------------
 Rotational constants (GHZ):           0.3585895           0.0082431           0.0081312
 Standard basis: 6-31G(d) (6D, 7F)
 There are   342 symmetry adapted cartesian basis functions of A   symmetry.
 There are   342 symmetry adapted basis functions of A   symmetry.
   342 basis functions,   644 primitive gaussians,   342 cartesian basis functions
    73 alpha electrons       73 beta electrons
       nuclear repulsion energy      1085.2827319204 Hartrees.
 NAtoms=   41 NActive=   41 NUniq=   41 SFac= 1.00D+00 NAtFMM=   60 NAOKFM=F Big=F
 Integral buffers will be    131072 words long.
 Raffenetti 2 integral format.
 Two-electron integral symmetry is turned on.
 One-electron integrals computed using PRISM.
 NBasis=   342 RedAO= T EigKep=  4.73D-04  NBF=   342
 NBsUse=   342 1.00D-06 EigRej= -1.00D+00 NBFU=   342
 ExpMin= 1.61D-01 ExpMax= 5.48D+03 ExpMxC= 8.25D+02 IAcc=3 IRadAn=         5 AccDes= 0.00D+00
 Harris functional with IExCor=  402 and IRadAn=       5 diagonalized for initial guess.
 HarFok:  IExCor=  402 AccDes= 0.00D+00 IRadAn=         5 IDoV= 1 UseB2=F ITyADJ=14
 ICtDFT=  3500011 ScaDFX=  1.000000  1.000000  1.000000  1.000000
 FoFCou: FMM=F IPFlag=           0 FMFlag=      100000 FMFlg1=           0
         NFxFlg=           0 DoJE=T BraDBF=F KetDBF=T FulRan=T
         wScrn=  0.000000 ICntrl=       500 IOpCl=  0 I1Cent=   200000004 NGrid=           0
         NMat0=    1 NMatS0=      1 NMatT0=    0 NMatD0=    1 NMtDS0=    0 NMtDT0=    0
 Petite list used in FoFCou.
 Requested convergence on RMS density matrix=1.00D-08 within 128 cycles.
 Requested convergence on MAX density matrix=1.00D-06.
 Requested convergence on             energy=1.00D-06.
 No special actions if energy rises.
 Integral accuracy reduced to 1.0D-05 until final iterations.
 Initial convergence to 1.0D-05 achieved.  Increase integral accuracy.
 SCF Done:  E(RB3LYP) =  -861.657017040     A.U. after   15 cycles
            NFock= 15  Conv=0.84D-08     -V/T= 2.0097

 **********************************************************************

            Population analysis using the SCF density.

 **********************************************************************

 Orbital symmetries:
       Occupied  (A) (A) (A) (A) (A) (A) (A) (A) (A) (A) (A) (A)
                 (A) (A) (A) (A) (A) (A) (A) (A) (A) (A) (A) (A)
                 (A) (A) (A) (A) (A) (A) (A) (A) (A) (A) (A) (A)
                 (A) (A) (A) (A) (A) (A) (A) (A) (A) (A) (A) (A)
                 (A) (A) (A) (A) (A) (A) (A) (A) (A) (A) (A) (A)
                 (A) (A) (A) (A) (A) (A) (A) (A) (A) (A) (A) (A)
                 (A)
       Virtual   (A) (A) (A) (A) (A) (A) (A) (A) (A) (A) (A) (A)
                 (A) (A) (A) (A) (A) (A) (A) (A) (A) (A) (A) (A)
                 (A) (A) (A) (A) (A) (A) (A) (A) (A) (A) (A) (A)
                 (A) (A) (A) (A) (A) (A) (A) (A) (A) (A) (A) (A)
                 (A) (A) (A) (A) (A) (A) (A) (A) (A) (A) (A) (A)
                 (A) (A) (A) (A) (A) (A) (A) (A) (A) (A) (A) (A)
                 (A) (A) (A) (A) (A) (A) (A) (A) (A) (A) (A) (A)
                 (A) (A) (A) (A) (A) (A) (A) (A) (A) (A) (A) (A)
                 (A) (A) (A) (A) (A) (A) (A) (A) (A) (A) (A) (A)
                 (A) (A) (A) (A) (A) (A) (A) (A) (A) (A) (A) (A)
                 (A) (A) (A) (A) (A) (A) (A) (A) (A) (A) (A) (A)
                 (A) (A) (A) (A) (A) (A) (A) (A) (A) (A) (A) (A)
                 (A) (A) (A) (A) (A) (A) (A) (A) (A) (A) (A) (A)
                 (A) (A) (A) (A) (A) (A) (A) (A) (A) (A) (A) (A)
                 (A) (A) (A) (A) (A) (A) (A) (A) (A) (A) (A) (A)
                 (A) (A) (A) (A) (A) (A) (A) (A) (A) (A) (A) (A)
                 (A) (A) (A) (A) (A) (A) (A) (A) (A) (A) (A) (A)
                 (A) (A) (A) (A) (A) (A) (A) (A) (A) (A) (A) (A)
                 (A) (A) (A) (A) (A) (A) (A) (A) (A) (A) (A) (A)
                 (A) (A) (A) (A) (A) (A) (A) (A) (A) (A) (A) (A)
                 (A) (A) (A) (A) (A) (A) (A) (A) (A) (A) (A) (A)
                 (A) (A) (A) (A) (A) (A) (A) (A) (A) (A) (A) (A)
                 (A) (A) (A) (A) (A)
 The electronic state is 1-A.
 Alpha  occ. eigenvalues --  -19.14388 -14.50939 -14.40433 -14.37965 -10.25180
 Alpha  occ. eigenvalues --  -10.24361 -10.22491 -10.20644 -10.20540 -10.19960
 Alpha  occ. eigenvalues --  -10.19836 -10.19808 -10.19774 -10.19746 -10.18984
 Alpha  occ. eigenvalues --  -10.18460 -10.18347 -10.18313 -10.17245 -10.16482
 Alpha  occ. eigenvalues --   -1.13580  -1.02785  -0.97715  -0.86345  -0.81889
 Alpha  occ. eigenvalues --   -0.78721  -0.78138  -0.75612  -0.75209  -0.71474
 Alpha  occ. eigenvalues --   -0.69591  -0.67905  -0.64708  -0.61472  -0.60399
 Alpha  occ. eigenvalues --   -0.58991  -0.57360  -0.54238  -0.52012  -0.51440
 Alpha  occ. eigenvalues --   -0.50620  -0.49948  -0.48814  -0.47738  -0.46649
 Alpha  occ. eigenvalues --   -0.46284  -0.45381  -0.45122  -0.44319  -0.43492
 Alpha  occ. eigenvalues --   -0.42818  -0.42255  -0.41833  -0.40894  -0.40342
 Alpha  occ. eigenvalues --   -0.38898  -0.38587  -0.37908  -0.36964  -0.35858
 Alpha  occ. eigenvalues --   -0.35142  -0.34974  -0.33229  -0.32571  -0.31915
 Alpha  occ. eigenvalues --   -0.30871  -0.30104  -0.26150  -0.25973  -0.25791
 Alpha  occ. eigenvalues --   -0.24732  -0.24703  -0.23628
 Alpha virt. eigenvalues --   -0.02964  -0.01088  -0.00737   0.01499   0.02612
 Alpha virt. eigenvalues --    0.05325   0.08784   0.09111   0.09956   0.11367
 Alpha virt. eigenvalues --    0.11373   0.12271   0.12356   0.13069   0.14531
 Alpha virt. eigenvalues --    0.14732   0.15502   0.15643   0.15757   0.15939
 Alpha virt. eigenvalues --    0.16220   0.17008   0.17744   0.17762   0.18087
 Alpha virt. eigenvalues --    0.18507   0.18688   0.19302   0.20225   0.22077
 Alpha virt. eigenvalues --    0.23830   0.23872   0.24304   0.25943   0.26186
 Alpha virt. eigenvalues --    0.27431   0.28429   0.29843   0.31176   0.31241
 Alpha virt. eigenvalues --    0.32250   0.32291   0.33677   0.34018   0.44125
 Alpha virt. eigenvalues --    0.46037   0.46572   0.48077   0.48603   0.50865
 Alpha virt. eigenvalues --    0.50984   0.52831   0.53077   0.53329   0.53580
 Alpha virt. eigenvalues --    0.54673   0.54688   0.54735   0.55146   0.56195
 Alpha virt. eigenvalues --    0.56969   0.58417   0.58545   0.58764   0.59613
 Alpha virt. eigenvalues --    0.59733   0.60476   0.61185   0.61452   0.61653
 Alpha virt. eigenvalues --    0.63790   0.64115   0.64722   0.64911   0.65560
 Alpha virt. eigenvalues --    0.66218   0.66874   0.69401   0.69526   0.69750
 Alpha virt. eigenvalues --    0.70748   0.72164   0.72756   0.73472   0.74238
 Alpha virt. eigenvalues --    0.75116   0.75489   0.77243   0.78672   0.80007
 Alpha virt. eigenvalues --    0.80784   0.81200   0.82495   0.82602   0.83341
 Alpha virt. eigenvalues --    0.83598   0.84800   0.85294   0.85409   0.85774
 Alpha virt. eigenvalues --    0.86709   0.87339   0.88391   0.88456   0.88505
 Alpha virt. eigenvalues --    0.88960   0.89857   0.89903   0.90379   0.91978
 Alpha virt. eigenvalues --    0.93245   0.93315   0.93473   0.95055   0.95737
 Alpha virt. eigenvalues --    0.96047   0.97084   0.97295   0.97626   0.98667
 Alpha virt. eigenvalues --    1.00581   1.00593   1.01012   1.01835   1.06850
 Alpha virt. eigenvalues --    1.08364   1.10565   1.10569   1.13973   1.15862
 Alpha virt. eigenvalues --    1.16040   1.17986   1.18842   1.24742   1.25017
 Alpha virt. eigenvalues --    1.27269   1.29298   1.31273   1.32384   1.34397
 Alpha virt. eigenvalues --    1.34831   1.39373   1.39636   1.40980   1.42419
 Alpha virt. eigenvalues --    1.43632   1.45217   1.46619   1.47025   1.47877
 Alpha virt. eigenvalues --    1.48135   1.49541   1.50393   1.50452   1.51629
 Alpha virt. eigenvalues --    1.53040   1.54452   1.55272   1.58545   1.59729
 Alpha virt. eigenvalues --    1.62685   1.63170   1.66180   1.67588   1.71324
 Alpha virt. eigenvalues --    1.72193   1.73581   1.77157   1.77956   1.78672
 Alpha virt. eigenvalues --    1.79185   1.81501   1.84365   1.85679   1.85722
 Alpha virt. eigenvalues --    1.88157   1.88263   1.89237   1.90589   1.91307
 Alpha virt. eigenvalues --    1.91577   1.92760   1.92778   1.96269   1.96577
 Alpha virt. eigenvalues --    1.97976   2.01714   2.03232   2.03661   2.04562
 Alpha virt. eigenvalues --    2.04970   2.06454   2.07959   2.08352   2.09825
 Alpha virt. eigenvalues --    2.10690   2.11067   2.11929   2.13489   2.13809
 Alpha virt. eigenvalues --    2.14254   2.14855   2.15575   2.19334   2.19738
 Alpha virt. eigenvalues --    2.21974   2.24257   2.26423   2.27765   2.29103
 Alpha virt. eigenvalues --    2.30017   2.31060   2.32669   2.35351   2.36053
 Alpha virt. eigenvalues --    2.36892   2.39157   2.39862   2.42447   2.42887
 Alpha virt. eigenvalues --    2.43537   2.47690   2.52521   2.55903   2.55970
 Alpha virt. eigenvalues --    2.57470   2.59030   2.64181   2.64753   2.64993
 Alpha virt. eigenvalues --    2.68202   2.68508   2.71264   2.73040   2.73209
 Alpha virt. eigenvalues --    2.73960   2.75305   2.76332   2.78535   2.86035
 Alpha virt. eigenvalues --    2.89286   2.90734   2.98338   3.02463   3.05837
 Alpha virt. eigenvalues --    3.07475   3.08669   3.40043   3.45416   3.51805
 Alpha virt. eigenvalues --    3.74271   3.94803   4.08243   4.10460   4.10698
 Alpha virt. eigenvalues --    4.13954   4.16513   4.18531   4.22758   4.26056
 Alpha virt. eigenvalues --    4.30988   4.33043   4.38979   4.41775   4.43342
 Alpha virt. eigenvalues --    4.53204   4.62110   4.69391   4.80651
          Condensed to atoms (all electrons):
               1          2          3          4          5          6
     1  C    5.037552   0.365047  -0.029126  -0.002741   0.333464  -0.024107
     2  C    0.365047   5.006680   0.373591  -0.036662  -0.028809  -0.002973
     3  C   -0.029126   0.373591   5.023546   0.370028   0.001979   0.000460
     4  C   -0.002741  -0.036662   0.370028   5.072185   0.000439   0.001648
     5  C    0.333464  -0.028809   0.001979   0.000439   5.150408   0.360963
     6  C   -0.024107  -0.002973   0.000460   0.001648   0.360963   4.829560
     7  H    0.374809  -0.042446  -0.008355   0.000132  -0.043821  -0.005560
     8  H   -0.042392   0.375836  -0.042088  -0.004933  -0.007349  -0.000169
     9  H   -0.007927  -0.042342   0.373616  -0.034666  -0.000036  -0.000010
    10  H    0.363581  -0.037999   0.003575  -0.000071  -0.032124   0.003542
    11  H   -0.037278   0.369085  -0.037317   0.004514   0.003296  -0.000014
    12  H    0.003807  -0.034064   0.360024  -0.037938  -0.000117   0.000001
    13  H   -0.000151   0.004536  -0.035075   0.359678  -0.000010  -0.000093
    14  H    0.000032  -0.004331  -0.033140   0.364407  -0.000023   0.000082
    15  H   -0.033123   0.003708  -0.000116  -0.000005   0.353139  -0.034636
    16  H   -0.035622  -0.007899  -0.000052  -0.000090   0.360172  -0.029199
    17  H    0.000582   0.000018  -0.000055  -0.000020  -0.062938   0.354406
    18  C   -0.003241   0.001017  -0.009959  -0.079100  -0.063334   0.409390
    19  C    0.000383  -0.004836  -0.057715   0.390452  -0.010369  -0.070963
    20  N    0.000000   0.000000   0.000000   0.000000   0.000000   0.000000
    21  N    0.000000   0.000000   0.000000   0.000000   0.000000   0.000000
    22  N    0.000000   0.000000   0.000000   0.000000   0.000000   0.000000
    23  C    0.000000   0.000000   0.000000   0.000000   0.000000   0.000000
    24  H    0.000000   0.000000   0.000000   0.000000   0.000000   0.000000
    25  H    0.000000   0.000000   0.000000   0.000000   0.000000   0.000000
    26  C    0.000000   0.000000   0.000000   0.000000   0.000000   0.000000
    27  C    0.000000   0.000000   0.000000   0.000000   0.000000   0.000000
    28  C    0.000000   0.000000   0.000000   0.000000   0.000000   0.000000
    29  C    0.000000   0.000000   0.000000   0.000000   0.000000   0.000000
    30  H    0.000000   0.000000   0.000000   0.000000   0.000000   0.000000
    31  C    0.000000   0.000000   0.000000   0.000000   0.000000   0.000000
    32  H    0.000000   0.000000   0.000000   0.000000   0.000000   0.000000
    33  C    0.000000   0.000000   0.000000   0.000000   0.000000   0.000000
    34  H    0.000000   0.000000   0.000000   0.000000   0.000000   0.000000
    35  H    0.000000   0.000000   0.000000   0.000000   0.000000   0.000000
    36  H    0.000000   0.000000   0.000000   0.000000   0.000000   0.000000
    37  O    0.002855  -0.000032  -0.000001  -0.000029  -0.044206   0.196941
    38  C    0.000071  -0.000001   0.000000   0.000002  -0.004197  -0.032292
    39  H    0.000003   0.000000  -0.000000  -0.000000  -0.000131   0.005182
    40  H   -0.000380   0.000001  -0.000000  -0.000000   0.003834  -0.004093
    41  H    0.000057   0.000000  -0.000000  -0.000000  -0.001173  -0.012439
               7          8          9         10         11         12
     1  C    0.374809  -0.042392  -0.007927   0.363581  -0.037278   0.003807
     2  C   -0.042446   0.375836  -0.042342  -0.037999   0.369085  -0.034064
     3  C   -0.008355  -0.042088   0.373616   0.003575  -0.037317   0.360024
     4  C    0.000132  -0.004933  -0.034666  -0.000071   0.004514  -0.037938
     5  C   -0.043821  -0.007349  -0.000036  -0.032124   0.003296  -0.000117
     6  C   -0.005560  -0.000169  -0.000010   0.003542  -0.000014   0.000001
     7  H    0.600381   0.004545   0.006826  -0.036695   0.002798   0.000190
     8  H    0.004545   0.593046   0.005207   0.002733  -0.035882   0.000434
     9  H    0.006826   0.005207   0.595250   0.000398   0.000253  -0.035204
    10  H   -0.036695   0.002733   0.000398   0.617570  -0.010908  -0.000176
    11  H    0.002798  -0.035882   0.000253  -0.010908   0.615067  -0.006797
    12  H    0.000190   0.000434  -0.035204  -0.000176  -0.006797   0.612330
    13  H   -0.000037   0.000108  -0.005739   0.000003  -0.000121   0.000133
    14  H    0.000025   0.003405   0.005271   0.000007  -0.000078  -0.004673
    15  H    0.000607   0.000190  -0.000004  -0.007042  -0.000185   0.000003
    16  H    0.005019   0.006178   0.000019   0.000273   0.000393  -0.000005
    17  H    0.004254   0.000012  -0.000027  -0.000220   0.000009  -0.000001
    18  C   -0.000628  -0.000333  -0.000339   0.000632   0.000152   0.000606
    19  C    0.000237  -0.000596  -0.003958   0.000265   0.000724   0.007416
    20  N    0.000000   0.000000   0.000000   0.000000   0.000000   0.000000
    21  N    0.000000   0.000000   0.000000   0.000000   0.000000   0.000000
    22  N    0.000000   0.000000   0.000000   0.000000   0.000000   0.000000
    23  C    0.000000   0.000000   0.000000   0.000000   0.000000   0.000000
    24  H    0.000000   0.000000   0.000000   0.000000   0.000000   0.000000
    25  H    0.000000   0.000000   0.000000   0.000000   0.000000   0.000000
    26  C    0.000000   0.000000   0.000000   0.000000   0.000000   0.000000
    27  C    0.000000   0.000000   0.000000   0.000000   0.000000   0.000000
    28  C    0.000000   0.000000   0.000000   0.000000   0.000000   0.000000
    29  C    0.000000   0.000000   0.000000   0.000000   0.000000   0.000000
    30  H    0.000000   0.000000   0.000000   0.000000   0.000000   0.000000
    31  C    0.000000   0.000000   0.000000   0.000000   0.000000   0.000000
    32  H    0.000000   0.000000   0.000000   0.000000   0.000000   0.000000
    33  C    0.000000   0.000000   0.000000   0.000000   0.000000   0.000000
    34  H    0.000000   0.000000   0.000000   0.000000   0.000000   0.000000
    35  H    0.000000   0.000000   0.000000   0.000000   0.000000   0.000000
    36  H    0.000000   0.000000   0.000000   0.000000   0.000000   0.000000
    37  O    0.000047  -0.000011   0.000000  -0.000052   0.000000   0.000000
    38  C    0.000001  -0.000000  -0.000000  -0.000009   0.000000  -0.000000
    39  H    0.000000  -0.000000   0.000000  -0.000000   0.000000   0.000000
    40  H   -0.000001   0.000001   0.000000   0.000027  -0.000000   0.000000
    41  H    0.000009  -0.000000  -0.000000  -0.000002   0.000000  -0.000000
              13         14         15         16         17         18
     1  C   -0.000151   0.000032  -0.033123  -0.035622   0.000582  -0.003241
     2  C    0.004536  -0.004331   0.003708  -0.007899   0.000018   0.001017
     3  C   -0.035075  -0.033140  -0.000116  -0.000052  -0.000055  -0.009959
     4  C    0.359678   0.364407  -0.000005  -0.000090  -0.000020  -0.079100
     5  C   -0.000010  -0.000023   0.353139   0.360172  -0.062938  -0.063334
     6  C   -0.000093   0.000082  -0.034636  -0.029199   0.354406   0.409390
     7  H   -0.000037   0.000025   0.000607   0.005019   0.004254  -0.000628
     8  H    0.000108   0.003405   0.000190   0.006178   0.000012  -0.000333
     9  H   -0.005739   0.005271  -0.000004   0.000019  -0.000027  -0.000339
    10  H    0.000003   0.000007  -0.007042   0.000273  -0.000220   0.000632
    11  H   -0.000121  -0.000078  -0.000185   0.000393   0.000009   0.000152
    12  H    0.000133  -0.004673   0.000003  -0.000005  -0.000001   0.000606
    13  H    0.583833  -0.038116   0.000000   0.000003   0.000016   0.001279
    14  H   -0.038116   0.576644  -0.000001  -0.000025  -0.000011  -0.000961
    15  H    0.000000  -0.000001   0.616396  -0.035270  -0.004751   0.007976
    16  H    0.000003  -0.000025  -0.035270   0.582543   0.006699  -0.007249
    17  H    0.000016  -0.000011  -0.004751   0.006699   0.657819  -0.048817
    18  C    0.001279  -0.000961   0.007976  -0.007249  -0.048817   4.997030
    19  C   -0.029751  -0.034532   0.000718  -0.000583  -0.000779   0.818348
    20  N    0.000000   0.000000   0.000000   0.000000   0.000000   0.000000
    21  N    0.000000   0.000000   0.000000   0.000000   0.000000   0.000000
    22  N    0.000000   0.000000   0.000000   0.000000   0.000000   0.000000
    23  C    0.000000   0.000000   0.000000   0.000000   0.000000   0.000000
    24  H    0.000000   0.000000   0.000000   0.000000   0.000000   0.000000
    25  H    0.000000   0.000000   0.000000   0.000000   0.000000   0.000000
    26  C    0.000000   0.000000   0.000000   0.000000   0.000000   0.000000
    27  C    0.000000   0.000000   0.000000   0.000000   0.000000   0.000000
    28  C    0.000000   0.000000   0.000000   0.000000   0.000000   0.000000
    29  C    0.000000   0.000000   0.000000   0.000000   0.000000   0.000000
    30  H    0.000000   0.000000   0.000000   0.000000   0.000000   0.000000
    31  C    0.000000   0.000000   0.000000   0.000000   0.000000   0.000000
    32  H    0.000000   0.000000   0.000000   0.000000   0.000000   0.000000
    33  C    0.000000   0.000000   0.000000   0.000000   0.000000   0.000000
    34  H    0.000000   0.000000   0.000000   0.000000   0.000000   0.000000
    35  H    0.000000   0.000000   0.000000   0.000000   0.000000   0.000000
    36  H    0.000000   0.000000   0.000000   0.000000   0.000000   0.000000
    37  O   -0.000000   0.000002  -0.000216   0.002415  -0.042662  -0.031557
    38  C   -0.000000  -0.000000   0.000753   0.000195  -0.008994   0.005054
    39  H    0.000000   0.000000  -0.000013  -0.000042  -0.000067  -0.000135
    40  H    0.000000   0.000000   0.002145  -0.000015  -0.001951   0.000019
    41  H    0.000000  -0.000000   0.000146   0.000192   0.017101  -0.000191
              19         20         21         22         23         24
     1  C    0.000383   0.000000   0.000000   0.000000   0.000000   0.000000
     2  C   -0.004836   0.000000   0.000000   0.000000   0.000000   0.000000
     3  C   -0.057715   0.000000   0.000000   0.000000   0.000000   0.000000
     4  C    0.390452   0.000000   0.000000   0.000000   0.000000   0.000000
     5  C   -0.010369   0.000000   0.000000   0.000000   0.000000   0.000000
     6  C   -0.070963   0.000000   0.000000   0.000000   0.000000   0.000000
     7  H    0.000237   0.000000   0.000000   0.000000   0.000000   0.000000
     8  H   -0.000596   0.000000   0.000000   0.000000   0.000000   0.000000
     9  H   -0.003958   0.000000   0.000000   0.000000   0.000000   0.000000
    10  H    0.000265   0.000000   0.000000   0.000000   0.000000   0.000000
    11  H    0.000724   0.000000   0.000000   0.000000   0.000000   0.000000
    12  H    0.007416   0.000000   0.000000   0.000000   0.000000   0.000000
    13  H   -0.029751   0.000000   0.000000   0.000000   0.000000   0.000000
    14  H   -0.034532   0.000000   0.000000   0.000000   0.000000   0.000000
    15  H    0.000718   0.000000   0.000000   0.000000   0.000000   0.000000
    16  H   -0.000583   0.000000   0.000000   0.000000   0.000000   0.000000
    17  H   -0.000779   0.000000   0.000000   0.000000   0.000000   0.000000
    18  C    0.818348   0.000000   0.000000   0.000000   0.000000   0.000000
    19  C    4.955042   0.000000   0.000000   0.000000   0.000000   0.000000
    20  N    0.000000   7.051788   0.315247  -0.104403   0.247408  -0.046890
    21  N    0.000000   0.315247   5.739707   0.580055  -0.046429   0.005029
    22  N    0.000000  -0.104403   0.580055   6.786772  -0.000487  -0.000164
    23  C    0.000000   0.247408  -0.046429  -0.000487   5.095190   0.376060
    24  H    0.000000  -0.046890   0.005029  -0.000164   0.376060   0.550793
    25  H    0.000000  -0.035252  -0.007800   0.001681   0.348306  -0.034873
    26  C    0.000000  -0.064502  -0.007099   0.001496   0.336965  -0.029305
    27  C    0.000000   0.003011  -0.000779  -0.000019  -0.060617  -0.006869
    28  C    0.000000  -0.003807   0.003199   0.000660  -0.048374   0.003875
    29  C    0.000000  -0.000023  -0.000040   0.000002   0.005594   0.000012
    30  H    0.000000   0.002042   0.000176  -0.000006  -0.009042   0.003223
    31  C    0.000000  -0.000065  -0.000074   0.000009   0.006015  -0.000199
    32  H    0.000000   0.000031   0.000162   0.000047  -0.009622   0.000064
    33  C    0.000000   0.000016   0.000005  -0.000001   0.000374   0.000013
    34  H    0.000000   0.000001   0.000000  -0.000000  -0.000174  -0.000002
    35  H    0.000000   0.000001   0.000001  -0.000001  -0.000169   0.000003
    36  H    0.000000   0.000000  -0.000000   0.000000   0.000007  -0.000000
    37  O    0.001053   0.000000   0.000000   0.000000   0.000000   0.000000
    38  C   -0.000082   0.000000   0.000000   0.000000   0.000000   0.000000
    39  H    0.000002   0.000000   0.000000   0.000000   0.000000   0.000000
    40  H    0.000017   0.000000   0.000000   0.000000   0.000000   0.000000
    41  H   -0.000014   0.000000   0.000000   0.000000   0.000000   0.000000
              25         26         27         28         29         30
     1  C    0.000000   0.000000   0.000000   0.000000   0.000000   0.000000
     2  C    0.000000   0.000000   0.000000   0.000000   0.000000   0.000000
     3  C    0.000000   0.000000   0.000000   0.000000   0.000000   0.000000
     4  C    0.000000   0.000000   0.000000   0.000000   0.000000   0.000000
     5  C    0.000000   0.000000   0.000000   0.000000   0.000000   0.000000
     6  C    0.000000   0.000000   0.000000   0.000000   0.000000   0.000000
     7  H    0.000000   0.000000   0.000000   0.000000   0.000000   0.000000
     8  H    0.000000   0.000000   0.000000   0.000000   0.000000   0.000000
     9  H    0.000000   0.000000   0.000000   0.000000   0.000000   0.000000
    10  H    0.000000   0.000000   0.000000   0.000000   0.000000   0.000000
    11  H    0.000000   0.000000   0.000000   0.000000   0.000000   0.000000
    12  H    0.000000   0.000000   0.000000   0.000000   0.000000   0.000000
    13  H    0.000000   0.000000   0.000000   0.000000   0.000000   0.000000
    14  H    0.000000   0.000000   0.000000   0.000000   0.000000   0.000000
    15  H    0.000000   0.000000   0.000000   0.000000   0.000000   0.000000
    16  H    0.000000   0.000000   0.000000   0.000000   0.000000   0.000000
    17  H    0.000000   0.000000   0.000000   0.000000   0.000000   0.000000
    18  C    0.000000   0.000000   0.000000   0.000000   0.000000   0.000000
    19  C    0.000000   0.000000   0.000000   0.000000   0.000000   0.000000
    20  N   -0.035252  -0.064502   0.003011  -0.003807  -0.000023   0.002042
    21  N   -0.007800  -0.007099  -0.000779   0.003199  -0.000040   0.000176
    22  N    0.001681   0.001496  -0.000019   0.000660   0.000002  -0.000006
    23  C    0.348306   0.336965  -0.060617  -0.048374   0.005594  -0.009042
    24  H   -0.034873  -0.029305  -0.006869   0.003875   0.000012   0.003223
    25  H    0.592853  -0.036083   0.005937  -0.006415  -0.000166   0.000145
    26  C   -0.036083   4.712919   0.537308   0.546125  -0.019567  -0.045341
    27  C    0.005937   0.537308   4.953628  -0.047059   0.531670   0.357448
    28  C   -0.006415   0.546125  -0.047059   4.963113  -0.044717   0.005787
    29  C   -0.000166  -0.019567   0.531670  -0.044717   4.859850  -0.043369
    30  H    0.000145  -0.045341   0.357448   0.005787  -0.043369   0.591783
    31  C    0.000134  -0.022293  -0.044266   0.525191  -0.026749   0.000377
    32  H    0.007512  -0.045049   0.006080   0.353076   0.000358  -0.000170
    33  C    0.000000  -0.035197  -0.034949  -0.036068   0.545130   0.004694
    34  H    0.000003   0.003754  -0.039582   0.000833   0.358110  -0.005415
    35  H   -0.000006   0.003820   0.000796  -0.039232   0.004522   0.000017
    36  H   -0.000000   0.000715   0.004621   0.004700  -0.042600  -0.000175
    37  O    0.000000   0.000000   0.000000   0.000000   0.000000   0.000000
    38  C    0.000000   0.000000   0.000000   0.000000   0.000000   0.000000
    39  H    0.000000   0.000000   0.000000   0.000000   0.000000   0.000000
    40  H    0.000000   0.000000   0.000000   0.000000   0.000000   0.000000
    41  H    0.000000   0.000000   0.000000   0.000000   0.000000   0.000000
              31         32         33         34         35         36
     1  C    0.000000   0.000000   0.000000   0.000000   0.000000   0.000000
     2  C    0.000000   0.000000   0.000000   0.000000   0.000000   0.000000
     3  C    0.000000   0.000000   0.000000   0.000000   0.000000   0.000000
     4  C    0.000000   0.000000   0.000000   0.000000   0.000000   0.000000
     5  C    0.000000   0.000000   0.000000   0.000000   0.000000   0.000000
     6  C    0.000000   0.000000   0.000000   0.000000   0.000000   0.000000
     7  H    0.000000   0.000000   0.000000   0.000000   0.000000   0.000000
     8  H    0.000000   0.000000   0.000000   0.000000   0.000000   0.000000
     9  H    0.000000   0.000000   0.000000   0.000000   0.000000   0.000000
    10  H    0.000000   0.000000   0.000000   0.000000   0.000000   0.000000
    11  H    0.000000   0.000000   0.000000   0.000000   0.000000   0.000000
    12  H    0.000000   0.000000   0.000000   0.000000   0.000000   0.000000
    13  H    0.000000   0.000000   0.000000   0.000000   0.000000   0.000000
    14  H    0.000000   0.000000   0.000000   0.000000   0.000000   0.000000
    15  H    0.000000   0.000000   0.000000   0.000000   0.000000   0.000000
    16  H    0.000000   0.000000   0.000000   0.000000   0.000000   0.000000
    17  H    0.000000   0.000000   0.000000   0.000000   0.000000   0.000000
    18  C    0.000000   0.000000   0.000000   0.000000   0.000000   0.000000
    19  C    0.000000   0.000000   0.000000   0.000000   0.000000   0.000000
    20  N   -0.000065   0.000031   0.000016   0.000001   0.000001   0.000000
    21  N   -0.000074   0.000162   0.000005   0.000000   0.000001  -0.000000
    22  N    0.000009   0.000047  -0.000001  -0.000000  -0.000001   0.000000
    23  C    0.006015  -0.009622   0.000374  -0.000174  -0.000169   0.000007
    24  H   -0.000199   0.000064   0.000013  -0.000002   0.000003  -0.000000
    25  H    0.000134   0.007512   0.000000   0.000003  -0.000006  -0.000000
    26  C   -0.022293  -0.045049  -0.035197   0.003754   0.003820   0.000715
    27  C   -0.044266   0.006080  -0.034949  -0.039582   0.000796   0.004621
    28  C    0.525191   0.353076  -0.036068   0.000833  -0.039232   0.004700
    29  C   -0.026749   0.000358   0.545130   0.358110   0.004522  -0.042600
    30  H    0.000377  -0.000170   0.004694  -0.005415   0.000017  -0.000175
    31  C    4.856800  -0.042902   0.553632   0.004525   0.357777  -0.042538
    32  H   -0.042902   0.600470   0.004715   0.000017  -0.005462  -0.000178
    33  C    0.553632   0.004715   4.849737  -0.042584  -0.042441   0.359572
    34  H    0.004525   0.000017  -0.042584   0.590327  -0.000182  -0.005436
    35  H    0.357777  -0.005462  -0.042441  -0.000182   0.590347  -0.005507
    36  H   -0.042538  -0.000178   0.359572  -0.005436  -0.005507   0.591726
    37  O    0.000000   0.000000   0.000000   0.000000   0.000000   0.000000
    38  C    0.000000   0.000000   0.000000   0.000000   0.000000   0.000000
    39  H    0.000000   0.000000   0.000000   0.000000   0.000000   0.000000
    40  H    0.000000   0.000000   0.000000   0.000000   0.000000   0.000000
    41  H    0.000000   0.000000   0.000000   0.000000   0.000000   0.000000
              37         38         39         40         41
     1  C    0.002855   0.000071   0.000003  -0.000380   0.000057
     2  C   -0.000032  -0.000001   0.000000   0.000001   0.000000
     3  C   -0.000001   0.000000  -0.000000  -0.000000  -0.000000
     4  C   -0.000029   0.000002  -0.000000  -0.000000  -0.000000
     5  C   -0.044206  -0.004197  -0.000131   0.003834  -0.001173
     6  C    0.196941  -0.032292   0.005182  -0.004093  -0.012439
     7  H    0.000047   0.000001   0.000000  -0.000001   0.000009
     8  H   -0.000011  -0.000000  -0.000000   0.000001  -0.000000
     9  H    0.000000  -0.000000   0.000000   0.000000  -0.000000
    10  H   -0.000052  -0.000009  -0.000000   0.000027  -0.000002
    11  H    0.000000   0.000000   0.000000  -0.000000   0.000000
    12  H    0.000000  -0.000000   0.000000   0.000000  -0.000000
    13  H   -0.000000  -0.000000   0.000000   0.000000   0.000000
    14  H    0.000002  -0.000000   0.000000   0.000000  -0.000000
    15  H   -0.000216   0.000753  -0.000013   0.002145   0.000146
    16  H    0.002415   0.000195  -0.000042  -0.000015   0.000192
    17  H   -0.042662  -0.008994  -0.000067  -0.001951   0.017101
    18  C   -0.031557   0.005054  -0.000135   0.000019  -0.000191
    19  C    0.001053  -0.000082   0.000002   0.000017  -0.000014
    20  N    0.000000   0.000000   0.000000   0.000000   0.000000
    21  N    0.000000   0.000000   0.000000   0.000000   0.000000
    22  N    0.000000   0.000000   0.000000   0.000000   0.000000
    23  C    0.000000   0.000000   0.000000   0.000000   0.000000
    24  H    0.000000   0.000000   0.000000   0.000000   0.000000
    25  H    0.000000   0.000000   0.000000   0.000000   0.000000
    26  C    0.000000   0.000000   0.000000   0.000000   0.000000
    27  C    0.000000   0.000000   0.000000   0.000000   0.000000
    28  C    0.000000   0.000000   0.000000   0.000000   0.000000
    29  C    0.000000   0.000000   0.000000   0.000000   0.000000
    30  H    0.000000   0.000000   0.000000   0.000000   0.000000
    31  C    0.000000   0.000000   0.000000   0.000000   0.000000
    32  H    0.000000   0.000000   0.000000   0.000000   0.000000
    33  C    0.000000   0.000000   0.000000   0.000000   0.000000
    34  H    0.000000   0.000000   0.000000   0.000000   0.000000
    35  H    0.000000   0.000000   0.000000   0.000000   0.000000
    36  H    0.000000   0.000000   0.000000   0.000000   0.000000
    37  O    8.247932   0.248949  -0.033726  -0.038853  -0.037284
    38  C    0.248949   4.881977   0.386735   0.359183   0.359484
    39  H   -0.033726   0.386735   0.548349  -0.036799  -0.030912
    40  H   -0.038853   0.359183  -0.036799   0.636216  -0.052420
    41  H   -0.037284   0.359484  -0.030912  -0.052420   0.628096
 Mulliken charges:
               1
     1  C   -0.266156
     2  C   -0.257126
     3  C   -0.253820
     4  C   -0.367229
     5  C   -0.269058
     6  C    0.054371
     7  H    0.137665
     8  H    0.142060
     9  H    0.143411
    10  H    0.132692
    11  H    0.132290
    12  H    0.134033
    13  H    0.159503
    14  H    0.166016
    15  H    0.129580
    16  H    0.151950
    17  H    0.130376
    18  C    0.004340
    19  C    0.039522
    20  N   -0.364603
    21  N    0.418640
    22  N   -0.265639
    23  C   -0.241004
    24  H    0.179231
    25  H    0.164026
    26  C    0.161335
    27  C   -0.166357
    28  C   -0.180886
    29  C   -0.128017
    30  H    0.137825
    31  C   -0.125374
    32  H    0.130852
    33  C   -0.126647
    34  H    0.135806
    35  H    0.135719
    36  H    0.135092
    37  O   -0.471567
    38  C   -0.196829
    39  H    0.161554
    40  H    0.133070
    41  H    0.129351
 Sum of Mulliken charges =  -0.00000
 Mulliken charges with hydrogens summed into heavy atoms:
               1
     1  C    0.004202
     2  C    0.017224
     3  C    0.023624
     4  C   -0.041710
     5  C    0.012473
     6  C    0.184747
    18  C    0.004340
    19  C    0.039522
    20  N   -0.364603
    21  N    0.418640
    22  N   -0.265639
    23  C    0.102253
    26  C    0.161335
    27  C   -0.028532
    28  C   -0.050034
    29  C    0.007790
    31  C    0.010345
    33  C    0.008445
    37  O   -0.471567
    38  C    0.227146
 Electronic spatial extent (au):  <R**2>=         120392.0997
 Charge=             -0.0000 electrons
 Dipole moment (field-independent basis, Debye):
    X=              2.0837    Y=             -2.6864    Z=              1.4072  Tot=              3.6795
 Quadrupole moment (field-independent basis, Debye-Ang):
   XX=            -96.3497   YY=           -112.8303   ZZ=           -120.1367
   XY=            -13.9326   XZ=            -31.7838   YZ=              1.5110
 Traceless Quadrupole moment (field-independent basis, Debye-Ang):
   XX=             13.4225   YY=             -3.0580   ZZ=            -10.3645
   XY=            -13.9326   XZ=            -31.7838   YZ=              1.5110
 Octapole moment (field-independent basis, Debye-Ang**2):
  XXX=           1440.3674  YYY=              5.1590  ZZZ=              1.8784  XYY=           -164.4990
  XXY=           -523.0144  XXZ=            373.1485  XZZ=             41.3927  YZZ=            -11.9991
  YYZ=              0.2371  XYZ=            -89.0493
 Hexadecapole moment (field-independent basis, Debye-Ang**3):
 XXXX=        -147523.8362 YYYY=          -2965.8071 ZZZZ=           -910.5991 XXXY=            -75.2563
 XXXZ=          -5543.2159 YYYX=           -610.5667 YYYZ=            -15.2692 ZZZX=           -130.0029
 ZZZY=            -11.8806 XXYY=         -26258.4008 XXZZ=         -26983.5032 YYZZ=           -681.3296
 XXYZ=            269.8379 YYXZ=             68.6809 ZZXY=           -111.9326
 N-N= 1.085282731920D+03 E-N=-4.169858219816D+03  KE= 8.533631399809D+02
 1\1\GINC-NODE109\SP\RB3LYP\6-31G(d)\C16H21N3O1\LIAOYT\26-Jun-2024\0\\#
  b3lyp/6-31g(d) geom=connectivity\\title\\0,1\C,0,-0.606482,1.611214,0
 .345947\C,0,-1.899702,1.184016,-0.423626\C,0,-2.809433,0.099125,0.2092
 83\C,0,-2.434475,-1.371426,-0.129325\C,0,0.768456,1.14678,-0.201981\C,
 0,1.277293,-0.226303,0.321176\H,0,-0.694786,1.322041,1.402307\H,0,-1.6
 38771,0.887282,-1.44823\H,0,-2.80456,0.218507,1.30042\H,0,-0.58315,2.7
 08055,0.348052\H,0,-2.520225,2.082946,-0.527744\H,0,-3.845443,0.26372,
 -0.115704\H,0,-3.014333,-2.063392,0.494468\H,0,-2.696534,-1.593761,-1.
 173141\H,0,1.521792,1.905516,0.047011\H,0,0.73576,1.079786,-1.296274\H
 ,0,1.51941,-0.134405,1.395353\C,0,0.167485,-1.164485,0.154552\C,0,-0.9
 92636,-1.496604,0.059811\N,0,2.223918,-0.791472,30.003777\N,0,2.467876
 ,0.320595,29.523101\N,0,2.785125,1.287862,29.00411\C,0,1.156149,-0.817
 712,31.046479\H,0,1.142456,-1.857358,31.380926\H,0,1.459053,-0.196692,
 31.899535\C,0,-0.202984,-0.39175,30.53635\C,0,-0.935704,-1.23058,29.68
 5052\C,0,-0.735392,0.854981,30.882185\C,0,-2.1763,-0.830175,29.193023\
 H,0,-0.525758,-2.198205,29.405435\C,0,-1.979399,1.258167,30.391492\H,0
 ,-0.176028,1.513463,31.543208\C,0,-2.70147,0.416228,29.546076\H,0,-2.7
 35985,-1.490513,28.536011\H,0,-2.381706,2.228263,30.670452\H,0,-3.6698
 57,0.727191,29.163584\O,0,2.434966,-0.675605,-0.375986\C,0,3.634684,-0
 .047362,0.029488\H,0,4.44739,-0.558189,-0.49361\H,0,3.667109,1.020568,
 -0.232683\H,0,3.795474,-0.143555,1.115716\\Version=ES64L-G16RevA.03\St
 ate=1-A\HF=-861.657017\RMSD=8.358e-09\Dipole=-1.0568969,0.553625,0.819
 7913\Quadrupole=-2.2735713,-7.7057429,9.9793143,1.123386,-10.358521,-2
 3.6305028\PG=C01 [X(C16H21N3O1)]\\@


 ... IT IS NO ONE DREAME THAT
     CAN PLEASE THESE ALL ...

                -- BEN JONSON
 Job cpu time:       0 days  0 hours  4 minutes 31.8 seconds.
 Elapsed time:       0 days  0 hours  0 minutes 17.4 seconds.
 File lengths (MBytes):  RWF=     68 Int=      0 D2E=      0 Chk=      9 Scr=      1
 Normal termination of Gaussian 16 at Wed Jun 26 11:01:24 2024.
Wed Jun 26 11:01:24 CST 2024
