This job is running on host node9
Current directory: /share/home/Liaoyt/system-test/bnts-ome/ynets-vs/tmpdir/cut-sep
Thu Mar  7 19:56:34 CST 2024
/tmp/86142.mgr
 Entering Gaussian System, Link 0=g16
 Initial command:
 /share/apps/gaussian/g16/l1.exe "/tmp/86142.mgr/Gau-143538.inp" -scrdir="/tmp/86142.mgr/"
 Entering Link 1 = /share/apps/gaussian/g16/l1.exe PID=    143539.
  
 Copyright (c) 1988,1990,1992,1993,1995,1998,2003,2009,2016,
            Gaussian, Inc.  All Rights Reserved.
  
 This is part of the Gaussian(R) 16 program.  It is based on
 the Gaussian(R) 09 system (copyright 2009, Gaussian, Inc.),
 the Gaussian(R) 03 system (copyright 2003, Gaussian, Inc.),
 the Gaussian(R) 98 system (copyright 1998, Gaussian, Inc.),
 the Gaussian(R) 94 system (copyright 1995, Gaussian, Inc.),
 the Gaussian 92(TM) system (copyright 1992, Gaussian, Inc.),
 the Gaussian 90(TM) system (copyright 1990, Gaussian, Inc.),
 the Gaussian 88(TM) system (copyright 1988, Gaussian, Inc.),
 the Gaussian 86(TM) system (copyright 1986, Carnegie Mellon
 University), and the Gaussian 82(TM) system (copyright 1983,
 Carnegie Mellon University). Gaussian is a federally registered
 trademark of Gaussian, Inc.
  
 This software contains proprietary and confidential information,
 including trade secrets, belonging to Gaussian, Inc.
  
 This software is provided under written license and may be
 used, copied, transmitted, or stored only in accord with that
 written license.
  
 The following legend is applicable only to US Government
 contracts under FAR:
  
                    RESTRICTED RIGHTS LEGEND
  
 Use, reproduction and disclosure by the US Government is
 subject to restrictions as set forth in subparagraphs (a)
 and (c) of the Commercial Computer Software - Restricted
 Rights clause in FAR 52.227-19.
  
 Gaussian, Inc.
 340 Quinnipiac St., Bldg. 40, Wallingford CT 06492
  
  
 ---------------------------------------------------------------
 Warning -- This program may not be used in any manner that
 competes with the business of Gaussian, Inc. or will provide
 assistance to any competitor of Gaussian, Inc.  The licensee
 of this program is prohibited from giving any competitor of
 Gaussian, Inc. access to this program.  By using this program,
 the user acknowledges that Gaussian, Inc. is engaged in the
 business of creating and licensing software in the field of
 computational chemistry and represents and warrants to the
 licensee that it is not a competitor of Gaussian, Inc. and that
 it will not use this program in any manner prohibited above.
 ---------------------------------------------------------------
  

 Cite this work as:
 Gaussian 16, Revision A.03,
 M. J. Frisch, G. W. Trucks, H. B. Schlegel, G. E. Scuseria, 
 M. A. Robb, J. R. Cheeseman, G. Scalmani, V. Barone, 
 G. A. Petersson, H. Nakatsuji, X. Li, M. Caricato, A. V. Marenich, 
 J. Bloino, B. G. Janesko, R. Gomperts, B. Mennucci, H. P. Hratchian, 
 J. V. Ortiz, A. F. Izmaylov, J. L. Sonnenberg, D. Williams-Young, 
 F. Ding, F. Lipparini, F. Egidi, J. Goings, B. Peng, A. Petrone, 
 T. Henderson, D. Ranasinghe, V. G. Zakrzewski, J. Gao, N. Rega, 
 G. Zheng, W. Liang, M. Hada, M. Ehara, K. Toyota, R. Fukuda, 
 J. Hasegawa, M. Ishida, T. Nakajima, Y. Honda, O. Kitao, H. Nakai, 
 T. Vreven, K. Throssell, J. A. Montgomery, Jr., J. E. Peralta, 
 F. Ogliaro, M. J. Bearpark, J. J. Heyd, E. N. Brothers, K. N. Kudin, 
 V. N. Staroverov, T. A. Keith, R. Kobayashi, J. Normand, 
 K. Raghavachari, A. P. Rendell, J. C. Burant, S. S. Iyengar, 
 J. Tomasi, M. Cossi, J. M. Millam, M. Klene, C. Adamo, R. Cammi, 
 J. W. Ochterski, R. L. Martin, K. Morokuma, O. Farkas, 
 J. B. Foresman, and D. J. Fox, Gaussian, Inc., Wallingford CT, 2016.
 
 ******************************************
 Gaussian 16:  ES64L-G16RevA.03 25-Dec-2016
                 7-Mar-2024 
 ******************************************
 %chk=N3-pro.chk
 %nprocshared=16
 Will use up to   16 processors via shared memory.
 %mem=16GB
 ------------------------
 #p b3lyp/6-31g(d) em=gd3
 ------------------------
 1/38=1,172=1/1;
 2/12=2,17=6,18=5,40=1/2;
 3/5=1,6=6,7=1,11=2,25=1,30=1,74=-5,124=31/1,2,3;
 4//1;
 5/5=2,38=5/2;
 6/7=2,8=2,9=2,10=2,28=1/1;
 99/5=1,9=1/99;
 Leave Link    1 at Thu Mar  7 19:56:34 2024, MaxMem=  2147483648 cpu:               0.7 elap:               0.1
 (Enter /share/apps/gaussian/g16/l101.exe)
 -------------------
 tmpdir/Subs_0_0.gjf
 -------------------
 Symbolic Z-matrix:
 Charge =  0 Multiplicity = 1
 N                     1.00668   0.23941   0.88211 
 N                     1.66319   1.42486   0.89364 
 N                     2.70447   1.29713   0.11827 
 C                    -0.25952   0.10101   1.58653 
 H                    -0.23953  -0.82288   2.17451 
 H                    -0.29624   0.94273   2.28438 
 C                    -1.44968   0.11364   0.64542 
 C                    -2.44058  -0.8681    0.73123 
 C                    -1.5644    1.12296  -0.31924 
 C                    -3.5412   -0.84014  -0.1291 
 H                    -2.35268  -1.65898   1.47325 
 C                    -2.65991   1.14909  -1.18034 
 H                    -0.78676   1.87901  -0.39193 
 C                    -3.65202   0.1683   -1.08659 
 H                    -4.30543  -1.60903  -0.05391 
 H                    -2.74053   1.93536  -1.92606 
 H                    -4.50497   0.1898   -1.75946 
 
 ITRead=  0  0  0  0  0  0  0  0  0  0  0  0  0  0  0  0  0
 MicOpt= -1 -1 -1 -1 -1 -1 -1 -1 -1 -1 -1 -1 -1 -1 -1 -1 -1
 NAtoms=     17 NQM=       17 NQMF=       0 NMMI=      0 NMMIF=      0
                NMic=       0 NMicF=      0.
                    Isotopes and Nuclear Properties:
 (Nuclear quadrupole moments (NQMom) in fm**2, nuclear magnetic moments (NMagM)
  in nuclear magnetons)

  Atom         1           2           3           4           5           6           7           8           9          10
 IAtWgt=          14          14          14          12           1           1          12          12          12          12
 AtmWgt=  14.0030740  14.0030740  14.0030740  12.0000000   1.0078250   1.0078250  12.0000000  12.0000000  12.0000000  12.0000000
 NucSpn=           2           2           2           0           1           1           0           0           0           0
 AtZEff=  -0.0000000  -0.0000000  -0.0000000  -0.0000000  -0.0000000  -0.0000000  -0.0000000  -0.0000000  -0.0000000  -0.0000000
 NQMom=    2.0440000   2.0440000   2.0440000   0.0000000   0.0000000   0.0000000   0.0000000   0.0000000   0.0000000   0.0000000
 NMagM=    0.4037610   0.4037610   0.4037610   0.0000000   2.7928460   2.7928460   0.0000000   0.0000000   0.0000000   0.0000000
 AtZNuc=   7.0000000   7.0000000   7.0000000   6.0000000   1.0000000   1.0000000   6.0000000   6.0000000   6.0000000   6.0000000

  Atom        11          12          13          14          15          16          17
 IAtWgt=           1          12           1          12           1           1           1
 AtmWgt=   1.0078250  12.0000000   1.0078250  12.0000000   1.0078250   1.0078250   1.0078250
 NucSpn=           1           0           1           0           1           1           1
 AtZEff=  -0.0000000  -0.0000000  -0.0000000  -0.0000000  -0.0000000  -0.0000000  -0.0000000
 NQMom=    0.0000000   0.0000000   0.0000000   0.0000000   0.0000000   0.0000000   0.0000000
 NMagM=    2.7928460   0.0000000   2.7928460   0.0000000   2.7928460   2.7928460   2.7928460
 AtZNuc=   1.0000000   6.0000000   1.0000000   6.0000000   1.0000000   1.0000000   1.0000000
 Leave Link  101 at Thu Mar  7 19:56:34 2024, MaxMem=  2147483648 cpu:               2.1 elap:               0.2
 (Enter /share/apps/gaussian/g16/l202.exe)
                          Input orientation:                          
 ---------------------------------------------------------------------
 Center     Atomic      Atomic             Coordinates (Angstroms)
 Number     Number       Type             X           Y           Z
 ---------------------------------------------------------------------
      1          7           0        1.006681    0.239406    0.882112
      2          7           0        1.663185    1.424861    0.893637
      3          7           0        2.704473    1.297129    0.118268
      4          6           0       -0.259524    0.101011    1.586532
      5          1           0       -0.239533   -0.822882    2.174512
      6          1           0       -0.296243    0.942731    2.284379
      7          6           0       -1.449678    0.113638    0.645423
      8          6           0       -2.440578   -0.868099    0.731230
      9          6           0       -1.564397    1.122957   -0.319236
     10          6           0       -3.541195   -0.840139   -0.129102
     11          1           0       -2.352681   -1.658975    1.473245
     12          6           0       -2.659906    1.149094   -1.180345
     13          1           0       -0.786764    1.879010   -0.391929
     14          6           0       -3.652024    0.168304   -1.086588
     15          1           0       -4.305428   -1.609034   -0.053910
     16          1           0       -2.740533    1.935361   -1.926056
     17          1           0       -4.504974    0.189795   -1.759460
 ---------------------------------------------------------------------
                    Distance matrix (angstroms):
                    1          2          3          4          5
     1  N    0.000000
     2  N    1.355151   0.000000
     3  N    2.141199   1.304528   0.000000
     4  C    1.455553   2.435055   3.517354   0.000000
     5  H    2.086098   3.211437   4.170103   1.095307   0.000000
     6  H    2.039272   2.450708   3.717786   1.093998   1.769937
     7  C    2.470939   3.386862   4.351496   1.517337   2.163246
     8  C    3.623938   4.703713   5.615646   2.535293   2.632434
     9  C    2.972262   3.461140   4.294764   2.525672   3.429334
    10  C    4.782379   5.767304   6.605867   3.820802   4.025905
    11  H    3.903665   5.096388   6.012430   2.737095   2.378281
    12  C    4.304082   4.802766   5.521311   3.809976   4.582790
    13  H    2.743707   2.803780   3.575979   2.711747   3.766471
    14  C    5.058099   5.809619   6.567418   4.319624   4.823102
    15  H    5.701874   6.762152   7.590398   4.688778   4.702702
    16  H    4.980330   5.253952   5.851042   4.675310   5.538733
    17  H    6.112177   6.827188   7.531811   5.406236   5.890300
                    6          7          8          9         10
     6  H    0.000000
     7  C    2.168867   0.000000
     8  C    3.207733   1.397517   0.000000
     9  C    2.901639   1.400876   2.415673   0.000000
    10  C    4.419641   2.425700   1.397251   2.792423   0.000000
    11  H    3.414052   2.154730   1.088024   3.401988   2.156519
    12  C    4.199262   2.422860   2.787704   1.393676   2.416367
    13  H    2.877473   2.152230   3.397528   1.087020   3.879399
    14  C    4.819172   2.802352   2.417891   2.420409   1.394998
    15  H    5.296477   3.407635   2.154784   3.879101   1.086695
    16  H    4.968665   3.405508   3.874343   2.150620   3.401985
    17  H    5.884978   3.888971   3.403587   3.404707   2.155853
                   11         12         13         14         15
    11  H    0.000000
    12  C    3.875717   0.000000
    13  H    4.295149   2.159407   0.000000
    14  C    3.402938   1.398227   3.408633   0.000000
    15  H    2.479499   3.403508   4.966055   2.156917   0.000000
    16  H    4.962351   1.086647   2.484740   2.158243   4.303088
    17  H    4.301244   2.158681   4.306817   1.086620   2.486867
                   16         17
    16  H    0.000000
    17  H    2.487570   0.000000
 Stoichiometry    C7H7N3
 Framework group  C1[X(C7H7N3)]
 Deg. of freedom    45
 Full point group                 C1      NOp   1
 Largest Abelian subgroup         C1      NOp   1
 Largest concise Abelian subgroup C1      NOp   1
                         Standard orientation:                         
 ---------------------------------------------------------------------
 Center     Atomic      Atomic             Coordinates (Angstroms)
 Number     Number       Type             X           Y           Z
 ---------------------------------------------------------------------
      1          7           0        2.036601   -0.517655   -0.329630
      2          7           0        2.914009    0.293197    0.309985
      3          7           0        3.695208    0.809603   -0.598226
      4          6           0        0.968953   -1.167976    0.415921
      5          1           0        0.928445   -2.224400    0.129519
      6          1           0        1.274818   -1.115698    1.464990
      7          6           0       -0.376683   -0.500683    0.200756
      8          6           0       -1.505665   -1.255743   -0.128387
      9          6           0       -0.495460    0.888354    0.338312
     10          6           0       -2.744295   -0.635021   -0.309528
     11          1           0       -1.417709   -2.333989   -0.244343
     12          6           0       -1.729808    1.508570    0.153790
     13          1           0        0.386240    1.475144    0.583049
     14          6           0       -2.857899    0.748250   -0.169260
     15          1           0       -3.615420   -1.231923   -0.565955
     16          1           0       -1.812700    2.586647    0.261866
     17          1           0       -3.819268    1.233700   -0.313658
 ---------------------------------------------------------------------
 Rotational constants (GHZ):           3.5778022           0.7347025           0.6352854
 Leave Link  202 at Thu Mar  7 19:56:35 2024, MaxMem=  2147483648 cpu:               0.2 elap:               0.0
 (Enter /share/apps/gaussian/g16/l301.exe)
 Standard basis: 6-31G(d) (6D, 7F)
 Ernie: Thresh=  0.10000D-02 Tol=  0.10000D-05 Strict=F.
 There are   164 symmetry adapted cartesian basis functions of A   symmetry.
 There are   164 symmetry adapted basis functions of A   symmetry.
   164 basis functions,   308 primitive gaussians,   164 cartesian basis functions
    35 alpha electrons       35 beta electrons
       nuclear repulsion energy       452.1396206324 Hartrees.
 IExCor=  402 DFT=T Ex+Corr=B3LYP ExCW=0 ScaHFX=  0.200000
 ScaDFX=  0.800000  0.720000  1.000000  0.810000 ScalE2=  1.000000  1.000000
 IRadAn=      5 IRanWt=     -1 IRanGd=            0 ICorTp=0 IEmpDi=131
 NAtoms=   17 NActive=   17 NUniq=   17 SFac= 1.00D+00 NAtFMM=   60 NAOKFM=F Big=F
 Integral buffers will be    131072 words long.
 Raffenetti 2 integral format.
 Two-electron integral symmetry is turned on.
 R6Disp:  Grimme-D3 Dispersion energy=       -0.0110227365 Hartrees.
 Nuclear repulsion after empirical dispersion term =      452.1285978958 Hartrees.
 Leave Link  301 at Thu Mar  7 19:56:35 2024, MaxMem=  2147483648 cpu:               1.2 elap:               0.1
 (Enter /share/apps/gaussian/g16/l302.exe)
 NPDir=0 NMtPBC=     1 NCelOv=     1 NCel=       1 NClECP=     1 NCelD=      1
         NCelK=      1 NCelE2=     1 NClLst=     1 CellRange=     0.0.
 One-electron integrals computed using PRISM.
 One-electron integral symmetry used in STVInt
 NBasis=   164 RedAO= T EigKep=  4.73D-04  NBF=   164
 NBsUse=   164 1.00D-06 EigRej= -1.00D+00 NBFU=   164
 Precomputing XC quadrature grid using
 IXCGrd= 4 IRadAn=           5 IRanWt=          -1 IRanGd=           0 AccXCQ= 0.00D+00.
 Generated NRdTot=       0 NPtTot=           0 NUsed=           0 NTot=          32
 NSgBfM=   164   164   164   164   164 MxSgAt=    17 MxSgA2=    17.
 Leave Link  302 at Thu Mar  7 19:56:36 2024, MaxMem=  2147483648 cpu:               4.8 elap:               0.3
 (Enter /share/apps/gaussian/g16/l303.exe)
 DipDrv:  MaxL=1.
 Leave Link  303 at Thu Mar  7 19:56:36 2024, MaxMem=  2147483648 cpu:               0.6 elap:               0.1
 (Enter /share/apps/gaussian/g16/l401.exe)
 ExpMin= 1.61D-01 ExpMax= 4.17D+03 ExpMxC= 6.27D+02 IAcc=3 IRadAn=         5 AccDes= 0.00D+00
 Harris functional with IExCor=  402 and IRadAn=       5 diagonalized for initial guess.
 HarFok:  IExCor=  402 AccDes= 0.00D+00 IRadAn=         5 IDoV= 1 UseB2=F ITyADJ=14
 ICtDFT=  3500011 ScaDFX=  1.000000  1.000000  1.000000  1.000000
 FoFCou: FMM=F IPFlag=           0 FMFlag=      100000 FMFlg1=           0
         NFxFlg=           0 DoJE=T BraDBF=F KetDBF=T FulRan=T
         wScrn=  0.000000 ICntrl=       500 IOpCl=  0 I1Cent=   200000004 NGrid=           0
         NMat0=    1 NMatS0=      1 NMatT0=    0 NMatD0=    1 NMtDS0=    0 NMtDT0=    0
 Petite list used in FoFCou.
 Harris En= -435.036016814756    
 JPrj=0 DoOrth=F DoCkMO=F.
 Leave Link  401 at Thu Mar  7 19:56:37 2024, MaxMem=  2147483648 cpu:              13.1 elap:               0.9
 (Enter /share/apps/gaussian/g16/l502.exe)
 Integral symmetry usage will be decided dynamically.
 Closed shell SCF:
 Using DIIS extrapolation, IDIIS=  1040.
 NGot=  2147483648 LenX=  2147425331 LenY=  2147397994
 Requested convergence on RMS density matrix=1.00D-08 within 128 cycles.
 Requested convergence on MAX density matrix=1.00D-06.
 Requested convergence on             energy=1.00D-06.
 No special actions if energy rises.
 Fock matrices will be formed incrementally for  20 cycles.
 Integral accuracy reduced to 1.0D-05 until final iterations.

 Cycle   1  Pass 0  IDiag  1:
 FoFJK:  IHMeth= 1 ICntrl=       0 DoSepK=F KAlg= 0 I1Cent=           0 FoldK=F
 IRaf= 910000000 NMat=       1 IRICut=       1 DoRegI=T DoRafI=F ISym2E= 0 IDoP0=0 IntGTp=1.
 FoFCou: FMM=F IPFlag=           0 FMFlag=      100000 FMFlg1=           0
         NFxFlg=           0 DoJE=F BraDBF=F KetDBF=F FulRan=T
         wScrn=  0.000000 ICntrl=         0 IOpCl=  0 I1Cent=           0 NGrid=           0
         NMat0=    1 NMatS0=      1 NMatT0=    0 NMatD0=    1 NMtDS0=    0 NMtDT0=    0
 Symmetry not used in FoFCou.
 E= -434.761482554570    
 DIIS: error= 4.53D-02 at cycle   1 NSaved=   1.
 NSaved= 1 IEnMin= 1 EnMin= -434.761482554570     IErMin= 1 ErrMin= 4.53D-02
 ErrMax= 4.53D-02  0.00D+00 EMaxC= 1.00D-01 BMatC= 2.36D-01 BMatP= 2.36D-01
 IDIUse=3 WtCom= 5.47D-01 WtEn= 4.53D-01
 Coeff-Com:  0.100D+01
 Coeff-En:   0.100D+01
 Coeff:      0.100D+01
 Gap=    -0.057 Goal=   None    Shift=    0.000
 GapD=   -0.057 DampG=0.250 DampE=0.500 DampFc=0.2500 IDamp=-1.
 Damping current iteration by 2.50D-01
 RMSDP=1.05D-02 MaxDP=2.57D-01              OVMax= 8.35D-01

 Cycle   2  Pass 0  IDiag  1:
 RMSU=  2.59D-03    CP:  9.85D-01
 E= -434.786220862020     Delta-E=       -0.024738307450 Rises=F Damp=T
 DIIS: error= 1.98D-02 at cycle   2 NSaved=   2.
 NSaved= 2 IEnMin= 2 EnMin= -434.786220862020     IErMin= 2 ErrMin= 1.98D-02
 ErrMax= 1.98D-02  0.00D+00 EMaxC= 1.00D-01 BMatC= 5.24D-02 BMatP= 2.36D-01
 IDIUse=3 WtCom= 8.02D-01 WtEn= 1.98D-01
 Coeff-Com:  0.261D-01 0.974D+00
 Coeff-En:   0.447D+00 0.553D+00
 Coeff:      0.109D+00 0.891D+00
 Gap=     0.009 Goal=   None    Shift=    0.000
 RMSDP=3.78D-03 MaxDP=1.21D-01 DE=-2.47D-02 OVMax= 8.09D-01

 Cycle   3  Pass 0  IDiag  1:
 RMSU=  3.63D-03    CP:  9.74D-01  6.04D-01
 E= -434.842757536324     Delta-E=       -0.056536674304 Rises=F Damp=F
 DIIS: error= 4.74D-02 at cycle   3 NSaved=   3.
 NSaved= 3 IEnMin= 3 EnMin= -434.842757536324     IErMin= 2 ErrMin= 1.98D-02
 ErrMax= 4.74D-02  0.00D+00 EMaxC= 1.00D-01 BMatC= 1.55D-01 BMatP= 5.24D-02
 IDIUse=2 WtCom= 0.00D+00 WtEn= 1.00D+00
 Coeff-En:   0.000D+00 0.409D+00 0.591D+00
 Coeff:      0.000D+00 0.409D+00 0.591D+00
 Gap=    -0.001 Goal=   None    Shift=    0.000
 RMSDP=8.20D-03 MaxDP=2.66D-01 DE=-5.65D-02 OVMax= 6.57D-01

 Cycle   4  Pass 0  IDiag  1:
 RMSU=  5.89D-03    CP:  9.38D-01  1.82D+00 -2.87D-01
 E= -433.829049573828     Delta-E=        1.013707962496 Rises=F Damp=F
 DIIS: error= 1.09D-01 at cycle   4 NSaved=   4.
 NSaved= 4 IEnMin= 3 EnMin= -434.842757536324     IErMin= 2 ErrMin= 1.98D-02
 ErrMax= 1.09D-01  0.00D+00 EMaxC= 1.00D-01 BMatC= 1.06D+00 BMatP= 5.24D-02
 IDIUse=2 WtCom= 0.00D+00 WtEn= 1.00D+00
 Coeff-En:   0.000D+00 0.000D+00 0.773D+00 0.227D+00
 Coeff:      0.000D+00 0.000D+00 0.773D+00 0.227D+00
 Gap=    -0.023 Goal=   None    Shift=    0.000
 RMSDP=6.77D-03 MaxDP=2.53D-01 DE= 1.01D+00 OVMax= 7.32D-01

 Cycle   5  Pass 0  IDiag  1:
 RMSU=  4.10D-03    CP:  9.64D-01  1.73D+00  5.13D-02  1.18D-01
 E= -434.407839234436     Delta-E=       -0.578789660608 Rises=F Damp=F
 DIIS: error= 9.43D-02 at cycle   5 NSaved=   5.
 NSaved= 5 IEnMin= 3 EnMin= -434.842757536324     IErMin= 2 ErrMin= 1.98D-02
 ErrMax= 9.43D-02  0.00D+00 EMaxC= 1.00D-01 BMatC= 4.34D-01 BMatP= 5.24D-02
 IDIUse=2 WtCom= 0.00D+00 WtEn= 1.00D+00
 EnCoef did     6 forward-backward iterations
 Coeff-En:   0.000D+00 0.000D+00 0.714D+00 0.156D+00 0.130D+00
 Coeff:      0.000D+00 0.000D+00 0.714D+00 0.156D+00 0.130D+00
 Gap=    -0.022 Goal=   None    Shift=    0.000
 RMSDP=5.26D-03 MaxDP=1.37D-01 DE=-5.79D-01 OVMax= 5.51D-01

 Cycle   6  Pass 0  IDiag  1:
 RMSU=  2.04D-03    CP:  9.74D-01  7.76D-01  2.05D-01  2.84D-01  2.21D-02
 E= -434.967605630800     Delta-E=       -0.559766396364 Rises=F Damp=F
 DIIS: error= 1.97D-02 at cycle   6 NSaved=   6.
 NSaved= 6 IEnMin= 6 EnMin= -434.967605630800     IErMin= 6 ErrMin= 1.97D-02
 ErrMax= 1.97D-02  0.00D+00 EMaxC= 1.00D-01 BMatC= 6.41D-02 BMatP= 5.24D-02
 IDIUse=2 WtCom= 0.00D+00 WtEn= 1.00D+00
 Coeff-En:   0.000D+00 0.000D+00 0.291D+00 0.000D+00 0.000D+00 0.709D+00
 Coeff:      0.000D+00 0.000D+00 0.291D+00 0.000D+00 0.000D+00 0.709D+00
 Gap=     0.046 Goal=   None    Shift=    0.000
 RMSDP=2.54D-03 MaxDP=8.54D-02 DE=-5.60D-01 OVMax= 1.82D-01

 Cycle   7  Pass 0  IDiag  1:
 RMSU=  1.69D-03    CP:  9.75D-01  1.08D+00  4.99D-01  7.36D-02  8.37D-02
                    CP:  7.61D-01
 E= -434.971299113966     Delta-E=       -0.003693483166 Rises=F Damp=F
 DIIS: error= 2.42D-02 at cycle   7 NSaved=   7.
 NSaved= 7 IEnMin= 7 EnMin= -434.971299113966     IErMin= 6 ErrMin= 1.97D-02
 ErrMax= 2.42D-02  0.00D+00 EMaxC= 1.00D-01 BMatC= 6.36D-02 BMatP= 5.24D-02
 IDIUse=2 WtCom= 0.00D+00 WtEn= 1.00D+00
 Coeff-En:   0.000D+00 0.000D+00 0.000D+00 0.000D+00 0.000D+00 0.488D+00
 Coeff-En:   0.512D+00
 Coeff:      0.000D+00 0.000D+00 0.000D+00 0.000D+00 0.000D+00 0.488D+00
 Coeff:      0.512D+00
 Gap=     0.091 Goal=   None    Shift=    0.000
 RMSDP=1.54D-03 MaxDP=6.06D-02 DE=-3.69D-03 OVMax= 7.61D-02

 Cycle   8  Pass 0  IDiag  1:
 RMSU=  6.58D-04    CP:  9.74D-01  7.33D-01  5.12D-01  1.11D-01  6.48D-02
                    CP:  6.51D-01  4.00D-01
 E= -435.003184070917     Delta-E=       -0.031884956951 Rises=F Damp=F
 DIIS: error= 1.58D-02 at cycle   8 NSaved=   8.
 NSaved= 8 IEnMin= 8 EnMin= -435.003184070917     IErMin= 8 ErrMin= 1.58D-02
 ErrMax= 1.58D-02  0.00D+00 EMaxC= 1.00D-01 BMatC= 2.29D-02 BMatP= 5.24D-02
 IDIUse=3 WtCom= 8.42D-01 WtEn= 1.58D-01
 EnCoef did     2 forward-backward iterations
 Coeff-Com: -0.584D-01 0.702D-01 0.418D-01-0.237D-03-0.130D-01 0.363D+00
 Coeff-Com:  0.278D+00 0.319D+00
 Coeff-En:   0.000D+00 0.000D+00 0.000D+00 0.000D+00 0.000D+00 0.313D+00
 Coeff-En:   0.262D+00 0.425D+00
 Coeff:     -0.491D-01 0.591D-01 0.352D-01-0.199D-03-0.109D-01 0.355D+00
 Coeff:      0.275D+00 0.335D+00
 Gap=     0.059 Goal=   None    Shift=    0.000
 RMSDP=1.02D-03 MaxDP=3.33D-02 DE=-3.19D-02 OVMax= 8.55D-02

 Cycle   9  Pass 0  IDiag  1:
 RMSU=  2.63D-04    CP:  9.74D-01  9.14D-01  4.03D-01  1.57D-01  1.53D-02
                    CP:  8.86D-01  4.32D-01  2.50D-01
 E= -435.025289170502     Delta-E=       -0.022105099585 Rises=F Damp=F
 DIIS: error= 2.59D-03 at cycle   9 NSaved=   9.
 NSaved= 9 IEnMin= 9 EnMin= -435.025289170502     IErMin= 9 ErrMin= 2.59D-03
 ErrMax= 2.59D-03  0.00D+00 EMaxC= 1.00D-01 BMatC= 1.07D-03 BMatP= 2.29D-02
 IDIUse=3 WtCom= 9.74D-01 WtEn= 2.59D-02
 Coeff-Com: -0.439D-02-0.288D-02-0.340D-01-0.238D-02 0.334D-02 0.697D-01
 Coeff-Com:  0.101D+00 0.232D+00 0.638D+00
 Coeff-En:   0.000D+00 0.000D+00 0.000D+00 0.000D+00 0.000D+00 0.000D+00
 Coeff-En:   0.000D+00 0.469D-01 0.953D+00
 Coeff:     -0.427D-02-0.280D-02-0.331D-01-0.232D-02 0.325D-02 0.679D-01
 Coeff:      0.983D-01 0.227D+00 0.646D+00
 Gap=     0.064 Goal=   None    Shift=    0.000
 RMSDP=2.29D-04 MaxDP=8.00D-03 DE=-2.21D-02 OVMax= 1.56D-02

 Cycle  10  Pass 0  IDiag  1:
 RMSU=  9.76D-05    CP:  9.74D-01  8.91D-01  4.12D-01  1.43D-01  3.24D-02
                    CP:  8.51D-01  4.75D-01  4.10D-01  7.40D-01
 E= -435.026262695298     Delta-E=       -0.000973524797 Rises=F Damp=F
 DIIS: error= 7.17D-04 at cycle  10 NSaved=  10.
 NSaved=10 IEnMin=10 EnMin= -435.026262695298     IErMin=10 ErrMin= 7.17D-04
 ErrMax= 7.17D-04  0.00D+00 EMaxC= 1.00D-01 BMatC= 5.21D-05 BMatP= 1.07D-03
 IDIUse=3 WtCom= 9.93D-01 WtEn= 7.17D-03
 Coeff-Com: -0.573D-02 0.520D-02-0.190D-01 0.940D-04 0.289D-03 0.134D-01
 Coeff-Com:  0.241D-01 0.994D-01 0.290D+00 0.593D+00
 Coeff-En:   0.000D+00 0.000D+00 0.000D+00 0.000D+00 0.000D+00 0.000D+00
 Coeff-En:   0.000D+00 0.000D+00 0.000D+00 0.100D+01
 Coeff:     -0.569D-02 0.516D-02-0.188D-01 0.933D-04 0.287D-03 0.133D-01
 Coeff:      0.240D-01 0.987D-01 0.287D+00 0.596D+00
 Gap=     0.063 Goal=   None    Shift=    0.000
 RMSDP=4.62D-05 MaxDP=1.38D-03 DE=-9.74D-04 OVMax= 2.91D-03

 Cycle  11  Pass 0  IDiag  1:
 RMSU=  3.71D-05    CP:  9.74D-01  8.92D-01  4.12D-01  1.42D-01  3.03D-02
                    CP:  8.49D-01  4.77D-01  4.30D-01  8.16D-01  9.26D-01
 E= -435.026302387979     Delta-E=       -0.000039692680 Rises=F Damp=F
 DIIS: error= 5.48D-04 at cycle  11 NSaved=  11.
 NSaved=11 IEnMin=11 EnMin= -435.026302387979     IErMin=11 ErrMin= 5.48D-04
 ErrMax= 5.48D-04  0.00D+00 EMaxC= 1.00D-01 BMatC= 1.75D-05 BMatP= 5.21D-05
 IDIUse=3 WtCom= 9.95D-01 WtEn= 5.48D-03
 Coeff-Com: -0.562D-02 0.716D-02-0.545D-02 0.133D-03 0.125D-03-0.640D-03
 Coeff-Com: -0.588D-02 0.171D-01 0.595D-01 0.300D+00 0.634D+00
 Coeff-En:   0.000D+00 0.000D+00 0.000D+00 0.000D+00 0.000D+00 0.000D+00
 Coeff-En:   0.000D+00 0.000D+00 0.000D+00 0.000D+00 0.100D+01
 Coeff:     -0.559D-02 0.712D-02-0.542D-02 0.132D-03 0.125D-03-0.637D-03
 Coeff:     -0.585D-02 0.170D-01 0.592D-01 0.298D+00 0.636D+00
 Gap=     0.063 Goal=   None    Shift=    0.000
 RMSDP=2.96D-05 MaxDP=5.64D-04 DE=-3.97D-05 OVMax= 1.93D-03

 Cycle  12  Pass 0  IDiag  1:
 RMSU=  1.59D-05    CP:  9.74D-01  8.94D-01  4.12D-01  1.41D-01  2.93D-02
                    CP:  8.49D-01  4.77D-01  4.33D-01  8.58D-01  1.12D+00
                    CP:  9.03D-01
 E= -435.026315943683     Delta-E=       -0.000013555704 Rises=F Damp=F
 DIIS: error= 3.68D-04 at cycle  12 NSaved=  12.
 NSaved=12 IEnMin=12 EnMin= -435.026315943683     IErMin=12 ErrMin= 3.68D-04
 ErrMax= 3.68D-04  0.00D+00 EMaxC= 1.00D-01 BMatC= 7.87D-06 BMatP= 1.75D-05
 IDIUse=3 WtCom= 9.96D-01 WtEn= 3.68D-03
 Coeff-Com: -0.447D-02 0.559D-02-0.177D-02 0.787D-04 0.210D-03-0.671D-03
 Coeff-Com: -0.762D-02-0.310D-02-0.838D-02 0.762D-01 0.373D+00 0.571D+00
 Coeff-En:   0.000D+00 0.000D+00 0.000D+00 0.000D+00 0.000D+00 0.000D+00
 Coeff-En:   0.000D+00 0.000D+00 0.000D+00 0.000D+00 0.000D+00 0.100D+01
 Coeff:     -0.445D-02 0.557D-02-0.176D-02 0.784D-04 0.209D-03-0.668D-03
 Coeff:     -0.760D-02-0.309D-02-0.835D-02 0.759D-01 0.371D+00 0.573D+00
 Gap=     0.063 Goal=   None    Shift=    0.000
 RMSDP=1.66D-05 MaxDP=5.12D-04 DE=-1.36D-05 OVMax= 1.35D-03

 Cycle  13  Pass 0  IDiag  1:
 RMSU=  8.58D-06    CP:  9.74D-01  8.95D-01  4.11D-01  1.40D-01  2.92D-02
                    CP:  8.49D-01  4.79D-01  4.38D-01  8.79D-01  1.19D+00
                    CP:  1.12D+00  1.14D+00
 E= -435.026322487773     Delta-E=       -0.000006544090 Rises=F Damp=F
 DIIS: error= 2.58D-04 at cycle  13 NSaved=  13.
 NSaved=13 IEnMin=13 EnMin= -435.026322487773     IErMin=13 ErrMin= 2.58D-04
 ErrMax= 2.58D-04  0.00D+00 EMaxC= 1.00D-01 BMatC= 3.36D-06 BMatP= 7.87D-06
 IDIUse=3 WtCom= 9.97D-01 WtEn= 2.58D-03
 Coeff-Com: -0.221D-02 0.267D-02 0.145D-03 0.329D-06 0.172D-03 0.124D-02
 Coeff-Com: -0.223D-02-0.849D-02-0.355D-01-0.114D+00-0.869D-01 0.267D+00
 Coeff-Com:  0.978D+00
 Coeff-En:   0.000D+00 0.000D+00 0.000D+00 0.000D+00 0.000D+00 0.000D+00
 Coeff-En:   0.000D+00 0.000D+00 0.000D+00 0.000D+00 0.000D+00 0.000D+00
 Coeff-En:   0.100D+01
 Coeff:     -0.221D-02 0.266D-02 0.145D-03 0.328D-06 0.172D-03 0.124D-02
 Coeff:     -0.222D-02-0.847D-02-0.354D-01-0.114D+00-0.867D-01 0.267D+00
 Coeff:      0.978D+00
 Gap=     0.063 Goal=   None    Shift=    0.000
 RMSDP=2.26D-05 MaxDP=7.93D-04 DE=-6.54D-06 OVMax= 2.01D-03

 Cycle  14  Pass 0  IDiag  1:
 RMSU=  6.10D-06    CP:  9.74D-01  8.98D-01  4.10D-01  1.39D-01  2.89D-02
                    CP:  8.50D-01  4.82D-01  4.44D-01  9.07D-01  1.30D+00
                    CP:  1.33D+00  1.83D+00  1.63D+00
 E= -435.026327324016     Delta-E=       -0.000004836243 Rises=F Damp=F
 DIIS: error= 8.35D-05 at cycle  14 NSaved=  14.
 NSaved=14 IEnMin=14 EnMin= -435.026327324016     IErMin=14 ErrMin= 8.35D-05
 ErrMax= 8.35D-05  0.00D+00 EMaxC= 1.00D-01 BMatC= 3.93D-07 BMatP= 3.36D-06
 IDIUse=1 WtCom= 1.00D+00 WtEn= 0.00D+00
 Coeff-Com: -0.352D-03 0.385D-03-0.325D-03 0.188D-04 0.722D-04 0.914D-03
 Coeff-Com:  0.172D-02 0.113D-03-0.705D-02-0.463D-01-0.121D+00-0.106D+00
 Coeff-Com:  0.294D+00 0.984D+00
 Coeff:     -0.352D-03 0.385D-03-0.325D-03 0.188D-04 0.722D-04 0.914D-03
 Coeff:      0.172D-02 0.113D-03-0.705D-02-0.463D-01-0.121D+00-0.106D+00
 Coeff:      0.294D+00 0.984D+00
 Gap=     0.063 Goal=   None    Shift=    0.000
 RMSDP=1.49D-05 MaxDP=5.37D-04 DE=-4.84D-06 OVMax= 1.43D-03

 Cycle  15  Pass 0  IDiag  1:
 RMSU=  3.39D-06    CP:  9.74D-01  8.99D-01  4.10D-01  1.39D-01  2.88D-02
                    CP:  8.50D-01  4.84D-01  4.47D-01  9.18D-01  1.34D+00
                    CP:  1.46D+00  2.31D+00  2.43D+00  1.83D+00
 E= -435.026328406327     Delta-E=       -0.000001082311 Rises=F Damp=F
 DIIS: error= 1.70D-05 at cycle  15 NSaved=  15.
 NSaved=15 IEnMin=15 EnMin= -435.026328406327     IErMin=15 ErrMin= 1.70D-05
 ErrMax= 1.70D-05  0.00D+00 EMaxC= 1.00D-01 BMatC= 2.24D-08 BMatP= 3.93D-07
 IDIUse=1 WtCom= 1.00D+00 WtEn= 0.00D+00
 Coeff-Com: -0.623D-04 0.991D-04-0.300D-03-0.231D-05 0.175D-04 0.271D-03
 Coeff-Com:  0.101D-02 0.217D-02 0.514D-02 0.120D-01-0.168D-01-0.748D-01
 Coeff-Com: -0.623D-01 0.374D+00 0.759D+00
 Coeff:     -0.623D-04 0.991D-04-0.300D-03-0.231D-05 0.175D-04 0.271D-03
 Coeff:      0.101D-02 0.217D-02 0.514D-02 0.120D-01-0.168D-01-0.748D-01
 Coeff:     -0.623D-01 0.374D+00 0.759D+00
 Gap=     0.063 Goal=   None    Shift=    0.000
 RMSDP=6.77D-06 MaxDP=1.88D-04 DE=-1.08D-06 OVMax= 7.97D-04

 Initial convergence to 1.0D-05 achieved.  Increase integral accuracy.
 Cycle  16  Pass 1  IDiag  1:
 E= -435.026333232813     Delta-E=       -0.000004826486 Rises=F Damp=F
 DIIS: error= 1.62D-05 at cycle   1 NSaved=   1.
 NSaved= 1 IEnMin= 1 EnMin= -435.026333232813     IErMin= 1 ErrMin= 1.62D-05
 ErrMax= 1.62D-05  0.00D+00 EMaxC= 1.00D-01 BMatC= 2.88D-08 BMatP= 2.88D-08
 IDIUse=1 WtCom= 1.00D+00 WtEn= 0.00D+00
 Coeff-Com:  0.100D+01
 Coeff:      0.100D+01
 Gap=     0.063 Goal=   None    Shift=    0.000
 RMSDP=6.77D-06 MaxDP=1.88D-04 DE=-4.83D-06 OVMax= 8.16D-04

 Cycle  17  Pass 1  IDiag  1:
 RMSU=  8.65D-06    CP:  1.00D+00
 E= -435.026333466315     Delta-E=       -0.000000233502 Rises=F Damp=F
 DIIS: error= 1.27D-05 at cycle   2 NSaved=   2.
 NSaved= 2 IEnMin= 2 EnMin= -435.026333466315     IErMin= 2 ErrMin= 1.27D-05
 ErrMax= 1.27D-05  0.00D+00 EMaxC= 1.00D-01 BMatC= 1.56D-08 BMatP= 2.88D-08
 IDIUse=1 WtCom= 1.00D+00 WtEn= 0.00D+00
 Coeff-Com:  0.351D+00 0.649D+00
 Coeff:      0.351D+00 0.649D+00
 Gap=     0.063 Goal=   None    Shift=    0.000
 RMSDP=3.90D-06 MaxDP=1.18D-04 DE=-2.34D-07 OVMax= 4.74D-04

 Cycle  18  Pass 1  IDiag  1:
 RMSU=  2.87D-06    CP:  1.00D+00  1.31D+00
 E= -435.026333576950     Delta-E=       -0.000000110635 Rises=F Damp=F
 DIIS: error= 1.50D-05 at cycle   3 NSaved=   3.
 NSaved= 3 IEnMin= 3 EnMin= -435.026333576950     IErMin= 2 ErrMin= 1.27D-05
 ErrMax= 1.50D-05  0.00D+00 EMaxC= 1.00D-01 BMatC= 1.72D-08 BMatP= 1.56D-08
 IDIUse=1 WtCom= 1.00D+00 WtEn= 0.00D+00
 Coeff-Com: -0.132D-01 0.521D+00 0.492D+00
 Coeff:     -0.132D-01 0.521D+00 0.492D+00
 Gap=     0.063 Goal=   None    Shift=    0.000
 RMSDP=3.75D-06 MaxDP=1.13D-04 DE=-1.11D-07 OVMax= 4.49D-04

 Cycle  19  Pass 1  IDiag  1:
 RMSU=  1.74D-06    CP:  1.00D+00  1.63D+00  1.62D+00
 E= -435.026333684009     Delta-E=       -0.000000107059 Rises=F Damp=F
 DIIS: error= 1.10D-05 at cycle   4 NSaved=   4.
 NSaved= 4 IEnMin= 4 EnMin= -435.026333684009     IErMin= 4 ErrMin= 1.10D-05
 ErrMax= 1.10D-05  0.00D+00 EMaxC= 1.00D-01 BMatC= 1.03D-08 BMatP= 1.56D-08
 IDIUse=1 WtCom= 1.00D+00 WtEn= 0.00D+00
 Coeff-Com: -0.653D-01 0.332D+00 0.424D+00 0.309D+00
 Coeff:     -0.653D-01 0.332D+00 0.424D+00 0.309D+00
 Gap=     0.063 Goal=   None    Shift=    0.000
 RMSDP=2.13D-06 MaxDP=7.94D-05 DE=-1.07D-07 OVMax= 2.63D-04

 Cycle  20  Pass 1  IDiag  1:
 RMSU=  7.57D-07    CP:  1.00D+00  1.81D+00  2.03D+00  1.18D+00
 E= -435.026333741752     Delta-E=       -0.000000057743 Rises=F Damp=F
 DIIS: error= 1.16D-05 at cycle   5 NSaved=   5.
 NSaved= 5 IEnMin= 5 EnMin= -435.026333741752     IErMin= 4 ErrMin= 1.10D-05
 ErrMax= 1.16D-05  0.00D+00 EMaxC= 1.00D-01 BMatC= 3.98D-09 BMatP= 1.03D-08
 IDIUse=1 WtCom= 1.00D+00 WtEn= 0.00D+00
 Coeff-Com: -0.720D-01-0.254D+00-0.124D+00 0.311D+00 0.114D+01
 Coeff:     -0.720D-01-0.254D+00-0.124D+00 0.311D+00 0.114D+01
 Gap=     0.063 Goal=   None    Shift=    0.000
 RMSDP=7.52D-06 MaxDP=2.04D-04 DE=-5.77D-08 OVMax= 9.33D-04

 Cycle  21  Pass 1  IDiag  1:
 RMSU=  1.72D-06    CP:  1.00D+00  2.46D+00  3.00D+00  2.45D+00  1.64D+00
 E= -435.026333905971     Delta-E=       -0.000000164219 Rises=F Damp=F
 DIIS: error= 8.30D-06 at cycle   6 NSaved=   6.
 NSaved= 6 IEnMin= 6 EnMin= -435.026333905971     IErMin= 6 ErrMin= 8.30D-06
 ErrMax= 8.30D-06  0.00D+00 EMaxC= 1.00D-01 BMatC= 3.46D-09 BMatP= 3.98D-09
 IDIUse=1 WtCom= 1.00D+00 WtEn= 0.00D+00
 Coeff-Com:  0.291D-02-0.110D+01-0.103D+01-0.105D+00 0.197D+01 0.127D+01
 Coeff:      0.291D-02-0.110D+01-0.103D+01-0.105D+00 0.197D+01 0.127D+01
 Gap=     0.063 Goal=   None    Shift=    0.000
 RMSDP=1.93D-05 MaxDP=5.41D-04 DE=-1.64D-07 OVMax= 2.40D-03

 Cycle  22  Pass 1  IDiag  1:
 RMSU=  1.35D-05    CP:  1.00D+00  3.00D+00  3.00D+00  3.00D+00  3.00D+00
                    CP:  3.00D+00
 E= -435.026334134026     Delta-E=       -0.000000228055 Rises=F Damp=F
 DIIS: error= 3.81D-06 at cycle   7 NSaved=   7.
 NSaved= 7 IEnMin= 7 EnMin= -435.026334134026     IErMin= 7 ErrMin= 3.81D-06
 ErrMax= 3.81D-06  0.00D+00 EMaxC= 1.00D-01 BMatC= 2.31D-09 BMatP= 3.46D-09
 IDIUse=1 WtCom= 1.00D+00 WtEn= 0.00D+00
 Coeff-Com:  0.192D-01-0.822D+00-0.777D+00-0.197D+00 0.129D+01 0.108D+01
 Coeff-Com:  0.412D+00
 Coeff:      0.192D-01-0.822D+00-0.777D+00-0.197D+00 0.129D+01 0.108D+01
 Coeff:      0.412D+00
 Gap=     0.063 Goal=   None    Shift=    0.000
 RMSDP=4.76D-06 MaxDP=1.31D-04 DE=-2.28D-07 OVMax= 5.89D-04

 Cycle  23  Pass 1  IDiag  1:
 RMSU=  5.04D-07    CP:  1.00D+00  3.00D+00  3.00D+00  3.00D+00  3.00D+00
                    CP:  3.00D+00  1.35D+00
 E= -435.026334149337     Delta-E=       -0.000000015311 Rises=F Damp=F
 DIIS: error= 1.44D-06 at cycle   8 NSaved=   8.
 NSaved= 8 IEnMin= 8 EnMin= -435.026334149337     IErMin= 8 ErrMin= 1.44D-06
 ErrMax= 1.44D-06  0.00D+00 EMaxC= 1.00D-01 BMatC= 2.37D-10 BMatP= 2.31D-09
 IDIUse=1 WtCom= 1.00D+00 WtEn= 0.00D+00
 Coeff-Com:  0.592D-02-0.994D-01-0.535D-01-0.139D+00 0.141D+00 0.210D+00
 Coeff-Com:  0.281D-01 0.907D+00
 Coeff:      0.592D-02-0.994D-01-0.535D-01-0.139D+00 0.141D+00 0.210D+00
 Coeff:      0.281D-01 0.907D+00
 Gap=     0.063 Goal=   None    Shift=    0.000
 RMSDP=9.29D-07 MaxDP=2.63D-05 DE=-1.53D-08 OVMax= 1.07D-04

 Cycle  24  Pass 1  IDiag  1:
 RMSU=  2.07D-07    CP:  1.00D+00  3.00D+00  3.00D+00  3.00D+00  3.00D+00
                    CP:  3.00D+00  1.42D+00  1.18D+00
 E= -435.026334150302     Delta-E=       -0.000000000965 Rises=F Damp=F
 DIIS: error= 1.20D-06 at cycle   9 NSaved=   9.
 NSaved= 9 IEnMin= 9 EnMin= -435.026334150302     IErMin= 9 ErrMin= 1.20D-06
 ErrMax= 1.20D-06  0.00D+00 EMaxC= 1.00D-01 BMatC= 1.36D-10 BMatP= 2.37D-10
 IDIUse=1 WtCom= 1.00D+00 WtEn= 0.00D+00
 Coeff-Com: -0.363D-02 0.231D+00 0.263D+00-0.735D-01-0.328D+00-0.248D+00
 Coeff-Com: -0.168D+00 0.435D+00 0.891D+00
 Coeff:     -0.363D-02 0.231D+00 0.263D+00-0.735D-01-0.328D+00-0.248D+00
 Coeff:     -0.168D+00 0.435D+00 0.891D+00
 Gap=     0.063 Goal=   None    Shift=    0.000
 RMSDP=4.62D-07 MaxDP=1.39D-05 DE=-9.65D-10 OVMax= 4.74D-05

 Cycle  25  Pass 1  IDiag  1:
 RMSU=  7.00D-08    CP:  1.00D+00  3.00D+00  3.00D+00  3.00D+00  3.00D+00
                    CP:  3.00D+00  1.45D+00  1.31D+00  1.79D+00
 E= -435.026334150600     Delta-E=       -0.000000000298 Rises=F Damp=F
 DIIS: error= 6.33D-07 at cycle  10 NSaved=  10.
 NSaved=10 IEnMin=10 EnMin= -435.026334150600     IErMin=10 ErrMin= 6.33D-07
 ErrMax= 6.33D-07  0.00D+00 EMaxC= 1.00D-01 BMatC= 2.53D-11 BMatP= 1.36D-10
 IDIUse=1 WtCom= 1.00D+00 WtEn= 0.00D+00
 Coeff-Com: -0.292D-02 0.127D+00 0.141D+00-0.370D-01-0.159D+00-0.156D+00
 Coeff-Com: -0.792D-01 0.465D-01 0.404D+00 0.716D+00
 Coeff:     -0.292D-02 0.127D+00 0.141D+00-0.370D-01-0.159D+00-0.156D+00
 Coeff:     -0.792D-01 0.465D-01 0.404D+00 0.716D+00
 Gap=     0.063 Goal=   None    Shift=    0.000
 RMSDP=1.08D-07 MaxDP=3.33D-06 DE=-2.98D-10 OVMax= 1.01D-05

 Cycle  26  Pass 1  IDiag  1:
 RMSU=  1.76D-08    CP:  1.00D+00  3.00D+00  3.00D+00  3.00D+00  3.00D+00
                    CP:  3.00D+00  1.45D+00  1.33D+00  2.07D+00  1.18D+00
 E= -435.026334150637     Delta-E=       -0.000000000036 Rises=F Damp=F
 DIIS: error= 2.00D-07 at cycle  11 NSaved=  11.
 NSaved=11 IEnMin=11 EnMin= -435.026334150637     IErMin=11 ErrMin= 2.00D-07
 ErrMax= 2.00D-07  0.00D+00 EMaxC= 1.00D-01 BMatC= 2.50D-12 BMatP= 2.53D-11
 IDIUse=1 WtCom= 1.00D+00 WtEn= 0.00D+00
 Coeff-Com: -0.660D-03 0.219D-01 0.246D-01-0.134D-01-0.141D-01-0.339D-01
 Coeff-Com: -0.668D-02-0.396D-01 0.457D-01 0.288D+00 0.728D+00
 Coeff:     -0.660D-03 0.219D-01 0.246D-01-0.134D-01-0.141D-01-0.339D-01
 Coeff:     -0.668D-02-0.396D-01 0.457D-01 0.288D+00 0.728D+00
 Gap=     0.063 Goal=   None    Shift=    0.000
 RMSDP=1.76D-08 MaxDP=3.77D-07 DE=-3.64D-11 OVMax= 1.48D-06

 Cycle  27  Pass 1  IDiag  1:
 RMSU=  7.12D-09    CP:  1.00D+00  3.00D+00  3.00D+00  3.00D+00  3.00D+00
                    CP:  3.00D+00  1.45D+00  1.34D+00  2.14D+00  1.26D+00
                    CP:  1.12D+00
 E= -435.026334150642     Delta-E=       -0.000000000006 Rises=F Damp=F
 DIIS: error= 2.54D-08 at cycle  12 NSaved=  12.
 NSaved=12 IEnMin=12 EnMin= -435.026334150642     IErMin=12 ErrMin= 2.54D-08
 ErrMax= 2.54D-08  0.00D+00 EMaxC= 1.00D-01 BMatC= 9.22D-14 BMatP= 2.50D-12
 IDIUse=1 WtCom= 1.00D+00 WtEn= 0.00D+00
 Coeff-Com: -0.585D-04-0.582D-03-0.594D-03-0.227D-02 0.629D-02-0.239D-02
 Coeff-Com:  0.302D-02-0.218D-01-0.175D-01 0.447D-01 0.318D+00 0.674D+00
 Coeff:     -0.585D-04-0.582D-03-0.594D-03-0.227D-02 0.629D-02-0.239D-02
 Coeff:      0.302D-02-0.218D-01-0.175D-01 0.447D-01 0.318D+00 0.674D+00
 Gap=     0.063 Goal=   None    Shift=    0.000
 RMSDP=6.16D-09 MaxDP=1.20D-07 DE=-5.68D-12 OVMax= 5.93D-07

 SCF Done:  E(RB3LYP) =  -435.026334151     A.U. after   27 cycles
            NFock= 27  Conv=0.62D-08     -V/T= 2.0103
 KE= 4.305912625828D+02 PE=-1.914030954718D+03 EE= 5.962847600889D+02
 Leave Link  502 at Thu Mar  7 19:56:55 2024, MaxMem=  2147483648 cpu:             278.1 elap:              17.4
 (Enter /share/apps/gaussian/g16/l601.exe)
 Copying SCF densities to generalized density rwf, IOpCl= 0 IROHF=0.

 **********************************************************************

            Population analysis using the SCF density.

 **********************************************************************

 Orbital symmetries:
       Occupied  (A) (A) (A) (A) (A) (A) (A) (A) (A) (A) (A) (A)
                 (A) (A) (A) (A) (A) (A) (A) (A) (A) (A) (A) (A)
                 (A) (A) (A) (A) (A) (A) (A) (A) (A) (A) (A)
       Virtual   (A) (A) (A) (A) (A) (A) (A) (A) (A) (A) (A) (A)
                 (A) (A) (A) (A) (A) (A) (A) (A) (A) (A) (A) (A)
                 (A) (A) (A) (A) (A) (A) (A) (A) (A) (A) (A) (A)
                 (A) (A) (A) (A) (A) (A) (A) (A) (A) (A) (A) (A)
                 (A) (A) (A) (A) (A) (A) (A) (A) (A) (A) (A) (A)
                 (A) (A) (A) (A) (A) (A) (A) (A) (A) (A) (A) (A)
                 (A) (A) (A) (A) (A) (A) (A) (A) (A) (A) (A) (A)
                 (A) (A) (A) (A) (A) (A) (A) (A) (A) (A) (A) (A)
                 (A) (A) (A) (A) (A) (A) (A) (A) (A) (A) (A) (A)
                 (A) (A) (A) (A) (A) (A) (A) (A) (A) (A) (A) (A)
                 (A) (A) (A) (A) (A) (A) (A) (A) (A)
 The electronic state is 1-A.
 Alpha  occ. eigenvalues --  -14.49234 -14.45540 -14.37973 -10.22668 -10.20240
 Alpha  occ. eigenvalues --  -10.19420 -10.19368 -10.19353 -10.19269 -10.19205
 Alpha  occ. eigenvalues --   -1.07824  -0.88966  -0.85220  -0.76703  -0.74709
 Alpha  occ. eigenvalues --   -0.69643  -0.60952  -0.59778  -0.56328  -0.51901
 Alpha  occ. eigenvalues --   -0.49193  -0.47447  -0.46684  -0.45031  -0.44135
 Alpha  occ. eigenvalues --   -0.42274  -0.41273  -0.40137  -0.36364  -0.35063
 Alpha  occ. eigenvalues --   -0.34480  -0.27508  -0.25381  -0.24782  -0.23710
 Alpha virt. eigenvalues --   -0.17395  -0.06039  -0.00672  -0.00114   0.09142
 Alpha virt. eigenvalues --    0.11796   0.12506   0.14632   0.15947   0.16926
 Alpha virt. eigenvalues --    0.17825   0.18799   0.21147   0.24048   0.26924
 Alpha virt. eigenvalues --    0.28196   0.30269   0.31654   0.32095   0.34423
 Alpha virt. eigenvalues --    0.45983   0.50797   0.51372   0.53248   0.53576
 Alpha virt. eigenvalues --    0.56132   0.57209   0.58966   0.59177   0.59587
 Alpha virt. eigenvalues --    0.60690   0.61095   0.61422   0.62217   0.63733
 Alpha virt. eigenvalues --    0.64811   0.65676   0.67184   0.68787   0.69999
 Alpha virt. eigenvalues --    0.70945   0.74779   0.75660   0.78127   0.81379
 Alpha virt. eigenvalues --    0.82190   0.83413   0.84250   0.85067   0.86145
 Alpha virt. eigenvalues --    0.88903   0.91377   0.92289   0.94326   0.95945
 Alpha virt. eigenvalues --    0.98025   1.05349   1.08352   1.10315   1.12244
 Alpha virt. eigenvalues --    1.13970   1.17597   1.20040   1.20763   1.24178
 Alpha virt. eigenvalues --    1.28198   1.33309   1.38995   1.42292   1.43111
 Alpha virt. eigenvalues --    1.44272   1.47464   1.48888   1.50865   1.51611
 Alpha virt. eigenvalues --    1.54036   1.64413   1.68833   1.72403   1.73985
 Alpha virt. eigenvalues --    1.79356   1.79651   1.82171   1.87555   1.89637
 Alpha virt. eigenvalues --    1.91429   1.97010   1.98519   2.03071   2.04645
 Alpha virt. eigenvalues --    2.05866   2.07278   2.13914   2.14234   2.15403
 Alpha virt. eigenvalues --    2.19567   2.21713   2.24172   2.30413   2.30559
 Alpha virt. eigenvalues --    2.31940   2.33508   2.34189   2.43785   2.45965
 Alpha virt. eigenvalues --    2.53115   2.57612   2.58540   2.65186   2.65551
 Alpha virt. eigenvalues --    2.71743   2.73473   2.74580   2.77775   2.81667
 Alpha virt. eigenvalues --    2.84631   2.90494   3.05579   3.38158   3.40555
 Alpha virt. eigenvalues --    3.64018   3.83536   4.08713   4.11249   4.13531
 Alpha virt. eigenvalues --    4.28154   4.33213   4.41669   4.69374
          Condensed to atoms (all electrons):
               1          2          3          4          5          6
     1  N    7.122159   0.203702  -0.153473   0.209076  -0.038647  -0.034026
     2  N    0.203702   6.515355   0.292922  -0.028532   0.003286  -0.007398
     3  N   -0.153473   0.292922   6.816946   0.006500   0.000005  -0.000394
     4  C    0.209076  -0.028532   0.006500   5.158714   0.368171   0.329467
     5  H   -0.038647   0.003286   0.000005   0.368171   0.567013  -0.032477
     6  H   -0.034026  -0.007398  -0.000394   0.329467  -0.032477   0.614285
     7  C   -0.058523  -0.004505   0.000232   0.305377  -0.047169  -0.023912
     8  C    0.000998  -0.000036   0.000003  -0.044751  -0.003803   0.000788
     9  C   -0.001328   0.000828  -0.000204  -0.059728   0.005329  -0.005203
    10  C   -0.000094   0.000002  -0.000000   0.006307   0.000088  -0.000251
    11  H    0.000116  -0.000001  -0.000000  -0.010244   0.007557   0.000230
    12  C    0.000531   0.000040  -0.000008   0.006366  -0.000089  -0.000027
    13  H    0.003119   0.002801  -0.000198  -0.011501   0.000147   0.002078
    14  C   -0.000019  -0.000001   0.000000   0.000267  -0.000014   0.000042
    15  H    0.000001   0.000000  -0.000000  -0.000165  -0.000004   0.000003
    16  H    0.000004   0.000002  -0.000000  -0.000178   0.000003   0.000000
    17  H    0.000000   0.000000   0.000000   0.000008  -0.000000  -0.000000
               7          8          9         10         11         12
     1  N   -0.058523   0.000998  -0.001328  -0.000094   0.000116   0.000531
     2  N   -0.004505  -0.000036   0.000828   0.000002  -0.000001   0.000040
     3  N    0.000232   0.000003  -0.000204  -0.000000  -0.000000  -0.000008
     4  C    0.305377  -0.044751  -0.059728   0.006307  -0.010244   0.006366
     5  H   -0.047169  -0.003803   0.005329   0.000088   0.007557  -0.000089
     6  H   -0.023912   0.000788  -0.005203  -0.000251   0.000230  -0.000027
     7  C    4.718715   0.550241   0.530840  -0.019557  -0.043286  -0.015771
     8  C    0.550241   4.956583  -0.043095   0.524951   0.352505  -0.045350
     9  C    0.530840  -0.043095   4.967645  -0.045868   0.006253   0.526692
    10  C   -0.019557   0.524951  -0.045868   4.860460  -0.044984  -0.025610
    11  H   -0.043286   0.352505   0.006253  -0.044984   0.605333   0.000365
    12  C   -0.015771  -0.045350   0.526692  -0.025610   0.000365   4.861316
    13  H   -0.046575   0.005958   0.354487   0.000352  -0.000168  -0.041998
    14  C   -0.035970  -0.036113  -0.034577   0.552562   0.004694   0.544156
    15  H    0.003872  -0.039991   0.000793   0.357475  -0.005449   0.004584
    16  H    0.003621   0.000880  -0.040781   0.004552   0.000018   0.358234
    17  H    0.000735   0.004701   0.004667  -0.043046  -0.000179  -0.042634
              13         14         15         16         17
     1  N    0.003119  -0.000019   0.000001   0.000004   0.000000
     2  N    0.002801  -0.000001   0.000000   0.000002   0.000000
     3  N   -0.000198   0.000000  -0.000000  -0.000000   0.000000
     4  C   -0.011501   0.000267  -0.000165  -0.000178   0.000008
     5  H    0.000147  -0.000014  -0.000004   0.000003  -0.000000
     6  H    0.002078   0.000042   0.000003   0.000000  -0.000000
     7  C   -0.046575  -0.035970   0.003872   0.003621   0.000735
     8  C    0.005958  -0.036113  -0.039991   0.000880   0.004701
     9  C    0.354487  -0.034577   0.000793  -0.040781   0.004667
    10  C    0.000352   0.552562   0.357475   0.004552  -0.043046
    11  H   -0.000168   0.004694  -0.005449   0.000018  -0.000179
    12  C   -0.041998   0.544156   0.004584   0.358234  -0.042634
    13  H    0.599476   0.004666   0.000017  -0.005230  -0.000175
    14  C    0.004666   4.854244  -0.042861  -0.042778   0.359215
    15  H    0.000017  -0.042861   0.595042  -0.000183  -0.005556
    16  H   -0.005230  -0.042778  -0.000183   0.594289  -0.005477
    17  H   -0.000175   0.359215  -0.005556  -0.005477   0.595794
 Mulliken charges:
               1
     1  N   -0.253597
     2  N    0.021536
     3  N    0.037670
     4  C   -0.235155
     5  H    0.170604
     6  H    0.156796
     7  C    0.181636
     8  C   -0.184468
     9  C   -0.166749
    10  C   -0.127340
    11  H    0.127240
    12  C   -0.130796
    13  H    0.132744
    14  C   -0.127514
    15  H    0.132422
    16  H    0.133025
    17  H    0.131946
 Sum of Mulliken charges =  -0.00000
 Mulliken charges with hydrogens summed into heavy atoms:
               1
     1  N   -0.253597
     2  N    0.021536
     3  N    0.037670
     4  C    0.092244
     7  C    0.181636
     8  C   -0.057227
     9  C   -0.034005
    10  C    0.005082
    12  C    0.002229
    14  C    0.004432
 Electronic spatial extent (au):  <R**2>=           1687.8877
 Charge=             -0.0000 electrons
 Dipole moment (field-independent basis, Debye):
    X=             -1.3200    Y=             -0.4518    Z=              1.2519  Tot=              1.8745
 Quadrupole moment (field-independent basis, Debye-Ang):
   XX=            -57.4388   YY=            -52.5665   ZZ=            -60.1776
   XY=             -0.6865   XZ=              4.6968   YZ=              0.6392
 Traceless Quadrupole moment (field-independent basis, Debye-Ang):
   XX=             -0.7112   YY=              4.1611   ZZ=             -3.4499
   XY=             -0.6865   XZ=              4.6968   YZ=              0.6392
 Octapole moment (field-independent basis, Debye-Ang**2):
  XXX=            -24.1134  YYY=             -2.0668  ZZZ=              0.4613  XYY=             -3.6612
  XXY=              0.2217  XXZ=              4.8667  XZZ=              7.9242  YZZ=             -0.5297
  YYZ=              1.2930  XYZ=             -0.4571
 Hexadecapole moment (field-independent basis, Debye-Ang**3):
 XXXX=          -1741.3273 YYYY=           -380.4822 ZZZZ=           -106.0207 XXXY=             -8.2774
 XXXZ=             55.4477 YYYX=             -6.7101 YYYZ=              6.6190 ZZZX=             -1.4778
 ZZZY=             -2.2267 XXYY=           -348.2715 XXZZ=           -322.7162 YYZZ=            -90.8136
 XXYZ=              8.9053 YYXZ=              6.6845 ZZXY=              1.4295
 N-N= 4.521285978958D+02 E-N=-1.914030952855D+03  KE= 4.305912625828D+02
 No NMR shielding tensors so no spin-rotation constants.
 Leave Link  601 at Thu Mar  7 19:56:55 2024, MaxMem=  2147483648 cpu:               3.1 elap:               0.2
 (Enter /share/apps/gaussian/g16/l9999.exe)
 1\1\GINC-NODE9\SP\RB3LYP\6-31G(d)\C7H7N3\LIAOYT\07-Mar-2024\0\\#p b3ly
 p/6-31g(d) em=gd3\\tmpdir/Subs_0_0.gjf\\0,1\N,0,1.006681,0.239406,0.88
 2112\N,0,1.663185,1.424861,0.893637\N,0,2.704473,1.297129,0.118268\C,0
 ,-0.259524,0.101011,1.586532\H,0,-0.239533,-0.822882,2.174512\H,0,-0.2
 96243,0.942731,2.284379\C,0,-1.449678,0.113638,0.645423\C,0,-2.440578,
 -0.868099,0.73123\C,0,-1.564397,1.122957,-0.319236\C,0,-3.541195,-0.84
 0139,-0.129102\H,0,-2.352681,-1.658975,1.473245\C,0,-2.659906,1.149094
 ,-1.180345\H,0,-0.786764,1.87901,-0.391929\C,0,-3.652024,0.168304,-1.0
 86588\H,0,-4.305428,-1.609034,-0.05391\H,0,-2.740533,1.935361,-1.92605
 6\H,0,-4.504974,0.189795,-1.75946\\Version=ES64L-G16RevA.03\State=1-A\
 HF=-435.0263342\RMSD=6.161e-09\Dipole=-0.6524996,0.1179979,0.3228073\Q
 uadrupole=-2.8392998,1.4580499,1.38125,2.2133962,2.6460705,-1.7164808\
 PG=C01 [X(C7H7N3)]\\@


 Not by the face shall a man be known, but by the mask.
                               -- Karen Blixen
 Job cpu time:       0 days  0 hours  5 minutes  4.8 seconds.
 Elapsed time:       0 days  0 hours  0 minutes 19.3 seconds.
 File lengths (MBytes):  RWF=     19 Int=      0 D2E=      0 Chk=      3 Scr=      1
 Normal termination of Gaussian 16 at Thu Mar  7 19:56:56 2024.
Thu Mar  7 19:56:56 CST 2024
