This job is running on host node94
Current directory: /share/home/Liaoyt/system-test/bnts-ome/ynets-vs/tmpdir/cut-sep
Thu Mar  7 20:04:33 CST 2024
/tmp/86144.mgr
 Entering Gaussian System, Link 0=g16
 Initial command:
 /share/apps/gaussian/g16/l1.exe "/tmp/86144.mgr/Gau-217842.inp" -scrdir="/tmp/86144.mgr/"
 Entering Link 1 = /share/apps/gaussian/g16/l1.exe PID=    217843.
  
 Copyright (c) 1988,1990,1992,1993,1995,1998,2003,2009,2016,
            Gaussian, Inc.  All Rights Reserved.
  
 This is part of the Gaussian(R) 16 program.  It is based on
 the Gaussian(R) 09 system (copyright 2009, Gaussian, Inc.),
 the Gaussian(R) 03 system (copyright 2003, Gaussian, Inc.),
 the Gaussian(R) 98 system (copyright 1998, Gaussian, Inc.),
 the Gaussian(R) 94 system (copyright 1995, Gaussian, Inc.),
 the Gaussian 92(TM) system (copyright 1992, Gaussian, Inc.),
 the Gaussian 90(TM) system (copyright 1990, Gaussian, Inc.),
 the Gaussian 88(TM) system (copyright 1988, Gaussian, Inc.),
 the Gaussian 86(TM) system (copyright 1986, Carnegie Mellon
 University), and the Gaussian 82(TM) system (copyright 1983,
 Carnegie Mellon University). Gaussian is a federally registered
 trademark of Gaussian, Inc.
  
 This software contains proprietary and confidential information,
 including trade secrets, belonging to Gaussian, Inc.
  
 This software is provided under written license and may be
 used, copied, transmitted, or stored only in accord with that
 written license.
  
 The following legend is applicable only to US Government
 contracts under FAR:
  
                    RESTRICTED RIGHTS LEGEND
  
 Use, reproduction and disclosure by the US Government is
 subject to restrictions as set forth in subparagraphs (a)
 and (c) of the Commercial Computer Software - Restricted
 Rights clause in FAR 52.227-19.
  
 Gaussian, Inc.
 340 Quinnipiac St., Bldg. 40, Wallingford CT 06492
  
  
 ---------------------------------------------------------------
 Warning -- This program may not be used in any manner that
 competes with the business of Gaussian, Inc. or will provide
 assistance to any competitor of Gaussian, Inc.  The licensee
 of this program is prohibited from giving any competitor of
 Gaussian, Inc. access to this program.  By using this program,
 the user acknowledges that Gaussian, Inc. is engaged in the
 business of creating and licensing software in the field of
 computational chemistry and represents and warrants to the
 licensee that it is not a competitor of Gaussian, Inc. and that
 it will not use this program in any manner prohibited above.
 ---------------------------------------------------------------
  

 Cite this work as:
 Gaussian 16, Revision A.03,
 M. J. Frisch, G. W. Trucks, H. B. Schlegel, G. E. Scuseria, 
 M. A. Robb, J. R. Cheeseman, G. Scalmani, V. Barone, 
 G. A. Petersson, H. Nakatsuji, X. Li, M. Caricato, A. V. Marenich, 
 J. Bloino, B. G. Janesko, R. Gomperts, B. Mennucci, H. P. Hratchian, 
 J. V. Ortiz, A. F. Izmaylov, J. L. Sonnenberg, D. Williams-Young, 
 F. Ding, F. Lipparini, F. Egidi, J. Goings, B. Peng, A. Petrone, 
 T. Henderson, D. Ranasinghe, V. G. Zakrzewski, J. Gao, N. Rega, 
 G. Zheng, W. Liang, M. Hada, M. Ehara, K. Toyota, R. Fukuda, 
 J. Hasegawa, M. Ishida, T. Nakajima, Y. Honda, O. Kitao, H. Nakai, 
 T. Vreven, K. Throssell, J. A. Montgomery, Jr., J. E. Peralta, 
 F. Ogliaro, M. J. Bearpark, J. J. Heyd, E. N. Brothers, K. N. Kudin, 
 V. N. Staroverov, T. A. Keith, R. Kobayashi, J. Normand, 
 K. Raghavachari, A. P. Rendell, J. C. Burant, S. S. Iyengar, 
 J. Tomasi, M. Cossi, J. M. Millam, M. Klene, C. Adamo, R. Cammi, 
 J. W. Ochterski, R. L. Martin, K. Morokuma, O. Farkas, 
 J. B. Foresman, and D. J. Fox, Gaussian, Inc., Wallingford CT, 2016.
 
 ******************************************
 Gaussian 16:  ES64L-G16RevA.03 25-Dec-2016
                 7-Mar-2024 
 ******************************************
 %chk=yne-pro.chk
 %nprocshared=16
 Will use up to   16 processors via shared memory.
 %mem=16GB
 ------------------------
 #p b3lyp/6-31g(d) em=gd3
 ------------------------
 1/38=1,172=1/1;
 2/12=2,17=6,18=5,40=1/2;
 3/5=1,6=6,7=1,11=2,25=1,30=1,74=-5,124=31/1,2,3;
 4//1;
 5/5=2,38=5/2;
 6/7=2,8=2,9=2,10=2,28=1/1;
 99/5=1,9=1/99;
 Leave Link    1 at Thu Mar  7 20:04:33 2024, MaxMem=  2147483648 cpu:               0.8 elap:               0.1
 (Enter /share/apps/gaussian/g16/l101.exe)
 -------------------
 tmpdir/Subs_0_0.gjf
 -------------------
 Symbolic Z-matrix:
 Charge =  0 Multiplicity = 1
 C                     3.80195  -0.40788  -1.35113 
 C                     1.12945  -2.04597  -0.15946 
 C                     1.63233  -0.66014   0.07121 
 C                     2.72807   0.03561  -0.40819 
 H                     3.94479  -1.49316  -1.31472 
 H                     4.75018   0.07282  -1.09279 
 H                     3.56689  -0.13753  -2.38846 
 H                     1.81417  -2.59013  -0.81518 
 H                     1.04441  -2.60896   0.77893 
 H                     0.13834  -2.0391   -0.62881 
 
 ITRead=  0  0  0  0  0  0  0  0  0  0
 MicOpt= -1 -1 -1 -1 -1 -1 -1 -1 -1 -1
 NAtoms=     10 NQM=       10 NQMF=       0 NMMI=      0 NMMIF=      0
                NMic=       0 NMicF=      0.
                    Isotopes and Nuclear Properties:
 (Nuclear quadrupole moments (NQMom) in fm**2, nuclear magnetic moments (NMagM)
  in nuclear magnetons)

  Atom         1           2           3           4           5           6           7           8           9          10
 IAtWgt=          12          12          12          12           1           1           1           1           1           1
 AtmWgt=  12.0000000  12.0000000  12.0000000  12.0000000   1.0078250   1.0078250   1.0078250   1.0078250   1.0078250   1.0078250
 NucSpn=           0           0           0           0           1           1           1           1           1           1
 AtZEff=  -0.0000000  -0.0000000  -0.0000000  -0.0000000  -0.0000000  -0.0000000  -0.0000000  -0.0000000  -0.0000000  -0.0000000
 NQMom=    0.0000000   0.0000000   0.0000000   0.0000000   0.0000000   0.0000000   0.0000000   0.0000000   0.0000000   0.0000000
 NMagM=    0.0000000   0.0000000   0.0000000   0.0000000   2.7928460   2.7928460   2.7928460   2.7928460   2.7928460   2.7928460
 AtZNuc=   6.0000000   6.0000000   6.0000000   6.0000000   1.0000000   1.0000000   1.0000000   1.0000000   1.0000000   1.0000000
 Leave Link  101 at Thu Mar  7 20:04:33 2024, MaxMem=  2147483648 cpu:               2.1 elap:               0.2
 (Enter /share/apps/gaussian/g16/l202.exe)
                          Input orientation:                          
 ---------------------------------------------------------------------
 Center     Atomic      Atomic             Coordinates (Angstroms)
 Number     Number       Type             X           Y           Z
 ---------------------------------------------------------------------
      1          6           0        3.801952   -0.407883   -1.351129
      2          6           0        1.129452   -2.045973   -0.159460
      3          6           0        1.632328   -0.660136    0.071213
      4          6           0        2.728072    0.035605   -0.408187
      5          1           0        3.944794   -1.493162   -1.314715
      6          1           0        4.750176    0.072815   -1.092785
      7          1           0        3.566886   -0.137527   -2.388460
      8          1           0        1.814171   -2.590127   -0.815178
      9          1           0        1.044407   -2.608964    0.778933
     10          1           0        0.138339   -2.039101   -0.628810
 ---------------------------------------------------------------------
                    Distance matrix (angstroms):
                    1          2          3          4          5
     1  C    0.000000
     2  C    3.353456   0.000000
     3  C    2.606522   1.492193   0.000000
     4  C    1.496342   2.636365   1.383667   0.000000
     5  H    1.095244   3.092954   2.821742   2.153911   0.000000
     6  H    1.094048   4.297674   3.407798   2.135173   1.774874
     7  H    1.097453   3.814668   3.172637   2.157560   1.770166
     8  H    3.000118   1.093119   2.131577   2.809862   2.447943
     9  H    4.121405   1.097621   2.155098   3.352272   3.747082
    10  H    4.074884   1.096650   2.150251   3.325627   3.906100
                    6          7          8          9         10
     6  H    0.000000
     7  H    1.767256   0.000000
     8  H    3.973468   3.400364   0.000000
     9  H    4.942468   4.743762   1.770334   0.000000
    10  H    5.093575   4.297358   1.773915   1.768458   0.000000
 Stoichiometry    C4H6
 Framework group  C1[X(C4H6)]
 Deg. of freedom    24
 Full point group                 C1      NOp   1
 Largest Abelian subgroup         C1      NOp   1
 Largest concise Abelian subgroup C1      NOp   1
                         Standard orientation:                         
 ---------------------------------------------------------------------
 Center     Atomic      Atomic             Coordinates (Angstroms)
 Number     Number       Type             X           Y           Z
 ---------------------------------------------------------------------
      1          6           0        1.670892    0.396958   -0.000613
      2          6           0       -1.682538    0.383757    0.000366
      3          6           0       -0.682430   -0.723682    0.000266
      4          6           0        0.701108   -0.742585    0.000628
      5          1           0        1.237994    1.291715   -0.460579
      6          1           0        2.570495    0.123494   -0.559963
      7          1           0        1.983493    0.663660    1.017009
      8          1           0       -1.173466    1.350102   -0.043594
      9          1           0       -2.358795    0.320797   -0.861890
     10          1           0       -2.301913    0.363545    0.905136
 ---------------------------------------------------------------------
 Rotational constants (GHZ):          21.4007668           4.7402804           4.0778809
 Leave Link  202 at Thu Mar  7 20:04:33 2024, MaxMem=  2147483648 cpu:               0.2 elap:               0.0
 (Enter /share/apps/gaussian/g16/l301.exe)
 Standard basis: 6-31G(d) (6D, 7F)
 Ernie: Thresh=  0.10000D-02 Tol=  0.10000D-05 Strict=F.
 There are    72 symmetry adapted cartesian basis functions of A   symmetry.
 There are    72 symmetry adapted basis functions of A   symmetry.
    72 basis functions,   136 primitive gaussians,    72 cartesian basis functions
    15 alpha electrons       15 beta electrons
       nuclear repulsion energy       100.0557994324 Hartrees.
 IExCor=  402 DFT=T Ex+Corr=B3LYP ExCW=0 ScaHFX=  0.200000
 ScaDFX=  0.800000  0.720000  1.000000  0.810000 ScalE2=  1.000000  1.000000
 IRadAn=      5 IRanWt=     -1 IRanGd=            0 ICorTp=0 IEmpDi=131
 NAtoms=   10 NActive=   10 NUniq=   10 SFac= 1.00D+00 NAtFMM=   60 NAOKFM=F Big=F
 Integral buffers will be    131072 words long.
 Raffenetti 2 integral format.
 Two-electron integral symmetry is turned on.
 R6Disp:  Grimme-D3 Dispersion energy=       -0.0033077942 Hartrees.
 Nuclear repulsion after empirical dispersion term =      100.0524916382 Hartrees.
 Leave Link  301 at Thu Mar  7 20:04:33 2024, MaxMem=  2147483648 cpu:               1.2 elap:               0.1
 (Enter /share/apps/gaussian/g16/l302.exe)
 NPDir=0 NMtPBC=     1 NCelOv=     1 NCel=       1 NClECP=     1 NCelD=      1
         NCelK=      1 NCelE2=     1 NClLst=     1 CellRange=     0.0.
 One-electron integrals computed using PRISM.
 One-electron integral symmetry used in STVInt
 NBasis=    72 RedAO= T EigKep=  4.50D-03  NBF=    72
 NBsUse=    72 1.00D-06 EigRej= -1.00D+00 NBFU=    72
 Precomputing XC quadrature grid using
 IXCGrd= 4 IRadAn=           5 IRanWt=          -1 IRanGd=           0 AccXCQ= 0.00D+00.
 Generated NRdTot=       0 NPtTot=           0 NUsed=           0 NTot=          32
 NSgBfM=    72    72    72    72    72 MxSgAt=    10 MxSgA2=    10.
 Leave Link  302 at Thu Mar  7 20:04:33 2024, MaxMem=  2147483648 cpu:               2.4 elap:               0.2
 (Enter /share/apps/gaussian/g16/l303.exe)
 DipDrv:  MaxL=1.
 Leave Link  303 at Thu Mar  7 20:04:33 2024, MaxMem=  2147483648 cpu:               0.5 elap:               0.1
 (Enter /share/apps/gaussian/g16/l401.exe)
 ExpMin= 1.61D-01 ExpMax= 3.05D+03 ExpMxC= 4.57D+02 IAcc=3 IRadAn=         5 AccDes= 0.00D+00
 Harris functional with IExCor=  402 and IRadAn=       5 diagonalized for initial guess.
 HarFok:  IExCor=  402 AccDes= 0.00D+00 IRadAn=         5 IDoV= 1 UseB2=F ITyADJ=14
 ICtDFT=  3500011 ScaDFX=  1.000000  1.000000  1.000000  1.000000
 FoFCou: FMM=F IPFlag=           0 FMFlag=      100000 FMFlg1=           0
         NFxFlg=           0 DoJE=T BraDBF=F KetDBF=T FulRan=T
         wScrn=  0.000000 ICntrl=       500 IOpCl=  0 I1Cent=   200000004 NGrid=           0
         NMat0=    1 NMatS0=      1 NMatT0=    0 NMatD0=    1 NMtDS0=    0 NMtDT0=    0
 Petite list used in FoFCou.
 Harris En= -155.918964847707    
 JPrj=0 DoOrth=F DoCkMO=F.
 Leave Link  401 at Thu Mar  7 20:04:34 2024, MaxMem=  2147483648 cpu:               4.2 elap:               0.3
 (Enter /share/apps/gaussian/g16/l502.exe)
 Keep R1 ints in memory in canonical form, NReq=17794696.
 FoFCou: FMM=F IPFlag=           0 FMFlag=           0 FMFlg1=           0
         NFxFlg=           0 DoJE=F BraDBF=F KetDBF=F FulRan=T
         wScrn=  0.000000 ICntrl=       600 IOpCl=  0 I1Cent=           0 NGrid=           0
         NMat0=    1 NMatS0=   2628 NMatT0=    0 NMatD0=    1 NMtDS0=    0 NMtDT0=    0
 Symmetry not used in FoFCou.
 Two-electron integral symmetry not used.
 Closed shell SCF:
 Using DIIS extrapolation, IDIIS=  1040.
 NGot=  2147483648 LenX=  2144016608 LenY=  2144010983
 Requested convergence on RMS density matrix=1.00D-08 within 128 cycles.
 Requested convergence on MAX density matrix=1.00D-06.
 Requested convergence on             energy=1.00D-06.
 No special actions if energy rises.
 Integral accuracy reduced to 1.0D-05 until final iterations.

 Cycle   1  Pass 0  IDiag  1:
 E= -155.755051729449    
 DIIS: error= 4.82D-02 at cycle   1 NSaved=   1.
 NSaved= 1 IEnMin= 1 EnMin= -155.755051729449     IErMin= 1 ErrMin= 4.82D-02
 ErrMax= 4.82D-02  0.00D+00 EMaxC= 1.00D-01 BMatC= 1.12D-01 BMatP= 1.12D-01
 IDIUse=3 WtCom= 5.18D-01 WtEn= 4.82D-01
 Coeff-Com:  0.100D+01
 Coeff-En:   0.100D+01
 Coeff:      0.100D+01
 Gap=     0.140 Goal=   None    Shift=    0.000
 GapD=    0.140 DampG=1.000 DampE=0.500 DampFc=0.5000 IDamp=-1.
 Damping current iteration by 5.00D-01
 RMSDP=9.04D-03 MaxDP=1.24D-01              OVMax= 1.52D-01

 Cycle   2  Pass 0  IDiag  1:
 E= -155.813599334549     Delta-E=       -0.058547605100 Rises=F Damp=T
 DIIS: error= 9.80D-03 at cycle   2 NSaved=   2.
 NSaved= 2 IEnMin= 2 EnMin= -155.813599334549     IErMin= 2 ErrMin= 9.80D-03
 ErrMax= 9.80D-03  0.00D+00 EMaxC= 1.00D-01 BMatC= 5.33D-03 BMatP= 1.12D-01
 IDIUse=3 WtCom= 9.02D-01 WtEn= 9.80D-02
 Coeff-Com:  0.440D-01 0.956D+00
 Coeff-En:   0.529D-01 0.947D+00
 Coeff:      0.449D-01 0.955D+00
 Gap=     0.135 Goal=   None    Shift=    0.000
 RMSDP=1.79D-03 MaxDP=2.99D-02 DE=-5.85D-02 OVMax= 9.96D-02

 Cycle   3  Pass 0  IDiag  1:
 E= -155.869677948293     Delta-E=       -0.056078613744 Rises=F Damp=F
 DIIS: error= 1.15D-02 at cycle   3 NSaved=   3.
 NSaved= 3 IEnMin= 3 EnMin= -155.869677948293     IErMin= 2 ErrMin= 9.80D-03
 ErrMax= 1.15D-02  0.00D+00 EMaxC= 1.00D-01 BMatC= 9.35D-03 BMatP= 5.33D-03
 IDIUse=2 WtCom= 0.00D+00 WtEn= 1.00D+00
 Coeff-En:   0.000D+00 0.000D+00 0.100D+01
 Coeff:      0.000D+00 0.000D+00 0.100D+01
 Gap=     0.135 Goal=   None    Shift=    0.000
 RMSDP=5.16D-03 MaxDP=9.16D-02 DE=-5.61D-02 OVMax= 2.62D-01

 Cycle   4  Pass 0  IDiag  1:
 E= -155.725927241191     Delta-E=        0.143750707102 Rises=F Damp=F
 DIIS: error= 4.36D-02 at cycle   4 NSaved=   4.
 NSaved= 4 IEnMin= 3 EnMin= -155.869677948293     IErMin= 2 ErrMin= 9.80D-03
 ErrMax= 4.36D-02  0.00D+00 EMaxC= 1.00D-01 BMatC= 1.39D-01 BMatP= 5.33D-03
 IDIUse=2 WtCom= 0.00D+00 WtEn= 1.00D+00
 Coeff-En:   0.000D+00 0.000D+00 0.871D+00 0.129D+00
 Coeff:      0.000D+00 0.000D+00 0.871D+00 0.129D+00
 Gap=     0.138 Goal=   None    Shift=    0.000
 RMSDP=2.62D-03 MaxDP=4.63D-02 DE= 1.44D-01 OVMax= 1.35D-01

 Cycle   5  Pass 0  IDiag  1:
 E= -155.858937047475     Delta-E=       -0.133009806284 Rises=F Damp=F
 DIIS: error= 1.69D-02 at cycle   5 NSaved=   5.
 NSaved= 5 IEnMin= 3 EnMin= -155.869677948293     IErMin= 2 ErrMin= 9.80D-03
 ErrMax= 1.69D-02  0.00D+00 EMaxC= 1.00D-01 BMatC= 1.94D-02 BMatP= 5.33D-03
 IDIUse=2 WtCom= 0.00D+00 WtEn= 1.00D+00
 Coeff-En:   0.000D+00 0.000D+00 0.612D+00 0.000D+00 0.388D+00
 Coeff:      0.000D+00 0.000D+00 0.612D+00 0.000D+00 0.388D+00
 Gap=     0.139 Goal=   None    Shift=    0.000
 RMSDP=1.34D-03 MaxDP=2.33D-02 DE=-1.33D-01 OVMax= 7.02D-02

 Cycle   6  Pass 0  IDiag  1:
 E= -155.879564089180     Delta-E=       -0.020627041704 Rises=F Damp=F
 DIIS: error= 1.96D-03 at cycle   6 NSaved=   6.
 NSaved= 6 IEnMin= 6 EnMin= -155.879564089180     IErMin= 6 ErrMin= 1.96D-03
 ErrMax= 1.96D-03  0.00D+00 EMaxC= 1.00D-01 BMatC= 3.07D-04 BMatP= 5.33D-03
 IDIUse=3 WtCom= 9.80D-01 WtEn= 1.96D-02
 Coeff-Com:  0.378D-02-0.202D-02 0.271D+00-0.374D-01 0.222D+00 0.543D+00
 Coeff-En:   0.000D+00 0.000D+00 0.497D-01 0.000D+00 0.000D+00 0.950D+00
 Coeff:      0.371D-02-0.198D-02 0.266D+00-0.366D-01 0.218D+00 0.551D+00
 Gap=     0.140 Goal=   None    Shift=    0.000
 RMSDP=2.12D-04 MaxDP=3.50D-03 DE=-2.06D-02 OVMax= 8.39D-03

 Cycle   7  Pass 0  IDiag  1:
 E= -155.879892658716     Delta-E=       -0.000328569536 Rises=F Damp=F
 DIIS: error= 1.97D-04 at cycle   7 NSaved=   7.
 NSaved= 7 IEnMin= 7 EnMin= -155.879892658716     IErMin= 7 ErrMin= 1.97D-04
 ErrMax= 1.97D-04  0.00D+00 EMaxC= 1.00D-01 BMatC= 3.11D-06 BMatP= 3.07D-04
 IDIUse=3 WtCom= 9.98D-01 WtEn= 1.97D-03
 Coeff-Com:  0.114D-02-0.294D-02 0.770D-01-0.765D-02 0.374D-01 0.273D+00
 Coeff-Com:  0.622D+00
 Coeff-En:   0.000D+00 0.000D+00 0.000D+00 0.000D+00 0.000D+00 0.000D+00
 Coeff-En:   0.100D+01
 Coeff:      0.114D-02-0.293D-02 0.769D-01-0.764D-02 0.374D-01 0.272D+00
 Coeff:      0.623D+00
 Gap=     0.140 Goal=   None    Shift=    0.000
 RMSDP=2.44D-05 MaxDP=3.16D-04 DE=-3.29D-04 OVMax= 5.70D-04

 Cycle   8  Pass 0  IDiag  1:
 E= -155.879896017157     Delta-E=       -0.000003358442 Rises=F Damp=F
 DIIS: error= 4.40D-05 at cycle   8 NSaved=   8.
 NSaved= 8 IEnMin= 8 EnMin= -155.879896017157     IErMin= 8 ErrMin= 4.40D-05
 ErrMax= 4.40D-05  0.00D+00 EMaxC= 1.00D-01 BMatC= 1.26D-07 BMatP= 3.11D-06
 IDIUse=1 WtCom= 1.00D+00 WtEn= 0.00D+00
 Coeff-Com:  0.106D-04-0.891D-04 0.542D-03 0.480D-03-0.565D-02 0.175D-01
 Coeff-Com:  0.507D-01 0.936D+00
 Coeff:      0.106D-04-0.891D-04 0.542D-03 0.480D-03-0.565D-02 0.175D-01
 Coeff:      0.507D-01 0.936D+00
 Gap=     0.140 Goal=   None    Shift=    0.000
 RMSDP=4.24D-06 MaxDP=7.92D-05 DE=-3.36D-06 OVMax= 2.26D-04

 Initial convergence to 1.0D-05 achieved.  Increase integral accuracy.
 Cycle   9  Pass 1  IDiag  1:
 E= -155.879894971014     Delta-E=        0.000001046144 Rises=F Damp=F
 DIIS: error= 2.45D-06 at cycle   1 NSaved=   1.
 NSaved= 1 IEnMin= 1 EnMin= -155.879894971014     IErMin= 1 ErrMin= 2.45D-06
 ErrMax= 2.45D-06  0.00D+00 EMaxC= 1.00D-01 BMatC= 8.70D-10 BMatP= 8.70D-10
 IDIUse=1 WtCom= 1.00D+00 WtEn= 0.00D+00
 Coeff-Com:  0.100D+01
 Coeff:      0.100D+01
 Gap=     0.140 Goal=   None    Shift=    0.000
 RMSDP=4.24D-06 MaxDP=7.92D-05 DE= 1.05D-06 OVMax= 6.85D-05

 Cycle  10  Pass 1  IDiag  1:
 E= -155.879894962301     Delta-E=        0.000000008713 Rises=F Damp=F
 DIIS: error= 1.14D-05 at cycle   2 NSaved=   2.
 NSaved= 2 IEnMin= 1 EnMin= -155.879894971014     IErMin= 1 ErrMin= 2.45D-06
 ErrMax= 1.14D-05  0.00D+00 EMaxC= 1.00D-01 BMatC= 9.19D-09 BMatP= 8.70D-10
 IDIUse=1 WtCom= 1.00D+00 WtEn= 0.00D+00
 Coeff-Com:  0.789D+00 0.211D+00
 Coeff:      0.789D+00 0.211D+00
 Gap=     0.140 Goal=   None    Shift=    0.000
 RMSDP=1.15D-06 MaxDP=1.83D-05 DE= 8.71D-09 OVMax= 6.08D-05

 Cycle  11  Pass 1  IDiag  1:
 E= -155.879894972096     Delta-E=       -0.000000009796 Rises=F Damp=F
 DIIS: error= 1.30D-06 at cycle   3 NSaved=   3.
 NSaved= 3 IEnMin= 3 EnMin= -155.879894972096     IErMin= 3 ErrMin= 1.30D-06
 ErrMax= 1.30D-06  0.00D+00 EMaxC= 1.00D-01 BMatC= 1.19D-10 BMatP= 8.70D-10
 IDIUse=1 WtCom= 1.00D+00 WtEn= 0.00D+00
 Coeff-Com:  0.105D+00 0.105D+00 0.790D+00
 Coeff:      0.105D+00 0.105D+00 0.790D+00
 Gap=     0.140 Goal=   None    Shift=    0.000
 RMSDP=1.68D-07 MaxDP=2.03D-06 DE=-9.80D-09 OVMax= 6.22D-06

 Cycle  12  Pass 1  IDiag  1:
 E= -155.879894972207     Delta-E=       -0.000000000111 Rises=F Damp=F
 DIIS: error= 4.96D-07 at cycle   4 NSaved=   4.
 NSaved= 4 IEnMin= 4 EnMin= -155.879894972207     IErMin= 4 ErrMin= 4.96D-07
 ErrMax= 4.96D-07  0.00D+00 EMaxC= 1.00D-01 BMatC= 2.08D-11 BMatP= 1.19D-10
 IDIUse=1 WtCom= 1.00D+00 WtEn= 0.00D+00
 Coeff-Com: -0.132D-01 0.368D-01 0.437D+00 0.539D+00
 Coeff:     -0.132D-01 0.368D-01 0.437D+00 0.539D+00
 Gap=     0.140 Goal=   None    Shift=    0.000
 RMSDP=5.35D-08 MaxDP=1.02D-06 DE=-1.11D-10 OVMax= 1.24D-06

 Cycle  13  Pass 1  IDiag  1:
 E= -155.879894972229     Delta-E=       -0.000000000022 Rises=F Damp=F
 DIIS: error= 3.22D-08 at cycle   5 NSaved=   5.
 NSaved= 5 IEnMin= 5 EnMin= -155.879894972229     IErMin= 5 ErrMin= 3.22D-08
 ErrMax= 3.22D-08  0.00D+00 EMaxC= 1.00D-01 BMatC= 1.25D-13 BMatP= 2.08D-11
 IDIUse=1 WtCom= 1.00D+00 WtEn= 0.00D+00
 Coeff-Com: -0.781D-02 0.647D-02 0.926D-01 0.145D+00 0.764D+00
 Coeff:     -0.781D-02 0.647D-02 0.926D-01 0.145D+00 0.764D+00
 Gap=     0.140 Goal=   None    Shift=    0.000
 RMSDP=5.89D-09 MaxDP=7.24D-08 DE=-2.19D-11 OVMax= 1.32D-07

 SCF Done:  E(RB3LYP) =  -155.879894972     A.U. after   13 cycles
            NFock= 13  Conv=0.59D-08     -V/T= 2.0133
 KE= 1.538376962531D+02 PE=-5.598926847413D+02 EE= 1.501226018778D+02
 Leave Link  502 at Thu Mar  7 20:04:35 2024, MaxMem=  2147483648 cpu:              18.1 elap:               1.2
 (Enter /share/apps/gaussian/g16/l601.exe)
 Copying SCF densities to generalized density rwf, IOpCl= 0 IROHF=0.

 **********************************************************************

            Population analysis using the SCF density.

 **********************************************************************

 Orbital symmetries:
       Occupied  (A) (A) (A) (A) (A) (A) (A) (A) (A) (A) (A) (A)
                 (A) (A) (A)
       Virtual   (A) (A) (A) (A) (A) (A) (A) (A) (A) (A) (A) (A)
                 (A) (A) (A) (A) (A) (A) (A) (A) (A) (A) (A) (A)
                 (A) (A) (A) (A) (A) (A) (A) (A) (A) (A) (A) (A)
                 (A) (A) (A) (A) (A) (A) (A) (A) (A) (A) (A) (A)
                 (A) (A) (A) (A) (A) (A) (A) (A) (A)
 The electronic state is 1-A.
 Alpha  occ. eigenvalues --  -10.21259 -10.21005 -10.20714 -10.20409  -0.77788
 Alpha  occ. eigenvalues --   -0.73411  -0.62972  -0.47798  -0.44144  -0.42785
 Alpha  occ. eigenvalues --   -0.41638  -0.40815  -0.40118  -0.22506  -0.22356
 Alpha virt. eigenvalues --   -0.08347   0.02968   0.09353   0.13437   0.15575
 Alpha virt. eigenvalues --    0.16111   0.17810   0.20062   0.23809   0.27545
 Alpha virt. eigenvalues --    0.44200   0.47916   0.52375   0.53270   0.58365
 Alpha virt. eigenvalues --    0.58558   0.62133   0.63823   0.64749   0.70318
 Alpha virt. eigenvalues --    0.70745   0.71715   0.79334   0.84414   0.85251
 Alpha virt. eigenvalues --    0.85969   0.88245   0.91076   0.93119   0.98176
 Alpha virt. eigenvalues --    1.14725   1.27423   1.36410   1.40519   1.47192
 Alpha virt. eigenvalues --    1.54474   1.57966   1.67229   1.74234   1.88022
 Alpha virt. eigenvalues --    1.98686   2.04549   2.06498   2.08730   2.21279
 Alpha virt. eigenvalues --    2.25136   2.28719   2.32206   2.36719   2.48901
 Alpha virt. eigenvalues --    2.51054   2.78444   2.94215   4.01054   4.17860
 Alpha virt. eigenvalues --    4.27823   4.47472
          Condensed to atoms (all electrons):
               1          2          3          4          5          6
     1  C    5.015787  -0.000355  -0.044260   0.393764   0.373477   0.368293
     2  C   -0.000355   5.018977   0.399041  -0.046783   0.000291   0.000030
     3  C   -0.044260   0.399041   5.020010   0.785876  -0.016963   0.003498
     4  C    0.393764  -0.046783   0.785876   5.040351  -0.037064  -0.039232
     5  H    0.373477   0.000291  -0.016963  -0.037064   0.567333  -0.035695
     6  H    0.368293   0.000030   0.003498  -0.039232  -0.035695   0.567292
     7  H    0.370576   0.000105  -0.003296  -0.033880  -0.033499  -0.033183
     8  H    0.000781   0.375953  -0.040228  -0.017932   0.011826  -0.000263
     9  H    0.000024   0.366057  -0.035711   0.001418  -0.000064   0.000019
    10  H    0.000019   0.368354  -0.035666   0.000859  -0.000291  -0.000006
               7          8          9         10
     1  C    0.370576   0.000781   0.000024   0.000019
     2  C    0.000105   0.375953   0.366057   0.368354
     3  C   -0.003296  -0.040228  -0.035711  -0.035666
     4  C   -0.033880  -0.017932   0.001418   0.000859
     5  H   -0.033499   0.011826  -0.000064  -0.000291
     6  H   -0.033183  -0.000263   0.000019  -0.000006
     7  H    0.555975   0.000034  -0.000040   0.000129
     8  H    0.000034   0.565214  -0.035242  -0.034255
     9  H   -0.000040  -0.035242   0.563847  -0.033152
    10  H    0.000129  -0.034255  -0.033152   0.558484
 Mulliken charges:
               1
     1  C   -0.478106
     2  C   -0.481670
     3  C   -0.032302
     4  C   -0.047376
     5  H    0.170650
     6  H    0.169248
     7  H    0.177077
     8  H    0.174112
     9  H    0.172845
    10  H    0.175523
 Sum of Mulliken charges =  -0.00000
 Mulliken charges with hydrogens summed into heavy atoms:
               1
     1  C    0.038869
     2  C    0.040810
     3  C   -0.032302
     4  C   -0.047376
 Electronic spatial extent (au):  <R**2>=            338.6158
 Charge=             -0.0000 electrons
 Dipole moment (field-independent basis, Debye):
    X=             -0.1515    Y=              1.9569    Z=              0.0357  Tot=              1.9631
 Quadrupole moment (field-independent basis, Debye-Ang):
   XX=            -21.6849   YY=            -26.6216   ZZ=            -25.8621
   XY=              0.1246   XZ=              0.0374   YZ=              0.0489
 Traceless Quadrupole moment (field-independent basis, Debye-Ang):
   XX=              3.0380   YY=             -1.8988   ZZ=             -1.1392
   XY=              0.1246   XZ=              0.0374   YZ=              0.0489
 Octapole moment (field-independent basis, Debye-Ang**2):
  XXX=             -0.5624  YYY=              6.9189  ZZZ=              0.7000  XYY=             -0.1078
  XXY=              2.4350  XXZ=             -0.0831  XZZ=             -0.3817  YZZ=              2.2689
  YYZ=             -0.2396  XYZ=              0.3238
 Hexadecapole moment (field-independent basis, Debye-Ang**3):
 XXXX=           -322.4652 YYYY=            -93.8102 ZZZZ=            -39.9707 XXXY=             -0.7414
 XXXZ=             -1.2694 YYYX=              0.5112 YYYZ=             -0.4938 ZZZX=              1.0031
 ZZZY=              0.5538 XXYY=            -73.0577 XXZZ=            -57.8834 YYZZ=            -22.9807
 XXYZ=              1.1568 YYXZ=             -0.0108 ZZXY=              0.4405
 N-N= 1.000524916382D+02 E-N=-5.598926848268D+02  KE= 1.538376962531D+02
 No NMR shielding tensors so no spin-rotation constants.
 Leave Link  601 at Thu Mar  7 20:04:35 2024, MaxMem=  2147483648 cpu:               2.1 elap:               0.2
 (Enter /share/apps/gaussian/g16/l9999.exe)
 1\1\GINC-NODE94\SP\RB3LYP\6-31G(d)\C4H6\LIAOYT\07-Mar-2024\0\\#p b3lyp
 /6-31g(d) em=gd3\\tmpdir/Subs_0_0.gjf\\0,1\C,0,3.801952,-0.407883,-1.3
 51129\C,0,1.129452,-2.045973,-0.15946\C,0,1.632328,-0.660136,0.071213\
 C,0,2.728072,0.035605,-0.408187\H,0,3.944794,-1.493162,-1.314715\H,0,4
 .750176,0.072815,-1.092785\H,0,3.566886,-0.137527,-2.38846\H,0,1.81417
 1,-2.590127,-0.815178\H,0,1.044407,-2.608964,0.778933\H,0,0.138339,-2.
 039101,-0.62881\\Version=ES64L-G16RevA.03\State=1-A\HF=-155.879895\RMS
 D=5.889e-09\Dipole=0.1486141,-0.6463043,-0.3958872\Quadrupole=1.084395
 ,-0.547792,-0.536603,1.3073616,-0.8510683,-0.7752808\PG=C01 [X(C4H6)]\
 \@


 NOTHING WILL BE ATTEMPTED IF ALL POSSIBLE OBJECTIONS
 MUST FIRST BE OVERCOME.

                               -- THE GOLDEN PRINCIPLE,
                    PAUL DICKSON'S "THE OFFICIAL RULES"
 Job cpu time:       0 days  0 hours  0 minutes 32.1 seconds.
 Elapsed time:       0 days  0 hours  0 minutes  2.3 seconds.
 File lengths (MBytes):  RWF=      6 Int=      0 D2E=      0 Chk=      2 Scr=      1
 Normal termination of Gaussian 16 at Thu Mar  7 20:04:35 2024.
Thu Mar  7 20:04:35 CST 2024
