This job is running on host node107
Current directory: /share/home/Liaoyt/system-test/bnts-ome/8ring-fsv
Thu Jun 27 10:18:10 CST 2024
/tmp/93151.mgr
 Entering Gaussian System, Link 0=g16
 Initial command:
 /share/apps/gaussian/g16/l1.exe "/tmp/93151.mgr/Gau-280252.inp" -scrdir="/tmp/93151.mgr/"
 Entering Link 1 = /share/apps/gaussian/g16/l1.exe PID=    280253.
  
 Copyright (c) 1988,1990,1992,1993,1995,1998,2003,2009,2016,
            Gaussian, Inc.  All Rights Reserved.
  
 This is part of the Gaussian(R) 16 program.  It is based on
 the Gaussian(R) 09 system (copyright 2009, Gaussian, Inc.),
 the Gaussian(R) 03 system (copyright 2003, Gaussian, Inc.),
 the Gaussian(R) 98 system (copyright 1998, Gaussian, Inc.),
 the Gaussian(R) 94 system (copyright 1995, Gaussian, Inc.),
 the Gaussian 92(TM) system (copyright 1992, Gaussian, Inc.),
 the Gaussian 90(TM) system (copyright 1990, Gaussian, Inc.),
 the Gaussian 88(TM) system (copyright 1988, Gaussian, Inc.),
 the Gaussian 86(TM) system (copyright 1986, Carnegie Mellon
 University), and the Gaussian 82(TM) system (copyright 1983,
 Carnegie Mellon University). Gaussian is a federally registered
 trademark of Gaussian, Inc.
  
 This software contains proprietary and confidential information,
 including trade secrets, belonging to Gaussian, Inc.
  
 This software is provided under written license and may be
 used, copied, transmitted, or stored only in accord with that
 written license.
  
 The following legend is applicable only to US Government
 contracts under FAR:
  
                    RESTRICTED RIGHTS LEGEND
  
 Use, reproduction and disclosure by the US Government is
 subject to restrictions as set forth in subparagraphs (a)
 and (c) of the Commercial Computer Software - Restricted
 Rights clause in FAR 52.227-19.
  
 Gaussian, Inc.
 340 Quinnipiac St., Bldg. 40, Wallingford CT 06492
  
  
 ---------------------------------------------------------------
 Warning -- This program may not be used in any manner that
 competes with the business of Gaussian, Inc. or will provide
 assistance to any competitor of Gaussian, Inc.  The licensee
 of this program is prohibited from giving any competitor of
 Gaussian, Inc. access to this program.  By using this program,
 the user acknowledges that Gaussian, Inc. is engaged in the
 business of creating and licensing software in the field of
 computational chemistry and represents and warrants to the
 licensee that it is not a competitor of Gaussian, Inc. and that
 it will not use this program in any manner prohibited above.
 ---------------------------------------------------------------
  

 Cite this work as:
 Gaussian 16, Revision A.03,
 M. J. Frisch, G. W. Trucks, H. B. Schlegel, G. E. Scuseria, 
 M. A. Robb, J. R. Cheeseman, G. Scalmani, V. Barone, 
 G. A. Petersson, H. Nakatsuji, X. Li, M. Caricato, A. V. Marenich, 
 J. Bloino, B. G. Janesko, R. Gomperts, B. Mennucci, H. P. Hratchian, 
 J. V. Ortiz, A. F. Izmaylov, J. L. Sonnenberg, D. Williams-Young, 
 F. Ding, F. Lipparini, F. Egidi, J. Goings, B. Peng, A. Petrone, 
 T. Henderson, D. Ranasinghe, V. G. Zakrzewski, J. Gao, N. Rega, 
 G. Zheng, W. Liang, M. Hada, M. Ehara, K. Toyota, R. Fukuda, 
 J. Hasegawa, M. Ishida, T. Nakajima, Y. Honda, O. Kitao, H. Nakai, 
 T. Vreven, K. Throssell, J. A. Montgomery, Jr., J. E. Peralta, 
 F. Ogliaro, M. J. Bearpark, J. J. Heyd, E. N. Brothers, K. N. Kudin, 
 V. N. Staroverov, T. A. Keith, R. Kobayashi, J. Normand, 
 K. Raghavachari, A. P. Rendell, J. C. Burant, S. S. Iyengar, 
 J. Tomasi, M. Cossi, J. M. Millam, M. Klene, C. Adamo, R. Cammi, 
 J. W. Ochterski, R. L. Martin, K. Morokuma, O. Farkas, 
 J. B. Foresman, and D. J. Fox, Gaussian, Inc., Wallingford CT, 2016.
 
 ******************************************
 Gaussian 16:  ES64L-G16RevA.03 25-Dec-2016
                27-Jun-2024 
 ******************************************
 %chk=react.chk
 %nprocshared=16
 Will use up to   16 processors via shared memory.
 %mem=16GB
 ------------------------------------------
 #p b3lyp/6-31g(d) geom=connectivity em=gd3
 ------------------------------------------
 1/38=1,57=2,172=1/1;
 2/12=2,17=6,18=5,40=1/2;
 3/5=1,6=6,7=1,11=2,25=1,30=1,74=-5,124=31/1,2,3;
 4//1;
 5/5=2,38=5/2;
 6/7=2,8=2,9=2,10=2,28=1/1;
 99/5=1,9=1/99;
 Leave Link    1 at Thu Jun 27 10:18:10 2024, MaxMem=  2147483648 cpu:               0.9 elap:               0.1
 (Enter /share/apps/gaussian/g16/l101.exe)
 -----
 title
 -----
 Symbolic Z-matrix:
 Charge =  0 Multiplicity = 1
 N                     2.234    -0.78778  -20.10684 
 N                     2.38765   0.38371  -20.46804 
 N                     2.61107   1.42614  -20.87894 
 C                     1.17705  -0.98959  -19.06889 
 H                     1.16534  -2.06934  -18.90795 
 H                     1.49309  -0.51322  -18.13131 
 C                    -0.18047  -0.4829   -19.49636 
 C                    -0.98563  -1.24791  -20.35031 
 C                    -0.62371   0.78269  -19.0958 
 C                    -2.21518  -0.75944  -20.78872 
 H                    -0.64118  -2.22737  -20.67365 
 C                    -1.8546    1.27493  -19.53441 
 H                    -0.00424   1.38446  -18.43446 
 C                    -2.65219   0.50414  -20.38094 
 H                    -2.83371  -1.36325  -21.44724 
 H                    -2.18884   2.25797  -19.21419 
 H                    -3.61118   0.88465  -20.7219 
 C                    -0.99264  -1.4966    0.05981 
 C                     0.16758  -1.1646    0.15372 
 C                     1.33628  -0.17682   0.32706 
 H                     1.20191   0.37959   1.23108 
 H                     2.2574   -0.71912   0.3756 
 H                     1.36156   0.49536  -0.50506 
 C                    -2.51393  -1.36453  -0.13975 
 H                    -2.95568  -2.33864  -0.16926 
 H                    -2.93306  -0.80726   0.67185 
 H                    -2.71005  -0.85592  -1.06048 
 
 ITRead=  0  0  0  0  0  0  0  0  0  0  0  0  0  0  0  0  0  0  0  0
 ITRead=  0  0  0  0  0  0  0
 MicOpt= -1 -1 -1 -1 -1 -1 -1 -1 -1 -1 -1 -1 -1 -1 -1 -1 -1 -1 -1 -1
 MicOpt= -1 -1 -1 -1 -1 -1 -1
 NAtoms=     27 NQM=       27 NQMF=       0 NMMI=      0 NMMIF=      0
                NMic=       0 NMicF=      0.
                    Isotopes and Nuclear Properties:
 (Nuclear quadrupole moments (NQMom) in fm**2, nuclear magnetic moments (NMagM)
  in nuclear magnetons)

  Atom         1           2           3           4           5           6           7           8           9          10
 IAtWgt=          14          14          14          12           1           1          12          12          12          12
 AtmWgt=  14.0030740  14.0030740  14.0030740  12.0000000   1.0078250   1.0078250  12.0000000  12.0000000  12.0000000  12.0000000
 NucSpn=           2           2           2           0           1           1           0           0           0           0
 AtZEff=  -0.0000000  -0.0000000  -0.0000000  -0.0000000  -0.0000000  -0.0000000  -0.0000000  -0.0000000  -0.0000000  -0.0000000
 NQMom=    2.0440000   2.0440000   2.0440000   0.0000000   0.0000000   0.0000000   0.0000000   0.0000000   0.0000000   0.0000000
 NMagM=    0.4037610   0.4037610   0.4037610   0.0000000   2.7928460   2.7928460   0.0000000   0.0000000   0.0000000   0.0000000
 AtZNuc=   7.0000000   7.0000000   7.0000000   6.0000000   1.0000000   1.0000000   6.0000000   6.0000000   6.0000000   6.0000000

  Atom        11          12          13          14          15          16          17          18          19          20
 IAtWgt=           1          12           1          12           1           1           1          12          12          12
 AtmWgt=   1.0078250  12.0000000   1.0078250  12.0000000   1.0078250   1.0078250   1.0078250  12.0000000  12.0000000  12.0000000
 NucSpn=           1           0           1           0           1           1           1           0           0           0
 AtZEff=  -0.0000000  -0.0000000  -0.0000000  -0.0000000  -0.0000000  -0.0000000  -0.0000000  -0.0000000  -0.0000000  -0.0000000
 NQMom=    0.0000000   0.0000000   0.0000000   0.0000000   0.0000000   0.0000000   0.0000000   0.0000000   0.0000000   0.0000000
 NMagM=    2.7928460   0.0000000   2.7928460   0.0000000   2.7928460   2.7928460   2.7928460   0.0000000   0.0000000   0.0000000
 AtZNuc=   1.0000000   6.0000000   1.0000000   6.0000000   1.0000000   1.0000000   1.0000000   6.0000000   6.0000000   6.0000000

  Atom        21          22          23          24          25          26          27
 IAtWgt=           1           1           1          12           1           1           1
 AtmWgt=   1.0078250   1.0078250   1.0078250  12.0000000   1.0078250   1.0078250   1.0078250
 NucSpn=           1           1           1           0           1           1           1
 AtZEff=  -0.0000000  -0.0000000  -0.0000000  -0.0000000  -0.0000000  -0.0000000  -0.0000000
 NQMom=    0.0000000   0.0000000   0.0000000   0.0000000   0.0000000   0.0000000   0.0000000
 NMagM=    2.7928460   2.7928460   2.7928460   0.0000000   2.7928460   2.7928460   2.7928460
 AtZNuc=   1.0000000   1.0000000   1.0000000   6.0000000   1.0000000   1.0000000   1.0000000
 Leave Link  101 at Thu Jun 27 10:18:10 2024, MaxMem=  2147483648 cpu:               2.5 elap:               0.2
 (Enter /share/apps/gaussian/g16/l202.exe)
                          Input orientation:                          
 ---------------------------------------------------------------------
 Center     Atomic      Atomic             Coordinates (Angstroms)
 Number     Number       Type             X           Y           Z
 ---------------------------------------------------------------------
      1          7           0        2.234002   -0.787780  -20.106845
      2          7           0        2.387654    0.383710  -20.468037
      3          7           0        2.611074    1.426139  -20.878938
      4          6           0        1.177048   -0.989589  -19.068892
      5          1           0        1.165338   -2.069343  -18.907949
      6          1           0        1.493087   -0.513219  -18.131309
      7          6           0       -0.180468   -0.482897  -19.496360
      8          6           0       -0.985628   -1.247907  -20.350309
      9          6           0       -0.623713    0.782693  -19.095800
     10          6           0       -2.215181   -0.759438  -20.788717
     11          1           0       -0.641184   -2.227372  -20.673653
     12          6           0       -1.854600    1.274933  -19.534406
     13          1           0       -0.004236    1.384459  -18.434457
     14          6           0       -2.652188    0.504141  -20.380941
     15          1           0       -2.833711   -1.363254  -21.447241
     16          1           0       -2.188841    2.257968  -19.214193
     17          1           0       -3.611182    0.884653  -20.721904
     18          6           0       -0.992636   -1.496604    0.059811
     19          6           0        0.167584   -1.164596    0.153723
     20          6           0        1.336284   -0.176823    0.327061
     21          1           0        1.201907    0.379593    1.231076
     22          1           0        2.257404   -0.719115    0.375604
     23          1           0        1.361559    0.495362   -0.505062
     24          6           0       -2.513929   -1.364528   -0.139748
     25          1           0       -2.955680   -2.338635   -0.169261
     26          1           0       -2.933063   -0.807265    0.671846
     27          1           0       -2.710046   -0.855917   -1.060482
 ---------------------------------------------------------------------
                    Distance matrix (angstroms):
                    1          2          3          4          5
     1  N    0.000000
     2  N    1.235499   0.000000
     3  N    2.374815   1.142547   0.000000
     4  C    1.495067   2.304154   3.341921   0.000000
     5  H    2.054701   3.153633   4.265366   1.091746   0.000000
     6  H    2.127694   2.658012   3.544075   1.098122   1.769777
     7  C    2.509046   2.879308   3.653580   1.510733   2.161997
     8  C    3.261443   3.749009   4.512897   2.527039   2.716949
     9  C    3.413961   3.333250   3.749327   2.526746   3.371958
    10  C    4.501220   4.753495   5.298832   3.810247   4.084244
    11  H    3.265025   4.004234   4.895658   2.722744   2.531048
    12  C    4.615099   4.434260   4.666141   3.812565   4.549358
    13  H    3.539098   3.295161   3.580094   2.726544   3.677070
    14  C    5.061526   5.042033   5.366564   4.314597   4.833842
    15  H    5.273476   5.592260   6.144051   4.677858   4.789463
    16  H    5.443799   5.101889   5.148058   4.679417   5.483605
    17  H    6.110770   6.025066   6.247747   5.401146   5.901836
    18  C   20.435451  20.889100  21.446687  19.258034  19.098712
    19  C   20.369160  20.798628  21.332027  19.249898  19.109197
    20  C   20.462739  20.829202  21.304670  19.413627  19.328643
    21  H   21.394739  21.731487  22.179579  20.346105  20.287409
    22  H   20.482578  20.873202  21.365458  19.476364  19.361590
    23  H   19.663100  19.989640  20.433366  18.624041  18.581778
    24  C   20.531938  20.983832  21.544547  19.289282  19.138421
    25  H   20.660233  21.166074  21.772758  19.393180  19.188375
    26  H   21.411514  21.831700  22.364299  20.164895  20.043905
    27  H   19.677708  20.104139  20.646871  18.423631  18.303635
                    6          7          8          9         10
     6  H    0.000000
     7  C    2.159877   0.000000
     8  C    3.407016   1.400982   0.000000
     9  C    2.662794   1.399512   2.414148   0.000000
    10  C    4.568774   2.426256   1.393773   2.788711   0.000000
    11  H    3.735900   2.154407   1.087449   3.398590   2.155351
    12  C    4.046378   2.427783   2.790257   1.396337   2.417019
    13  H    2.436197   2.155392   3.400437   1.087772   3.876482
    14  C    4.824849   2.804662   2.418271   2.417414   1.397816
    15  H    5.517168   3.408909   2.152202   3.875365   1.086659
    16  H    4.733784   3.409622   3.876808   2.154084   3.403610
    17  H    5.892265   3.891266   3.402856   3.402878   2.157850
    18  C   18.386482  19.599261  20.411636  19.294267  20.897348
    19  C   18.344581  19.664984  20.536606  19.363941  21.081450
    20  C   18.462101  19.883718  20.834878  19.545071  21.420281
    21  H   19.385145  20.791379  21.752936  20.412674  22.312444
    22  H   18.523834  20.022337  20.984765  19.740614  21.631786
    23  H   17.655569  19.078895  20.059464  18.698647  20.634783
    24  C   18.452024  19.516679  20.268599  19.170691  20.659993
    25  H   18.594592  19.613320  20.306292  19.323422  20.693095
    26  H   19.319315  20.357764  21.116763  19.965493  21.472620
    27  H   17.583995  18.612348  19.370717  18.229386  19.734676
                   11         12         13         14         15
    11  H    0.000000
    12  C    3.877680   0.000000
    13  H    4.297095   2.155396   0.000000
    14  C    3.404553   1.395309   3.402265   0.000000
    15  H    2.480386   3.402591   4.963136   2.158034   0.000000
    16  H    4.964226   1.086559   2.478610   2.156826   4.302977
    17  H    4.302083   2.155934   4.300265   1.086607   2.486697
    18  C   20.749315  19.808022  18.743410  20.605374  21.586121
    19  C   20.870151  19.941488  18.762933  20.794428  21.809376
    20  C   21.193044  20.168471  18.874034  21.099596  22.201727
    21  H   22.136179  21.008311  19.728095  21.953333  23.100428
    22  H   21.301359  20.427759  19.061964  21.364331  22.418094
    23  H   20.449849  19.314951  18.003308  20.277101  21.438974
    24  C   20.637174  19.584541  18.669544  20.327738  21.309893
    25  H   20.634907  19.730157  18.872993  20.412876  21.300673
    26  H   21.515105  20.341860  19.453342  21.095462  22.126297
    27  H   19.769611  18.616073  17.725566  19.368356  20.393445
                   16         17         18         19         20
    16  H    0.000000
    17  H    2.486411   0.000000
    18  C   19.672695  21.080959   0.000000
    19  C   19.808656  21.313618   1.210438   0.000000
    20  C   20.005382  21.648628   2.690188   1.540000   0.000000
    21  H   20.809481  22.480085   3.115766   2.148263   1.070000
    22  H   20.307444  21.957168   3.356632   2.148263   1.070000
    23  H   19.124427  20.823074   3.135163   2.148263   1.070000
    24  C   19.418101  20.733739   1.540000   2.704923   4.056192
    25  H   19.606791  20.814188   2.148263   3.352233   4.831224
    26  H   20.134649  21.471259   2.148263   3.163882   4.329394
    27  H   18.426208  19.758875   2.148263   3.138524   4.331193
                   21         22         23         24         25
    21  H    0.000000
    22  H    1.747303   0.000000
    23  H    1.747303   1.747303   0.000000
    24  C    4.327649   4.842289   4.314169   0.000000
    25  H    5.160934   5.485979   5.175216   1.070000   0.000000
    26  H    4.338127   5.199661   4.639583   1.070000   1.747303
    27  H    4.699053   5.172680   4.325785   1.070000   1.747303
                   26         27
    26  H    0.000000
    27  H    1.747303   0.000000
 Stoichiometry    C11H13N3
 Framework group  C1[X(C11H13N3)]
 Deg. of freedom    75
 Full point group                 C1      NOp   1
 Largest Abelian subgroup         C1      NOp   1
 Largest concise Abelian subgroup C1      NOp   1
                         Standard orientation:                         
 ---------------------------------------------------------------------
 Center     Atomic      Atomic             Coordinates (Angstroms)
 Number     Number       Type             X           Y           Z
 ---------------------------------------------------------------------
      1          7           0       -6.165709    2.151434   -0.989198
      2          7           0       -6.586766    2.397034    0.146076
      3          7           0       -7.053068    2.699180    1.144418
      4          6           0       -5.091974    1.112740   -1.047786
      5          1           0       -4.878991    1.010498   -2.113663
      6          1           0       -4.186989    1.497944   -0.559430
      7          6           0       -5.507708   -0.206998   -0.441344
      8          6           0       -6.302505   -1.102165   -1.169166
      9          6           0       -5.157084   -0.524262    0.875865
     10          6           0       -6.731630   -2.296443   -0.592837
     11          1           0       -6.587219   -0.855631   -2.189315
     12          6           0       -5.586554   -1.719541    1.456056
     13          1           0       -4.541892    0.165762    1.449149
     14          6           0       -6.373868   -2.607456    0.722141
     15          1           0       -7.343933   -2.985620   -1.168117
     16          1           0       -5.305405   -1.955696    2.478699
     17          1           0       -6.707569   -3.538949    1.171227
     18          6           0       14.089128   -0.512201   -0.484975
     19          6           0       14.136592    0.675141   -0.254487
     20          6           0       14.231575    1.931313    0.631297
     21          1           0       15.110962    1.874132    1.238182
     22          1           0       14.282074    2.801927    0.011313
     23          1           0       13.367685    1.990673    1.259842
     24          6           0       13.923275   -2.021209   -0.226152
     25          1           0       13.952242   -2.548044   -1.157015
     26          1           0       14.717781   -2.364628    0.402913
     27          1           0       12.984566   -2.199420    0.255476
 ---------------------------------------------------------------------
 Rotational constants (GHZ):           0.6575027           0.0319498           0.0310065
 Leave Link  202 at Thu Jun 27 10:18:10 2024, MaxMem=  2147483648 cpu:               0.2 elap:               0.0
 (Enter /share/apps/gaussian/g16/l301.exe)
 Standard basis: 6-31G(d) (6D, 7F)
 Ernie: Thresh=  0.10000D-02 Tol=  0.10000D-05 Strict=F.
 There are   236 symmetry adapted cartesian basis functions of A   symmetry.
 There are   236 symmetry adapted basis functions of A   symmetry.
   236 basis functions,   444 primitive gaussians,   236 cartesian basis functions
    50 alpha electrons       50 beta electrons
       nuclear repulsion energy       619.2484308534 Hartrees.
 IExCor=  402 DFT=T Ex+Corr=B3LYP ExCW=0 ScaHFX=  0.200000
 ScaDFX=  0.800000  0.720000  1.000000  0.810000 ScalE2=  1.000000  1.000000
 IRadAn=      5 IRanWt=     -1 IRanGd=            0 ICorTp=0 IEmpDi=131
 NAtoms=   27 NActive=   27 NUniq=   27 SFac= 1.00D+00 NAtFMM=   60 NAOKFM=F Big=F
 Integral buffers will be    131072 words long.
 Raffenetti 2 integral format.
 Two-electron integral symmetry is turned on.
 R6Disp:  Grimme-D3 Dispersion energy=       -0.0143850598 Hartrees.
 Nuclear repulsion after empirical dispersion term =      619.2340457935 Hartrees.
 Leave Link  301 at Thu Jun 27 10:18:10 2024, MaxMem=  2147483648 cpu:               1.3 elap:               0.1
 (Enter /share/apps/gaussian/g16/l302.exe)
 NPDir=0 NMtPBC=     1 NCelOv=     1 NCel=       1 NClECP=     1 NCelD=      1
         NCelK=      1 NCelE2=     1 NClLst=     1 CellRange=     0.0.
 One-electron integrals computed using PRISM.
 One-electron integral symmetry used in STVInt
 NBasis=   236 RedAO= T EigKep=  4.74D-04  NBF=   236
 NBsUse=   236 1.00D-06 EigRej= -1.00D+00 NBFU=   236
 Precomputing XC quadrature grid using
 IXCGrd= 4 IRadAn=           5 IRanWt=          -1 IRanGd=           0 AccXCQ= 0.00D+00.
 Generated NRdTot=       0 NPtTot=           0 NUsed=           0 NTot=          32
 NSgBfM=   164   164   164   164   164 MxSgAt=    27 MxSgA2=    17.
 Leave Link  302 at Thu Jun 27 10:18:11 2024, MaxMem=  2147483648 cpu:               3.8 elap:               0.3
 (Enter /share/apps/gaussian/g16/l303.exe)
 DipDrv:  MaxL=1.
 Leave Link  303 at Thu Jun 27 10:18:11 2024, MaxMem=  2147483648 cpu:               0.6 elap:               0.1
 (Enter /share/apps/gaussian/g16/l401.exe)
 ExpMin= 1.61D-01 ExpMax= 4.17D+03 ExpMxC= 6.27D+02 IAcc=3 IRadAn=         5 AccDes= 0.00D+00
 Harris functional with IExCor=  402 and IRadAn=       5 diagonalized for initial guess.
 HarFok:  IExCor=  402 AccDes= 0.00D+00 IRadAn=         5 IDoV= 1 UseB2=F ITyADJ=14
 ICtDFT=  3500011 ScaDFX=  1.000000  1.000000  1.000000  1.000000
 FoFCou: FMM=F IPFlag=           0 FMFlag=      100000 FMFlg1=           0
         NFxFlg=           0 DoJE=T BraDBF=F KetDBF=T FulRan=T
         wScrn=  0.000000 ICntrl=       500 IOpCl=  0 I1Cent=   200000004 NGrid=           0
         NMat0=    1 NMatS0=      1 NMatT0=    0 NMatD0=    1 NMtDS0=    0 NMtDT0=    0
 Petite list used in FoFCou.
 Harris En= -591.174576558386    
 JPrj=0 DoOrth=F DoCkMO=F.
 Leave Link  401 at Thu Jun 27 10:18:12 2024, MaxMem=  2147483648 cpu:              11.4 elap:               0.7
 (Enter /share/apps/gaussian/g16/l502.exe)
 Integral symmetry usage will be decided dynamically.
 Closed shell SCF:
 Using DIIS extrapolation, IDIIS=  1040.
 NGot=  2147483648 LenX=  2147365737 LenY=  2147309600
 Requested convergence on RMS density matrix=1.00D-08 within 128 cycles.
 Requested convergence on MAX density matrix=1.00D-06.
 Requested convergence on             energy=1.00D-06.
 No special actions if energy rises.
 Fock matrices will be formed incrementally for  20 cycles.
 Integral accuracy reduced to 1.0D-05 until final iterations.

 Cycle   1  Pass 0  IDiag  1:
 FoFJK:  IHMeth= 1 ICntrl=       0 DoSepK=F KAlg= 0 I1Cent=           0 FoldK=F
 IRaf= 530000000 NMat=       1 IRICut=       1 DoRegI=T DoRafI=F ISym2E= 0 IDoP0=0 IntGTp=1.
 FoFCou: FMM=F IPFlag=           0 FMFlag=      100000 FMFlg1=           0
         NFxFlg=           0 DoJE=F BraDBF=F KetDBF=F FulRan=T
         wScrn=  0.000000 ICntrl=         0 IOpCl=  0 I1Cent=           0 NGrid=           0
         NMat0=    1 NMatS0=      1 NMatT0=    0 NMatD0=    1 NMtDS0=    0 NMtDT0=    0
 Symmetry not used in FoFCou.
 E= -590.760156002720    
 DIIS: error= 4.75D-02 at cycle   1 NSaved=   1.
 NSaved= 1 IEnMin= 1 EnMin= -590.760156002720     IErMin= 1 ErrMin= 4.75D-02
 ErrMax= 4.75D-02  0.00D+00 EMaxC= 1.00D-01 BMatC= 3.32D-01 BMatP= 3.32D-01
 IDIUse=3 WtCom= 5.25D-01 WtEn= 4.75D-01
 Coeff-Com:  0.100D+01
 Coeff-En:   0.100D+01
 Coeff:      0.100D+01
 Gap=     0.326 Goal=   None    Shift=    0.000
 GapD=    0.326 DampG=1.000 DampE=0.500 DampFc=0.5000 IDamp=-1.
 Damping current iteration by 5.00D-01
 RMSDP=5.28D-03 MaxDP=1.22D-01              OVMax= 1.67D-01

 Cycle   2  Pass 0  IDiag  1:
 RMSU=  2.59D-03    CP:  9.76D-01
 E= -590.919116123100     Delta-E=       -0.158960120380 Rises=F Damp=T
 DIIS: error= 7.47D-03 at cycle   2 NSaved=   2.
 NSaved= 2 IEnMin= 2 EnMin= -590.919116123100     IErMin= 2 ErrMin= 7.47D-03
 ErrMax= 7.47D-03  0.00D+00 EMaxC= 1.00D-01 BMatC= 2.54D-02 BMatP= 3.32D-01
 IDIUse=3 WtCom= 9.25D-01 WtEn= 7.47D-02
 Coeff-Com:  0.664D-01 0.934D+00
 Coeff-En:   0.798D-01 0.920D+00
 Coeff:      0.674D-01 0.933D+00
 Gap=     0.216 Goal=   None    Shift=    0.000
 RMSDP=1.25D-03 MaxDP=6.07D-02 DE=-1.59D-01 OVMax= 1.19D-01

 Cycle   3  Pass 0  IDiag  1:
 RMSU=  1.23D-03    CP:  9.66D-01  9.65D-01
 E= -591.094849745142     Delta-E=       -0.175733622041 Rises=F Damp=F
 DIIS: error= 1.21D-02 at cycle   3 NSaved=   3.
 NSaved= 3 IEnMin= 3 EnMin= -591.094849745142     IErMin= 2 ErrMin= 7.47D-03
 ErrMax= 1.21D-02  0.00D+00 EMaxC= 1.00D-01 BMatC= 2.44D-02 BMatP= 2.54D-02
 IDIUse=3 WtCom= 8.79D-01 WtEn= 1.21D-01
 Coeff-Com: -0.203D-01 0.500D+00 0.520D+00
 Coeff-En:   0.000D+00 0.000D+00 0.100D+01
 Coeff:     -0.179D-01 0.440D+00 0.578D+00
 Gap=     0.216 Goal=   None    Shift=    0.000
 RMSDP=6.42D-04 MaxDP=4.63D-02 DE=-1.76D-01 OVMax= 5.39D-02

 Cycle   4  Pass 0  IDiag  1:
 RMSU=  5.46D-04    CP:  9.69D-01  9.84D-01  7.33D-01
 E= -591.108341708922     Delta-E=       -0.013491963780 Rises=F Damp=F
 DIIS: error= 6.54D-03 at cycle   4 NSaved=   4.
 NSaved= 4 IEnMin= 4 EnMin= -591.108341708922     IErMin= 4 ErrMin= 6.54D-03
 ErrMax= 6.54D-03  0.00D+00 EMaxC= 1.00D-01 BMatC= 7.03D-03 BMatP= 2.44D-02
 IDIUse=3 WtCom= 9.35D-01 WtEn= 6.54D-02
 Coeff-Com: -0.976D-02 0.107D+00 0.362D+00 0.541D+00
 Coeff-En:   0.000D+00 0.000D+00 0.256D+00 0.744D+00
 Coeff:     -0.912D-02 0.100D+00 0.355D+00 0.554D+00
 Gap=     0.216 Goal=   None    Shift=    0.000
 RMSDP=3.06D-04 MaxDP=1.64D-02 DE=-1.35D-02 OVMax= 2.00D-02

 Cycle   5  Pass 0  IDiag  1:
 RMSU=  1.80D-04    CP:  9.68D-01  9.97D-01  7.66D-01  5.60D-01
 E= -591.113005838942     Delta-E=       -0.004664130020 Rises=F Damp=F
 DIIS: error= 2.73D-03 at cycle   5 NSaved=   5.
 NSaved= 5 IEnMin= 5 EnMin= -591.113005838942     IErMin= 5 ErrMin= 2.73D-03
 ErrMax= 2.73D-03  0.00D+00 EMaxC= 1.00D-01 BMatC= 9.45D-04 BMatP= 7.03D-03
 IDIUse=3 WtCom= 9.73D-01 WtEn= 2.73D-02
 Coeff-Com: -0.573D-02 0.452D-01 0.217D+00 0.384D+00 0.360D+00
 Coeff-En:   0.000D+00 0.000D+00 0.000D+00 0.777D-01 0.922D+00
 Coeff:     -0.557D-02 0.439D-01 0.211D+00 0.375D+00 0.376D+00
 Gap=     0.213 Goal=   None    Shift=    0.000
 RMSDP=1.49D-04 MaxDP=8.34D-03 DE=-4.66D-03 OVMax= 1.39D-02

 Cycle   6  Pass 0  IDiag  1:
 RMSU=  9.32D-05    CP:  9.68D-01  9.93D-01  7.82D-01  5.81D-01  3.72D-01
 E= -591.113602455152     Delta-E=       -0.000596616210 Rises=F Damp=F
 DIIS: error= 1.53D-03 at cycle   6 NSaved=   6.
 NSaved= 6 IEnMin= 6 EnMin= -591.113602455152     IErMin= 6 ErrMin= 1.53D-03
 ErrMax= 1.53D-03  0.00D+00 EMaxC= 1.00D-01 BMatC= 2.87D-04 BMatP= 9.45D-04
 IDIUse=3 WtCom= 9.85D-01 WtEn= 1.53D-02
 Coeff-Com: -0.162D-02 0.557D-02 0.779D-01 0.168D+00 0.331D+00 0.419D+00
 Coeff-En:   0.000D+00 0.000D+00 0.000D+00 0.000D+00 0.295D+00 0.705D+00
 Coeff:     -0.159D-02 0.548D-02 0.767D-01 0.166D+00 0.330D+00 0.424D+00
 Gap=     0.213 Goal=   None    Shift=    0.000
 RMSDP=6.12D-05 MaxDP=2.87D-03 DE=-5.97D-04 OVMax= 5.45D-03

 Cycle   7  Pass 0  IDiag  1:
 RMSU=  2.24D-05    CP:  9.68D-01  9.92D-01  7.86D-01  5.96D-01  5.19D-01
                    CP:  4.70D-01
 E= -591.113858044862     Delta-E=       -0.000255589710 Rises=F Damp=F
 DIIS: error= 1.23D-04 at cycle   7 NSaved=   7.
 NSaved= 7 IEnMin= 7 EnMin= -591.113858044862     IErMin= 7 ErrMin= 1.23D-04
 ErrMax= 1.23D-04  0.00D+00 EMaxC= 1.00D-01 BMatC= 3.54D-06 BMatP= 2.87D-04
 IDIUse=3 WtCom= 9.99D-01 WtEn= 1.23D-03
 Coeff-Com: -0.456D-03 0.263D-03 0.258D-01 0.611D-01 0.143D+00 0.213D+00
 Coeff-Com:  0.558D+00
 Coeff-En:   0.000D+00 0.000D+00 0.000D+00 0.000D+00 0.000D+00 0.000D+00
 Coeff-En:   0.100D+01
 Coeff:     -0.455D-03 0.263D-03 0.257D-01 0.611D-01 0.143D+00 0.212D+00
 Coeff:      0.558D+00
 Gap=     0.213 Goal=   None    Shift=    0.000
 RMSDP=1.09D-05 MaxDP=3.32D-04 DE=-2.56D-04 OVMax= 8.35D-04

 Cycle   8  Pass 0  IDiag  1:
 RMSU=  6.01D-06    CP:  9.68D-01  9.92D-01  7.86D-01  5.96D-01  5.25D-01
                    CP:  4.90D-01  6.10D-01
 E= -591.113861370513     Delta-E=       -0.000003325650 Rises=F Damp=F
 DIIS: error= 5.25D-05 at cycle   8 NSaved=   8.
 NSaved= 8 IEnMin= 8 EnMin= -591.113861370513     IErMin= 8 ErrMin= 5.25D-05
 ErrMax= 5.25D-05  0.00D+00 EMaxC= 1.00D-01 BMatC= 5.14D-07 BMatP= 3.54D-06
 IDIUse=1 WtCom= 1.00D+00 WtEn= 0.00D+00
 Coeff-Com: -0.162D-03-0.257D-03 0.105D-01 0.263D-01 0.648D-01 0.103D+00
 Coeff-Com:  0.344D+00 0.452D+00
 Coeff:     -0.162D-03-0.257D-03 0.105D-01 0.263D-01 0.648D-01 0.103D+00
 Coeff:      0.344D+00 0.452D+00
 Gap=     0.213 Goal=   None    Shift=    0.000
 RMSDP=3.79D-06 MaxDP=1.14D-04 DE=-3.33D-06 OVMax= 3.20D-04

 Initial convergence to 1.0D-05 achieved.  Increase integral accuracy.
 Cycle   9  Pass 1  IDiag  1:
 E= -591.113872682786     Delta-E=       -0.000011312273 Rises=F Damp=F
 DIIS: error= 3.27D-05 at cycle   1 NSaved=   1.
 NSaved= 1 IEnMin= 1 EnMin= -591.113872682786     IErMin= 1 ErrMin= 3.27D-05
 ErrMax= 3.27D-05  0.00D+00 EMaxC= 1.00D-01 BMatC= 7.64D-08 BMatP= 7.64D-08
 IDIUse=1 WtCom= 1.00D+00 WtEn= 0.00D+00
 Coeff-Com:  0.100D+01
 Coeff:      0.100D+01
 Gap=     0.213 Goal=   None    Shift=    0.000
 RMSDP=3.79D-06 MaxDP=1.14D-04 DE=-1.13D-05 OVMax= 2.64D-04

 Cycle  10  Pass 1  IDiag  1:
 RMSU=  5.76D-06    CP:  1.00D+00
 E= -591.113872486537     Delta-E=        0.000000196249 Rises=F Damp=F
 DIIS: error= 5.12D-05 at cycle   2 NSaved=   2.
 NSaved= 2 IEnMin= 1 EnMin= -591.113872682786     IErMin= 1 ErrMin= 3.27D-05
 ErrMax= 5.12D-05  0.00D+00 EMaxC= 1.00D-01 BMatC= 2.57D-07 BMatP= 7.64D-08
 IDIUse=1 WtCom= 1.00D+00 WtEn= 0.00D+00
 Coeff-Com:  0.666D+00 0.334D+00
 Coeff:      0.666D+00 0.334D+00
 Gap=     0.213 Goal=   None    Shift=    0.000
 RMSDP=2.13D-06 MaxDP=1.11D-04 DE= 1.96D-07 OVMax= 2.26D-04

 Cycle  11  Pass 1  IDiag  1:
 RMSU=  1.92D-06    CP:  1.00D+00  8.40D-01
 E= -591.113872737879     Delta-E=       -0.000000251342 Rises=F Damp=F
 DIIS: error= 9.98D-06 at cycle   3 NSaved=   3.
 NSaved= 3 IEnMin= 3 EnMin= -591.113872737879     IErMin= 3 ErrMin= 9.98D-06
 ErrMax= 9.98D-06  0.00D+00 EMaxC= 1.00D-01 BMatC= 1.25D-08 BMatP= 7.64D-08
 IDIUse=1 WtCom= 1.00D+00 WtEn= 0.00D+00
 Coeff-Com:  0.162D+00 0.188D+00 0.650D+00
 Coeff:      0.162D+00 0.188D+00 0.650D+00
 Gap=     0.213 Goal=   None    Shift=    0.000
 RMSDP=6.41D-07 MaxDP=2.24D-05 DE=-2.51D-07 OVMax= 4.52D-05

 Cycle  12  Pass 1  IDiag  1:
 RMSU=  5.75D-07    CP:  1.00D+00  8.60D-01  8.66D-01
 E= -591.113872742280     Delta-E=       -0.000000004401 Rises=F Damp=F
 DIIS: error= 7.23D-06 at cycle   4 NSaved=   4.
 NSaved= 4 IEnMin= 4 EnMin= -591.113872742280     IErMin= 4 ErrMin= 7.23D-06
 ErrMax= 7.23D-06  0.00D+00 EMaxC= 1.00D-01 BMatC= 8.16D-09 BMatP= 1.25D-08
 IDIUse=1 WtCom= 1.00D+00 WtEn= 0.00D+00
 Coeff-Com:  0.277D-01 0.972D-01 0.508D+00 0.367D+00
 Coeff:      0.277D-01 0.972D-01 0.508D+00 0.367D+00
 Gap=     0.213 Goal=   None    Shift=    0.000
 RMSDP=3.85D-07 MaxDP=1.75D-05 DE=-4.40D-09 OVMax= 3.60D-05

 Cycle  13  Pass 1  IDiag  1:
 RMSU=  2.02D-07    CP:  1.00D+00  8.65D-01  8.71D-01  4.34D-01
 E= -591.113872749117     Delta-E=       -0.000000006837 Rises=F Damp=F
 DIIS: error= 2.53D-06 at cycle   5 NSaved=   5.
 NSaved= 5 IEnMin= 5 EnMin= -591.113872749117     IErMin= 5 ErrMin= 2.53D-06
 ErrMax= 2.53D-06  0.00D+00 EMaxC= 1.00D-01 BMatC= 1.06D-09 BMatP= 8.16D-09
 IDIUse=1 WtCom= 1.00D+00 WtEn= 0.00D+00
 Coeff-Com:  0.412D-03 0.495D-01 0.300D+00 0.283D+00 0.367D+00
 Coeff:      0.412D-03 0.495D-01 0.300D+00 0.283D+00 0.367D+00
 Gap=     0.213 Goal=   None    Shift=    0.000
 RMSDP=1.26D-07 MaxDP=5.84D-06 DE=-6.84D-09 OVMax= 9.62D-06

 Cycle  14  Pass 1  IDiag  1:
 RMSU=  5.72D-08    CP:  1.00D+00  8.66D-01  8.70D-01  4.45D-01  4.48D-01
 E= -591.113872750085     Delta-E=       -0.000000000969 Rises=F Damp=F
 DIIS: error= 4.10D-07 at cycle   6 NSaved=   6.
 NSaved= 6 IEnMin= 6 EnMin= -591.113872750085     IErMin= 6 ErrMin= 4.10D-07
 ErrMax= 4.10D-07  0.00D+00 EMaxC= 1.00D-01 BMatC= 4.68D-11 BMatP= 1.06D-09
 IDIUse=1 WtCom= 1.00D+00 WtEn= 0.00D+00
 Coeff-Com: -0.203D-02 0.247D-01 0.156D+00 0.157D+00 0.236D+00 0.429D+00
 Coeff:     -0.203D-02 0.247D-01 0.156D+00 0.157D+00 0.236D+00 0.429D+00
 Gap=     0.213 Goal=   None    Shift=    0.000
 RMSDP=3.33D-08 MaxDP=9.03D-07 DE=-9.69D-10 OVMax= 2.57D-06

 Cycle  15  Pass 1  IDiag  1:
 RMSU=  2.12D-08    CP:  1.00D+00  8.66D-01  8.71D-01  4.53D-01  4.49D-01
                    CP:  5.61D-01
 E= -591.113872750130     Delta-E=       -0.000000000045 Rises=F Damp=F
 DIIS: error= 7.53D-08 at cycle   7 NSaved=   7.
 NSaved= 7 IEnMin= 7 EnMin= -591.113872750130     IErMin= 7 ErrMin= 7.53D-08
 ErrMax= 7.53D-08  0.00D+00 EMaxC= 1.00D-01 BMatC= 1.34D-12 BMatP= 4.68D-11
 IDIUse=1 WtCom= 1.00D+00 WtEn= 0.00D+00
 Coeff-Com: -0.877D-03 0.402D-02 0.269D-01 0.299D-01 0.496D-01 0.172D+00
 Coeff-Com:  0.719D+00
 Coeff:     -0.877D-03 0.402D-02 0.269D-01 0.299D-01 0.496D-01 0.172D+00
 Coeff:      0.719D+00
 Gap=     0.213 Goal=   None    Shift=    0.000
 RMSDP=7.57D-09 MaxDP=2.21D-07 DE=-4.50D-11 OVMax= 5.70D-07

 SCF Done:  E(RB3LYP) =  -591.113872750     A.U. after   15 cycles
            NFock= 15  Conv=0.76D-08     -V/T= 2.0099
 KE= 5.853399099200D+02 PE=-2.608557560718D+03 EE= 8.128697322542D+02
 Leave Link  502 at Thu Jun 27 10:18:18 2024, MaxMem=  2147483648 cpu:             106.4 elap:               6.7
 (Enter /share/apps/gaussian/g16/l601.exe)
 Copying SCF densities to generalized density rwf, IOpCl= 0 IROHF=0.

 **********************************************************************

            Population analysis using the SCF density.

 **********************************************************************

 Orbital symmetries:
       Occupied  (A) (A) (A) (A) (A) (A) (A) (A) (A) (A) (A) (A)
                 (A) (A) (A) (A) (A) (A) (A) (A) (A) (A) (A) (A)
                 (A) (A) (A) (A) (A) (A) (A) (A) (A) (A) (A) (A)
                 (A) (A) (A) (A) (A) (A) (A) (A) (A) (A) (A) (A)
                 (A) (A)
       Virtual   (A) (A) (A) (A) (A) (A) (A) (A) (A) (A) (A) (A)
                 (A) (A) (A) (A) (A) (A) (A) (A) (A) (A) (A) (A)
                 (A) (A) (A) (A) (A) (A) (A) (A) (A) (A) (A) (A)
                 (A) (A) (A) (A) (A) (A) (A) (A) (A) (A) (A) (A)
                 (A) (A) (A) (A) (A) (A) (A) (A) (A) (A) (A) (A)
                 (A) (A) (A) (A) (A) (A) (A) (A) (A) (A) (A) (A)
                 (A) (A) (A) (A) (A) (A) (A) (A) (A) (A) (A) (A)
                 (A) (A) (A) (A) (A) (A) (A) (A) (A) (A) (A) (A)
                 (A) (A) (A) (A) (A) (A) (A) (A) (A) (A) (A) (A)
                 (A) (A) (A) (A) (A) (A) (A) (A) (A) (A) (A) (A)
                 (A) (A) (A) (A) (A) (A) (A) (A) (A) (A) (A) (A)
                 (A) (A) (A) (A) (A) (A) (A) (A) (A) (A) (A) (A)
                 (A) (A) (A) (A) (A) (A) (A) (A) (A) (A) (A) (A)
                 (A) (A) (A) (A) (A) (A) (A) (A) (A) (A) (A) (A)
                 (A) (A) (A) (A) (A) (A) (A) (A) (A) (A) (A) (A)
                 (A) (A) (A) (A) (A) (A)
 The electronic state is 1-A.
 Alpha  occ. eigenvalues --  -14.50869 -14.40390 -14.37913 -10.24313 -10.20632
 Alpha  occ. eigenvalues --  -10.19974 -10.19967 -10.19863 -10.19863 -10.19841
 Alpha  occ. eigenvalues --  -10.19804 -10.19773 -10.17191 -10.16938  -1.13553
 Alpha  occ. eigenvalues --   -0.97702  -0.86368  -0.78707  -0.76794  -0.75240
 Alpha  occ. eigenvalues --   -0.73176  -0.71428  -0.66306  -0.61490  -0.60414
 Alpha  occ. eigenvalues --   -0.54220  -0.52047  -0.51359  -0.49893  -0.46646
 Alpha  occ. eigenvalues --   -0.46340  -0.46011  -0.44333  -0.42998  -0.42967
 Alpha  occ. eigenvalues --   -0.42857  -0.42211  -0.42082  -0.41894  -0.40748
 Alpha  occ. eigenvalues --   -0.40715  -0.37084  -0.35868  -0.34978  -0.30199
 Alpha  occ. eigenvalues --   -0.26088  -0.25782  -0.24720  -0.24328  -0.24251
 Alpha virt. eigenvalues --   -0.02951  -0.01056  -0.00772   0.01626   0.02687
 Alpha virt. eigenvalues --    0.07263   0.08717   0.11427   0.11826   0.12350
 Alpha virt. eigenvalues --    0.13263   0.14487   0.15776   0.16121   0.17296
 Alpha virt. eigenvalues --    0.17437   0.17595   0.17788   0.18119   0.18710
 Alpha virt. eigenvalues --    0.21145   0.23266   0.23709   0.24157   0.27604
 Alpha virt. eigenvalues --    0.29803   0.31232   0.32579   0.33621   0.43804
 Alpha virt. eigenvalues --    0.43838   0.45225   0.46686   0.48322   0.51061
 Alpha virt. eigenvalues --    0.52609   0.52722   0.52803   0.53118   0.54721
 Alpha virt. eigenvalues --    0.55081   0.56363   0.58152   0.58719   0.59445
 Alpha virt. eigenvalues --    0.59728   0.59770   0.60139   0.61158   0.61359
 Alpha virt. eigenvalues --    0.63071   0.63541   0.64968   0.65101   0.65860
 Alpha virt. eigenvalues --    0.66918   0.69301   0.70531   0.74233   0.74505
 Alpha virt. eigenvalues --    0.75800   0.76275   0.79093   0.80007   0.80677
 Alpha virt. eigenvalues --    0.80718   0.82475   0.82805   0.83250   0.83448
 Alpha virt. eigenvalues --    0.85849   0.86851   0.88188   0.88709   0.89724
 Alpha virt. eigenvalues --    0.90485   0.90940   0.92041   0.92131   0.93049
 Alpha virt. eigenvalues --    0.93089   0.95261   0.97495   0.97566   0.98436
 Alpha virt. eigenvalues --    1.00571   1.02087   1.06022   1.10622   1.13567
 Alpha virt. eigenvalues --    1.15996   1.17648   1.24877   1.27517   1.28243
 Alpha virt. eigenvalues --    1.30033   1.32166   1.33984   1.38935   1.39676
 Alpha virt. eigenvalues --    1.40149   1.42816   1.42963   1.46344   1.46558
 Alpha virt. eigenvalues --    1.48357   1.49624   1.50337   1.51102   1.51326
 Alpha virt. eigenvalues --    1.55103   1.56150   1.57109   1.58352   1.61369
 Alpha virt. eigenvalues --    1.63575   1.72708   1.78934   1.79276   1.81593
 Alpha virt. eigenvalues --    1.83307   1.85090   1.86117   1.88138   1.90563
 Alpha virt. eigenvalues --    1.91709   1.93330   1.96584   1.97991   2.01661
 Alpha virt. eigenvalues --    2.03143   2.03803   2.03906   2.04955   2.08755
 Alpha virt. eigenvalues --    2.10727   2.10906   2.13387   2.13521   2.13867
 Alpha virt. eigenvalues --    2.15157   2.20004   2.24527   2.25106   2.27250
 Alpha virt. eigenvalues --    2.29505   2.29638   2.29941   2.32400   2.33252
 Alpha virt. eigenvalues --    2.36747   2.38695   2.42006   2.55765   2.57419
 Alpha virt. eigenvalues --    2.59056   2.63714   2.65004   2.68446   2.71122
 Alpha virt. eigenvalues --    2.73082   2.73615   2.76411   2.76511   2.82851
 Alpha virt. eigenvalues --    2.86116   2.90851   3.02900   3.04989   3.09112
 Alpha virt. eigenvalues --    3.33202   3.40036   3.52124   3.73878   4.05991
 Alpha virt. eigenvalues --    4.08249   4.10614   4.13373   4.14316   4.16702
 Alpha virt. eigenvalues --    4.31848   4.33385   4.41627   4.41815   4.63743
 Alpha virt. eigenvalues --    4.69574
          Condensed to atoms (all electrons):
               1          2          3          4          5          6
     1  N    7.049406   0.319252  -0.103915   0.244751  -0.045937  -0.036956
     2  N    0.319252   5.739268   0.578965  -0.046617   0.004905  -0.007644
     3  N   -0.103915   0.578965   6.787804  -0.000620  -0.000165   0.001498
     4  C    0.244751  -0.046617  -0.000620   5.091622   0.375362   0.349079
     5  H   -0.045937   0.004905  -0.000165   0.375362   0.550854  -0.035655
     6  H   -0.036956  -0.007644   0.001498   0.349079  -0.035655   0.593520
     7  C   -0.062389  -0.008913   0.001511   0.339487  -0.028440  -0.034779
     8  C    0.003342  -0.000626  -0.000049  -0.057017  -0.006839   0.005562
     9  C   -0.006222   0.003626   0.001582  -0.051627   0.004346  -0.006789
    10  C   -0.000067  -0.000043   0.000003   0.005810   0.000045  -0.000183
    11  H    0.001208   0.000137  -0.000005  -0.008949   0.004138   0.000127
    12  C   -0.000041  -0.000144   0.000007   0.005942  -0.000189   0.000123
    13  H   -0.000003   0.000349   0.000221  -0.009017   0.000047   0.006808
    14  C    0.000019   0.000008  -0.000001   0.000379   0.000008   0.000003
    15  H    0.000001   0.000000  -0.000000  -0.000175  -0.000004   0.000003
    16  H    0.000001   0.000001  -0.000004  -0.000172   0.000003  -0.000005
    17  H    0.000000  -0.000000   0.000000   0.000007  -0.000000  -0.000000
    18  C    0.000000   0.000000   0.000000   0.000000   0.000000   0.000000
    19  C    0.000000   0.000000   0.000000   0.000000   0.000000   0.000000
    20  C    0.000000   0.000000   0.000000   0.000000   0.000000   0.000000
    21  H    0.000000   0.000000   0.000000   0.000000   0.000000   0.000000
    22  H    0.000000   0.000000   0.000000   0.000000   0.000000   0.000000
    23  H    0.000000   0.000000   0.000000   0.000000   0.000000   0.000000
    24  C    0.000000   0.000000   0.000000   0.000000   0.000000   0.000000
    25  H    0.000000   0.000000   0.000000   0.000000   0.000000   0.000000
    26  H    0.000000   0.000000   0.000000   0.000000   0.000000   0.000000
    27  H    0.000000   0.000000   0.000000   0.000000   0.000000   0.000000
               7          8          9         10         11         12
     1  N   -0.062389   0.003342  -0.006222  -0.000067   0.001208  -0.000041
     2  N   -0.008913  -0.000626   0.003626  -0.000043   0.000137  -0.000144
     3  N    0.001511  -0.000049   0.001582   0.000003  -0.000005   0.000007
     4  C    0.339487  -0.057017  -0.051627   0.005810  -0.008949   0.005942
     5  H   -0.028440  -0.006839   0.004346   0.000045   0.004138  -0.000189
     6  H   -0.034779   0.005562  -0.006789  -0.000183   0.000127   0.000123
     7  C    4.714861   0.540272   0.543316  -0.020079  -0.045116  -0.021800
     8  C    0.540272   4.947396  -0.046496   0.530835   0.356882  -0.044071
     9  C    0.543316  -0.046496   4.964212  -0.044667   0.005799   0.526648
    10  C   -0.020079   0.530835  -0.044667   4.860476  -0.043521  -0.026681
    11  H   -0.045116   0.356882   0.005799  -0.043521   0.593900   0.000365
    12  C   -0.021800  -0.044071   0.526648  -0.026681   0.000365   4.854904
    13  H   -0.046589   0.005958   0.353898   0.000359  -0.000171  -0.041980
    14  C   -0.035341  -0.035166  -0.035928   0.546002   0.004704   0.552565
    15  H    0.003811  -0.039494   0.000820   0.357990  -0.005420   0.004514
    16  H    0.003842   0.000805  -0.039226   0.004505   0.000017   0.357842
    17  H    0.000713   0.004626   0.004704  -0.042641  -0.000175  -0.042455
    18  C    0.000000   0.000000   0.000000   0.000000   0.000000   0.000000
    19  C    0.000000   0.000000   0.000000   0.000000   0.000000   0.000000
    20  C    0.000000   0.000000   0.000000   0.000000   0.000000   0.000000
    21  H    0.000000   0.000000   0.000000   0.000000   0.000000   0.000000
    22  H    0.000000   0.000000   0.000000   0.000000   0.000000   0.000000
    23  H    0.000000   0.000000   0.000000   0.000000   0.000000   0.000000
    24  C    0.000000   0.000000   0.000000   0.000000   0.000000   0.000000
    25  H    0.000000   0.000000   0.000000   0.000000   0.000000   0.000000
    26  H    0.000000   0.000000   0.000000   0.000000   0.000000   0.000000
    27  H    0.000000   0.000000   0.000000   0.000000   0.000000   0.000000
              13         14         15         16         17         18
     1  N   -0.000003   0.000019   0.000001   0.000001   0.000000   0.000000
     2  N    0.000349   0.000008   0.000000   0.000001  -0.000000   0.000000
     3  N    0.000221  -0.000001  -0.000000  -0.000004   0.000000   0.000000
     4  C   -0.009017   0.000379  -0.000175  -0.000172   0.000007   0.000000
     5  H    0.000047   0.000008  -0.000004   0.000003  -0.000000   0.000000
     6  H    0.006808   0.000003   0.000003  -0.000005  -0.000000   0.000000
     7  C   -0.046589  -0.035341   0.003811   0.003842   0.000713   0.000000
     8  C    0.005958  -0.035166  -0.039494   0.000805   0.004626   0.000000
     9  C    0.353898  -0.035928   0.000820  -0.039226   0.004704   0.000000
    10  C    0.000359   0.546002   0.357990   0.004505  -0.042641   0.000000
    11  H   -0.000171   0.004704  -0.005420   0.000017  -0.000175   0.000000
    12  C   -0.041980   0.552565   0.004514   0.357842  -0.042455   0.000000
    13  H    0.599008   0.004705   0.000017  -0.005449  -0.000178   0.000000
    14  C    0.004705   4.849838  -0.042562  -0.042381   0.359623   0.000000
    15  H    0.000017  -0.042562   0.590245  -0.000181  -0.005451   0.000000
    16  H   -0.005449  -0.042381  -0.000181   0.589512  -0.005484   0.000000
    17  H   -0.000178   0.359623  -0.005451  -0.005484   0.591380   0.000000
    18  C    0.000000   0.000000   0.000000   0.000000   0.000000   4.856397
    19  C    0.000000   0.000000   0.000000   0.000000   0.000000   0.895351
    20  C    0.000000   0.000000   0.000000   0.000000   0.000000  -0.043863
    21  H    0.000000   0.000000   0.000000   0.000000   0.000000  -0.002751
    22  H    0.000000   0.000000   0.000000   0.000000   0.000000   0.002501
    23  H    0.000000   0.000000   0.000000   0.000000   0.000000  -0.003771
    24  C    0.000000   0.000000   0.000000   0.000000   0.000000   0.383459
    25  H    0.000000   0.000000   0.000000   0.000000   0.000000  -0.026985
    26  H    0.000000   0.000000   0.000000   0.000000   0.000000  -0.029518
    27  H    0.000000   0.000000   0.000000   0.000000   0.000000  -0.028486
              19         20         21         22         23         24
     1  N    0.000000   0.000000   0.000000   0.000000   0.000000   0.000000
     2  N    0.000000   0.000000   0.000000   0.000000   0.000000   0.000000
     3  N    0.000000   0.000000   0.000000   0.000000   0.000000   0.000000
     4  C    0.000000   0.000000   0.000000   0.000000   0.000000   0.000000
     5  H    0.000000   0.000000   0.000000   0.000000   0.000000   0.000000
     6  H    0.000000   0.000000   0.000000   0.000000   0.000000   0.000000
     7  C    0.000000   0.000000   0.000000   0.000000   0.000000   0.000000
     8  C    0.000000   0.000000   0.000000   0.000000   0.000000   0.000000
     9  C    0.000000   0.000000   0.000000   0.000000   0.000000   0.000000
    10  C    0.000000   0.000000   0.000000   0.000000   0.000000   0.000000
    11  H    0.000000   0.000000   0.000000   0.000000   0.000000   0.000000
    12  C    0.000000   0.000000   0.000000   0.000000   0.000000   0.000000
    13  H    0.000000   0.000000   0.000000   0.000000   0.000000   0.000000
    14  C    0.000000   0.000000   0.000000   0.000000   0.000000   0.000000
    15  H    0.000000   0.000000   0.000000   0.000000   0.000000   0.000000
    16  H    0.000000   0.000000   0.000000   0.000000   0.000000   0.000000
    17  H    0.000000   0.000000   0.000000   0.000000   0.000000   0.000000
    18  C    0.895351  -0.043863  -0.002751   0.002501  -0.003771   0.383459
    19  C    4.931062   0.379786  -0.028455  -0.029537  -0.029320  -0.058760
    20  C    0.379786   5.042394   0.378550   0.366103   0.380184   0.002228
    21  H   -0.028455   0.378550   0.532547  -0.031642  -0.030944   0.000018
    22  H   -0.029537   0.366103  -0.031642   0.552275  -0.031677  -0.000033
    23  H   -0.029320   0.380184  -0.030944  -0.031677   0.533671  -0.000017
    24  C   -0.058760   0.002228   0.000018  -0.000033  -0.000017   5.062597
    25  H    0.003293  -0.000023  -0.000004   0.000004  -0.000005   0.362815
    26  H   -0.003272  -0.000026   0.000095  -0.000005  -0.000013   0.379792
    27  H   -0.002445   0.000011  -0.000017  -0.000004   0.000098   0.378119
              25         26         27
     1  N    0.000000   0.000000   0.000000
     2  N    0.000000   0.000000   0.000000
     3  N    0.000000   0.000000   0.000000
     4  C    0.000000   0.000000   0.000000
     5  H    0.000000   0.000000   0.000000
     6  H    0.000000   0.000000   0.000000
     7  C    0.000000   0.000000   0.000000
     8  C    0.000000   0.000000   0.000000
     9  C    0.000000   0.000000   0.000000
    10  C    0.000000   0.000000   0.000000
    11  H    0.000000   0.000000   0.000000
    12  C    0.000000   0.000000   0.000000
    13  H    0.000000   0.000000   0.000000
    14  C    0.000000   0.000000   0.000000
    15  H    0.000000   0.000000   0.000000
    16  H    0.000000   0.000000   0.000000
    17  H    0.000000   0.000000   0.000000
    18  C   -0.026985  -0.029518  -0.028486
    19  C    0.003293  -0.003272  -0.002445
    20  C   -0.000023  -0.000026   0.000011
    21  H   -0.000004   0.000095  -0.000017
    22  H    0.000004  -0.000005  -0.000004
    23  H   -0.000005  -0.000013   0.000098
    24  C    0.362815   0.379792   0.378119
    25  H    0.549924  -0.031198  -0.031345
    26  H   -0.031198   0.532806  -0.031149
    27  H   -0.031345  -0.031149   0.532049
 Mulliken charges:
               1
     1  N   -0.362451
     2  N    0.417477
     3  N   -0.266830
     4  C   -0.238245
     5  H    0.177521
     6  H    0.165289
     7  C    0.155633
     8  C   -0.165921
     9  C   -0.177994
    10  C   -0.128141
    11  H    0.136081
    12  C   -0.125548
    13  H    0.132016
    14  C   -0.126476
    15  H    0.135885
    16  H    0.136373
    17  H    0.135332
    18  C   -0.002332
    19  C   -0.057703
    20  C   -0.505343
    21  H    0.182605
    22  H    0.172015
    23  H    0.181794
    24  C   -0.510217
    25  H    0.173524
    26  H    0.182489
    27  H    0.183169
 Sum of Mulliken charges =  -0.00000
 Mulliken charges with hydrogens summed into heavy atoms:
               1
     1  N   -0.362451
     2  N    0.417477
     3  N   -0.266830
     4  C    0.104565
     7  C    0.155633
     8  C   -0.029840
     9  C   -0.045978
    10  C    0.007744
    12  C    0.010825
    14  C    0.008856
    18  C   -0.002332
    19  C   -0.057703
    20  C    0.031071
    24  C    0.028964
 Electronic spatial extent (au):  <R**2>=          32246.9184
 Charge=             -0.0000 electrons
 Dipole moment (field-independent basis, Debye):
    X=              1.3242    Y=             -2.2555    Z=              0.6283  Tot=              2.6899
 Quadrupole moment (field-independent basis, Debye-Ang):
   XX=           -101.0943   YY=            -78.7497   ZZ=            -80.9285
   XY=             14.1242   XZ=             19.9286   YZ=             -0.4825
 Traceless Quadrupole moment (field-independent basis, Debye-Ang):
   XX=            -14.1701   YY=              8.1745   ZZ=              5.9957
   XY=             14.1242   XZ=             19.9286   YZ=             -0.4825
 Octapole moment (field-independent basis, Debye-Ang**2):
  XXX=             91.5873  YYY=            -17.7271  ZZZ=              0.4110  XYY=             79.3158
  XXY=           -177.8150  XXZ=            171.6888  XZZ=            -10.8907  YZZ=            -11.3439
  YYZ=              2.8406  XYZ=             28.5070
 Hexadecapole moment (field-independent basis, Debye-Ang**3):
 XXXX=         -44680.2014 YYYY=          -1699.4064 ZZZZ=           -466.0019 XXXY=            431.3435
 XXXZ=           3526.5081 YYYX=            132.7753 YYYZ=            -17.4752 ZZZX=             60.2884
 ZZZY=             -7.4481 XXYY=          -6335.0851 XXZZ=          -7205.2976 YYZZ=           -377.9906
 XXYZ=            187.8871 YYXZ=              9.1894 ZZXY=             71.2033
 N-N= 6.192340457935D+02 E-N=-2.608557550785D+03  KE= 5.853399099200D+02
 No NMR shielding tensors so no spin-rotation constants.
 Leave Link  601 at Thu Jun 27 10:18:18 2024, MaxMem=  2147483648 cpu:               1.7 elap:               0.1
 (Enter /share/apps/gaussian/g16/l9999.exe)
 1\1\GINC-NODE107\SP\RB3LYP\6-31G(d)\C11H13N3\LIAOYT\27-Jun-2024\0\\#p 
 b3lyp/6-31g(d) geom=connectivity em=gd3\\title\\0,1\N,0,2.234002,-0.78
 778,-20.106845\N,0,2.387654,0.38371,-20.468037\N,0,2.611074,1.426139,-
 20.878938\C,0,1.177048,-0.989589,-19.068892\H,0,1.165338,-2.069343,-18
 .907949\H,0,1.493087,-0.513219,-18.131309\C,0,-0.180468,-0.482897,-19.
 49636\C,0,-0.985628,-1.247907,-20.350309\C,0,-0.623713,0.782693,-19.09
 58\C,0,-2.215181,-0.759438,-20.788717\H,0,-0.641184,-2.227372,-20.6736
 53\C,0,-1.8546,1.274933,-19.534406\H,0,-0.004236,1.384459,-18.434457\C
 ,0,-2.652188,0.504141,-20.380941\H,0,-2.833711,-1.363254,-21.447241\H,
 0,-2.188841,2.257968,-19.214193\H,0,-3.611182,0.884653,-20.721904\C,0,
 -0.992636,-1.496604,0.059811\C,0,0.16758412,-1.16459583,0.15372299\C,0
 ,1.33628395,-0.17682324,0.32706088\H,0,1.20190657,0.37959321,1.2310760
 6\H,0,2.25740426,-0.71911549,0.37560449\H,0,1.36155938,0.49536182,-0.5
 0506195\C,0,-2.51392897,-1.36452794,-0.13974753\H,0,-2.95568005,-2.338
 6352,-0.16926071\H,0,-2.93306292,-0.80726481,0.6718463\H,0,-2.71004575
 ,-0.8559167,-1.06048246\\Version=ES64L-G16RevA.03\State=1-A\HF=-591.11
 38728\RMSD=7.568e-09\Dipole=-0.9193028,0.1424035,0.5045656\Quadrupole=
 5.6401856,2.8639005,-8.5040861,-1.0775859,9.5105819,16.3108679\PG=C01 
 [X(C11H13N3)]\\@


 BOOKS ARE LIGHTHOUSES ERECTED IN THE GREAT SEA OF TIME.
     -- E.P.WHIPPLE
 Job cpu time:       0 days  0 hours  2 minutes  9.3 seconds.
 Elapsed time:       0 days  0 hours  0 minutes  8.3 seconds.
 File lengths (MBytes):  RWF=     36 Int=      0 D2E=      0 Chk=      5 Scr=      1
 Normal termination of Gaussian 16 at Thu Jun 27 10:18:18 2024.
Thu Jun 27 10:18:18 CST 2024
