This job is running on host node107
Current directory: /share/home/Liaoyt/system-test/bnts-ome/Ene-Me/nogd3/ORI-CUT
Fri Aug 30 10:28:14 CST 2024
/tmp/95784.mgr
 Entering Gaussian System, Link 0=g16
 Initial command:
 /share/apps/gaussian/g16/l1.exe "/tmp/95784.mgr/Gau-37696.inp" -scrdir="/tmp/95784.mgr/"
 Entering Link 1 = /share/apps/gaussian/g16/l1.exe PID=     37697.
  
 Copyright (c) 1988,1990,1992,1993,1995,1998,2003,2009,2016,
            Gaussian, Inc.  All Rights Reserved.
  
 This is part of the Gaussian(R) 16 program.  It is based on
 the Gaussian(R) 09 system (copyright 2009, Gaussian, Inc.),
 the Gaussian(R) 03 system (copyright 2003, Gaussian, Inc.),
 the Gaussian(R) 98 system (copyright 1998, Gaussian, Inc.),
 the Gaussian(R) 94 system (copyright 1995, Gaussian, Inc.),
 the Gaussian 92(TM) system (copyright 1992, Gaussian, Inc.),
 the Gaussian 90(TM) system (copyright 1990, Gaussian, Inc.),
 the Gaussian 88(TM) system (copyright 1988, Gaussian, Inc.),
 the Gaussian 86(TM) system (copyright 1986, Carnegie Mellon
 University), and the Gaussian 82(TM) system (copyright 1983,
 Carnegie Mellon University). Gaussian is a federally registered
 trademark of Gaussian, Inc.
  
 This software contains proprietary and confidential information,
 including trade secrets, belonging to Gaussian, Inc.
  
 This software is provided under written license and may be
 used, copied, transmitted, or stored only in accord with that
 written license.
  
 The following legend is applicable only to US Government
 contracts under FAR:
  
                    RESTRICTED RIGHTS LEGEND
  
 Use, reproduction and disclosure by the US Government is
 subject to restrictions as set forth in subparagraphs (a)
 and (c) of the Commercial Computer Software - Restricted
 Rights clause in FAR 52.227-19.
  
 Gaussian, Inc.
 340 Quinnipiac St., Bldg. 40, Wallingford CT 06492
  
  
 ---------------------------------------------------------------
 Warning -- This program may not be used in any manner that
 competes with the business of Gaussian, Inc. or will provide
 assistance to any competitor of Gaussian, Inc.  The licensee
 of this program is prohibited from giving any competitor of
 Gaussian, Inc. access to this program.  By using this program,
 the user acknowledges that Gaussian, Inc. is engaged in the
 business of creating and licensing software in the field of
 computational chemistry and represents and warrants to the
 licensee that it is not a competitor of Gaussian, Inc. and that
 it will not use this program in any manner prohibited above.
 ---------------------------------------------------------------
  

 Cite this work as:
 Gaussian 16, Revision A.03,
 M. J. Frisch, G. W. Trucks, H. B. Schlegel, G. E. Scuseria, 
 M. A. Robb, J. R. Cheeseman, G. Scalmani, V. Barone, 
 G. A. Petersson, H. Nakatsuji, X. Li, M. Caricato, A. V. Marenich, 
 J. Bloino, B. G. Janesko, R. Gomperts, B. Mennucci, H. P. Hratchian, 
 J. V. Ortiz, A. F. Izmaylov, J. L. Sonnenberg, D. Williams-Young, 
 F. Ding, F. Lipparini, F. Egidi, J. Goings, B. Peng, A. Petrone, 
 T. Henderson, D. Ranasinghe, V. G. Zakrzewski, J. Gao, N. Rega, 
 G. Zheng, W. Liang, M. Hada, M. Ehara, K. Toyota, R. Fukuda, 
 J. Hasegawa, M. Ishida, T. Nakajima, Y. Honda, O. Kitao, H. Nakai, 
 T. Vreven, K. Throssell, J. A. Montgomery, Jr., J. E. Peralta, 
 F. Ogliaro, M. J. Bearpark, J. J. Heyd, E. N. Brothers, K. N. Kudin, 
 V. N. Staroverov, T. A. Keith, R. Kobayashi, J. Normand, 
 K. Raghavachari, A. P. Rendell, J. C. Burant, S. S. Iyengar, 
 J. Tomasi, M. Cossi, J. M. Millam, M. Klene, C. Adamo, R. Cammi, 
 J. W. Ochterski, R. L. Martin, K. Morokuma, O. Farkas, 
 J. B. Foresman, and D. J. Fox, Gaussian, Inc., Wallingford CT, 2016.
 
 ******************************************
 Gaussian 16:  ES64L-G16RevA.03 25-Dec-2016
                30-Aug-2024 
 ******************************************
 %chk=bnts-ts-pro.chk
 %nprocshared=16
 Will use up to   16 processors via shared memory.
 %mem=16GB
 ---------------------------------
 #MP2 IOp(3/125=0333312000) nosymm
 ---------------------------------
 1/38=1,172=1/1;
 2/12=2,15=1,17=6,18=5,40=1/2;
 3/11=9,25=1,30=1,125=333312000/1,2,3;
 4//1;
 5/5=2,38=5/2;
 8/10=1/1;
 9/16=-3/6;
 6/7=2,8=2,9=2,10=2/1;
 99/5=1,9=1/99;
 -------------------
 tmpdir/Subs_0_0.gjf
 -------------------
 Symbolic Z-matrix:
 Charge =  0 Multiplicity = 1
 C                     2.81536  -1.44992   1.20387 
 C                     1.19388   1.21002  -0.3234 
 C                     0.87873  -0.24557  -0.15339 
 C                     1.51959  -1.31472   0.45434 
 N                    -0.25773  -0.80105  -0.67695 
 N                    -0.31709  -2.12018  -0.41758 
 N                     0.75449  -2.4326    0.2576 
 C                    -1.37764  -0.1655   -1.37251 
 H                    -1.06162   0.84751  -1.6317 
 H                    -1.53747  -0.71693  -2.30311 
 C                    -2.65185  -0.13594  -0.55079 
 C                    -2.67822   0.48302   0.70582 
 C                    -3.81975  -0.71436  -1.05438 
 C                    -3.86129   0.51985   1.44202 
 H                    -1.76799   0.92501   1.0987 
 C                    -5.00646  -0.6711   -0.31919 
 H                    -3.80107  -1.20894  -2.02278 
 C                    -5.02926  -0.05374   0.93129 
 H                    -3.87246   0.99751   2.41836 
 H                    -5.90736  -1.1273   -0.72076 
 H                    -5.94982  -0.02343   1.50819 
 H                     3.73733  -1.42809   0.56911 
 H                     2.75967  -2.42375   1.70115 
 H                     2.89196  -0.69966   2.0004 
 H                     2.22609   1.48159  -0.02283 
 H                     1.07261   1.4686   -1.39113 
 H                     0.39124   1.81223   0.29539 
 
                          Input orientation:                          
 ---------------------------------------------------------------------
 Center     Atomic      Atomic             Coordinates (Angstroms)
 Number     Number       Type             X           Y           Z
 ---------------------------------------------------------------------
      1          6           0        2.815363   -1.449917    1.203873
      2          6           0        1.193882    1.210024   -0.323396
      3          6           0        0.878727   -0.245571   -0.153391
      4          6           0        1.519588   -1.314724    0.454338
      5          7           0       -0.257727   -0.801049   -0.676947
      6          7           0       -0.317094   -2.120182   -0.417583
      7          7           0        0.754488   -2.432603    0.257598
      8          6           0       -1.377644   -0.165498   -1.372512
      9          1           0       -1.061621    0.847511   -1.631702
     10          1           0       -1.537470   -0.716934   -2.303111
     11          6           0       -2.651853   -0.135942   -0.550793
     12          6           0       -2.678223    0.483020    0.705822
     13          6           0       -3.819746   -0.714363   -1.054375
     14          6           0       -3.861294    0.519854    1.442015
     15          1           0       -1.767989    0.925011    1.098701
     16          6           0       -5.006464   -0.671098   -0.319192
     17          1           0       -3.801067   -1.208941   -2.022781
     18          6           0       -5.029264   -0.053735    0.931290
     19          1           0       -3.872460    0.997511    2.418360
     20          1           0       -5.907358   -1.127296   -0.720755
     21          1           0       -5.949818   -0.023428    1.508189
     22          1           0        3.737327   -1.428085    0.569113
     23          1           0        2.759673   -2.423746    1.701153
     24          1           0        2.891963   -0.699661    2.000401
     25          1           0        2.226086    1.481588   -0.022833
     26          1           0        1.072605    1.468603   -1.391131
     27          1           0        0.391242    1.812233    0.295391
 ---------------------------------------------------------------------
                    Distance matrix (angstroms):
                    1          2          3          4          5
     1  C    0.000000
     2  C    3.469443   0.000000
     3  C    2.653898   1.498993   0.000000
     4  C    1.503035   2.661824   1.386768   0.000000
     5  N    3.660928   2.505311   1.369012   2.168529   0.000000
     6  N    3.590357   3.658168   2.239185   2.186872   1.345699
     7  N    2.471500   3.714748   2.228779   1.368846   2.135397
     8  C    5.086138   3.099266   2.565907   3.612763   1.463540
     9  H    5.324440   2.632560   2.673047   3.960993   2.067741
    10  H    5.637673   3.884935   3.268254   4.160106   2.071045
    11  C    5.890317   4.080810   3.554566   4.449802   2.487995
    12  C    5.844980   4.071980   3.731084   4.573483   3.069150
    13  C    7.047368   5.419784   4.806994   5.580783   3.583008
    14  C    6.965232   5.398872   5.059545   5.770188   4.384117
    15  H    5.163183   3.297919   3.153268   4.029861   2.900534
    16  C    8.006701   6.479423   5.902884   6.603178   4.763967
    17  H    7.365223   5.804207   5.130611   5.869981   3.812205
    18  C    7.972565   6.472934   6.009800   6.686183   5.090429
    19  H    7.224393   5.764565   5.543729   6.186921   5.087439
    20  H    8.938352   7.486559   6.866607   7.521669   5.659213
    21  H    8.885712   7.477202   7.031303   7.653109   6.146496
    22  H    1.119561   3.771645   3.176783   2.223599   4.231583
    23  H    1.094866   4.444635   3.423702   2.079011   4.170517
    24  H    1.096909   3.454042   2.982975   2.156856   4.135096
    25  H    3.231993   1.108842   2.194425   2.923388   3.436223
    26  H    4.276565   1.105273   2.123201   3.369341   2.726016
    27  H    4.164532   1.178891   2.161852   3.328106   2.862838
                    6          7          8          9         10
     6  N    0.000000
     7  N    1.304517   0.000000
     8  C    2.420216   3.513262   0.000000
     9  H    3.291748   4.198435   1.092354   0.000000
    10  H    2.648327   3.841070   1.093453   1.767685   0.000000
    11  C    3.066929   4.187040   1.516478   2.159718   2.156390
    12  C    3.689665   4.526065   2.536051   2.865358   3.434368
    13  C    3.827584   5.059371   2.523158   3.221802   2.601563
    14  C    4.794710   5.605826   3.815729   4.170523   4.577747
    15  H    3.698299   4.282980   2.729189   2.821358   3.784369
    16  C    4.909146   6.051789   3.812276   4.426132   3.996493
    17  H    3.942726   5.239328   2.717462   3.447681   2.333351
    18  C    5.319230   6.290045   4.319065   4.808676   4.805602
    19  H    5.513911   6.151685   4.684806   4.932172   5.539295
    20  H    5.685841   6.858658   4.676340   5.311389   4.665637
    21  H    6.311304   7.232968   5.405867   5.874685   5.871607
    22  H    4.229763   3.162820   5.614888   5.749072   6.048049
    23  H    3.748025   2.470768   5.627121   6.034180   6.116598
    24  H    4.261757   3.257184   5.467304   5.587194   6.175791
    25  H    4.426776   4.191078   4.185857   3.714772   4.919098
    26  H    3.969690   4.247224   2.945225   2.235744   3.524311
    27  H    4.058812   4.260517   3.134051   2.599074   4.107168
                   11         12         13         14         15
    11  C    0.000000
    12  C    1.401032   0.000000
    13  C    1.397190   2.415594   0.000000
    14  C    2.421590   1.393913   2.785136   0.000000
    15  H    2.151201   1.085466   3.396026   2.159616   0.000000
    16  C    2.425742   2.793447   1.396662   2.414877   3.878879
    17  H    2.153780   3.401292   1.087551   3.872618   4.293112
    18  C    2.802751   2.422052   2.417070   1.397855   3.409089
    19  H    3.404477   2.150277   3.872103   1.086982   2.485066
    20  H    3.407342   3.880149   2.154052   3.402507   4.965557
    21  H    3.889555   3.406408   3.403136   2.159043   4.307541
    22  H    6.614034   6.695543   7.762375   7.892748   6.010494
    23  H    6.292052   6.245853   7.335099   7.250458   5.663642
    24  H    6.128643   5.839661   7.374206   6.885165   5.016749
    25  H    5.166182   5.057700   6.514474   6.334581   4.185720
    26  H    4.141536   4.408775   5.367853   5.768033   3.816246
    27  H    3.711043   3.369996   5.092934   4.590103   2.468754
                   16         17         18         19         20
    16  C    0.000000
    17  H    2.155104   0.000000
    18  C    1.394762   3.401397   0.000000
    19  H    3.400649   4.959563   2.157473   0.000000
    20  H    1.086729   2.477579   2.157043   4.302285   0.000000
    21  H    2.156088   4.300037   1.086808   2.487196   2.487673
    22  H    8.821338   7.974542   8.881055   8.198298   9.735204
    23  H    8.213796   7.641122   8.177847   7.496971   9.091966
    24  H    8.232040   7.825727   8.019106   6.986594   9.220391
    25  H    7.551932   6.896761   7.477144   6.586806   8.570081
    26  H    6.533181   5.596508   6.704025   6.260017   7.477164
    27  H    5.973263   5.663644   5.767849   4.832176   7.024653
                   21         22         23         24         25
    21  H    0.000000
    22  H    9.833398   0.000000
    23  H    9.036260   1.796848   0.000000
    24  H    8.881253   1.814891   1.754856   0.000000
    25  H    8.453077   3.331734   4.302148   3.048724   0.000000
    26  H    7.742521   4.397056   5.249648   4.417456   1.789673
    27  H    6.711898   4.665927   5.052638   3.933227   1.891361
                   26         27
    26  H    0.000000
    27  H    1.851133   0.000000
 Symmetry turned off by external request.
 Stoichiometry    C11H13N3
 Framework group  C1[X(C11H13N3)]
 Deg. of freedom    75
 Full point group                 C1      NOp   1
 Rotational constants (GHZ):           1.5808323           0.3739363           0.3641069
 Standard basis: STO-3G (5D, 7F)
    83 basis functions,   249 primitive gaussians,    83 cartesian basis functions
    50 alpha electrons       50 beta electrons
       nuclear repulsion energy       838.9704908490 Hartrees.
 NAtoms=   27 NActive=   27 NUniq=   27 SFac= 1.00D+00 NAtFMM=   60 NAOKFM=F Big=F
 Integral buffers will be    131072 words long.
 Raffenetti 1 integral format.
 Two-electron integral symmetry is turned off.
 One-electron integrals computed using PRISM.
 NBasis=    83 RedAO= T EigKep=  1.72D-01  NBF=    83
 NBsUse=    83 1.00D-06 EigRej= -1.00D+00 NBFU=    83
 ExpMin= 1.69D-01 ExpMax= 9.91D+01 ExpMxC= 9.91D+01 IAcc=3 IRadAn=         5 AccDes= 0.00D+00
 Harris functional with IExCor=  205 and IRadAn=       5 diagonalized for initial guess.
 HarFok:  IExCor=  205 AccDes= 0.00D+00 IRadAn=         5 IDoV= 1 UseB2=F ITyADJ=14
 ICtDFT=  3500011 ScaDFX=  1.000000  1.000000  1.000000  1.000000
 FoFCou: FMM=F IPFlag=           0 FMFlag=      100000 FMFlg1=           0
         NFxFlg=           0 DoJE=T BraDBF=F KetDBF=T FulRan=T
         wScrn=  0.000000 ICntrl=       500 IOpCl=  0 I1Cent=   200000004 NGrid=           0
         NMat0=    1 NMatS0=      1 NMatT0=    0 NMatD0=    1 NMtDS0=    0 NMtDT0=    0
 Symmetry not used in FoFCou.
 Requested convergence on RMS density matrix=1.00D-08 within 128 cycles.
 Requested convergence on MAX density matrix=1.00D-06.
 Requested convergence on             energy=1.00D-06.
 No special actions if energy rises.
 Integral accuracy reduced to 1.0D-05 until final iterations.
 Initial convergence to 1.0D-05 achieved.  Increase integral accuracy.
 SCF Done:  E(RHF) =  -580.214410971     A.U. after   15 cycles
            NFock= 15  Conv=0.39D-08     -V/T= 2.0100
 DoSCS=T DFT=F ScalE2(SS,OS)=  0.333300  1.200000
 ExpMin= 1.69D-01 ExpMax= 9.91D+01 ExpMxC= 9.91D+01 IAcc=3 IRadAn=         5 AccDes= 0.00D+00
 HarFok:  IExCor=  205 AccDes= 0.00D+00 IRadAn=         5 IDoV=-2 UseB2=F ITyADJ=14
 ICtDFT= 12500011 ScaDFX=  1.000000  1.000000  1.000000  1.000000
 Range of M.O.s used for correlation:    15    83
 NBasis=    83 NAE=    50 NBE=    50 NFC=    14 NFV=     0
 NROrb=     69 NOA=    36 NOB=    36 NVA=    33 NVB=    33
 DoSCS=T DFT=F ScalE2(SS,OS)=  0.333300  1.200000
 Fully in-core method, ICMem=    19058474.
 JobTyp=1 Pass  1 fully in-core, NPsUse= 16.
 Spin components of T(2) and E(2):
     alpha-alpha T2 =       0.3846109575D-01 E2=     -0.2697615363D-01
     alpha-beta  T2 =       0.2929082460D+00 E2=     -0.7709132358D+00
     beta-beta   T2 =       0.3846109575D-01 E2=     -0.2697615363D-01
 E2 =    -0.8248655430D+00 EUMP2 =    -0.58103927651453D+03

 **********************************************************************

            Population analysis using the SCF density.

 **********************************************************************

 Alpha  occ. eigenvalues --  -15.45439 -15.38761 -15.33900 -11.13019 -11.08259
 Alpha  occ. eigenvalues --  -11.08081 -11.05341 -11.04590 -11.04085 -11.03995
 Alpha  occ. eigenvalues --  -11.03962 -11.03902 -11.03866 -11.03782  -1.37002
 Alpha  occ. eigenvalues --   -1.15638  -1.10155  -1.04427  -0.99945  -0.96479
 Alpha  occ. eigenvalues --   -0.94182  -0.90529  -0.88513  -0.78523  -0.77134
 Alpha  occ. eigenvalues --   -0.73182  -0.71109  -0.66431  -0.63051  -0.61512
 Alpha  occ. eigenvalues --   -0.59339  -0.58467  -0.56166  -0.54369  -0.54158
 Alpha  occ. eigenvalues --   -0.53965  -0.53148  -0.52434  -0.50458  -0.49252
 Alpha  occ. eigenvalues --   -0.47796  -0.45787  -0.44344  -0.43964  -0.40110
 Alpha  occ. eigenvalues --   -0.33272  -0.32066  -0.28910  -0.28498  -0.26672
 Alpha virt. eigenvalues --    0.24840   0.25916   0.27277   0.35751   0.47474
 Alpha virt. eigenvalues --    0.55333   0.56092   0.57587   0.58768   0.60225
 Alpha virt. eigenvalues --    0.63038   0.63336   0.64665   0.65532   0.66747
 Alpha virt. eigenvalues --    0.69668   0.70382   0.70827   0.71841   0.72332
 Alpha virt. eigenvalues --    0.73270   0.74154   0.76571   0.80486   0.86082
 Alpha virt. eigenvalues --    0.86454   0.87634   0.88646   0.90826   0.98576
 Alpha virt. eigenvalues --    1.06636   1.08147   1.13314
          Condensed to atoms (all electrons):
               1          2          3          4          5          6
     1  C    4.696573  -0.000448  -0.020140   0.382111   0.000596   0.001051
     2  C   -0.000448   4.696028   0.380725  -0.016839  -0.020781   0.000722
     3  C   -0.020140   0.380725   4.806967   0.531562   0.413101  -0.053985
     4  C    0.382111  -0.016839   0.531562   4.852572  -0.067389  -0.053297
     5  N    0.000596  -0.020781   0.413101  -0.067389   6.328689   0.318426
     6  N    0.001051   0.000722  -0.053985  -0.053297   0.318426   6.503284
     7  N   -0.024372   0.000568  -0.047130   0.400365  -0.056841   0.381881
     8  C   -0.000004  -0.002141  -0.025366   0.001370   0.324660  -0.026482
     9  H   -0.000000  -0.001071  -0.003339   0.000016  -0.021570   0.001075
    10  H    0.000000   0.000027   0.001086  -0.000023  -0.023426  -0.001603
    11  C    0.000000   0.000030   0.000375  -0.000003  -0.022281  -0.000734
    12  C    0.000000  -0.000073   0.000013  -0.000003  -0.001403   0.000020
    13  C   -0.000000  -0.000000  -0.000005   0.000000   0.000305   0.000006
    14  C    0.000000   0.000000  -0.000000   0.000000  -0.000001  -0.000001
    15  H   -0.000000  -0.000220  -0.000026  -0.000004   0.000231   0.000009
    16  C    0.000000   0.000000   0.000000  -0.000000  -0.000004  -0.000000
    17  H   -0.000000   0.000000  -0.000001   0.000000   0.000027   0.000004
    18  C   -0.000000  -0.000000  -0.000000   0.000000   0.000000   0.000000
    19  H   -0.000000   0.000000   0.000000  -0.000000   0.000000   0.000000
    20  H   -0.000000  -0.000000  -0.000000  -0.000000   0.000000   0.000000
    21  H    0.000000   0.000000   0.000000   0.000000  -0.000000  -0.000000
    22  H    0.376934   0.000020  -0.000731  -0.019101   0.000002  -0.000013
    23  H    0.381164   0.000000   0.001251  -0.024008  -0.000014   0.000056
    24  H    0.380046   0.000049  -0.001757  -0.021840   0.000006  -0.000022
    25  H    0.000134   0.381261  -0.017849  -0.002096   0.000771  -0.000013
    26  H    0.000000   0.377463  -0.023347   0.000655  -0.002191   0.000017
    27  H    0.000005   0.362532  -0.023221   0.000219  -0.001104   0.000012
               7          8          9         10         11         12
     1  C   -0.024372  -0.000004  -0.000000   0.000000   0.000000   0.000000
     2  C    0.000568  -0.002141  -0.001071   0.000027   0.000030  -0.000073
     3  C   -0.047130  -0.025366  -0.003339   0.001086   0.000375   0.000013
     4  C    0.400365   0.001370   0.000016  -0.000023  -0.000003  -0.000003
     5  N   -0.056841   0.324660  -0.021570  -0.023426  -0.022281  -0.001403
     6  N    0.381881  -0.026482   0.001075  -0.001603  -0.000734   0.000020
     7  N    6.527989   0.001345  -0.000040   0.000026   0.000008  -0.000002
     8  C    0.001345   4.643659   0.382051   0.384363   0.378114  -0.026968
     9  H   -0.000040   0.382051   0.602508  -0.020762  -0.022190  -0.002056
    10  H    0.000026   0.384363  -0.020762   0.592842  -0.022829   0.001178
    11  C    0.000008   0.378114  -0.022190  -0.022829   4.785642   0.503265
    12  C   -0.000002  -0.026968  -0.002056   0.001178   0.503265   4.778947
    13  C   -0.000000  -0.027958   0.000645  -0.004563   0.508897  -0.031141
    14  C    0.000000   0.000816   0.000005  -0.000019  -0.029268   0.510183
    15  H   -0.000002  -0.003342   0.000172   0.000027  -0.026364   0.393458
    16  C    0.000000   0.000835  -0.000021   0.000037  -0.028979  -0.010985
    17  H   -0.000000  -0.004038   0.000064   0.000428  -0.025809   0.001321
    18  C    0.000000   0.000013   0.000002  -0.000000  -0.010991  -0.029683
    19  H   -0.000000  -0.000015  -0.000000   0.000000   0.001352  -0.025644
    20  H   -0.000000  -0.000015   0.000000  -0.000002   0.001331   0.000027
    21  H   -0.000000   0.000001  -0.000000  -0.000000   0.000030   0.001341
    22  H    0.000265  -0.000000  -0.000000  -0.000000   0.000000   0.000000
    23  H   -0.003498   0.000000   0.000000  -0.000000  -0.000000  -0.000000
    24  H    0.000724  -0.000000   0.000000   0.000000  -0.000000  -0.000000
    25  H    0.000009   0.000024   0.000007   0.000000  -0.000000   0.000001
    26  H   -0.000017  -0.000700  -0.000436   0.000037  -0.000014   0.000006
    27  H   -0.000011  -0.000096  -0.000309  -0.000011   0.000039  -0.000189
              13         14         15         16         17         18
     1  C   -0.000000   0.000000  -0.000000   0.000000  -0.000000  -0.000000
     2  C   -0.000000   0.000000  -0.000220   0.000000   0.000000  -0.000000
     3  C   -0.000005  -0.000000  -0.000026   0.000000  -0.000001  -0.000000
     4  C    0.000000   0.000000  -0.000004  -0.000000   0.000000   0.000000
     5  N    0.000305  -0.000001   0.000231  -0.000004   0.000027   0.000000
     6  N    0.000006  -0.000001   0.000009  -0.000000   0.000004   0.000000
     7  N   -0.000000   0.000000  -0.000002   0.000000  -0.000000   0.000000
     8  C   -0.027958   0.000816  -0.003342   0.000835  -0.004038   0.000013
     9  H    0.000645   0.000005   0.000172  -0.000021   0.000064   0.000002
    10  H   -0.004563  -0.000019   0.000027   0.000037   0.000428  -0.000000
    11  C    0.508897  -0.029268  -0.026364  -0.028979  -0.025809  -0.010991
    12  C   -0.031141   0.510183   0.393458  -0.010985   0.001321  -0.029683
    13  C    4.775054  -0.011326   0.001355   0.505902   0.393540  -0.030080
    14  C   -0.011326   4.768294  -0.024628  -0.030453   0.000036   0.504727
    15  H    0.001355  -0.024628   0.601583   0.000032  -0.000034   0.001336
    16  C    0.505902  -0.030453   0.000032   4.769246  -0.025093   0.507856
    17  H    0.393540   0.000036  -0.000034  -0.025093   0.596504   0.001358
    18  C   -0.030080   0.504727   0.001336   0.507856   0.001358   4.770085
    19  H    0.000030   0.393767  -0.003598   0.001366   0.000002  -0.025170
    20  H   -0.025334   0.001365   0.000002   0.394039  -0.003628  -0.025084
    21  H    0.001362  -0.025078  -0.000030  -0.025193  -0.000031   0.394006
    22  H   -0.000000   0.000000  -0.000000   0.000000  -0.000000  -0.000000
    23  H    0.000000  -0.000000   0.000000  -0.000000   0.000000   0.000000
    24  H    0.000000  -0.000000   0.000000  -0.000000   0.000000   0.000000
    25  H    0.000000  -0.000000   0.000001  -0.000000  -0.000000   0.000000
    26  H    0.000000  -0.000000   0.000003  -0.000000   0.000000   0.000000
    27  H   -0.000000   0.000001  -0.000030   0.000000  -0.000000  -0.000000
              19         20         21         22         23         24
     1  C   -0.000000  -0.000000   0.000000   0.376934   0.381164   0.380046
     2  C    0.000000  -0.000000   0.000000   0.000020   0.000000   0.000049
     3  C    0.000000  -0.000000   0.000000  -0.000731   0.001251  -0.001757
     4  C   -0.000000  -0.000000   0.000000  -0.019101  -0.024008  -0.021840
     5  N    0.000000   0.000000  -0.000000   0.000002  -0.000014   0.000006
     6  N    0.000000   0.000000  -0.000000  -0.000013   0.000056  -0.000022
     7  N   -0.000000  -0.000000  -0.000000   0.000265  -0.003498   0.000724
     8  C   -0.000015  -0.000015   0.000001  -0.000000   0.000000  -0.000000
     9  H   -0.000000   0.000000  -0.000000  -0.000000   0.000000   0.000000
    10  H    0.000000  -0.000002  -0.000000  -0.000000  -0.000000   0.000000
    11  C    0.001352   0.001331   0.000030   0.000000  -0.000000  -0.000000
    12  C   -0.025644   0.000027   0.001341   0.000000  -0.000000  -0.000000
    13  C    0.000030  -0.025334   0.001362  -0.000000   0.000000   0.000000
    14  C    0.393767   0.001365  -0.025078   0.000000  -0.000000  -0.000000
    15  H   -0.003598   0.000002  -0.000030  -0.000000   0.000000   0.000000
    16  C    0.001366   0.394039  -0.025193   0.000000  -0.000000  -0.000000
    17  H    0.000002  -0.003628  -0.000031  -0.000000   0.000000   0.000000
    18  C   -0.025170  -0.025084   0.394006  -0.000000   0.000000   0.000000
    19  H    0.596022  -0.000031  -0.003509  -0.000000   0.000000   0.000000
    20  H   -0.000031   0.594149  -0.003514  -0.000000   0.000000   0.000000
    21  H   -0.003509  -0.003514   0.594254   0.000000  -0.000000  -0.000000
    22  H   -0.000000  -0.000000   0.000000   0.619964  -0.019506  -0.020666
    23  H    0.000000   0.000000  -0.000000  -0.019506   0.603878  -0.020773
    24  H    0.000000   0.000000  -0.000000  -0.020666  -0.020773   0.622632
    25  H   -0.000000   0.000000  -0.000000   0.000025  -0.000006  -0.000016
    26  H    0.000000   0.000000  -0.000000   0.000010  -0.000000  -0.000009
    27  H    0.000000  -0.000000   0.000000  -0.000007   0.000001   0.000031
              25         26         27
     1  C    0.000134   0.000000   0.000005
     2  C    0.381261   0.377463   0.362532
     3  C   -0.017849  -0.023347  -0.023221
     4  C   -0.002096   0.000655   0.000219
     5  N    0.000771  -0.002191  -0.001104
     6  N   -0.000013   0.000017   0.000012
     7  N    0.000009  -0.000017  -0.000011
     8  C    0.000024  -0.000700  -0.000096
     9  H    0.000007  -0.000436  -0.000309
    10  H    0.000000   0.000037  -0.000011
    11  C   -0.000000  -0.000014   0.000039
    12  C    0.000001   0.000006  -0.000189
    13  C    0.000000   0.000000  -0.000000
    14  C   -0.000000  -0.000000   0.000001
    15  H    0.000001   0.000003  -0.000030
    16  C   -0.000000  -0.000000   0.000000
    17  H   -0.000000   0.000000  -0.000000
    18  C    0.000000   0.000000  -0.000000
    19  H   -0.000000   0.000000   0.000000
    20  H    0.000000   0.000000  -0.000000
    21  H   -0.000000  -0.000000   0.000000
    22  H    0.000025   0.000010  -0.000007
    23  H   -0.000006  -0.000000   0.000001
    24  H   -0.000016  -0.000009   0.000031
    25  H    0.593197  -0.020312  -0.016150
    26  H   -0.020312   0.617648  -0.018700
    27  H   -0.016150  -0.018700   0.637210
 Mulliken charges:
               1
     1  C   -0.173648
     2  C   -0.157853
     3  C    0.081816
     4  C    0.035732
     5  N   -0.169809
     6  N   -0.070414
     7  N   -0.181270
     8  C   -0.000126
     9  H    0.085248
    10  H    0.093188
    11  C    0.010376
    12  C   -0.061610
    13  C   -0.056688
    14  C   -0.058418
    15  H    0.060072
    16  C   -0.058586
    17  H    0.065352
    18  C   -0.058376
    19  H    0.065429
    20  H    0.066694
    21  H    0.066362
    22  H    0.062801
    23  H    0.081455
    24  H    0.061595
    25  H    0.081013
    26  H    0.069888
    27  H    0.059779
 Sum of Mulliken charges =  -0.00000
 Mulliken charges with hydrogens summed into heavy atoms:
               1
     1  C    0.032204
     2  C    0.052827
     3  C    0.081816
     4  C    0.035732
     5  N   -0.169809
     6  N   -0.070414
     7  N   -0.181270
     8  C    0.178309
    11  C    0.010376
    12  C   -0.001539
    13  C    0.008664
    14  C    0.007011
    16  C    0.008108
    18  C    0.007986
 Electronic spatial extent (au):  <R**2>=           3838.9007
 Charge=             -0.0000 electrons
 Dipole moment (field-independent basis, Debye):
    X=             -0.5339    Y=              4.3902    Z=             -0.8656  Tot=              4.5065
 Quadrupole moment (field-independent basis, Debye-Ang):
   XX=            -69.9158   YY=            -90.0944   ZZ=            -73.6785
   XY=              1.3493   XZ=              0.7077   YZ=              1.1741
 Traceless Quadrupole moment (field-independent basis, Debye-Ang):
   XX=              7.9804   YY=            -12.1982   ZZ=              4.2177
   XY=              1.3493   XZ=              0.7077   YZ=              1.1741
 Octapole moment (field-independent basis, Debye-Ang**2):
  XXX=            249.2175  YYY=            155.7904  ZZZ=             -7.8299  XYY=             95.1307
  XXY=             31.9810  XXZ=              2.0073  XZZ=             85.0504  YZZ=             39.2740
  YYZ=             -2.5579  XYZ=             -5.6045
 Hexadecapole moment (field-independent basis, Debye-Ang**3):
 XXXX=          -3560.5747 YYYY=           -806.1664 ZZZZ=           -448.1556 XXXY=             86.1406
 XXXZ=            -57.6329 YYYX=             44.0264 YYYZ=             -2.6166 ZZZX=            -30.2700
 ZZZY=              4.7714 XXYY=           -766.3342 XXZZ=           -682.6444 YYZZ=           -188.3667
 XXYZ=             22.2191 YYXZ=             -8.8439 ZZXY=             11.9026
 N-N= 8.389704908490D+02 E-N=-3.030427866295D+03  KE= 5.744974354483D+02

 Test job not archived.
 1\1\GINC-NODE107\SP\RMP2-FC\STO-3G\C11H13N3\LIAOYT\30-Aug-2024\0\\#MP2
  IOp(3/125=0333312000) nosymm\\tmpdir/Subs_0_0.gjf\\0,1\C,0,2.815363,-
 1.449917,1.203873\C,0,1.193882,1.210024,-0.323396\C,0,0.878727,-0.2455
 71,-0.153391\C,0,1.519588,-1.314724,0.454338\N,0,-0.257727,-0.801049,-
 0.676947\N,0,-0.317094,-2.120182,-0.417583\N,0,0.754488,-2.432603,0.25
 7598\C,0,-1.377644,-0.165498,-1.372512\H,0,-1.061621,0.847511,-1.63170
 2\H,0,-1.53747,-0.716934,-2.303111\C,0,-2.651853,-0.135942,-0.550793\C
 ,0,-2.678223,0.48302,0.705822\C,0,-3.819746,-0.714363,-1.054375\C,0,-3
 .861294,0.519854,1.442015\H,0,-1.767989,0.925011,1.098701\C,0,-5.00646
 4,-0.671098,-0.319192\H,0,-3.801067,-1.208941,-2.022781\C,0,-5.029264,
 -0.053735,0.93129\H,0,-3.87246,0.997511,2.41836\H,0,-5.907358,-1.12729
 6,-0.720755\H,0,-5.949818,-0.023428,1.508189\H,0,3.73732737,-1.4280853
 2,0.56911257\H,0,2.759673,-2.423746,1.701153\H,0,2.891963,-0.699661,2.
 000401\H,0,2.22608625,1.48158839,-0.02283274\H,0,1.072605,1.468603,-1.
 391131\H,0,0.39124189,1.81223275,0.29539138\\Version=ES64L-G16RevA.03\
 HF=-580.214411\MP2=-581.0392765\RMSD=3.869e-09\PG=C01 [X(C11H13N3)]\\@


 THE GREAT THING ABOUT BEING IMPERFECT IS THE JOY IT BRINGS OTHERS.
   -- SIGN OUTSIDE LAKE AGASSIZ JR. HIGH SCHOOL, FARGO, N.D.
 Job cpu time:       0 days  0 hours  0 minutes 43.0 seconds.
 Elapsed time:       0 days  0 hours  0 minutes  3.0 seconds.
 File lengths (MBytes):  RWF=     10 Int=      0 D2E=      0 Chk=      5 Scr=      1
 Normal termination of Gaussian 16 at Fri Aug 30 10:28:18 2024.
Fri Aug 30 10:28:18 CST 2024
