This job is running on host node107
Current directory: /share/home/Liaoyt/system-test/bnts-ome/Ene-Me/nogd3/ORI-CUT
Fri Aug 30 10:28:15 CST 2024
/tmp/95785.mgr
 Entering Gaussian System, Link 0=g16
 Initial command:
 /share/apps/gaussian/g16/l1.exe "/tmp/95785.mgr/Gau-37719.inp" -scrdir="/tmp/95785.mgr/"
 Entering Link 1 = /share/apps/gaussian/g16/l1.exe PID=     37721.
  
 Copyright (c) 1988,1990,1992,1993,1995,1998,2003,2009,2016,
            Gaussian, Inc.  All Rights Reserved.
  
 This is part of the Gaussian(R) 16 program.  It is based on
 the Gaussian(R) 09 system (copyright 2009, Gaussian, Inc.),
 the Gaussian(R) 03 system (copyright 2003, Gaussian, Inc.),
 the Gaussian(R) 98 system (copyright 1998, Gaussian, Inc.),
 the Gaussian(R) 94 system (copyright 1995, Gaussian, Inc.),
 the Gaussian 92(TM) system (copyright 1992, Gaussian, Inc.),
 the Gaussian 90(TM) system (copyright 1990, Gaussian, Inc.),
 the Gaussian 88(TM) system (copyright 1988, Gaussian, Inc.),
 the Gaussian 86(TM) system (copyright 1986, Carnegie Mellon
 University), and the Gaussian 82(TM) system (copyright 1983,
 Carnegie Mellon University). Gaussian is a federally registered
 trademark of Gaussian, Inc.
  
 This software contains proprietary and confidential information,
 including trade secrets, belonging to Gaussian, Inc.
  
 This software is provided under written license and may be
 used, copied, transmitted, or stored only in accord with that
 written license.
  
 The following legend is applicable only to US Government
 contracts under FAR:
  
                    RESTRICTED RIGHTS LEGEND
  
 Use, reproduction and disclosure by the US Government is
 subject to restrictions as set forth in subparagraphs (a)
 and (c) of the Commercial Computer Software - Restricted
 Rights clause in FAR 52.227-19.
  
 Gaussian, Inc.
 340 Quinnipiac St., Bldg. 40, Wallingford CT 06492
  
  
 ---------------------------------------------------------------
 Warning -- This program may not be used in any manner that
 competes with the business of Gaussian, Inc. or will provide
 assistance to any competitor of Gaussian, Inc.  The licensee
 of this program is prohibited from giving any competitor of
 Gaussian, Inc. access to this program.  By using this program,
 the user acknowledges that Gaussian, Inc. is engaged in the
 business of creating and licensing software in the field of
 computational chemistry and represents and warrants to the
 licensee that it is not a competitor of Gaussian, Inc. and that
 it will not use this program in any manner prohibited above.
 ---------------------------------------------------------------
  

 Cite this work as:
 Gaussian 16, Revision A.03,
 M. J. Frisch, G. W. Trucks, H. B. Schlegel, G. E. Scuseria, 
 M. A. Robb, J. R. Cheeseman, G. Scalmani, V. Barone, 
 G. A. Petersson, H. Nakatsuji, X. Li, M. Caricato, A. V. Marenich, 
 J. Bloino, B. G. Janesko, R. Gomperts, B. Mennucci, H. P. Hratchian, 
 J. V. Ortiz, A. F. Izmaylov, J. L. Sonnenberg, D. Williams-Young, 
 F. Ding, F. Lipparini, F. Egidi, J. Goings, B. Peng, A. Petrone, 
 T. Henderson, D. Ranasinghe, V. G. Zakrzewski, J. Gao, N. Rega, 
 G. Zheng, W. Liang, M. Hada, M. Ehara, K. Toyota, R. Fukuda, 
 J. Hasegawa, M. Ishida, T. Nakajima, Y. Honda, O. Kitao, H. Nakai, 
 T. Vreven, K. Throssell, J. A. Montgomery, Jr., J. E. Peralta, 
 F. Ogliaro, M. J. Bearpark, J. J. Heyd, E. N. Brothers, K. N. Kudin, 
 V. N. Staroverov, T. A. Keith, R. Kobayashi, J. Normand, 
 K. Raghavachari, A. P. Rendell, J. C. Burant, S. S. Iyengar, 
 J. Tomasi, M. Cossi, J. M. Millam, M. Klene, C. Adamo, R. Cammi, 
 J. W. Ochterski, R. L. Martin, K. Morokuma, O. Farkas, 
 J. B. Foresman, and D. J. Fox, Gaussian, Inc., Wallingford CT, 2016.
 
 ******************************************
 Gaussian 16:  ES64L-G16RevA.03 25-Dec-2016
                30-Aug-2024 
 ******************************************
 %chk=Ori-cut-ts.chk
 %nprocshared=16
 Will use up to   16 processors via shared memory.
 %mem=16GB
 ---------------------------------------------
 # MP2 IOp(3/125=0333312000) geom=connectivity
 ---------------------------------------------
 1/38=1,57=2,172=1/1;
 2/12=2,17=6,18=5,40=1/2;
 3/11=9,25=1,30=1,125=333312000/1,2,3;
 4//1;
 5/5=2,38=5/2;
 8/10=1/1;
 9/16=-3/6;
 6/7=2,8=2,9=2,10=2/1;
 99/5=1,9=1/99;
 -------------------
 tmpdir/Subs_0_0.gjf
 -------------------
 Symbolic Z-matrix:
 Charge =  0 Multiplicity = 1
 C                     1.29896  -0.14302  -0.42258 
 C                     1.61806  -1.31334  -0.18471 
 N                    -0.68291  -0.40283  -1.55893 
 N                    -0.70572  -1.64323  -1.36061 
 N                    -0.04695  -2.52104  -0.96492 
 C                    -1.95948   0.33457  -1.6051 
 H                    -1.65017   1.37791  -1.68916 
 H                    -2.49826   0.07289  -2.5253 
 C                    -2.85566   0.13658  -0.39807 
 C                    -2.4623    0.60515   0.86391 
 C                    -4.08174  -0.52447  -0.52547 
 C                    -3.28548   0.41332   1.97239 
 H                    -1.50803   1.11488   0.96491 
 C                    -4.90811  -0.71458   0.5846 
 H                    -4.39374  -0.89314  -1.50056 
 C                    -4.51062  -0.24607   1.83659 
 H                    -2.97221   0.78097   2.94635 
 H                    -5.85846  -1.22945   0.46957 
 H                    -5.15049  -0.39318   2.70282 
 C                     2.5191   -2.33393   0.37609 
 H                     3.57031  -1.95977   0.42803 
 H                     2.48266  -3.25991  -0.20925 
 H                     2.16981  -2.59939   1.38437 
 C                     1.60982   1.29196  -0.47913 
 H                     2.39239   1.52526   0.28752 
 H                     2.00488   1.53347  -1.48141 
 H                     0.64105   1.93477  -0.30256 
 
                          Input orientation:                          
 ---------------------------------------------------------------------
 Center     Atomic      Atomic             Coordinates (Angstroms)
 Number     Number       Type             X           Y           Z
 ---------------------------------------------------------------------
      1          6           0        1.298958   -0.143020   -0.422582
      2          6           0        1.618059   -1.313337   -0.184712
      3          7           0       -0.682907   -0.402831   -1.558934
      4          7           0       -0.705721   -1.643230   -1.360614
      5          7           0       -0.046953   -2.521043   -0.964919
      6          6           0       -1.959480    0.334571   -1.605097
      7          1           0       -1.650165    1.377907   -1.689160
      8          1           0       -2.498258    0.072890   -2.525295
      9          6           0       -2.855664    0.136584   -0.398069
     10          6           0       -2.462304    0.605153    0.863905
     11          6           0       -4.081736   -0.524469   -0.525465
     12          6           0       -3.285483    0.413318    1.972387
     13          1           0       -1.508025    1.114877    0.964911
     14          6           0       -4.908111   -0.714582    0.584597
     15          1           0       -4.393737   -0.893144   -1.500556
     16          6           0       -4.510623   -0.246073    1.836587
     17          1           0       -2.972206    0.780968    2.946353
     18          1           0       -5.858456   -1.229447    0.469572
     19          1           0       -5.150487   -0.393184    2.702821
     20          6           0        2.519099   -2.333933    0.376089
     21          1           0        3.570307   -1.959774    0.428031
     22          1           0        2.482657   -3.259910   -0.209253
     23          1           0        2.169814   -2.599387    1.384373
     24          6           0        1.609821    1.291962   -0.479130
     25          1           0        2.392394    1.525255    0.287523
     26          1           0        2.004885    1.533473   -1.481410
     27          1           0        0.641053    1.934767   -0.302558
 ---------------------------------------------------------------------
                    Distance matrix (angstroms):
                    1          2          3          4          5
     1  C    0.000000
     2  C    1.236143   0.000000
     3  N    2.299258   2.830539   0.000000
     4  N    2.673812   2.625172   1.256360   0.000000
     5  N    2.785785   2.199896   2.290003   1.166664   0.000000
     6  C    3.499122   4.187109   1.474968   2.354438   3.496015
     7  H    3.551727   4.493044   2.030659   3.182324   4.277455
     8  H    4.345902   4.933966   2.110844   2.741302   3.895145
     9  C    4.164092   4.707652   2.521795   2.952369   3.908089
    10  C    4.044985   4.629208   3.170557   3.617913   4.353346
    11  C    5.395179   5.764208   3.554559   3.653297   4.523152
    12  C    5.202162   5.628422   4.462032   4.689718   5.265579
    13  H    3.374403   4.121924   3.058439   3.695797   4.367939
    14  C    6.314174   6.598579   4.748080   4.722956   5.412500
    15  H    5.842216   6.168444   3.743538   3.766122   4.672418
    16  C    6.234236   6.541058   5.119135   5.162501   5.740059
    17  H    5.517818   5.938031   5.190364   5.437247   5.895628
    18  H    7.294165   7.505558   5.620003   5.483746   6.123688
    19  H    7.171197   7.416046   6.174295   6.150615   6.635221
    20  C    2.631866   1.472409   4.210263   3.727287   2.901368
    21  H    3.030374   2.145835   4.945901   4.645845   3.916619
    22  H    3.340906   2.130089   4.472732   3.755668   2.741511
    23  H    3.171311   2.102471   4.650369   4.088752   3.231001
    24  C    1.469356   2.621895   3.048754   3.841107   4.185678
    25  H    2.117308   2.979968   4.072394   4.727999   4.887899
    26  H    2.104775   3.152045   3.313534   4.177729   4.573391
    27  H    2.182761   3.393908   2.965757   3.966780   4.557008
                    6          7          8          9         10
     6  C    0.000000
     7  H    1.091463   0.000000
     8  H    1.097963   1.766763   0.000000
     9  C    1.516331   2.158941   2.157982   0.000000
    10  C    2.534170   2.788343   3.430929   1.402450   0.000000
    11  C    2.531309   3.299357   2.619840   1.398740   2.414323
    12  C    3.816134   4.124515   4.578729   2.424951   1.393972
    13  H    2.723533   2.670858   3.774631   2.151953   1.086586
    14  C    3.819674   4.490289   4.012347   2.429538   2.793150
    15  H    2.728337   3.566571   2.361388   2.154411   3.400883
    16  C    4.323270   4.821869   4.814288   2.806956   2.422046
    17  H    4.684077   4.857171   5.537593   3.407928   2.151163
    18  H    4.685341   5.400753   4.685749   3.411100   3.880091
    19  H    5.410204   5.888847   5.880879   3.893891   3.406555
    20  C    5.577067   5.951955   6.275723   5.965807   5.804358
    21  H    6.322672   6.547973   7.048499   6.809572   6.569721
    22  H    5.882283   6.385898   6.425039   6.330047   6.367340
    23  H    5.881846   6.313296   6.649621   5.993168   5.656543
    24  C    3.863199   3.478371   4.748604   4.613245   4.342540
    25  H    4.892703   4.502363   5.825786   5.471796   4.974625
    26  H    4.143532   3.664253   4.847813   5.172027   5.130113
    27  H    3.319640   2.735405   4.273455   3.933143   3.572021
                   11         12         13         14         15
    11  C    0.000000
    12  C    2.784372   0.000000
    13  H    3.395978   2.160220   0.000000
    14  C    1.396881   2.414755   3.879709   0.000000
    15  H    1.088149   3.872519   4.293950   2.155070   0.000000
    16  C    2.416762   1.397929   3.409926   1.394624   3.401307
    17  H    3.871530   1.087161   2.486249   3.400337   4.959678
    18  H    2.154954   3.402546   4.966635   1.086956   2.477883
    19  H    3.403130   2.159217   4.308377   2.156134   4.300117
    20  C    6.903476   6.617305   5.334672   7.604553   7.306502
    21  H    7.843661   7.417443   5.960803   8.570799   8.263362
    22  H    7.118559   7.177994   6.036801   7.856993   7.386057
    23  H    6.858181   6.259586   5.243873   7.368117   7.369822
    24  C    5.974562   5.544903   3.440578   6.902258   6.469985
    25  H    6.839348   6.026065   3.980017   7.642153   7.422766
    26  H    6.495838   6.416499   4.301191   7.557225   6.843333
    27  H    5.329378   4.786216   2.626258   6.212835   5.897575
                   16         17         18         19         20
    16  C    0.000000
    17  H    2.157109   0.000000
    18  H    2.156944   4.301936   0.000000
    19  H    1.086936   2.486534   2.487560   0.000000
    20  C    7.477246   6.816399   8.450565   8.246377   0.000000
    21  H    8.379871   7.527157   9.457097   9.147739   1.117019
    22  H    7.885090   7.486125   8.611489   8.658128   1.096078
    23  H    7.097241   6.348776   8.195530   7.758379   1.099592
    24  C    6.722197   5.743694   7.939314   7.659392   3.834749
    25  H    7.293068   6.033429   8.700463   8.149179   3.862283
    26  H    7.525140   6.703938   8.559918   8.509944   4.321059
    27  H    5.989305   4.994228   7.269942   6.927741   4.712687
                   21         22         23         24         25
    21  H    0.000000
    22  H    1.810931   0.000000
    23  H    1.812478   1.753227   0.000000
    24  C    3.903874   4.642652   4.350728   0.000000
    25  H    3.681392   4.811729   4.273792   1.120091   0.000000
    26  H    4.277767   4.982286   5.031943   1.104069   1.810899
    27  H    4.927651   5.512248   5.073598   1.175962   1.892905
                   26         27
    26  H    0.000000
    27  H    1.846826   0.000000
 Stoichiometry    C11H13N3
 Framework group  C1[X(C11H13N3)]
 Deg. of freedom    75
 Full point group                 C1      NOp   1
 Largest Abelian subgroup         C1      NOp   1
 Largest concise Abelian subgroup C1      NOp   1
                         Standard orientation:                         
 ---------------------------------------------------------------------
 Center     Atomic      Atomic             Coordinates (Angstroms)
 Number     Number       Type             X           Y           Z
 ---------------------------------------------------------------------
      1          6           0        2.453699    0.747741   -0.118433
      2          6           0        2.895378   -0.138610    0.621399
      3          7           0        0.789298   -0.356683   -1.257117
      4          7           0        0.917678   -1.395400   -0.562116
      5          7           0        1.614006   -1.884746    0.235865
      6          6           0       -0.551720    0.008549   -1.750887
      7          1           0       -0.394250    0.977387   -2.228223
      8          1           0       -0.858008   -0.700234   -2.531487
      9          6           0       -1.621920    0.105526   -0.681061
     10          6           0       -1.553576    1.100770    0.304680
     11          6           0       -2.685873   -0.802174   -0.657432
     12          6           0       -2.535037    1.180828    1.291331
     13          1           0       -0.725105    1.803685    0.289960
     14          6           0       -3.670998   -0.720654    0.329563
     15          1           0       -2.745492   -1.578854   -1.417223
     16          6           0       -3.596728    0.271554    1.306795
     17          1           0       -2.473809    1.956431    2.050680
     18          1           0       -4.492186   -1.432764    0.334240
     19          1           0       -4.360813    0.337366    2.077036
     20          6           0        3.816677   -0.639078    1.655192
     21          1           0        4.769138   -0.055576    1.663866
     22          1           0        4.034247   -1.703599    1.510816
     23          1           0        3.325106   -0.560969    2.635681
     24          6           0        2.547877    2.078329   -0.734608
     25          1           0        3.124296    2.754984   -0.053078
     26          1           0        3.086324    1.991052   -1.694517
     27          1           0        1.477004    2.512207   -0.953400
 ---------------------------------------------------------------------
 Rotational constants (GHZ):           1.1949860           0.3732739           0.3668415
 Standard basis: STO-3G (5D, 7F)
 There are    83 symmetry adapted cartesian basis functions of A   symmetry.
 There are    83 symmetry adapted basis functions of A   symmetry.
    83 basis functions,   249 primitive gaussians,    83 cartesian basis functions
    50 alpha electrons       50 beta electrons
       nuclear repulsion energy       808.9731214132 Hartrees.
 NAtoms=   27 NActive=   27 NUniq=   27 SFac= 1.00D+00 NAtFMM=   60 NAOKFM=F Big=F
 Integral buffers will be    131072 words long.
 Raffenetti 1 integral format.
 Two-electron integral symmetry is turned on.
 One-electron integrals computed using PRISM.
 NBasis=    83 RedAO= T EigKep=  1.53D-01  NBF=    83
 NBsUse=    83 1.00D-06 EigRej= -1.00D+00 NBFU=    83
 ExpMin= 1.69D-01 ExpMax= 9.91D+01 ExpMxC= 9.91D+01 IAcc=3 IRadAn=         5 AccDes= 0.00D+00
 Harris functional with IExCor=  205 and IRadAn=       5 diagonalized for initial guess.
 HarFok:  IExCor=  205 AccDes= 0.00D+00 IRadAn=         5 IDoV= 1 UseB2=F ITyADJ=14
 ICtDFT=  3500011 ScaDFX=  1.000000  1.000000  1.000000  1.000000
 FoFCou: FMM=F IPFlag=           0 FMFlag=      100000 FMFlg1=           0
         NFxFlg=           0 DoJE=T BraDBF=F KetDBF=T FulRan=T
         wScrn=  0.000000 ICntrl=       500 IOpCl=  0 I1Cent=   200000004 NGrid=           0
         NMat0=    1 NMatS0=      1 NMatT0=    0 NMatD0=    1 NMtDS0=    0 NMtDT0=    0
 Petite list used in FoFCou.
 Requested convergence on RMS density matrix=1.00D-08 within 128 cycles.
 Requested convergence on MAX density matrix=1.00D-06.
 Requested convergence on             energy=1.00D-06.
 No special actions if energy rises.
 Integral accuracy reduced to 1.0D-05 until final iterations.
 Initial convergence to 1.0D-05 achieved.  Increase integral accuracy.
 SCF Done:  E(RHF) =  -579.966425947     A.U. after   21 cycles
            NFock= 21  Conv=0.70D-08     -V/T= 2.0094
 DoSCS=T DFT=F ScalE2(SS,OS)=  0.333300  1.200000
 ExpMin= 1.69D-01 ExpMax= 9.91D+01 ExpMxC= 9.91D+01 IAcc=3 IRadAn=         5 AccDes= 0.00D+00
 HarFok:  IExCor=  205 AccDes= 0.00D+00 IRadAn=         5 IDoV=-2 UseB2=F ITyADJ=14
 ICtDFT= 12500011 ScaDFX=  1.000000  1.000000  1.000000  1.000000
 Range of M.O.s used for correlation:    15    83
 NBasis=    83 NAE=    50 NBE=    50 NFC=    14 NFV=     0
 NROrb=     69 NOA=    36 NOB=    36 NVA=    33 NVB=    33
 DoSCS=T DFT=F ScalE2(SS,OS)=  0.333300  1.200000
 Fully in-core method, ICMem=    19058474.
 JobTyp=1 Pass  1 fully in-core, NPsUse= 16.
 Spin components of T(2) and E(2):
     alpha-alpha T2 =       0.5102053034D-01 E2=     -0.3231655514D-01
     alpha-beta  T2 =       0.3517870941D+00 E2=     -0.8482703825D+00
     beta-beta   T2 =       0.5102053034D-01 E2=     -0.3231655514D-01
 E2 =    -0.9129034928D+00 EUMP2 =    -0.58087932944002D+03

 **********************************************************************

            Population analysis using the SCF density.

 **********************************************************************

 Orbital symmetries:
       Occupied  (A) (A) (A) (A) (A) (A) (A) (A) (A) (A) (A) (A)
                 (A) (A) (A) (A) (A) (A) (A) (A) (A) (A) (A) (A)
                 (A) (A) (A) (A) (A) (A) (A) (A) (A) (A) (A) (A)
                 (A) (A) (A) (A) (A) (A) (A) (A) (A) (A) (A) (A)
                 (A) (A)
       Virtual   (A) (A) (A) (A) (A) (A) (A) (A) (A) (A) (A) (A)
                 (A) (A) (A) (A) (A) (A) (A) (A) (A) (A) (A) (A)
                 (A) (A) (A) (A) (A) (A) (A) (A) (A)
 The electronic state is 1-A.
 Alpha  occ. eigenvalues --  -15.56928 -15.44215 -15.36217 -11.10395 -11.06537
 Alpha  occ. eigenvalues --  -11.05690 -11.04452 -11.03591 -11.03575 -11.03543
 Alpha  occ. eigenvalues --  -11.03525 -11.03477 -10.98021 -10.96342  -1.40896
 Alpha  occ. eigenvalues --   -1.17866  -1.09897  -0.99602  -0.99366  -0.96095
 Alpha  occ. eigenvalues --   -0.93382  -0.89998  -0.83598  -0.77915  -0.76143
 Alpha  occ. eigenvalues --   -0.68155  -0.65543  -0.63184  -0.61781  -0.60391
 Alpha  occ. eigenvalues --   -0.58587  -0.58106  -0.55056  -0.54161  -0.53912
 Alpha  occ. eigenvalues --   -0.53309  -0.52484  -0.52182  -0.51734  -0.51431
 Alpha  occ. eigenvalues --   -0.50557  -0.45860  -0.44365  -0.43549  -0.33773
 Alpha  occ. eigenvalues --   -0.28739  -0.28627  -0.28292  -0.27184  -0.25731
 Alpha virt. eigenvalues --    0.21259   0.25320   0.26215   0.27801   0.34786
 Alpha virt. eigenvalues --    0.39028   0.48298   0.56600   0.59209   0.61078
 Alpha virt. eigenvalues --    0.63127   0.64158   0.65774   0.67683   0.69136
 Alpha virt. eigenvalues --    0.70149   0.70374   0.70768   0.72314   0.72571
 Alpha virt. eigenvalues --    0.73234   0.73935   0.76636   0.80560   0.82668
 Alpha virt. eigenvalues --    0.86994   0.87981   0.89035   0.91247   1.08374
 Alpha virt. eigenvalues --    1.10314   1.13629   1.37158
          Condensed to atoms (all electrons):
               1          2          3          4          5          6
     1  C    4.889422   0.819769   0.040272  -0.016425  -0.006324  -0.001115
     2  C    0.819769   4.938337  -0.010847  -0.014453   0.043201   0.000119
     3  N    0.040272  -0.010847   6.612880   0.353256  -0.039445   0.302115
     4  N   -0.016425  -0.014453   0.353256   6.146851   0.521439  -0.033249
     5  N   -0.006324   0.043201  -0.039445   0.521439   6.499576   0.001107
     6  C   -0.001115   0.000119   0.302115  -0.033249   0.001107   4.679118
     7  H   -0.000163   0.000006  -0.025606   0.001846  -0.000021   0.382875
     8  H    0.000057  -0.000004  -0.019912  -0.002035   0.000007   0.378424
     9  C   -0.000000  -0.000001  -0.019336  -0.002154   0.000056   0.375999
    10  C   -0.000005  -0.000004  -0.000884   0.000035  -0.000002  -0.026956
    11  C   -0.000000  -0.000000   0.000115   0.000061  -0.000002  -0.027492
    12  C   -0.000000   0.000000  -0.000003  -0.000002   0.000000   0.000805
    13  H    0.000023  -0.000002   0.000198   0.000017  -0.000003  -0.003378
    14  C    0.000000  -0.000000  -0.000003  -0.000001   0.000000   0.000813
    15  H   -0.000000   0.000000   0.000029   0.000014  -0.000001  -0.003845
    16  C   -0.000000   0.000000   0.000000   0.000000  -0.000000   0.000013
    17  H    0.000000   0.000000   0.000000   0.000000  -0.000000  -0.000015
    18  H   -0.000000   0.000000   0.000000   0.000000  -0.000000  -0.000014
    19  H    0.000000   0.000000  -0.000000  -0.000000   0.000000   0.000001
    20  C   -0.017862   0.391200   0.000082   0.000012  -0.004573  -0.000001
    21  H   -0.002572  -0.021611  -0.000003  -0.000005   0.000122   0.000000
    22  H    0.000822  -0.024859   0.000006   0.000062  -0.001021  -0.000000
    23  H   -0.000488  -0.023972  -0.000001   0.000004  -0.000006   0.000000
    24  C    0.390544  -0.018720  -0.004083   0.000077   0.000084   0.000045
    25  H   -0.022514  -0.002754   0.000095  -0.000006  -0.000001  -0.000002
    26  H   -0.024719  -0.000605  -0.000023   0.000006  -0.000002   0.000003
    27  H   -0.022906   0.000738  -0.000717   0.000040  -0.000001  -0.000059
               7          8          9         10         11         12
     1  C   -0.000163   0.000057  -0.000000  -0.000005  -0.000000  -0.000000
     2  C    0.000006  -0.000004  -0.000001  -0.000004  -0.000000   0.000000
     3  N   -0.025606  -0.019912  -0.019336  -0.000884   0.000115  -0.000003
     4  N    0.001846  -0.002035  -0.002154   0.000035   0.000061  -0.000002
     5  N   -0.000021   0.000007   0.000056  -0.000002  -0.000002   0.000000
     6  C    0.382875   0.378424   0.375999  -0.026956  -0.027492   0.000805
     7  H    0.600931  -0.021129  -0.022101  -0.002735   0.000902   0.000012
     8  H   -0.021129   0.616712  -0.024215   0.001207  -0.004359  -0.000020
     9  C   -0.022101  -0.024215   4.800728   0.502164   0.507278  -0.029144
    10  C   -0.002735   0.001207   0.502164   4.781355  -0.031551   0.509842
    11  C    0.000902  -0.004359   0.507278  -0.031551   4.783796  -0.011332
    12  C    0.000012  -0.000020  -0.029144   0.509842  -0.011332   4.770696
    13  H    0.000217   0.000033  -0.026207   0.393395   0.001357  -0.024665
    14  C   -0.000021   0.000032  -0.028773  -0.010999   0.505811  -0.030515
    15  H    0.000048   0.000508  -0.026104   0.001343   0.392975   0.000035
    16  C    0.000001  -0.000000  -0.010868  -0.029734  -0.030219   0.504544
    17  H   -0.000001   0.000000   0.001348  -0.025563   0.000029   0.393643
    18  H    0.000000  -0.000002   0.001321   0.000026  -0.025333   0.001367
    19  H   -0.000000  -0.000000   0.000029   0.001342   0.001363  -0.025104
    20  C   -0.000000   0.000000   0.000000   0.000000   0.000000  -0.000000
    21  H    0.000000  -0.000000  -0.000000  -0.000000  -0.000000   0.000000
    22  H   -0.000000   0.000000   0.000000   0.000000   0.000000   0.000000
    23  H    0.000000  -0.000000  -0.000000  -0.000000  -0.000000   0.000000
    24  C   -0.000022  -0.000003   0.000002  -0.000030  -0.000000   0.000000
    25  H   -0.000002   0.000000   0.000000   0.000001   0.000000  -0.000000
    26  H   -0.000001   0.000000  -0.000000   0.000001   0.000000  -0.000000
    27  H    0.000058  -0.000004   0.000001  -0.000095  -0.000000   0.000000
              13         14         15         16         17         18
     1  C    0.000023   0.000000  -0.000000  -0.000000   0.000000  -0.000000
     2  C   -0.000002  -0.000000   0.000000   0.000000   0.000000   0.000000
     3  N    0.000198  -0.000003   0.000029   0.000000   0.000000   0.000000
     4  N    0.000017  -0.000001   0.000014   0.000000   0.000000   0.000000
     5  N   -0.000003   0.000000  -0.000001  -0.000000  -0.000000  -0.000000
     6  C   -0.003378   0.000813  -0.003845   0.000013  -0.000015  -0.000014
     7  H    0.000217  -0.000021   0.000048   0.000001  -0.000001   0.000000
     8  H    0.000033   0.000032   0.000508  -0.000000   0.000000  -0.000002
     9  C   -0.026207  -0.028773  -0.026104  -0.010868   0.001348   0.001321
    10  C    0.393395  -0.010999   0.001343  -0.029734  -0.025563   0.000026
    11  C    0.001357   0.505811   0.392975  -0.030219   0.000029  -0.025333
    12  C   -0.024665  -0.030515   0.000035   0.504544   0.393643   0.001367
    13  H    0.595735   0.000032  -0.000034   0.001333  -0.003583   0.000002
    14  C    0.000032   4.772005  -0.025356   0.507943   0.001368   0.393828
    15  H   -0.000034  -0.025356   0.602084   0.001363   0.000002  -0.003626
    16  C    0.001333   0.507943   0.001363   4.772686  -0.025278  -0.025152
    17  H   -0.003583   0.001368   0.000002  -0.025278   0.596969  -0.000032
    18  H    0.000002   0.393828  -0.003626  -0.025152  -0.000032   0.596541
    19  H   -0.000030  -0.025259  -0.000031   0.393901  -0.003515  -0.003518
    20  C   -0.000000   0.000000  -0.000000  -0.000000   0.000000  -0.000000
    21  H    0.000000  -0.000000   0.000000   0.000000  -0.000000   0.000000
    22  H   -0.000000   0.000000  -0.000000  -0.000000  -0.000000  -0.000000
    23  H    0.000000  -0.000000   0.000000   0.000000   0.000000   0.000000
    24  C   -0.000094  -0.000000   0.000000  -0.000000   0.000000  -0.000000
    25  H   -0.000000   0.000000  -0.000000   0.000000  -0.000000  -0.000000
    26  H    0.000000  -0.000000  -0.000000   0.000000  -0.000000   0.000000
    27  H    0.000037  -0.000000   0.000000  -0.000000   0.000000   0.000000
              19         20         21         22         23         24
     1  C    0.000000  -0.017862  -0.002572   0.000822  -0.000488   0.390544
     2  C    0.000000   0.391200  -0.021611  -0.024859  -0.023972  -0.018720
     3  N   -0.000000   0.000082  -0.000003   0.000006  -0.000001  -0.004083
     4  N   -0.000000   0.000012  -0.000005   0.000062   0.000004   0.000077
     5  N    0.000000  -0.004573   0.000122  -0.001021  -0.000006   0.000084
     6  C    0.000001  -0.000001   0.000000  -0.000000   0.000000   0.000045
     7  H   -0.000000  -0.000000   0.000000  -0.000000   0.000000  -0.000022
     8  H   -0.000000   0.000000  -0.000000   0.000000  -0.000000  -0.000003
     9  C    0.000029   0.000000  -0.000000   0.000000  -0.000000   0.000002
    10  C    0.001342   0.000000  -0.000000   0.000000  -0.000000  -0.000030
    11  C    0.001363   0.000000  -0.000000   0.000000  -0.000000  -0.000000
    12  C   -0.025104  -0.000000   0.000000   0.000000   0.000000   0.000000
    13  H   -0.000030  -0.000000   0.000000  -0.000000   0.000000  -0.000094
    14  C   -0.025259   0.000000  -0.000000   0.000000  -0.000000  -0.000000
    15  H   -0.000031  -0.000000   0.000000  -0.000000   0.000000   0.000000
    16  C    0.393901  -0.000000   0.000000  -0.000000   0.000000  -0.000000
    17  H   -0.003515   0.000000  -0.000000  -0.000000   0.000000   0.000000
    18  H   -0.003518  -0.000000   0.000000  -0.000000   0.000000  -0.000000
    19  H    0.596083   0.000000  -0.000000   0.000000  -0.000000   0.000000
    20  C    0.000000   4.659619   0.378466   0.380559   0.378050   0.000164
    21  H   -0.000000   0.378466   0.615012  -0.020519  -0.019249   0.000021
    22  H    0.000000   0.380559  -0.020519   0.610413  -0.021505  -0.000006
    23  H   -0.000000   0.378050  -0.019249  -0.021505   0.612621   0.000000
    24  C    0.000000   0.000164   0.000021  -0.000006   0.000000   4.660999
    25  H   -0.000000   0.000003   0.000090  -0.000005   0.000009   0.376869
    26  H   -0.000000   0.000001   0.000008   0.000003  -0.000003   0.377860
    27  H   -0.000000  -0.000003  -0.000004   0.000000   0.000002   0.363212
              25         26         27
     1  C   -0.022514  -0.024719  -0.022906
     2  C   -0.002754  -0.000605   0.000738
     3  N    0.000095  -0.000023  -0.000717
     4  N   -0.000006   0.000006   0.000040
     5  N   -0.000001  -0.000002  -0.000001
     6  C   -0.000002   0.000003  -0.000059
     7  H   -0.000002  -0.000001   0.000058
     8  H    0.000000   0.000000  -0.000004
     9  C    0.000000  -0.000000   0.000001
    10  C    0.000001   0.000001  -0.000095
    11  C    0.000000   0.000000  -0.000000
    12  C   -0.000000  -0.000000   0.000000
    13  H   -0.000000   0.000000   0.000037
    14  C    0.000000  -0.000000  -0.000000
    15  H   -0.000000  -0.000000   0.000000
    16  C    0.000000   0.000000  -0.000000
    17  H   -0.000000  -0.000000   0.000000
    18  H   -0.000000   0.000000   0.000000
    19  H   -0.000000  -0.000000  -0.000000
    20  C    0.000003   0.000001  -0.000003
    21  H    0.000090   0.000008  -0.000004
    22  H   -0.000005   0.000003   0.000000
    23  H    0.000009  -0.000003   0.000002
    24  C    0.376869   0.377860   0.363212
    25  H    0.612189  -0.020193  -0.017225
    26  H   -0.020193   0.611404  -0.018640
    27  H   -0.017225  -0.018640   0.640285
 Mulliken charges:
               1
     1  C   -0.025814
     2  C   -0.075538
     3  N   -0.188183
     4  N    0.044610
     5  N   -0.014192
     6  C   -0.025313
     7  H    0.084903
     8  H    0.074704
     9  C   -0.000022
    10  C   -0.062153
    11  C   -0.063400
    12  C   -0.060160
    13  H    0.065617
    14  C   -0.060907
    15  H    0.060597
    16  C   -0.060535
    17  H    0.064627
    18  H    0.064592
    19  H    0.064740
    20  C   -0.165717
    21  H    0.070245
    22  H    0.076051
    23  H    0.074538
    24  C   -0.146921
    25  H    0.073448
    26  H    0.074902
    27  H    0.055281
 Sum of Mulliken charges =  -0.00000
 Mulliken charges with hydrogens summed into heavy atoms:
               1
     1  C   -0.025814
     2  C   -0.075538
     3  N   -0.188183
     4  N    0.044610
     5  N   -0.014192
     6  C    0.134294
     9  C   -0.000022
    10  C    0.003464
    11  C   -0.002804
    12  C    0.004467
    14  C    0.003686
    16  C    0.004205
    20  C    0.055117
    24  C    0.056710
 Electronic spatial extent (au):  <R**2>=           3335.1854
 Charge=             -0.0000 electrons
 Dipole moment (field-independent basis, Debye):
    X=             -1.3074    Y=              0.9209    Z=             -0.3181  Tot=              1.6305
 Quadrupole moment (field-independent basis, Debye-Ang):
   XX=            -74.6102   YY=            -76.1635   ZZ=            -74.9228
   XY=              3.8395   XZ=              0.7801   YZ=              1.5087
 Traceless Quadrupole moment (field-independent basis, Debye-Ang):
   XX=              0.6220   YY=             -0.9313   ZZ=              0.3094
   XY=              3.8395   XZ=              0.7801   YZ=              1.5087
 Octapole moment (field-independent basis, Debye-Ang**2):
  XXX=              8.8314  YYY=              1.8375  ZZZ=             -2.1741  XYY=              1.0839
  XXY=             -2.5594  XXZ=             11.6375  XZZ=             -0.8736  YZZ=             -0.5905
  YYZ=             -4.6861  XYZ=             -4.2746
 Hexadecapole moment (field-independent basis, Debye-Ang**3):
 XXXX=          -2953.5413 YYYY=           -649.4147 ZZZZ=           -594.8369 XXXY=             39.9463
 XXXZ=            -13.5568 YYYX=             14.1699 YYYZ=             12.2362 ZZZX=              0.9883
 ZZZY=              5.9199 XXYY=           -605.2664 XXZZ=           -587.3347 YYZZ=           -201.8497
 XXYZ=              6.3077 YYXZ=             -5.1720 ZZXY=             -4.1847
 N-N= 8.089731214132D+02 E-N=-2.970897626332D+03  KE= 5.745777300429D+02

 Test job not archived.
 1\1\GINC-NODE107\SP\RMP2-FC\STO-3G\C11H13N3\LIAOYT\30-Aug-2024\0\\# MP
 2 IOp(3/125=0333312000) geom=connectivity\\tmpdir/Subs_0_0.gjf\\0,1\C,
 0,1.298958,-0.14302,-0.422582\C,0,1.618059,-1.313337,-0.184712\N,0,-0.
 682907,-0.402831,-1.558934\N,0,-0.705721,-1.64323,-1.360614\N,0,-0.046
 953,-2.521043,-0.964919\C,0,-1.95948,0.334571,-1.605097\H,0,-1.650165,
 1.377907,-1.68916\H,0,-2.498258,0.07289,-2.525295\C,0,-2.855664,0.1365
 84,-0.398069\C,0,-2.462304,0.605153,0.863905\C,0,-4.081736,-0.524469,-
 0.525465\C,0,-3.285483,0.413318,1.972387\H,0,-1.508025,1.114877,0.9649
 11\C,0,-4.908111,-0.714582,0.584597\H,0,-4.393737,-0.893144,-1.500556\
 C,0,-4.510623,-0.246073,1.836587\H,0,-2.972206,0.780968,2.946353\H,0,-
 5.858456,-1.229447,0.469572\H,0,-5.150487,-0.393184,2.702821\C,0,2.519
 099,-2.333933,0.376089\H,0,3.57030743,-1.9597737,0.42803144\H,0,2.4826
 57,-3.25991,-0.209253\H,0,2.169814,-2.599387,1.384373\C,0,1.609821,1.2
 91962,-0.47913\H,0,2.39239389,1.52525526,0.28752318\H,0,2.004885,1.533
 473,-1.48141\H,0,0.64105304,1.93476709,-0.30255788\\Version=ES64L-G16R
 evA.03\State=1-A\HF=-579.9664259\MP2=-580.8793294\RMSD=7.049e-09\PG=C0
 1 [X(C11H13N3)]\\@


 THE GREAT THING ABOUT BEING IMPERFECT IS THE JOY IT BRINGS OTHERS.
   -- SIGN OUTSIDE LAKE AGASSIZ JR. HIGH SCHOOL, FARGO, N.D.
 Job cpu time:       0 days  0 hours  0 minutes 37.9 seconds.
 Elapsed time:       0 days  0 hours  0 minutes  2.7 seconds.
 File lengths (MBytes):  RWF=     10 Int=      0 D2E=      0 Chk=      2 Scr=      1
 Normal termination of Gaussian 16 at Fri Aug 30 10:28:18 2024.
Fri Aug 30 10:28:18 CST 2024
