 Entering Gaussian System, Link 0=g16
 Initial command:
 /share/apps/gaussian/g16/l1.exe "/tmp/55607.mgr/Gau-316215.inp" -scrdir="/tmp/55607.mgr/"
 Entering Link 1 = /share/apps/gaussian/g16/l1.exe PID=    316222.
  
 Copyright (c) 1988,1990,1992,1993,1995,1998,2003,2009,2016,
            Gaussian, Inc.  All Rights Reserved.
  
 This is part of the Gaussian(R) 16 program.  It is based on
 the Gaussian(R) 09 system (copyright 2009, Gaussian, Inc.),
 the Gaussian(R) 03 system (copyright 2003, Gaussian, Inc.),
 the Gaussian(R) 98 system (copyright 1998, Gaussian, Inc.),
 the Gaussian(R) 94 system (copyright 1995, Gaussian, Inc.),
 the Gaussian 92(TM) system (copyright 1992, Gaussian, Inc.),
 the Gaussian 90(TM) system (copyright 1990, Gaussian, Inc.),
 the Gaussian 88(TM) system (copyright 1988, Gaussian, Inc.),
 the Gaussian 86(TM) system (copyright 1986, Carnegie Mellon
 University), and the Gaussian 82(TM) system (copyright 1983,
 Carnegie Mellon University). Gaussian is a federally registered
 trademark of Gaussian, Inc.
  
 This software contains proprietary and confidential information,
 including trade secrets, belonging to Gaussian, Inc.
  
 This software is provided under written license and may be
 used, copied, transmitted, or stored only in accord with that
 written license.
  
 The following legend is applicable only to US Government
 contracts under FAR:
  
                    RESTRICTED RIGHTS LEGEND
  
 Use, reproduction and disclosure by the US Government is
 subject to restrictions as set forth in subparagraphs (a)
 and (c) of the Commercial Computer Software - Restricted
 Rights clause in FAR 52.227-19.
  
 Gaussian, Inc.
 340 Quinnipiac St., Bldg. 40, Wallingford CT 06492
  
  
 ---------------------------------------------------------------
 Warning -- This program may not be used in any manner that
 competes with the business of Gaussian, Inc. or will provide
 assistance to any competitor of Gaussian, Inc.  The licensee
 of this program is prohibited from giving any competitor of
 Gaussian, Inc. access to this program.  By using this program,
 the user acknowledges that Gaussian, Inc. is engaged in the
 business of creating and licensing software in the field of
 computational chemistry and represents and warrants to the
 licensee that it is not a competitor of Gaussian, Inc. and that
 it will not use this program in any manner prohibited above.
 ---------------------------------------------------------------
  

 Cite this work as:
 Gaussian 16, Revision A.03,
 M. J. Frisch, G. W. Trucks, H. B. Schlegel, G. E. Scuseria, 
 M. A. Robb, J. R. Cheeseman, G. Scalmani, V. Barone, 
 G. A. Petersson, H. Nakatsuji, X. Li, M. Caricato, A. V. Marenich, 
 J. Bloino, B. G. Janesko, R. Gomperts, B. Mennucci, H. P. Hratchian, 
 J. V. Ortiz, A. F. Izmaylov, J. L. Sonnenberg, D. Williams-Young, 
 F. Ding, F. Lipparini, F. Egidi, J. Goings, B. Peng, A. Petrone, 
 T. Henderson, D. Ranasinghe, V. G. Zakrzewski, J. Gao, N. Rega, 
 G. Zheng, W. Liang, M. Hada, M. Ehara, K. Toyota, R. Fukuda, 
 J. Hasegawa, M. Ishida, T. Nakajima, Y. Honda, O. Kitao, H. Nakai, 
 T. Vreven, K. Throssell, J. A. Montgomery, Jr., J. E. Peralta, 
 F. Ogliaro, M. J. Bearpark, J. J. Heyd, E. N. Brothers, K. N. Kudin, 
 V. N. Staroverov, T. A. Keith, R. Kobayashi, J. Normand, 
 K. Raghavachari, A. P. Rendell, J. C. Burant, S. S. Iyengar, 
 J. Tomasi, M. Cossi, J. M. Millam, M. Klene, C. Adamo, R. Cammi, 
 J. W. Ochterski, R. L. Martin, K. Morokuma, O. Farkas, 
 J. B. Foresman, and D. J. Fox, Gaussian, Inc., Wallingford CT, 2016.
 
 ******************************************
 Gaussian 16:  ES64L-G16RevA.03 25-Dec-2016
                 5-Jun-2019 
 ******************************************
 %nprocshared=4
 Will use up to    4 processors via shared memory.
 %mem=4GB
 -----------------------------------------
 # scrf=(cpcm,solvent=water) def2tzvp olyp
 -----------------------------------------
 1/38=1,172=1/1;
 2/12=2,17=6,18=5,40=1/2;
 3/5=44,7=101,11=2,25=1,30=1,70=2101,72=1,74=2002/1,2,3;
 4//1;
 5/5=2,38=5,53=1/2;
 6/7=2,8=2,9=2,10=2,28=1/1;
 99/5=1,9=1/99;
 ----------------------
 tmpdir/M1_conf_0_1.gjf
 ----------------------
 Symbolic Z-matrix:
 Charge = -1 Multiplicity = 1
 H                    -4.29445   1.51645  -0.00037 
 C                    -3.32439   1.26448   0.49761 
 H                    -2.69137   2.17194   0.35658 
 O                    -2.74329   0.10354   0.04058 
 H                    -3.56927   1.26287   1.59063 
 
                          Input orientation:                          
 ---------------------------------------------------------------------
 Center     Atomic      Atomic             Coordinates (Angstroms)
 Number     Number       Type             X           Y           Z
 ---------------------------------------------------------------------
      1          1           0       -4.294453    1.516445   -0.000373
      2          6           0       -3.324390    1.264476    0.497612
      3          1           0       -2.691372    2.171940    0.356579
      4          8           0       -2.743285    0.103544    0.040583
      5          1           0       -3.569268    1.262867    1.590630
 ---------------------------------------------------------------------
                    Distance matrix (angstroms):
                    1          2          3          4          5
     1  H    0.000000
     2  C    1.119151   0.000000
     3  H    1.768320   1.115389   0.000000
     4  O    2.098592   1.376344   2.093039   0.000000
     5  H    1.766773   1.120114   1.766351   2.104501   0.000000
 Stoichiometry    CH3O(1-)
 Framework group  C1[X(CH3O)]
 Deg. of freedom     9
 Full point group                 C1      NOp   1
 Largest Abelian subgroup         C1      NOp   1
 Largest concise Abelian subgroup C1      NOp   1
                         Standard orientation:                         
 ---------------------------------------------------------------------
 Center     Atomic      Atomic             Coordinates (Angstroms)
 Number     Number       Type             X           Y           Z
 ---------------------------------------------------------------------
      1          1           0        1.023850    0.935029   -0.410944
      2          6           0        0.566922   -0.000562   -0.000593
      3          1           0        1.016963   -0.822544   -0.605492
      4          8           0       -0.809420    0.000421    0.001028
      5          1           0        1.033015   -0.112481    1.011774
 ---------------------------------------------------------------------
 Rotational constants (GHZ):         160.5832030          26.9066892          26.9004599
 Standard basis: def2TZVP (5D, 7F)
 There are    90 symmetry adapted cartesian basis functions of A   symmetry.
 There are    80 symmetry adapted basis functions of A   symmetry.
    80 basis functions,   126 primitive gaussians,    90 cartesian basis functions
     9 alpha electrons        9 beta electrons
       nuclear repulsion energy        33.9231188706 Hartrees.
 NAtoms=    5 NActive=    5 NUniq=    5 SFac= 1.00D+00 NAtFMM=   60 NAOKFM=F Big=F
 Integral buffers will be    131072 words long.
 Raffenetti 2 integral format.
 Two-electron integral symmetry is turned on.
 ------------------------------------------------------------------------------
 Polarizable Continuum Model (PCM)
 =================================
 Model                : C-PCM.
 Atomic radii         : UFF (Universal Force Field).
 Polarization charges : Total charges.
 Charge compensation  : None.
 Solution method      : On-the-fly selection.
 Cavity type          : Scaled VdW (van der Waals Surface) (Alpha=1.100).
 Cavity algorithm     : GePol (No added spheres)
                        Default sphere list used, NSphG=    5.
                        Lebedev-Laikov grids with approx.  5.0 points / Ang**2.
                        Smoothing algorithm: York/Karplus (Gamma=1.0000).
                        Polarization charges: spherical gaussians, with
                                              point-specific exponents (IZeta= 3).
                        Self-potential: point-specific (ISelfS= 7).
                        Self-field    : sphere-specific E.n sum rule (ISelfD= 2).
 Solvent              : Water, Eps=  78.355300 Eps(inf)=   1.777849
 ------------------------------------------------------------------------------
 Spheres list:
 ISph  on   Nord     Re0    Alpha      Xe            Ye            Ze
    1   H      1    1.4430  1.100      1.023850      0.935029     -0.410944
    2   C      2    1.9255  1.100      0.566922     -0.000562     -0.000593
    3   H      3    1.4430  1.100      1.016963     -0.822544     -0.605492
    4   O      4    1.7500  1.100     -0.809420      0.000421      0.001028
    5   H      5    1.4430  1.100      1.033015     -0.112481      1.011774
 ------------------------------------------------------------------------------
 One-electron integrals computed using PRISM.
   1 Symmetry operations used in ECPInt.
 ECPInt:  NShTT=     595 NPrTT=    1764 LenC2=     595 LenP2D=    1623.
 LDataN:  DoStor=T MaxTD1= 6 Len=  172
 NBasis=    80 RedAO= T EigKep=  1.84D-03  NBF=    80
 NBsUse=    80 1.00D-06 EigRej= -1.00D+00 NBFU=    80
 ExpMin= 9.52D-02 ExpMax= 2.70D+04 ExpMxC= 9.22D+02 IAcc=3 IRadAn=         5 AccDes= 0.00D+00
 Harris functional with IExCor= 2002 and IRadAn=       5 diagonalized for initial guess.
 HarFok:  IExCor= 2002 AccDes= 0.00D+00 IRadAn=         5 IDoV= 1 UseB2=F ITyADJ=14
 ICtDFT=  3500011 ScaDFX=  1.000000  1.000000  1.000000  1.000000
 FoFCou: FMM=F IPFlag=           0 FMFlag=      100000 FMFlg1=           0
         NFxFlg=           0 DoJE=T BraDBF=F KetDBF=T FulRan=T
         wScrn=  0.000000 ICntrl=       500 IOpCl=  0 I1Cent=   200000004 NGrid=           0
         NMat0=    1 NMatS0=      1 NMatT0=    0 NMatD0=    1 NMtDS0=    0 NMtDT0=    0
 Petite list used in FoFCou.
 Keep J ints in memory in canonical form, NReq=8902651.
 Requested convergence on RMS density matrix=1.00D-08 within 128 cycles.
 Requested convergence on MAX density matrix=1.00D-06.
 Requested convergence on             energy=1.00D-06.
 No special actions if energy rises.
 Inv3:  Mode=1 IEnd=     1016172.
 Iteration    1 A*A^-1 deviation from unit magnitude is 3.22D-15 for    580.
 Iteration    1 A*A^-1 deviation from orthogonality  is 1.03D-15 for    550    230.
 Iteration    1 A^-1*A deviation from unit magnitude is 3.22D-15 for    580.
 Iteration    1 A^-1*A deviation from orthogonality  is 1.14D-15 for    465     88.
 Error on total polarization charges =  0.01614
 SCF Done:  E(RO-LYP) =  -115.211365864     A.U. after   12 cycles
            NFock= 12  Conv=0.21D-08     -V/T= 2.0032

 **********************************************************************

            Population analysis using the SCF density.

 **********************************************************************

 Orbital symmetries:
       Occupied  (A) (A) (A) (A) (A) (A) (A) (A) (A)
       Virtual   (A) (A) (A) (A) (A) (A) (A) (A) (A) (A) (A) (A)
                 (A) (A) (A) (A) (A) (A) (A) (A) (A) (A) (A) (A)
                 (A) (A) (A) (A) (A) (A) (A) (A) (A) (A) (A) (A)
                 (A) (A) (A) (A) (A) (A) (A) (A) (A) (A) (A) (A)
                 (A) (A) (A) (A) (A) (A) (A) (A) (A) (A) (A) (A)
                 (A) (A) (A) (A) (A) (A) (A) (A) (A) (A) (A)
 The electronic state is 1-A.
 Alpha  occ. eigenvalues --  -18.60396  -9.87785  -0.76984  -0.51730  -0.31394
 Alpha  occ. eigenvalues --   -0.31276  -0.25584  -0.10323  -0.10301
 Alpha virt. eigenvalues --    0.05119   0.11043   0.12483   0.12502   0.22639
 Alpha virt. eigenvalues --    0.22671   0.33797   0.38040   0.42998   0.43063
 Alpha virt. eigenvalues --    0.43174   0.50421   0.53920   0.53950   0.70741
 Alpha virt. eigenvalues --    0.70823   0.78748   0.93475   0.93527   1.03536
 Alpha virt. eigenvalues --    1.39866   1.39995   1.45475   1.51243   1.59766
 Alpha virt. eigenvalues --    1.60080   1.63694   1.65211   1.65251   1.95190
 Alpha virt. eigenvalues --    1.99929   2.00250   2.02225   2.24953   2.25286
 Alpha virt. eigenvalues --    2.25453   2.38963   2.39252   2.50545   2.50813
 Alpha virt. eigenvalues --    2.77768   2.78304   2.78997   2.91190   2.97806
 Alpha virt. eigenvalues --    2.97915   3.10563   3.19496   3.38714   3.38979
 Alpha virt. eigenvalues --    3.47523   3.54267   3.54412   4.06448   4.06594
 Alpha virt. eigenvalues --    4.19818   4.39610   5.17135   5.18214   5.36665
 Alpha virt. eigenvalues --    5.36686   5.78769   5.78862   5.91646   6.33138
 Alpha virt. eigenvalues --    6.33162   6.72480   6.72640   6.91029  22.13815
 Alpha virt. eigenvalues --   43.30453
          Condensed to atoms (all electrons):
               1          2          3          4          5
     1  H    1.008161   0.349280  -0.127716  -0.104337  -0.127857
     2  C    0.349280   4.524673   0.354871   0.559876   0.343195
     3  H   -0.127716   0.354871   1.000902  -0.104997  -0.128263
     4  O   -0.104337   0.559876  -0.104997   8.629523  -0.103019
     5  H   -0.127857   0.343195  -0.128263  -0.103019   1.014677
 Mulliken charges:
               1
     1  H    0.002470
     2  C   -0.131894
     3  H    0.005203
     4  O   -0.877046
     5  H    0.001267
 Sum of Mulliken charges =  -1.00000
 Mulliken charges with hydrogens summed into heavy atoms:
               1
     2  C   -0.122954
     4  O   -0.877046
 Electronic spatial extent (au):  <R**2>=             87.5532
 Charge=             -1.0000 electrons
 Dipole moment (field-independent basis, Debye):
    X=              3.0782    Y=             -0.0113    Z=             -0.0158  Tot=              3.0783
 Quadrupole moment (field-independent basis, Debye-Ang):
   XX=            -20.3837   YY=            -16.3974   ZZ=            -16.4163
   XY=             -0.0075   XZ=             -0.0007   YZ=              0.0117
 Traceless Quadrupole moment (field-independent basis, Debye-Ang):
   XX=             -2.6512   YY=              1.3350   ZZ=              1.3162
   XY=             -0.0075   XZ=             -0.0007   YZ=              0.0117
 Octapole moment (field-independent basis, Debye-Ang**2):
  XXX=             -1.0334  YYY=             -0.1130  ZZZ=             -0.2743  XYY=             -1.1752
  XXY=             -0.0210  XXZ=             -0.0272  XZZ=             -1.1975  YZZ=              0.0707
  YYZ=              0.2239  XYZ=              0.0144
 Hexadecapole moment (field-independent basis, Debye-Ang**3):
 XXXX=            -78.5811 YYYY=            -28.3168 ZZZZ=            -28.3787 XXXY=             -0.0381
 XXXZ=             -0.0386 YYYX=             -0.1977 YYYZ=              0.0305 ZZZX=             -0.5083
 ZZZY=              0.0292 XXYY=            -18.7123 XXZZ=            -18.7425 YYZZ=             -9.4450
 XXYZ=              0.0222 YYXZ=              0.4579 ZZXY=              0.1498
 N-N= 3.392311887061D+01 E-N=-3.441393058151D+02  KE= 1.148402462904D+02
 1\1\GINC-NODE97\SP\ROLYP\def2TZVP\C1H3O1(1-)\YANZ\05-Jun-2019\0\\# scr
 f=(cpcm,solvent=water) def2tzvp olyp\\tmpdir/M1_conf_0_1.gjf\\-1,1\H,0
 ,-4.294453,1.516445,-0.000373\C,0,-3.32439,1.264476,0.497612\H,0,-2.69
 1372,2.17194,0.356579\O,0,-2.743285,0.103544,0.040583\H,0,-3.569268,1.
 262867,1.59063\\Version=ES64L-G16RevA.03\State=1-A\HF=-115.2113659\RMS
 D=2.137e-09\Dipole=-0.5074221,1.0247402,0.3989575\Quadrupole=0.4599328
 ,-1.1089731,0.6490403,1.0628062,0.4137638,-0.8258562\PG=C01 [X(C1H3O1)
 ]\\@


      LET US REMEMBER, PLEASE, THAT THE SEARCH FOR THE CONSTITUTION
      OF THE WORLD IS ONE OF THE GREATEST AND NOBLEST PROBLEMS PRESENTED 
      BY NATURE.

                                                  -- GALILEO
 Job cpu time:       0 days  0 hours  0 minutes 21.5 seconds.
 Elapsed time:       0 days  0 hours  0 minutes  5.6 seconds.
 File lengths (MBytes):  RWF=     10 Int=      0 D2E=      0 Chk=      2 Scr=      1
 Normal termination of Gaussian 16 at Wed Jun  5 22:38:46 2019.
