 Entering Gaussian System, Link 0=g16
 Initial command:
 /share/apps/gaussian/g16/l1.exe "/tmp/55607.mgr/Gau-316213.inp" -scrdir="/tmp/55607.mgr/"
 Entering Link 1 = /share/apps/gaussian/g16/l1.exe PID=    316220.
  
 Copyright (c) 1988,1990,1992,1993,1995,1998,2003,2009,2016,
            Gaussian, Inc.  All Rights Reserved.
  
 This is part of the Gaussian(R) 16 program.  It is based on
 the Gaussian(R) 09 system (copyright 2009, Gaussian, Inc.),
 the Gaussian(R) 03 system (copyright 2003, Gaussian, Inc.),
 the Gaussian(R) 98 system (copyright 1998, Gaussian, Inc.),
 the Gaussian(R) 94 system (copyright 1995, Gaussian, Inc.),
 the Gaussian 92(TM) system (copyright 1992, Gaussian, Inc.),
 the Gaussian 90(TM) system (copyright 1990, Gaussian, Inc.),
 the Gaussian 88(TM) system (copyright 1988, Gaussian, Inc.),
 the Gaussian 86(TM) system (copyright 1986, Carnegie Mellon
 University), and the Gaussian 82(TM) system (copyright 1983,
 Carnegie Mellon University). Gaussian is a federally registered
 trademark of Gaussian, Inc.
  
 This software contains proprietary and confidential information,
 including trade secrets, belonging to Gaussian, Inc.
  
 This software is provided under written license and may be
 used, copied, transmitted, or stored only in accord with that
 written license.
  
 The following legend is applicable only to US Government
 contracts under FAR:
  
                    RESTRICTED RIGHTS LEGEND
  
 Use, reproduction and disclosure by the US Government is
 subject to restrictions as set forth in subparagraphs (a)
 and (c) of the Commercial Computer Software - Restricted
 Rights clause in FAR 52.227-19.
  
 Gaussian, Inc.
 340 Quinnipiac St., Bldg. 40, Wallingford CT 06492
  
  
 ---------------------------------------------------------------
 Warning -- This program may not be used in any manner that
 competes with the business of Gaussian, Inc. or will provide
 assistance to any competitor of Gaussian, Inc.  The licensee
 of this program is prohibited from giving any competitor of
 Gaussian, Inc. access to this program.  By using this program,
 the user acknowledges that Gaussian, Inc. is engaged in the
 business of creating and licensing software in the field of
 computational chemistry and represents and warrants to the
 licensee that it is not a competitor of Gaussian, Inc. and that
 it will not use this program in any manner prohibited above.
 ---------------------------------------------------------------
  

 Cite this work as:
 Gaussian 16, Revision A.03,
 M. J. Frisch, G. W. Trucks, H. B. Schlegel, G. E. Scuseria, 
 M. A. Robb, J. R. Cheeseman, G. Scalmani, V. Barone, 
 G. A. Petersson, H. Nakatsuji, X. Li, M. Caricato, A. V. Marenich, 
 J. Bloino, B. G. Janesko, R. Gomperts, B. Mennucci, H. P. Hratchian, 
 J. V. Ortiz, A. F. Izmaylov, J. L. Sonnenberg, D. Williams-Young, 
 F. Ding, F. Lipparini, F. Egidi, J. Goings, B. Peng, A. Petrone, 
 T. Henderson, D. Ranasinghe, V. G. Zakrzewski, J. Gao, N. Rega, 
 G. Zheng, W. Liang, M. Hada, M. Ehara, K. Toyota, R. Fukuda, 
 J. Hasegawa, M. Ishida, T. Nakajima, Y. Honda, O. Kitao, H. Nakai, 
 T. Vreven, K. Throssell, J. A. Montgomery, Jr., J. E. Peralta, 
 F. Ogliaro, M. J. Bearpark, J. J. Heyd, E. N. Brothers, K. N. Kudin, 
 V. N. Staroverov, T. A. Keith, R. Kobayashi, J. Normand, 
 K. Raghavachari, A. P. Rendell, J. C. Burant, S. S. Iyengar, 
 J. Tomasi, M. Cossi, J. M. Millam, M. Klene, C. Adamo, R. Cammi, 
 J. W. Ochterski, R. L. Martin, K. Morokuma, O. Farkas, 
 J. B. Foresman, and D. J. Fox, Gaussian, Inc., Wallingford CT, 2016.
 
 ******************************************
 Gaussian 16:  ES64L-G16RevA.03 25-Dec-2016
                 5-Jun-2019 
 ******************************************
 %nprocshared=4
 Will use up to    4 processors via shared memory.
 %mem=4GB
 -----------------------------------------
 # scrf=(cpcm,solvent=water) def2tzvp olyp
 -----------------------------------------
 1/38=1,172=1/1;
 2/12=2,17=6,18=5,40=1/2;
 3/5=44,7=101,11=2,25=1,30=1,70=2101,72=1,74=2002/1,2,3;
 4//1;
 5/5=2,38=5,53=1/2;
 6/7=2,8=2,9=2,10=2,28=1/1;
 99/5=1,9=1/99;
 ----------------------
 tmpdir/M1_conf_0_3.gjf
 ----------------------
 Symbolic Z-matrix:
 Charge =  0 Multiplicity = 1
 P                     2.80293  -0.10277  -1.222 
 O                     3.85518   1.0452   -1.01814 
 O                     2.09584   0.07103  -2.54137 
 H                     4.13168   1.18681  -0.09804 
 H                     2.0249   -0.26705  -0.17214 
 H                     3.58876  -1.27042  -1.2954 
 
                          Input orientation:                          
 ---------------------------------------------------------------------
 Center     Atomic      Atomic             Coordinates (Angstroms)
 Number     Number       Type             X           Y           Z
 ---------------------------------------------------------------------
      1         15           0        2.802928   -0.102767   -1.222003
      2          8           0        3.855182    1.045196   -1.018142
      3          8           0        2.095836    0.071032   -2.541370
      4          1           0        4.131679    1.186811   -0.098037
      5          1           0        2.024899   -0.267045   -0.172137
      6          1           0        3.588765   -1.270420   -1.295399
 ---------------------------------------------------------------------
                    Distance matrix (angstroms):
                    1          2          3          4          5
     1  P    0.000000
     2  O    1.570547   0.000000
     3  O    1.506955   2.522800   0.000000
     4  H    2.166077   0.971133   3.370385   0.000000
     5  H    1.317017   2.405751   2.394283   2.560803   0.000000
     6  H    1.409376   2.347324   2.362366   2.786829   2.171210
                    6
     6  H    0.000000
 Stoichiometry    H3O2P
 Framework group  C1[X(H3O2P)]
 Deg. of freedom    12
 Full point group                 C1      NOp   1
 Largest Abelian subgroup         C1      NOp   1
 Largest concise Abelian subgroup C1      NOp   1
                         Standard orientation:                         
 ---------------------------------------------------------------------
 Center     Atomic      Atomic             Coordinates (Angstroms)
 Number     Number       Type             X           Y           Z
 ---------------------------------------------------------------------
      1         15           0       -0.088207    0.378039   -0.007739
      2          8           0        1.224899   -0.482608    0.032931
      3          8           0       -1.297017   -0.521690   -0.021191
      4          1           0        2.027187   -0.017017   -0.254570
      5          1           0       -0.054686    1.306766   -0.940947
      6          1           0       -0.072445    1.074052    1.217683
 ---------------------------------------------------------------------
 Rotational constants (GHZ):          28.3879798           8.7563130           7.1609411
 Standard basis: def2TZVP (5D, 7F)
 There are   132 symmetry adapted cartesian basis functions of A   symmetry.
 There are   117 symmetry adapted basis functions of A   symmetry.
   117 basis functions,   195 primitive gaussians,   132 cartesian basis functions
    17 alpha electrons       17 beta electrons
       nuclear repulsion energy       124.6983961926 Hartrees.
 NAtoms=    6 NActive=    6 NUniq=    6 SFac= 1.00D+00 NAtFMM=   60 NAOKFM=F Big=F
 Integral buffers will be    131072 words long.
 Raffenetti 2 integral format.
 Two-electron integral symmetry is turned on.
 ------------------------------------------------------------------------------
 Polarizable Continuum Model (PCM)
 =================================
 Model                : C-PCM.
 Atomic radii         : UFF (Universal Force Field).
 Polarization charges : Total charges.
 Charge compensation  : None.
 Solution method      : On-the-fly selection.
 Cavity type          : Scaled VdW (van der Waals Surface) (Alpha=1.100).
 Cavity algorithm     : GePol (No added spheres)
                        Default sphere list used, NSphG=    6.
                        Lebedev-Laikov grids with approx.  5.0 points / Ang**2.
                        Smoothing algorithm: York/Karplus (Gamma=1.0000).
                        Polarization charges: spherical gaussians, with
                                              point-specific exponents (IZeta= 3).
                        Self-potential: point-specific (ISelfS= 7).
                        Self-field    : sphere-specific E.n sum rule (ISelfD= 2).
 Solvent              : Water, Eps=  78.355300 Eps(inf)=   1.777849
 ------------------------------------------------------------------------------
 Spheres list:
 ISph  on   Nord     Re0    Alpha      Xe            Ye            Ze
    1   P      1    2.0735  1.100     -0.088207      0.378039     -0.007739
    2   O      2    1.7500  1.100      1.224899     -0.482608      0.032931
    3   O      3    1.7500  1.100     -1.297017     -0.521690     -0.021191
    4   H      4    1.4430  1.100      2.027187     -0.017017     -0.254570
    5   H      5    1.4430  1.100     -0.054686      1.306766     -0.940947
    6   H      6    1.4430  1.100     -0.072445      1.074052      1.217683
 ------------------------------------------------------------------------------
 One-electron integrals computed using PRISM.
   1 Symmetry operations used in ECPInt.
 ECPInt:  NShTT=    1128 NPrTT=    3744 LenC2=    1124 LenP2D=    3218.
 LDataN:  DoStor=T MaxTD1= 6 Len=  172
 NBasis=   117 RedAO= T EigKep=  2.11D-03  NBF=   117
 NBsUse=   117 1.00D-06 EigRej= -1.00D+00 NBFU=   117
 ExpMin= 9.04D-02 ExpMax= 5.24D+04 ExpMxC= 1.79D+03 IAcc=3 IRadAn=         5 AccDes= 0.00D+00
 Harris functional with IExCor= 2002 and IRadAn=       5 diagonalized for initial guess.
 HarFok:  IExCor= 2002 AccDes= 0.00D+00 IRadAn=         5 IDoV= 1 UseB2=F ITyADJ=14
 ICtDFT=  3500011 ScaDFX=  1.000000  1.000000  1.000000  1.000000
 FoFCou: FMM=F IPFlag=           0 FMFlag=      100000 FMFlg1=           0
         NFxFlg=           0 DoJE=T BraDBF=F KetDBF=T FulRan=T
         wScrn=  0.000000 ICntrl=       500 IOpCl=  0 I1Cent=   200000004 NGrid=           0
         NMat0=    1 NMatS0=      1 NMatT0=    0 NMatD0=    1 NMtDS0=    0 NMtDT0=    0
 Petite list used in FoFCou.
 Keep J ints in memory in canonical form, NReq=27663592.
 Requested convergence on RMS density matrix=1.00D-08 within 128 cycles.
 Requested convergence on MAX density matrix=1.00D-06.
 Requested convergence on             energy=1.00D-06.
 No special actions if energy rises.
 Inv3:  Mode=1 IEnd=     1678512.
 Iteration    1 A*A^-1 deviation from unit magnitude is 3.11D-15 for    741.
 Iteration    1 A*A^-1 deviation from orthogonality  is 1.63D-15 for    733    117.
 Iteration    1 A^-1*A deviation from unit magnitude is 3.11D-15 for    741.
 Iteration    1 A^-1*A deviation from orthogonality  is 1.46D-15 for    601     55.
 Error on total polarization charges =  0.00810
 SCF Done:  E(RO-LYP) =  -493.690207110     A.U. after   12 cycles
            NFock= 12  Conv=0.13D-08     -V/T= 2.0016

 **********************************************************************

            Population analysis using the SCF density.

 **********************************************************************

 Orbital symmetries:
       Occupied  (A) (A) (A) (A) (A) (A) (A) (A) (A) (A) (A) (A)
                 (A) (A) (A) (A) (A)
       Virtual   (A) (A) (A) (A) (A) (A) (A) (A) (A) (A) (A) (A)
                 (A) (A) (A) (A) (A) (A) (A) (A) (A) (A) (A) (A)
                 (A) (A) (A) (A) (A) (A) (A) (A) (A) (A) (A) (A)
                 (A) (A) (A) (A) (A) (A) (A) (A) (A) (A) (A) (A)
                 (A) (A) (A) (A) (A) (A) (A) (A) (A) (A) (A) (A)
                 (A) (A) (A) (A) (A) (A) (A) (A) (A) (A) (A) (A)
                 (A) (A) (A) (A) (A) (A) (A) (A) (A) (A) (A) (A)
                 (A) (A) (A) (A) (A) (A) (A) (A) (A) (A) (A) (A)
                 (A) (A) (A) (A)
 The electronic state is 1-A.
 Alpha  occ. eigenvalues --  -76.36923 -18.80802 -18.71893  -6.40068  -4.61114
 Alpha  occ. eigenvalues --   -4.60849  -4.60779  -0.99062  -0.87428  -0.58696
 Alpha  occ. eigenvalues --   -0.50431  -0.41606  -0.37253  -0.33647  -0.30261
 Alpha  occ. eigenvalues --   -0.25621  -0.23847
 Alpha virt. eigenvalues --   -0.01046   0.00523   0.03379   0.04430   0.09175
 Alpha virt. eigenvalues --    0.16691   0.19903   0.22214   0.26593   0.28322
 Alpha virt. eigenvalues --    0.30032   0.31104   0.34689   0.39241   0.43199
 Alpha virt. eigenvalues --    0.44286   0.45642   0.48797   0.53215   0.57563
 Alpha virt. eigenvalues --    0.61549   0.62759   0.64085   0.75204   0.76478
 Alpha virt. eigenvalues --    1.04585   1.05865   1.08462   1.09869   1.12359
 Alpha virt. eigenvalues --    1.16141   1.22490   1.23981   1.28855   1.35419
 Alpha virt. eigenvalues --    1.37093   1.38772   1.48422   1.50538   1.56303
 Alpha virt. eigenvalues --    1.57716   1.60679   1.73331   1.80671   1.81961
 Alpha virt. eigenvalues --    1.84970   1.88481   1.93985   1.99041   2.02514
 Alpha virt. eigenvalues --    2.07313   2.10357   2.12894   2.16280   2.19265
 Alpha virt. eigenvalues --    2.24542   2.39186   2.46040   2.49224   2.60084
 Alpha virt. eigenvalues --    2.63945   2.66415   2.74977   2.78027   2.79557
 Alpha virt. eigenvalues --    2.84211   2.89015   3.36372   3.60626   3.73822
 Alpha virt. eigenvalues --    4.96200   4.98933   5.03146   5.05034   5.08421
 Alpha virt. eigenvalues --    5.09801   5.15802   5.18901   5.22342   5.24013
 Alpha virt. eigenvalues --    5.30010   5.33808   5.44633   6.00194   6.17827
 Alpha virt. eigenvalues --    6.20557   6.23881   6.38520   6.42482   6.52258
 Alpha virt. eigenvalues --    6.56734   6.62596   6.72889   6.85957   7.19366
 Alpha virt. eigenvalues --    7.51973   7.87023  15.87408  43.05772  43.15676
          Condensed to atoms (all electrons):
               1          2          3          4          5          6
     1  P   12.599579   0.380161   0.722278  -0.000720   0.353439   0.369980
     2  O    0.380161   7.876438  -0.056149   0.275654  -0.031873  -0.038056
     3  O    0.722278  -0.056149   8.010583   0.003100  -0.037062  -0.048656
     4  H   -0.000720   0.275654   0.003100   0.371829  -0.001239   0.001909
     5  H    0.353439  -0.031873  -0.037062  -0.001239   0.719620  -0.059764
     6  H    0.369980  -0.038056  -0.048656   0.001909  -0.059764   0.755951
 Mulliken charges:
               1
     1  P    0.575283
     2  O   -0.406174
     3  O   -0.594093
     4  H    0.349467
     5  H    0.056880
     6  H    0.018637
 Sum of Mulliken charges =  -0.00000
 Mulliken charges with hydrogens summed into heavy atoms:
               1
     1  P    0.650800
     2  O   -0.056707
     3  O   -0.594093
 Electronic spatial extent (au):  <R**2>=            201.5192
 Charge=              0.0000 electrons
 Dipole moment (field-independent basis, Debye):
    X=              4.9198    Y=              3.9885    Z=             -0.8523  Tot=              6.3906
 Quadrupole moment (field-independent basis, Debye-Ang):
   XX=            -24.5510   YY=            -24.8829   ZZ=            -23.7849
   XY=             -0.7402   XZ=             -1.3739   YZ=             -0.4983
 Traceless Quadrupole moment (field-independent basis, Debye-Ang):
   XX=             -0.1447   YY=             -0.4766   ZZ=              0.6214
   XY=             -0.7402   XZ=             -1.3739   YZ=             -0.4983
 Octapole moment (field-independent basis, Debye-Ang**2):
  XXX=             24.6338  YYY=              1.6047  ZZZ=             -1.0913  XYY=              1.3529
  XXY=              4.7644  XXZ=             -2.7079  XZZ=              1.5124  YZZ=              0.3519
  YYZ=             -0.6846  XYZ=              0.1405
 Hexadecapole moment (field-independent basis, Debye-Ang**3):
 XXXX=           -122.7874 YYYY=            -65.1754 ZZZZ=            -36.2530 XXXY=             -1.7762
 XXXZ=             -6.1607 YYYX=             -1.2236 YYYZ=             -1.5540 ZZZX=             -0.7533
 ZZZY=             -0.9291 XXYY=            -37.2281 XXZZ=            -30.7042 YYZZ=            -16.9355
 XXYZ=             -0.3287 YYXZ=             -0.1213 ZZXY=             -0.4291
 N-N= 1.246983961926D+02 E-N=-1.422198170297D+03  KE= 4.929069892637D+02
 1\1\GINC-NODE97\SP\ROLYP\def2TZVP\H3O2P1\YANZ\05-Jun-2019\0\\# scrf=(c
 pcm,solvent=water) def2tzvp olyp\\tmpdir/M1_conf_0_3.gjf\\0,1\P,0,2.80
 2928,-0.102767,-1.222003\O,0,3.855182,1.045196,-1.018142\O,0,2.095836,
 0.071032,-2.54137\H,0,4.131679,1.186811,-0.098037\H,0,2.02489897,-0.26
 704536,-0.17213744\H,0,3.58876455,-1.27042034,-1.29539854\\Version=ES6
 4L-G16RevA.03\State=1-A\HF=-493.6902071\RMSD=1.317e-09\Dipole=0.858678
 4,-0.1797975,2.356225\Quadrupole=-0.6358156,0.4142823,0.2215332,0.3081
 152,-0.6877175,0.882229\PG=C01 [X(H3O2P1)]\\@


 MORNING PEOPLE ARE USUALLY ADMIRED AS EARLY BIRDS.
 RECALL BEN FRANKLIN'S APHORISM THAT THE EARLY BIRD GETS THE WORM.
 I IDENTIFY WITH THE WORM. --  CRAIG JAGGER, MINNEAPOLIS, KS.
 Job cpu time:       0 days  0 hours  0 minutes 38.5 seconds.
 Elapsed time:       0 days  0 hours  0 minutes 10.1 seconds.
 File lengths (MBytes):  RWF=     16 Int=      0 D2E=      0 Chk=      2 Scr=      1
 Normal termination of Gaussian 16 at Wed Jun  5 22:38:51 2019.
