 Entering Gaussian System, Link 0=g16
 Initial command:
 /share/apps/gaussian/g16/l1.exe "/tmp/55607.mgr/Gau-316217.inp" -scrdir="/tmp/55607.mgr/"
 Entering Link 1 = /share/apps/gaussian/g16/l1.exe PID=    316223.
  
 Copyright (c) 1988,1990,1992,1993,1995,1998,2003,2009,2016,
            Gaussian, Inc.  All Rights Reserved.
  
 This is part of the Gaussian(R) 16 program.  It is based on
 the Gaussian(R) 09 system (copyright 2009, Gaussian, Inc.),
 the Gaussian(R) 03 system (copyright 2003, Gaussian, Inc.),
 the Gaussian(R) 98 system (copyright 1998, Gaussian, Inc.),
 the Gaussian(R) 94 system (copyright 1995, Gaussian, Inc.),
 the Gaussian 92(TM) system (copyright 1992, Gaussian, Inc.),
 the Gaussian 90(TM) system (copyright 1990, Gaussian, Inc.),
 the Gaussian 88(TM) system (copyright 1988, Gaussian, Inc.),
 the Gaussian 86(TM) system (copyright 1986, Carnegie Mellon
 University), and the Gaussian 82(TM) system (copyright 1983,
 Carnegie Mellon University). Gaussian is a federally registered
 trademark of Gaussian, Inc.
  
 This software contains proprietary and confidential information,
 including trade secrets, belonging to Gaussian, Inc.
  
 This software is provided under written license and may be
 used, copied, transmitted, or stored only in accord with that
 written license.
  
 The following legend is applicable only to US Government
 contracts under FAR:
  
                    RESTRICTED RIGHTS LEGEND
  
 Use, reproduction and disclosure by the US Government is
 subject to restrictions as set forth in subparagraphs (a)
 and (c) of the Commercial Computer Software - Restricted
 Rights clause in FAR 52.227-19.
  
 Gaussian, Inc.
 340 Quinnipiac St., Bldg. 40, Wallingford CT 06492
  
  
 ---------------------------------------------------------------
 Warning -- This program may not be used in any manner that
 competes with the business of Gaussian, Inc. or will provide
 assistance to any competitor of Gaussian, Inc.  The licensee
 of this program is prohibited from giving any competitor of
 Gaussian, Inc. access to this program.  By using this program,
 the user acknowledges that Gaussian, Inc. is engaged in the
 business of creating and licensing software in the field of
 computational chemistry and represents and warrants to the
 licensee that it is not a competitor of Gaussian, Inc. and that
 it will not use this program in any manner prohibited above.
 ---------------------------------------------------------------
  

 Cite this work as:
 Gaussian 16, Revision A.03,
 M. J. Frisch, G. W. Trucks, H. B. Schlegel, G. E. Scuseria, 
 M. A. Robb, J. R. Cheeseman, G. Scalmani, V. Barone, 
 G. A. Petersson, H. Nakatsuji, X. Li, M. Caricato, A. V. Marenich, 
 J. Bloino, B. G. Janesko, R. Gomperts, B. Mennucci, H. P. Hratchian, 
 J. V. Ortiz, A. F. Izmaylov, J. L. Sonnenberg, D. Williams-Young, 
 F. Ding, F. Lipparini, F. Egidi, J. Goings, B. Peng, A. Petrone, 
 T. Henderson, D. Ranasinghe, V. G. Zakrzewski, J. Gao, N. Rega, 
 G. Zheng, W. Liang, M. Hada, M. Ehara, K. Toyota, R. Fukuda, 
 J. Hasegawa, M. Ishida, T. Nakajima, Y. Honda, O. Kitao, H. Nakai, 
 T. Vreven, K. Throssell, J. A. Montgomery, Jr., J. E. Peralta, 
 F. Ogliaro, M. J. Bearpark, J. J. Heyd, E. N. Brothers, K. N. Kudin, 
 V. N. Staroverov, T. A. Keith, R. Kobayashi, J. Normand, 
 K. Raghavachari, A. P. Rendell, J. C. Burant, S. S. Iyengar, 
 J. Tomasi, M. Cossi, J. M. Millam, M. Klene, C. Adamo, R. Cammi, 
 J. W. Ochterski, R. L. Martin, K. Morokuma, O. Farkas, 
 J. B. Foresman, and D. J. Fox, Gaussian, Inc., Wallingford CT, 2016.
 
 ******************************************
 Gaussian 16:  ES64L-G16RevA.03 25-Dec-2016
                 5-Jun-2019 
 ******************************************
 %nprocshared=4
 Will use up to    4 processors via shared memory.
 %mem=4GB
 -----------------------------------------
 # scrf=(cpcm,solvent=water) def2tzvp olyp
 -----------------------------------------
 1/38=1,172=1/1;
 2/12=2,17=6,18=5,40=1/2;
 3/5=44,7=101,11=2,25=1,30=1,70=2101,72=1,74=2002/1,2,3;
 4//1;
 5/5=2,38=5,53=1/2;
 6/7=2,8=2,9=2,10=2,28=1/1;
 99/5=1,9=1/99;
 ----------------------
 tmpdir/M1_conf_0_0.gjf
 ----------------------
 Symbolic Z-matrix:
 Charge =  0 Multiplicity = 1
 C                    -0.32331   0.00606   2.57451 
 H                     0.55775   0.63048   2.73804 
 H                    -0.40717  -0.73022   3.3737 
 H                    -1.22345   0.61787   2.52844 
 H                    -0.21175  -0.62496   1.5684 
 
                          Input orientation:                          
 ---------------------------------------------------------------------
 Center     Atomic      Atomic             Coordinates (Angstroms)
 Number     Number       Type             X           Y           Z
 ---------------------------------------------------------------------
      1          6           0       -0.323313    0.006058    2.574506
      2          1           0        0.557745    0.630480    2.738039
      3          1           0       -0.407166   -0.730221    3.373703
      4          1           0       -1.223445    0.617866    2.528437
      5          1           0       -0.211752   -0.624956    1.568402
 ---------------------------------------------------------------------
                    Distance matrix (angstroms):
                    1          2          3          4          5
     1  C    0.000000
     2  H    1.092204   0.000000
     3  H    1.089887   1.785113   0.000000
     4  H    1.089343   1.793524   1.788330   0.000000
     5  H    1.192841   1.880504   1.818895   1.868100   0.000000
 Stoichiometry    CH4
 Framework group  C1[X(CH4)]
 Deg. of freedom     9
 Full point group                 C1      NOp   1
 Largest Abelian subgroup         C1      NOp   1
 Largest concise Abelian subgroup C1      NOp   1
                         Standard orientation:                         
 ---------------------------------------------------------------------
 Center     Atomic      Atomic             Coordinates (Angstroms)
 Number     Number       Type             X           Y           Z
 ---------------------------------------------------------------------
      1          6           0        0.015729    0.001240   -0.001889
      2          1           0        0.577849   -0.770815   -0.531853
      3          1           0        0.006690   -0.216475    1.065993
      4          1           0        0.449469    0.983866   -0.183508
      5          1           0       -1.128385   -0.004014   -0.339298
 ---------------------------------------------------------------------
 Rotational constants (GHZ):         157.8350913         148.3737911         146.5955168
 Standard basis: def2TZVP (5D, 7F)
 There are    60 symmetry adapted cartesian basis functions of A   symmetry.
 There are    55 symmetry adapted basis functions of A   symmetry.
    55 basis functions,    83 primitive gaussians,    60 cartesian basis functions
     5 alpha electrons        5 beta electrons
       nuclear repulsion energy        13.1396510100 Hartrees.
 NAtoms=    5 NActive=    5 NUniq=    5 SFac= 1.00D+00 NAtFMM=   60 NAOKFM=F Big=F
 Integral buffers will be    131072 words long.
 Raffenetti 2 integral format.
 Two-electron integral symmetry is turned on.
 ------------------------------------------------------------------------------
 Polarizable Continuum Model (PCM)
 =================================
 Model                : C-PCM.
 Atomic radii         : UFF (Universal Force Field).
 Polarization charges : Total charges.
 Charge compensation  : None.
 Solution method      : On-the-fly selection.
 Cavity type          : Scaled VdW (van der Waals Surface) (Alpha=1.100).
 Cavity algorithm     : GePol (No added spheres)
                        Default sphere list used, NSphG=    5.
                        Lebedev-Laikov grids with approx.  5.0 points / Ang**2.
                        Smoothing algorithm: York/Karplus (Gamma=1.0000).
                        Polarization charges: spherical gaussians, with
                                              point-specific exponents (IZeta= 3).
                        Self-potential: point-specific (ISelfS= 7).
                        Self-field    : sphere-specific E.n sum rule (ISelfD= 2).
 Solvent              : Water, Eps=  78.355300 Eps(inf)=   1.777849
 ------------------------------------------------------------------------------
 Spheres list:
 ISph  on   Nord     Re0    Alpha      Xe            Ye            Ze
    1   C      1    1.9255  1.100      0.015729      0.001240     -0.001889
    2   H      2    1.4430  1.100      0.577849     -0.770815     -0.531853
    3   H      3    1.4430  1.100      0.006690     -0.216475      1.065993
    4   H      4    1.4430  1.100      0.449469      0.983866     -0.183508
    5   H      5    1.4430  1.100     -1.128385     -0.004014     -0.339298
 ------------------------------------------------------------------------------
 One-electron integrals computed using PRISM.
   1 Symmetry operations used in ECPInt.
 ECPInt:  NShTT=     378 NPrTT=    1024 LenC2=     379 LenP2D=     987.
 LDataN:  DoStor=T MaxTD1= 6 Len=  172
 NBasis=    55 RedAO= T EigKep=  1.62D-03  NBF=    55
 NBsUse=    55 1.00D-06 EigRej= -1.00D+00 NBFU=    55
 ExpMin= 9.52D-02 ExpMax= 1.36D+04 ExpMxC= 4.63D+02 IAcc=3 IRadAn=         5 AccDes= 0.00D+00
 Harris functional with IExCor= 2002 and IRadAn=       5 diagonalized for initial guess.
 HarFok:  IExCor= 2002 AccDes= 0.00D+00 IRadAn=         5 IDoV= 1 UseB2=F ITyADJ=14
 ICtDFT=  3500011 ScaDFX=  1.000000  1.000000  1.000000  1.000000
 FoFCou: FMM=F IPFlag=           0 FMFlag=      100000 FMFlg1=           0
         NFxFlg=           0 DoJE=T BraDBF=F KetDBF=T FulRan=T
         wScrn=  0.000000 ICntrl=       500 IOpCl=  0 I1Cent=   200000004 NGrid=           0
         NMat0=    1 NMatS0=      1 NMatT0=    0 NMatD0=    1 NMtDS0=    0 NMtDT0=    0
 Petite list used in FoFCou.
 Keep J ints in memory in canonical form, NReq=4722199.
 Requested convergence on RMS density matrix=1.00D-08 within 128 cycles.
 Requested convergence on MAX density matrix=1.00D-06.
 Requested convergence on             energy=1.00D-06.
 No special actions if energy rises.
 Inv3:  Mode=1 IEnd=      741027.
 Iteration    1 A*A^-1 deviation from unit magnitude is 2.44D-15 for    114.
 Iteration    1 A*A^-1 deviation from orthogonality  is 2.17D-15 for    456    119.
 Iteration    1 A^-1*A deviation from unit magnitude is 2.22D-15 for    453.
 Iteration    1 A^-1*A deviation from orthogonality  is 1.71D-15 for    360    183.
 Error on total polarization charges =  0.00938
 SCF Done:  E(RO-LYP) =  -40.5047451484     A.U. after    8 cycles
            NFock=  8  Conv=0.64D-08     -V/T= 2.0069

 **********************************************************************

            Population analysis using the SCF density.

 **********************************************************************

 Orbital symmetries:
       Occupied  (A) (A) (A) (A) (A)
       Virtual   (A) (A) (A) (A) (A) (A) (A) (A) (A) (A) (A) (A)
                 (A) (A) (A) (A) (A) (A) (A) (A) (A) (A) (A) (A)
                 (A) (A) (A) (A) (A) (A) (A) (A) (A) (A) (A) (A)
                 (A) (A) (A) (A) (A) (A) (A) (A) (A) (A) (A) (A)
                 (A) (A)
 The electronic state is 1-A.
 Alpha  occ. eigenvalues --   -9.88900  -0.62001  -0.34606  -0.34533  -0.32665
 Alpha virt. eigenvalues --    0.02300   0.08673   0.10186   0.10270   0.17694
 Alpha virt. eigenvalues --    0.17720   0.18319   0.36531   0.39380   0.42894
 Alpha virt. eigenvalues --    0.43047   0.47071   0.55815   0.56080   0.89458
 Alpha virt. eigenvalues --    0.89540   0.89911   1.41089   1.42217   1.43223
 Alpha virt. eigenvalues --    1.45050   1.46287   1.46507   1.47973   1.88722
 Alpha virt. eigenvalues --    1.90296   1.91648   1.94867   2.13880   2.15900
 Alpha virt. eigenvalues --    2.17147   2.30993   2.35145   2.47554   2.49654
 Alpha virt. eigenvalues --    2.50444   2.86621   2.88096   2.91270   3.21202
 Alpha virt. eigenvalues --    3.25044   3.29016   3.37741   3.40042   3.42202
 Alpha virt. eigenvalues --    3.97004   4.09429   4.10665   4.35914  21.86522
          Condensed to atoms (all electrons):
               1          2          3          4          5
     1  C    4.907183   0.401665   0.401915   0.402335   0.380219
     2  H    0.401665   0.538613  -0.023726  -0.023895  -0.019269
     3  H    0.401915  -0.023726   0.542668  -0.023121  -0.024208
     4  H    0.402335  -0.023895  -0.023121   0.538015  -0.020280
     5  H    0.380219  -0.019269  -0.024208  -0.020280   0.570249
 Mulliken charges:
               1
     1  C   -0.493317
     2  H    0.126611
     3  H    0.126471
     4  H    0.126946
     5  H    0.113289
 Sum of Mulliken charges =   0.00000
 Mulliken charges with hydrogens summed into heavy atoms:
               1
     1  C    0.000000
 Electronic spatial extent (au):  <R**2>=             36.7749
 Charge=              0.0000 electrons
 Dipole moment (field-independent basis, Debye):
    X=              0.0650    Y=             -0.0024    Z=              0.0529  Tot=              0.0839
 Quadrupole moment (field-independent basis, Debye-Ang):
   XX=             -8.4564   YY=             -8.4693   ZZ=             -8.5804
   XY=              0.0019   XZ=             -0.0982   YZ=              0.0000
 Traceless Quadrupole moment (field-independent basis, Debye-Ang):
   XX=              0.0457   YY=              0.0327   ZZ=             -0.0784
   XY=              0.0019   XZ=             -0.0982   YZ=              0.0000
 Octapole moment (field-independent basis, Debye-Ang**2):
  XXX=             -0.4692  YYY=              0.3829  ZZZ=              0.9277  XYY=              0.7395
  XXY=             -0.0539  XXZ=             -0.4086  XZZ=              0.1705  YZZ=             -0.3288
  YYZ=             -0.2922  XYZ=              0.1241
 Hexadecapole moment (field-independent basis, Debye-Ang**3):
 XXXX=            -17.8552 YYYY=            -16.4838 ZZZZ=            -16.4840 XXXY=             -0.0630
 XXXZ=              0.2074 YYYX=              0.2070 YYYZ=              0.0725 ZZZX=             -0.2898
 ZZZY=             -0.1935 XXYY=             -5.8650 XXZZ=             -6.0778 YYZZ=             -5.7361
 XXYZ=              0.1278 YYXZ=             -0.4034 ZZXY=             -0.1357
 N-N= 1.313965101001D+01 E-N=-1.195308108042D+02  KE= 4.022746218737D+01
 1\1\GINC-NODE97\SP\ROLYP\def2TZVP\C1H4\YANZ\05-Jun-2019\0\\# scrf=(cpc
 m,solvent=water) def2tzvp olyp\\tmpdir/M1_conf_0_0.gjf\\0,1\C,0,-0.323
 313,0.006058,2.574506\H,0,0.557745,0.63048,2.738039\H,0,-0.407166,-0.7
 30221,3.373703\H,0,-1.223445,0.617866,2.528437\H,0,-0.2117515,-0.62495
 623,1.56840225\\Version=ES64L-G16RevA.03\State=1-A\HF=-40.5047451\RMSD
 =6.404e-09\Dipole=-0.0051161,0.0053357,0.0321552\Quadrupole=0.0176533,
 0.0654573,-0.0831106,-0.001503,0.0291975,0.0359601\PG=C01 [X(C1H4)]\\@


 THE TEST OF A FIRST RATE INTELLIGENCE IS THE ABILITY TO HOLD TWO OPPOSED
 IDEAS IN THE MIND AT THE SAME TIME, AND STILL RETAIN THE ABILITY TO FUNCTION.
 ONE SHOULD, FOR EXAMPLE, BE ABLE TO SEE THAT THINGS ARE HOPELESS AND YET BE
 DETERMINED TO MAKE THEM OTHERWISE.

                                                       -- F. SCOTT FITZGERALD
 Job cpu time:       0 days  0 hours  0 minutes 12.2 seconds.
 Elapsed time:       0 days  0 hours  0 minutes  3.2 seconds.
 File lengths (MBytes):  RWF=     10 Int=      0 D2E=      0 Chk=      1 Scr=      1
 Normal termination of Gaussian 16 at Wed Jun  5 22:38:44 2019.
