 Entering Gaussian System, Link 0=g16
 Initial command:
 /share/apps/gaussian/g16/l1.exe "/tmp/55607.mgr/Gau-316212.inp" -scrdir="/tmp/55607.mgr/"
 Entering Link 1 = /share/apps/gaussian/g16/l1.exe PID=    316218.
  
 Copyright (c) 1988,1990,1992,1993,1995,1998,2003,2009,2016,
            Gaussian, Inc.  All Rights Reserved.
  
 This is part of the Gaussian(R) 16 program.  It is based on
 the Gaussian(R) 09 system (copyright 2009, Gaussian, Inc.),
 the Gaussian(R) 03 system (copyright 2003, Gaussian, Inc.),
 the Gaussian(R) 98 system (copyright 1998, Gaussian, Inc.),
 the Gaussian(R) 94 system (copyright 1995, Gaussian, Inc.),
 the Gaussian 92(TM) system (copyright 1992, Gaussian, Inc.),
 the Gaussian 90(TM) system (copyright 1990, Gaussian, Inc.),
 the Gaussian 88(TM) system (copyright 1988, Gaussian, Inc.),
 the Gaussian 86(TM) system (copyright 1986, Carnegie Mellon
 University), and the Gaussian 82(TM) system (copyright 1983,
 Carnegie Mellon University). Gaussian is a federally registered
 trademark of Gaussian, Inc.
  
 This software contains proprietary and confidential information,
 including trade secrets, belonging to Gaussian, Inc.
  
 This software is provided under written license and may be
 used, copied, transmitted, or stored only in accord with that
 written license.
  
 The following legend is applicable only to US Government
 contracts under FAR:
  
                    RESTRICTED RIGHTS LEGEND
  
 Use, reproduction and disclosure by the US Government is
 subject to restrictions as set forth in subparagraphs (a)
 and (c) of the Commercial Computer Software - Restricted
 Rights clause in FAR 52.227-19.
  
 Gaussian, Inc.
 340 Quinnipiac St., Bldg. 40, Wallingford CT 06492
  
  
 ---------------------------------------------------------------
 Warning -- This program may not be used in any manner that
 competes with the business of Gaussian, Inc. or will provide
 assistance to any competitor of Gaussian, Inc.  The licensee
 of this program is prohibited from giving any competitor of
 Gaussian, Inc. access to this program.  By using this program,
 the user acknowledges that Gaussian, Inc. is engaged in the
 business of creating and licensing software in the field of
 computational chemistry and represents and warrants to the
 licensee that it is not a competitor of Gaussian, Inc. and that
 it will not use this program in any manner prohibited above.
 ---------------------------------------------------------------
  

 Cite this work as:
 Gaussian 16, Revision A.03,
 M. J. Frisch, G. W. Trucks, H. B. Schlegel, G. E. Scuseria, 
 M. A. Robb, J. R. Cheeseman, G. Scalmani, V. Barone, 
 G. A. Petersson, H. Nakatsuji, X. Li, M. Caricato, A. V. Marenich, 
 J. Bloino, B. G. Janesko, R. Gomperts, B. Mennucci, H. P. Hratchian, 
 J. V. Ortiz, A. F. Izmaylov, J. L. Sonnenberg, D. Williams-Young, 
 F. Ding, F. Lipparini, F. Egidi, J. Goings, B. Peng, A. Petrone, 
 T. Henderson, D. Ranasinghe, V. G. Zakrzewski, J. Gao, N. Rega, 
 G. Zheng, W. Liang, M. Hada, M. Ehara, K. Toyota, R. Fukuda, 
 J. Hasegawa, M. Ishida, T. Nakajima, Y. Honda, O. Kitao, H. Nakai, 
 T. Vreven, K. Throssell, J. A. Montgomery, Jr., J. E. Peralta, 
 F. Ogliaro, M. J. Bearpark, J. J. Heyd, E. N. Brothers, K. N. Kudin, 
 V. N. Staroverov, T. A. Keith, R. Kobayashi, J. Normand, 
 K. Raghavachari, A. P. Rendell, J. C. Burant, S. S. Iyengar, 
 J. Tomasi, M. Cossi, J. M. Millam, M. Klene, C. Adamo, R. Cammi, 
 J. W. Ochterski, R. L. Martin, K. Morokuma, O. Farkas, 
 J. B. Foresman, and D. J. Fox, Gaussian, Inc., Wallingford CT, 2016.
 
 ******************************************
 Gaussian 16:  ES64L-G16RevA.03 25-Dec-2016
                 5-Jun-2019 
 ******************************************
 %nprocshared=4
 Will use up to    4 processors via shared memory.
 %mem=4GB
 -----------------------------------------
 # scrf=(cpcm,solvent=water) def2tzvp olyp
 -----------------------------------------
 1/38=1,172=1/1;
 2/12=2,17=6,18=5,40=1/2;
 3/5=44,7=101,11=2,25=1,30=1,70=2101,72=1,74=2002/1,2,3;
 4//1;
 5/5=2,38=5,53=1/2;
 6/7=2,8=2,9=2,10=2,28=1/1;
 99/5=1,9=1/99;
 ----------------------
 tmpdir/M1_conf_0_4.gjf
 ----------------------
 Symbolic Z-matrix:
 Charge =  0 Multiplicity = 1
 P                     3.50242  -2.64579  -2.38225 
 O                     2.05658  -2.80618  -2.74833 
 O                     4.33788  -2.3162   -3.66662 
 O                     4.20287  -3.89842  -1.75404 
 H                     5.29089  -2.18503  -3.52889 
 H                     3.82086  -4.21584  -0.91867 
 H                     3.68917  -1.63544  -1.46194 
 
                          Input orientation:                          
 ---------------------------------------------------------------------
 Center     Atomic      Atomic             Coordinates (Angstroms)
 Number     Number       Type             X           Y           Z
 ---------------------------------------------------------------------
      1         15           0        3.502420   -2.645789   -2.382251
      2          8           0        2.056584   -2.806178   -2.748333
      3          8           0        4.337885   -2.316203   -3.666618
      4          8           0        4.202866   -3.898417   -1.754044
      5          1           0        5.290895   -2.185034   -3.528891
      6          1           0        3.820858   -4.215839   -0.918668
      7          1           0        3.689167   -1.635436   -1.461936
 ---------------------------------------------------------------------
                    Distance matrix (angstroms):
                    1          2          3          4          5
     1  P    0.000000
     2  O    1.500061   0.000000
     3  O    1.567236   2.507520   0.000000
     4  O    1.566635   2.605403   2.485874   0.000000
     5  H    2.173872   3.384650   0.971804   2.696214   0.000000
     6  H    2.169916   2.906455   3.380409   0.971874   3.619177
     7  H    1.379372   2.385536   2.396853   2.338867   2.672058
                    6          7
     6  H    0.000000
     7  H    2.640258   0.000000
 Stoichiometry    H3O3P
 Framework group  C1[X(H3O3P)]
 Deg. of freedom    15
 Full point group                 C1      NOp   1
 Largest Abelian subgroup         C1      NOp   1
 Largest concise Abelian subgroup C1      NOp   1
                         Standard orientation:                         
 ---------------------------------------------------------------------
 Center     Atomic      Atomic             Coordinates (Angstroms)
 Number     Number       Type             X           Y           Z
 ---------------------------------------------------------------------
      1         15           0       -0.010803    0.098184    0.257427
      2          8           0       -0.046789    1.511157   -0.244963
      3          8           0        1.313884   -0.594834   -0.212848
      4          8           0       -1.159255   -0.844794   -0.238755
      5          1           0        1.433437   -1.516044    0.072599
      6          1           0       -2.059453   -0.570790    0.004362
      7          1           0       -0.074667    0.041846    1.634167
 ---------------------------------------------------------------------
 Rotational constants (GHZ):           8.1229395           7.8468693           4.5130486
 Standard basis: def2TZVP (5D, 7F)
 There are   168 symmetry adapted cartesian basis functions of A   symmetry.
 There are   148 symmetry adapted basis functions of A   symmetry.
   148 basis functions,   246 primitive gaussians,   168 cartesian basis functions
    21 alpha electrons       21 beta electrons
       nuclear repulsion energy       196.7146570116 Hartrees.
 NAtoms=    7 NActive=    7 NUniq=    7 SFac= 1.00D+00 NAtFMM=   60 NAOKFM=F Big=F
 Integral buffers will be    131072 words long.
 Raffenetti 2 integral format.
 Two-electron integral symmetry is turned on.
 ------------------------------------------------------------------------------
 Polarizable Continuum Model (PCM)
 =================================
 Model                : C-PCM.
 Atomic radii         : UFF (Universal Force Field).
 Polarization charges : Total charges.
 Charge compensation  : None.
 Solution method      : On-the-fly selection.
 Cavity type          : Scaled VdW (van der Waals Surface) (Alpha=1.100).
 Cavity algorithm     : GePol (No added spheres)
                        Default sphere list used, NSphG=    7.
                        Lebedev-Laikov grids with approx.  5.0 points / Ang**2.
                        Smoothing algorithm: York/Karplus (Gamma=1.0000).
                        Polarization charges: spherical gaussians, with
                                              point-specific exponents (IZeta= 3).
                        Self-potential: point-specific (ISelfS= 7).
                        Self-field    : sphere-specific E.n sum rule (ISelfD= 2).
 Solvent              : Water, Eps=  78.355300 Eps(inf)=   1.777849
 ------------------------------------------------------------------------------
 Spheres list:
 ISph  on   Nord     Re0    Alpha      Xe            Ye            Ze
    1   P      1    2.0735  1.100     -0.010803      0.098184      0.257427
    2   O      2    1.7500  1.100     -0.046789      1.511157     -0.244963
    3   O      3    1.7500  1.100      1.313884     -0.594834     -0.212848
    4   O      4    1.7500  1.100     -1.159255     -0.844794     -0.238755
    5   H      5    1.4430  1.100      1.433437     -1.516044      0.072599
    6   H      6    1.4430  1.100     -2.059453     -0.570790      0.004362
    7   H      7    1.4430  1.100     -0.074667      0.041846      1.634167
 ------------------------------------------------------------------------------
 One-electron integrals computed using PRISM.
   1 Symmetry operations used in ECPInt.
 ECPInt:  NShTT=    1711 NPrTT=    5676 LenC2=    1699 LenP2D=    4725.
 LDataN:  DoStor=T MaxTD1= 6 Len=  172
 NBasis=   148 RedAO= T EigKep=  1.57D-03  NBF=   148
 NBsUse=   148 1.00D-06 EigRej= -1.00D+00 NBFU=   148
 ExpMin= 9.04D-02 ExpMax= 5.24D+04 ExpMxC= 1.79D+03 IAcc=3 IRadAn=         5 AccDes= 0.00D+00
 Harris functional with IExCor= 2002 and IRadAn=       5 diagonalized for initial guess.
 HarFok:  IExCor= 2002 AccDes= 0.00D+00 IRadAn=         5 IDoV= 1 UseB2=F ITyADJ=14
 ICtDFT=  3500011 ScaDFX=  1.000000  1.000000  1.000000  1.000000
 FoFCou: FMM=F IPFlag=           0 FMFlag=      100000 FMFlg1=           0
         NFxFlg=           0 DoJE=T BraDBF=F KetDBF=T FulRan=T
         wScrn=  0.000000 ICntrl=       500 IOpCl=  0 I1Cent=   200000004 NGrid=           0
         NMat0=    1 NMatS0=      1 NMatT0=    0 NMatD0=    1 NMtDS0=    0 NMtDT0=    0
 Petite list used in FoFCou.
 Keep J ints in memory in canonical form, NReq=64775784.
 Requested convergence on RMS density matrix=1.00D-08 within 128 cycles.
 Requested convergence on MAX density matrix=1.00D-06.
 Requested convergence on             energy=1.00D-06.
 No special actions if energy rises.
 Inv3:  Mode=1 IEnd=     2162403.
 Iteration    1 A*A^-1 deviation from unit magnitude is 2.89D-15 for    836.
 Iteration    1 A*A^-1 deviation from orthogonality  is 1.68D-15 for    805     53.
 Iteration    1 A^-1*A deviation from unit magnitude is 2.89D-15 for     50.
 Iteration    1 A^-1*A deviation from orthogonality  is 1.08D-15 for    819    531.
 Error on total polarization charges =  0.00763
 SCF Done:  E(RO-LYP) =  -568.984731535     A.U. after   12 cycles
            NFock= 12  Conv=0.16D-08     -V/T= 2.0019

 **********************************************************************

            Population analysis using the SCF density.

 **********************************************************************

 Orbital symmetries:
       Occupied  (A) (A) (A) (A) (A) (A) (A) (A) (A) (A) (A) (A)
                 (A) (A) (A) (A) (A) (A) (A) (A) (A)
       Virtual   (A) (A) (A) (A) (A) (A) (A) (A) (A) (A) (A) (A)
                 (A) (A) (A) (A) (A) (A) (A) (A) (A) (A) (A) (A)
                 (A) (A) (A) (A) (A) (A) (A) (A) (A) (A) (A) (A)
                 (A) (A) (A) (A) (A) (A) (A) (A) (A) (A) (A) (A)
                 (A) (A) (A) (A) (A) (A) (A) (A) (A) (A) (A) (A)
                 (A) (A) (A) (A) (A) (A) (A) (A) (A) (A) (A) (A)
                 (A) (A) (A) (A) (A) (A) (A) (A) (A) (A) (A) (A)
                 (A) (A) (A) (A) (A) (A) (A) (A) (A) (A) (A) (A)
                 (A) (A) (A) (A) (A) (A) (A) (A) (A) (A) (A) (A)
                 (A) (A) (A) (A) (A) (A) (A) (A) (A) (A) (A) (A)
                 (A) (A) (A) (A) (A) (A) (A)
 The electronic state is 1-A.
 Alpha  occ. eigenvalues --  -76.39207 -18.80890 -18.80625 -18.72040  -6.41782
 Alpha  occ. eigenvalues --   -4.62864  -4.62701  -4.62445  -1.01147  -0.96777
 Alpha  occ. eigenvalues --   -0.87387  -0.59455  -0.52348  -0.47666  -0.39642
 Alpha  occ. eigenvalues --   -0.35954  -0.34938  -0.32438  -0.30252  -0.25563
 Alpha  occ. eigenvalues --   -0.25048
 Alpha virt. eigenvalues --   -0.00293   0.01287   0.04861   0.05449   0.06767
 Alpha virt. eigenvalues --    0.12601   0.20077   0.20896   0.22504   0.25340
 Alpha virt. eigenvalues --    0.29430   0.32699   0.34566   0.36403   0.37623
 Alpha virt. eigenvalues --    0.40822   0.42017   0.44043   0.46282   0.48069
 Alpha virt. eigenvalues --    0.52321   0.53400   0.54772   0.58514   0.62759
 Alpha virt. eigenvalues --    0.67865   0.68995   0.74014   0.76593   0.79909
 Alpha virt. eigenvalues --    1.04163   1.06910   1.09127   1.11668   1.12223
 Alpha virt. eigenvalues --    1.15889   1.23047   1.27764   1.29915   1.32169
 Alpha virt. eigenvalues --    1.34391   1.36735   1.42166   1.48147   1.52459
 Alpha virt. eigenvalues --    1.54761   1.59149   1.62171   1.74354   1.74731
 Alpha virt. eigenvalues --    1.80219   1.81606   1.83914   1.85859   1.90545
 Alpha virt. eigenvalues --    1.93281   1.96269   2.00685   2.06192   2.07932
 Alpha virt. eigenvalues --    2.12353   2.17024   2.18375   2.21840   2.23204
 Alpha virt. eigenvalues --    2.25674   2.36831   2.39307   2.44993   2.60248
 Alpha virt. eigenvalues --    2.63063   2.66941   2.70667   2.73034   2.76296
 Alpha virt. eigenvalues --    2.78496   2.82407   2.87892   2.92189   3.28725
 Alpha virt. eigenvalues --    3.44796   3.66337   3.75031   3.77888   4.94653
 Alpha virt. eigenvalues --    4.95315   4.98686   4.99780   5.02133   5.04367
 Alpha virt. eigenvalues --    5.05529   5.09050   5.12278   5.13759   5.14222
 Alpha virt. eigenvalues --    5.19474   5.22665   5.27378   5.29670   5.34473
 Alpha virt. eigenvalues --    5.36271   5.46163   5.47078   5.99233   6.02711
 Alpha virt. eigenvalues --    6.16180   6.19227   6.21618   6.28843   6.37796
 Alpha virt. eigenvalues --    6.39896   6.45353   6.47894   6.55138   6.58686
 Alpha virt. eigenvalues --    6.62473   6.64572   6.73917   6.84199   6.93274
 Alpha virt. eigenvalues --    7.35229   7.80718   7.95488  16.36588  43.07147
 Alpha virt. eigenvalues --   43.16483  43.22093
          Condensed to atoms (all electrons):
               1          2          3          4          5          6
     1  P   12.415130   0.738881   0.409701   0.404106  -0.003177  -0.009652
     2  O    0.738881   7.999638  -0.054840  -0.058451   0.003064  -0.000423
     3  O    0.409701  -0.054840   7.851145  -0.038538   0.277842   0.002537
     4  O    0.404106  -0.058451  -0.038538   7.861781  -0.001030   0.288723
     5  H   -0.003177   0.003064   0.277842  -0.001030   0.371117  -0.000137
     6  H   -0.009652  -0.000423   0.002537   0.288723  -0.000137   0.361273
     7  H    0.366969  -0.049073  -0.041649  -0.043575   0.000733   0.001670
               7
     1  P    0.366969
     2  O   -0.049073
     3  O   -0.041649
     4  O   -0.043575
     5  H    0.000733
     6  H    0.001670
     7  H    0.752554
 Mulliken charges:
               1
     1  P    0.678041
     2  O   -0.578795
     3  O   -0.406198
     4  O   -0.413016
     5  H    0.351588
     6  H    0.356009
     7  H    0.012371
 Sum of Mulliken charges =  -0.00000
 Mulliken charges with hydrogens summed into heavy atoms:
               1
     1  P    0.690412
     2  O   -0.578795
     3  O   -0.054610
     4  O   -0.057007
 Electronic spatial extent (au):  <R**2>=            298.1021
 Charge=             -0.0000 electrons
 Dipole moment (field-independent basis, Debye):
    X=             -1.4852    Y=             -5.1089    Z=              2.8615  Tot=              6.0411
 Quadrupole moment (field-independent basis, Debye-Ang):
   XX=            -23.5637   YY=            -33.6182   ZZ=            -29.5025
   XY=             -2.5496   XZ=              0.0046   YZ=              0.1246
 Traceless Quadrupole moment (field-independent basis, Debye-Ang):
   XX=              5.3311   YY=             -4.7234   ZZ=             -0.6077
   XY=             -2.5496   XZ=              0.0046   YZ=              0.1246
 Octapole moment (field-independent basis, Debye-Ang**2):
  XXX=            -16.2860  YYY=            -21.1808  ZZZ=              0.9077  XYY=              7.5481
  XXY=             -7.7188  XXZ=              2.3365  XZZ=             -0.1135  YZZ=             -1.3290
  YYZ=              2.5820  XYZ=             -0.3111
 Hexadecapole moment (field-independent basis, Debye-Ang**3):
 XXXX=           -107.6503 YYYY=           -160.7447 ZZZZ=            -51.4099 XXXY=              0.3199
 XXXZ=              0.2962 YYYX=            -13.0847 YYYZ=              1.1771 ZZZX=             -0.1374
 ZZZY=              0.5219 XXYY=            -40.9381 XXZZ=            -33.9062 YYZZ=            -35.5110
 XXYZ=             -1.5032 YYXZ=              0.3895 ZZXY=             -0.4293
 N-N= 1.967146570116D+02 E-N=-1.744307770500D+03  KE= 5.679030687792D+02
 1\1\GINC-NODE97\SP\ROLYP\def2TZVP\H3O3P1\YANZ\05-Jun-2019\0\\# scrf=(c
 pcm,solvent=water) def2tzvp olyp\\tmpdir/M1_conf_0_4.gjf\\0,1\P,0,3.50
 242,-2.645789,-2.382251\O,0,2.056584,-2.806178,-2.748333\O,0,4.337885,
 -2.316203,-3.666618\O,0,4.202866,-3.898417,-1.754044\H,0,5.290895,-2.1
 85034,-3.528891\H,0,3.820858,-4.215839,-0.918668\H,0,3.68916684,-1.635
 43555,-1.4619359\\Version=ES64L-G16RevA.03\State=1-A\HF=-568.9847315\R
 MSD=1.609e-09\Dipole=2.0017369,0.1543795,1.2720796\Quadrupole=-2.75380
 49,0.7371405,2.0166645,1.968122,-2.1720998,-1.7425577\PG=C01 [X(H3O3P1
 )]\\@


 IF MATHEMATICALLY YOU END UP WITH THE INCORRECT ANSWER,
 TRY MULTIPLYING BY THE PAGE NUMBER.
 Job cpu time:       0 days  0 hours  0 minutes 59.3 seconds.
 Elapsed time:       0 days  0 hours  0 minutes 15.8 seconds.
 File lengths (MBytes):  RWF=     17 Int=      0 D2E=      0 Chk=      3 Scr=      1
 Normal termination of Gaussian 16 at Wed Jun  5 22:38:57 2019.
