 Entering Gaussian System, Link 0=g16
 Initial command:
 /share/apps/gaussian/g16/l1.exe "/tmp/55607.mgr/Gau-315972.inp" -scrdir="/tmp/55607.mgr/"
 Entering Link 1 = /share/apps/gaussian/g16/l1.exe PID=    315980.
  
 Copyright (c) 1988,1990,1992,1993,1995,1998,2003,2009,2016,
            Gaussian, Inc.  All Rights Reserved.
  
 This is part of the Gaussian(R) 16 program.  It is based on
 the Gaussian(R) 09 system (copyright 2009, Gaussian, Inc.),
 the Gaussian(R) 03 system (copyright 2003, Gaussian, Inc.),
 the Gaussian(R) 98 system (copyright 1998, Gaussian, Inc.),
 the Gaussian(R) 94 system (copyright 1995, Gaussian, Inc.),
 the Gaussian 92(TM) system (copyright 1992, Gaussian, Inc.),
 the Gaussian 90(TM) system (copyright 1990, Gaussian, Inc.),
 the Gaussian 88(TM) system (copyright 1988, Gaussian, Inc.),
 the Gaussian 86(TM) system (copyright 1986, Carnegie Mellon
 University), and the Gaussian 82(TM) system (copyright 1983,
 Carnegie Mellon University). Gaussian is a federally registered
 trademark of Gaussian, Inc.
  
 This software contains proprietary and confidential information,
 including trade secrets, belonging to Gaussian, Inc.
  
 This software is provided under written license and may be
 used, copied, transmitted, or stored only in accord with that
 written license.
  
 The following legend is applicable only to US Government
 contracts under FAR:
  
                    RESTRICTED RIGHTS LEGEND
  
 Use, reproduction and disclosure by the US Government is
 subject to restrictions as set forth in subparagraphs (a)
 and (c) of the Commercial Computer Software - Restricted
 Rights clause in FAR 52.227-19.
  
 Gaussian, Inc.
 340 Quinnipiac St., Bldg. 40, Wallingford CT 06492
  
  
 ---------------------------------------------------------------
 Warning -- This program may not be used in any manner that
 competes with the business of Gaussian, Inc. or will provide
 assistance to any competitor of Gaussian, Inc.  The licensee
 of this program is prohibited from giving any competitor of
 Gaussian, Inc. access to this program.  By using this program,
 the user acknowledges that Gaussian, Inc. is engaged in the
 business of creating and licensing software in the field of
 computational chemistry and represents and warrants to the
 licensee that it is not a competitor of Gaussian, Inc. and that
 it will not use this program in any manner prohibited above.
 ---------------------------------------------------------------
  

 Cite this work as:
 Gaussian 16, Revision A.03,
 M. J. Frisch, G. W. Trucks, H. B. Schlegel, G. E. Scuseria, 
 M. A. Robb, J. R. Cheeseman, G. Scalmani, V. Barone, 
 G. A. Petersson, H. Nakatsuji, X. Li, M. Caricato, A. V. Marenich, 
 J. Bloino, B. G. Janesko, R. Gomperts, B. Mennucci, H. P. Hratchian, 
 J. V. Ortiz, A. F. Izmaylov, J. L. Sonnenberg, D. Williams-Young, 
 F. Ding, F. Lipparini, F. Egidi, J. Goings, B. Peng, A. Petrone, 
 T. Henderson, D. Ranasinghe, V. G. Zakrzewski, J. Gao, N. Rega, 
 G. Zheng, W. Liang, M. Hada, M. Ehara, K. Toyota, R. Fukuda, 
 J. Hasegawa, M. Ishida, T. Nakajima, Y. Honda, O. Kitao, H. Nakai, 
 T. Vreven, K. Throssell, J. A. Montgomery, Jr., J. E. Peralta, 
 F. Ogliaro, M. J. Bearpark, J. J. Heyd, E. N. Brothers, K. N. Kudin, 
 V. N. Staroverov, T. A. Keith, R. Kobayashi, J. Normand, 
 K. Raghavachari, A. P. Rendell, J. C. Burant, S. S. Iyengar, 
 J. Tomasi, M. Cossi, J. M. Millam, M. Klene, C. Adamo, R. Cammi, 
 J. W. Ochterski, R. L. Martin, K. Morokuma, O. Farkas, 
 J. B. Foresman, and D. J. Fox, Gaussian, Inc., Wallingford CT, 2016.
 
 ******************************************
 Gaussian 16:  ES64L-G16RevA.03 25-Dec-2016
                 5-Jun-2019 
 ******************************************
 %nprocshared=4
 Will use up to    4 processors via shared memory.
 %mem=4GB
 -----------------------------------------
 # scrf=(cpcm,solvent=water) def2tzvp olyp
 -----------------------------------------
 1/38=1,172=1/1;
 2/12=2,17=6,18=5,40=1/2;
 3/5=44,7=101,11=2,25=1,30=1,70=2101,72=1,74=2002/1,2,3;
 4//1;
 5/5=2,38=5,53=1/2;
 6/7=2,8=2,9=2,10=2,28=1/1;
 99/5=1,9=1/99;
 -------------------
 tmpdir/M1_ref_3.gjf
 -------------------
 Symbolic Z-matrix:
 Charge =  0 Multiplicity = 1
 P                     0.43524  -0.79448   3.25039 
 O                    -0.58922  -0.98803   4.40995 
 O                     1.05873   0.56785   3.29537 
 H                    -1.15749  -1.77474   4.35418 
 H                    -0.13656  -1.10874   2.07952 
 H                     1.40941  -1.77082   3.44172 
 
                          Input orientation:                          
 ---------------------------------------------------------------------
 Center     Atomic      Atomic             Coordinates (Angstroms)
 Number     Number       Type             X           Y           Z
 ---------------------------------------------------------------------
      1         15           0        0.435236   -0.794478    3.250390
      2          8           0       -0.589224   -0.988026    4.409947
      3          8           0        1.058734    0.567850    3.295369
      4          1           0       -1.157492   -1.774739    4.354181
      5          1           0       -0.136563   -1.108741    2.079521
      6          1           0        1.409406   -1.770821    3.441721
 ---------------------------------------------------------------------
                    Distance matrix (angstroms):
                    1          2          3          4          5
     1  P    0.000000
     2  O    1.559343   0.000000
     3  O    1.498903   2.525629   0.000000
     4  H    2.171647   0.972088   3.394181   0.000000
     5  H    1.340392   2.377049   2.391230   2.580684   0.000000
     6  H    1.392430   2.354729   2.369340   2.724254   2.164246
                    6
     6  H    0.000000
 Stoichiometry    H3O2P
 Framework group  C1[X(H3O2P)]
 Deg. of freedom    12
 Full point group                 C1      NOp   1
 Largest Abelian subgroup         C1      NOp   1
 Largest concise Abelian subgroup C1      NOp   1
                         Standard orientation:                         
 ---------------------------------------------------------------------
 Center     Atomic      Atomic             Coordinates (Angstroms)
 Number     Number       Type             X           Y           Z
 ---------------------------------------------------------------------
      1         15           0       -0.086465    0.367427   -0.004456
      2          8           0        1.221329   -0.481481    0.019625
      3          8           0       -1.303967   -0.506835   -0.012578
      4          1           0        2.049498    0.000764   -0.143257
      5          1           0       -0.032698    1.259563   -1.003383
      6          1           0       -0.058718    1.134799    1.157108
 ---------------------------------------------------------------------
 Rotational constants (GHZ):          29.3386997           8.7350632           7.1890510
 Standard basis: def2TZVP (5D, 7F)
 There are   132 symmetry adapted cartesian basis functions of A   symmetry.
 There are   117 symmetry adapted basis functions of A   symmetry.
   117 basis functions,   195 primitive gaussians,   132 cartesian basis functions
    17 alpha electrons       17 beta electrons
       nuclear repulsion energy       125.1572903692 Hartrees.
 NAtoms=    6 NActive=    6 NUniq=    6 SFac= 1.00D+00 NAtFMM=   60 NAOKFM=F Big=F
 Integral buffers will be    131072 words long.
 Raffenetti 2 integral format.
 Two-electron integral symmetry is turned on.
 ------------------------------------------------------------------------------
 Polarizable Continuum Model (PCM)
 =================================
 Model                : C-PCM.
 Atomic radii         : UFF (Universal Force Field).
 Polarization charges : Total charges.
 Charge compensation  : None.
 Solution method      : On-the-fly selection.
 Cavity type          : Scaled VdW (van der Waals Surface) (Alpha=1.100).
 Cavity algorithm     : GePol (No added spheres)
                        Default sphere list used, NSphG=    6.
                        Lebedev-Laikov grids with approx.  5.0 points / Ang**2.
                        Smoothing algorithm: York/Karplus (Gamma=1.0000).
                        Polarization charges: spherical gaussians, with
                                              point-specific exponents (IZeta= 3).
                        Self-potential: point-specific (ISelfS= 7).
                        Self-field    : sphere-specific E.n sum rule (ISelfD= 2).
 Solvent              : Water, Eps=  78.355300 Eps(inf)=   1.777849
 ------------------------------------------------------------------------------
 Spheres list:
 ISph  on   Nord     Re0    Alpha      Xe            Ye            Ze
    1   P      1    2.0735  1.100     -0.086465      0.367427     -0.004456
    2   O      2    1.7500  1.100      1.221329     -0.481481      0.019625
    3   O      3    1.7500  1.100     -1.303967     -0.506835     -0.012578
    4   H      4    1.4430  1.100      2.049498      0.000764     -0.143257
    5   H      5    1.4430  1.100     -0.032698      1.259563     -1.003383
    6   H      6    1.4430  1.100     -0.058718      1.134799      1.157108
 ------------------------------------------------------------------------------
 One-electron integrals computed using PRISM.
   1 Symmetry operations used in ECPInt.
 ECPInt:  NShTT=    1128 NPrTT=    3744 LenC2=    1124 LenP2D=    3219.
 LDataN:  DoStor=T MaxTD1= 6 Len=  172
 NBasis=   117 RedAO= T EigKep=  2.08D-03  NBF=   117
 NBsUse=   117 1.00D-06 EigRej= -1.00D+00 NBFU=   117
 ExpMin= 9.04D-02 ExpMax= 5.24D+04 ExpMxC= 1.79D+03 IAcc=3 IRadAn=         5 AccDes= 0.00D+00
 Harris functional with IExCor= 2002 and IRadAn=       5 diagonalized for initial guess.
 HarFok:  IExCor= 2002 AccDes= 0.00D+00 IRadAn=         5 IDoV= 1 UseB2=F ITyADJ=14
 ICtDFT=  3500011 ScaDFX=  1.000000  1.000000  1.000000  1.000000
 FoFCou: FMM=F IPFlag=           0 FMFlag=      100000 FMFlg1=           0
         NFxFlg=           0 DoJE=T BraDBF=F KetDBF=T FulRan=T
         wScrn=  0.000000 ICntrl=       500 IOpCl=  0 I1Cent=   200000004 NGrid=           0
         NMat0=    1 NMatS0=      1 NMatT0=    0 NMatD0=    1 NMtDS0=    0 NMtDT0=    0
 Petite list used in FoFCou.
 Keep J ints in memory in canonical form, NReq=27663592.
 Requested convergence on RMS density matrix=1.00D-08 within 128 cycles.
 Requested convergence on MAX density matrix=1.00D-06.
 Requested convergence on             energy=1.00D-06.
 No special actions if energy rises.
 Inv3:  Mode=1 IEnd=     1723692.
 Iteration    1 A*A^-1 deviation from unit magnitude is 3.89D-15 for    754.
 Iteration    1 A*A^-1 deviation from orthogonality  is 1.48D-15 for    725    333.
 Iteration    1 A^-1*A deviation from unit magnitude is 3.89D-15 for    754.
 Iteration    1 A^-1*A deviation from orthogonality  is 1.34D-15 for    674    111.
 Error on total polarization charges =  0.00812
 SCF Done:  E(RO-LYP) =  -493.693632190     A.U. after   11 cycles
            NFock= 11  Conv=0.87D-08     -V/T= 2.0015

 **********************************************************************

            Population analysis using the SCF density.

 **********************************************************************

 Orbital symmetries:
       Occupied  (A) (A) (A) (A) (A) (A) (A) (A) (A) (A) (A) (A)
                 (A) (A) (A) (A) (A)
       Virtual   (A) (A) (A) (A) (A) (A) (A) (A) (A) (A) (A) (A)
                 (A) (A) (A) (A) (A) (A) (A) (A) (A) (A) (A) (A)
                 (A) (A) (A) (A) (A) (A) (A) (A) (A) (A) (A) (A)
                 (A) (A) (A) (A) (A) (A) (A) (A) (A) (A) (A) (A)
                 (A) (A) (A) (A) (A) (A) (A) (A) (A) (A) (A) (A)
                 (A) (A) (A) (A) (A) (A) (A) (A) (A) (A) (A) (A)
                 (A) (A) (A) (A) (A) (A) (A) (A) (A) (A) (A) (A)
                 (A) (A) (A) (A) (A) (A) (A) (A) (A) (A) (A) (A)
                 (A) (A) (A) (A)
 The electronic state is 1-A.
 Alpha  occ. eigenvalues --  -76.36742 -18.80767 -18.72005  -6.39894  -4.60941
 Alpha  occ. eigenvalues --   -4.60672  -4.60606  -0.99278  -0.87786  -0.58714
 Alpha  occ. eigenvalues --   -0.50314  -0.41830  -0.37260  -0.33296  -0.30514
 Alpha  occ. eigenvalues --   -0.25920  -0.24062
 Alpha virt. eigenvalues --   -0.00813   0.00854   0.03609   0.04820   0.08684
 Alpha virt. eigenvalues --    0.16866   0.19998   0.22298   0.27309   0.28073
 Alpha virt. eigenvalues --    0.29922   0.30694   0.34987   0.39574   0.43232
 Alpha virt. eigenvalues --    0.44644   0.45922   0.48330   0.52693   0.57768
 Alpha virt. eigenvalues --    0.60225   0.63437   0.64589   0.76322   0.76879
 Alpha virt. eigenvalues --    1.02738   1.06102   1.09470   1.10282   1.12380
 Alpha virt. eigenvalues --    1.17036   1.22775   1.24665   1.29589   1.34298
 Alpha virt. eigenvalues --    1.37568   1.38892   1.49650   1.50697   1.56476
 Alpha virt. eigenvalues --    1.57851   1.59602   1.74335   1.80851   1.83295
 Alpha virt. eigenvalues --    1.84370   1.88011   1.90636   2.00236   2.02487
 Alpha virt. eigenvalues --    2.06726   2.12429   2.14081   2.17080   2.20925
 Alpha virt. eigenvalues --    2.24886   2.38588   2.45634   2.47380   2.59849
 Alpha virt. eigenvalues --    2.65061   2.66555   2.75350   2.77405   2.79414
 Alpha virt. eigenvalues --    2.84448   2.87342   3.36275   3.62931   3.75272
 Alpha virt. eigenvalues --    4.96287   4.99327   5.02868   5.05014   5.07640
 Alpha virt. eigenvalues --    5.10626   5.17101   5.19371   5.23144   5.24982
 Alpha virt. eigenvalues --    5.28646   5.34339   5.45804   6.00124   6.17241
 Alpha virt. eigenvalues --    6.20668   6.24810   6.38310   6.42444   6.52344
 Alpha virt. eigenvalues --    6.57008   6.63424   6.73724   6.86213   7.19913
 Alpha virt. eigenvalues --    7.51005   7.89710  15.92264  43.06853  43.16207
          Condensed to atoms (all electrons):
               1          2          3          4          5          6
     1  P   12.582125   0.385404   0.727970  -0.000137   0.358491   0.367719
     2  O    0.385404   7.870295  -0.053324   0.275823  -0.034225  -0.037542
     3  O    0.727970  -0.053324   7.996582   0.003057  -0.039060  -0.045901
     4  H   -0.000137   0.275823   0.003057   0.369051  -0.000578   0.001292
     5  H    0.358491  -0.034225  -0.039060  -0.000578   0.732429  -0.061061
     6  H    0.367719  -0.037542  -0.045901   0.001292  -0.061061   0.753663
 Mulliken charges:
               1
     1  P    0.578428
     2  O   -0.406430
     3  O   -0.589324
     4  H    0.351492
     5  H    0.044004
     6  H    0.021829
 Sum of Mulliken charges =  -0.00000
 Mulliken charges with hydrogens summed into heavy atoms:
               1
     1  P    0.644262
     2  O   -0.054938
     3  O   -0.589324
 Electronic spatial extent (au):  <R**2>=            200.8708
 Charge=             -0.0000 electrons
 Dipole moment (field-independent basis, Debye):
    X=              4.9895    Y=              3.8561    Z=             -0.4876  Tot=              6.3248
 Quadrupole moment (field-independent basis, Debye-Ang):
   XX=            -24.2408   YY=            -24.9508   ZZ=            -23.8981
   XY=             -0.5826   XZ=             -0.7930   YZ=             -0.2875
 Traceless Quadrupole moment (field-independent basis, Debye-Ang):
   XX=              0.1224   YY=             -0.5876   ZZ=              0.4652
   XY=             -0.5826   XZ=             -0.7930   YZ=             -0.2875
 Octapole moment (field-independent basis, Debye-Ang**2):
  XXX=             25.4645  YYY=              1.2465  ZZZ=             -0.6253  XYY=              1.3130
  XXY=              4.8553  XXZ=             -1.5693  XZZ=              1.2856  YZZ=              0.2813
  YYZ=             -0.3879  XYZ=              0.0676
 Hexadecapole moment (field-independent basis, Debye-Ang**3):
 XXXX=           -120.6788 YYYY=            -64.6844 ZZZZ=            -36.0475 XXXY=             -1.2866
 XXXZ=             -3.5924 YYYX=             -1.0966 YYYZ=             -0.8883 ZZZX=             -0.3987
 ZZZY=             -0.5413 XXYY=            -37.1311 XXZZ=            -31.0976 YYZZ=            -16.7729
 XXYZ=             -0.2085 YYXZ=             -0.0826 ZZXY=             -0.3729
 N-N= 1.251572903692D+02 E-N=-1.423135456382D+03  KE= 4.929309724769D+02
 1\1\GINC-NODE97\SP\ROLYP\def2TZVP\H3O2P1\YANZ\05-Jun-2019\0\\# scrf=(c
 pcm,solvent=water) def2tzvp olyp\\tmpdir/M1_ref_3.gjf\\0,1\P,0,0.43523
 6,-0.794478,3.25039\O,0,-0.589224,-0.988026,4.409947\O,0,1.058734,0.56
 785,3.295369\H,0,-1.157492,-1.774739,4.354181\H,0,-0.13656335,-1.10874
 119,2.07952063\H,0,1.40940556,-1.77082127,3.44172149\\Version=ES64L-G1
 6RevA.03\State=1-A\HF=-493.6936322\RMSD=8.704e-09\Dipole=-1.1307162,-2
 .2004824,-0.2669591\Quadrupole=0.8186157,-0.880026,0.0614103,0.1031003
 ,0.0739251,-0.0007003\PG=C01 [X(H3O2P1)]\\@


 THE VALUE OF PHILOSOPHY IS, IN FACT, TO BE SOUGHT LARGELY IN ITS
 VERY UNCERTAINTY.  THE MAN WHO HAS NO TINCTURE OF PHILOSOPHY GOES
 THROUGH LIFE IMPRISONED IN THE PREJUDICES DERIVED FROM COMMON SENSE,
 FROM THE HABITUAL BELIEFS OF HIS AGE OR HIS NATION, AND FROM
 CONVICTIONS WHICH HAVE GROWN UP IN HIS MIND WITHOUT THE CO-OPERATION
 OR CONSENT OF HIS DELIBERATE REASON.  TO SUCH A MAN THE WORLD TENDS
 TO BE DEFINITE, FINITE, OBVIOUS; COMMON OBJECTS ROUSE NO QUESTIONS,
 AND UNFAMILIAR POSSIBILITIES ARE CONTEMPTUOUSLY REJECTED.

                             -- BERTRAND RUSSELL
 Job cpu time:       0 days  0 hours  0 minutes 36.0 seconds.
 Elapsed time:       0 days  0 hours  0 minutes  9.5 seconds.
 File lengths (MBytes):  RWF=     16 Int=      0 D2E=      0 Chk=      2 Scr=      1
 Normal termination of Gaussian 16 at Wed Jun  5 22:38:29 2019.
