 Entering Gaussian System, Link 0=g16
 Initial command:
 /share/apps/gaussian/g16/l1.exe "/tmp/55607.mgr/Gau-315974.inp" -scrdir="/tmp/55607.mgr/"
 Entering Link 1 = /share/apps/gaussian/g16/l1.exe PID=    315982.
  
 Copyright (c) 1988,1990,1992,1993,1995,1998,2003,2009,2016,
            Gaussian, Inc.  All Rights Reserved.
  
 This is part of the Gaussian(R) 16 program.  It is based on
 the Gaussian(R) 09 system (copyright 2009, Gaussian, Inc.),
 the Gaussian(R) 03 system (copyright 2003, Gaussian, Inc.),
 the Gaussian(R) 98 system (copyright 1998, Gaussian, Inc.),
 the Gaussian(R) 94 system (copyright 1995, Gaussian, Inc.),
 the Gaussian 92(TM) system (copyright 1992, Gaussian, Inc.),
 the Gaussian 90(TM) system (copyright 1990, Gaussian, Inc.),
 the Gaussian 88(TM) system (copyright 1988, Gaussian, Inc.),
 the Gaussian 86(TM) system (copyright 1986, Carnegie Mellon
 University), and the Gaussian 82(TM) system (copyright 1983,
 Carnegie Mellon University). Gaussian is a federally registered
 trademark of Gaussian, Inc.
  
 This software contains proprietary and confidential information,
 including trade secrets, belonging to Gaussian, Inc.
  
 This software is provided under written license and may be
 used, copied, transmitted, or stored only in accord with that
 written license.
  
 The following legend is applicable only to US Government
 contracts under FAR:
  
                    RESTRICTED RIGHTS LEGEND
  
 Use, reproduction and disclosure by the US Government is
 subject to restrictions as set forth in subparagraphs (a)
 and (c) of the Commercial Computer Software - Restricted
 Rights clause in FAR 52.227-19.
  
 Gaussian, Inc.
 340 Quinnipiac St., Bldg. 40, Wallingford CT 06492
  
  
 ---------------------------------------------------------------
 Warning -- This program may not be used in any manner that
 competes with the business of Gaussian, Inc. or will provide
 assistance to any competitor of Gaussian, Inc.  The licensee
 of this program is prohibited from giving any competitor of
 Gaussian, Inc. access to this program.  By using this program,
 the user acknowledges that Gaussian, Inc. is engaged in the
 business of creating and licensing software in the field of
 computational chemistry and represents and warrants to the
 licensee that it is not a competitor of Gaussian, Inc. and that
 it will not use this program in any manner prohibited above.
 ---------------------------------------------------------------
  

 Cite this work as:
 Gaussian 16, Revision A.03,
 M. J. Frisch, G. W. Trucks, H. B. Schlegel, G. E. Scuseria, 
 M. A. Robb, J. R. Cheeseman, G. Scalmani, V. Barone, 
 G. A. Petersson, H. Nakatsuji, X. Li, M. Caricato, A. V. Marenich, 
 J. Bloino, B. G. Janesko, R. Gomperts, B. Mennucci, H. P. Hratchian, 
 J. V. Ortiz, A. F. Izmaylov, J. L. Sonnenberg, D. Williams-Young, 
 F. Ding, F. Lipparini, F. Egidi, J. Goings, B. Peng, A. Petrone, 
 T. Henderson, D. Ranasinghe, V. G. Zakrzewski, J. Gao, N. Rega, 
 G. Zheng, W. Liang, M. Hada, M. Ehara, K. Toyota, R. Fukuda, 
 J. Hasegawa, M. Ishida, T. Nakajima, Y. Honda, O. Kitao, H. Nakai, 
 T. Vreven, K. Throssell, J. A. Montgomery, Jr., J. E. Peralta, 
 F. Ogliaro, M. J. Bearpark, J. J. Heyd, E. N. Brothers, K. N. Kudin, 
 V. N. Staroverov, T. A. Keith, R. Kobayashi, J. Normand, 
 K. Raghavachari, A. P. Rendell, J. C. Burant, S. S. Iyengar, 
 J. Tomasi, M. Cossi, J. M. Millam, M. Klene, C. Adamo, R. Cammi, 
 J. W. Ochterski, R. L. Martin, K. Morokuma, O. Farkas, 
 J. B. Foresman, and D. J. Fox, Gaussian, Inc., Wallingford CT, 2016.
 
 ******************************************
 Gaussian 16:  ES64L-G16RevA.03 25-Dec-2016
                 5-Jun-2019 
 ******************************************
 %nprocshared=4
 Will use up to    4 processors via shared memory.
 %mem=4GB
 -----------------------------------------
 # scrf=(cpcm,solvent=water) def2tzvp olyp
 -----------------------------------------
 1/38=1,172=1/1;
 2/12=2,17=6,18=5,40=1/2;
 3/5=44,7=101,11=2,25=1,30=1,70=2101,72=1,74=2002/1,2,3;
 4//1;
 5/5=2,38=5,53=1/2;
 6/7=2,8=2,9=2,10=2,28=1/1;
 99/5=1,9=1/99;
 -------------------
 tmpdir/M1_ref_2.gjf
 -------------------
 Symbolic Z-matrix:
 Charge =  1 Multiplicity = 1
 Mg                    2.43572   0.84584   1.83522 
 O                    -1.30131   0.7179    0.46229 
 P                    -0.15562  -0.22182   0.43648 
 O                    -0.23591  -1.38589  -0.63879 
 O                     1.27644   0.29201   0.38032 
 H                    -0.22137  -1.02654   1.67562 
 H                    -1.11535  -1.74159  -0.9533 
 
                          Input orientation:                          
 ---------------------------------------------------------------------
 Center     Atomic      Atomic             Coordinates (Angstroms)
 Number     Number       Type             X           Y           Z
 ---------------------------------------------------------------------
      1         12           0        2.435720    0.845840    1.835215
      2          8           0       -1.301306    0.717898    0.462292
      3         15           0       -0.155615   -0.221822    0.436475
      4          8           0       -0.235906   -1.385887   -0.638793
      5          8           0        1.276440    0.292011    0.380324
      6          1           0       -0.221372   -1.026544    1.675623
      7          1           0       -1.115353   -1.741586   -0.953297
 ---------------------------------------------------------------------
                    Distance matrix (angstroms):
                    1          2          3          4          5
     1  Mg   0.000000
     2  O    3.983296   0.000000
     3  P    3.132314   1.482008   0.000000
     4  O    4.270703   2.602571   1.586725   0.000000
     5  O    1.940970   2.613976   1.522484   2.478131   0.000000
     6  H    3.254448   2.383591   1.478982   2.342191   2.379039
     7  H    5.203912   2.843859   2.272058   0.999431   3.410973
                    6          7
     6  H    0.000000
     7  H    2.867352   0.000000
 Stoichiometry    H2MgO3P(1+)
 Framework group  C1[X(H2MgO3P)]
 Deg. of freedom    15
 Full point group                 C1      NOp   1
 Largest Abelian subgroup         C1      NOp   1
 Largest concise Abelian subgroup C1      NOp   1
                         Standard orientation:                         
 ---------------------------------------------------------------------
 Center     Atomic      Atomic             Coordinates (Angstroms)
 Number     Number       Type             X           Y           Z
 ---------------------------------------------------------------------
      1         12           0        2.491628   -0.021585    0.110317
      2          8           0       -1.205610    1.438802   -0.143362
      3         15           0       -0.638127    0.100334    0.144415
      4          8           0       -1.631816   -1.125686   -0.020365
      5          8           0        0.673512   -0.345466   -0.487110
      6          1           0       -0.400151    0.029913    1.602426
      7          1           0       -2.616171   -1.017108    0.114236
 ---------------------------------------------------------------------
 Rotational constants (GHZ):           7.8660996           2.0271488           1.6943815
 Standard basis: def2TZVP (5D, 7F)
 There are   197 symmetry adapted cartesian basis functions of A   symmetry.
 There are   174 symmetry adapted basis functions of A   symmetry.
   174 basis functions,   294 primitive gaussians,   197 cartesian basis functions
    26 alpha electrons       26 beta electrons
       nuclear repulsion energy       269.9895458374 Hartrees.
 NAtoms=    7 NActive=    7 NUniq=    7 SFac= 1.00D+00 NAtFMM=   60 NAOKFM=F Big=F
 Integral buffers will be    131072 words long.
 Raffenetti 2 integral format.
 Two-electron integral symmetry is turned on.
 ------------------------------------------------------------------------------
 Polarizable Continuum Model (PCM)
 =================================
 Model                : C-PCM.
 Atomic radii         : UFF (Universal Force Field).
 Polarization charges : Total charges.
 Charge compensation  : None.
 Solution method      : On-the-fly selection.
 Cavity type          : Scaled VdW (van der Waals Surface) (Alpha=1.100).
 Cavity algorithm     : GePol (No added spheres)
                        Default sphere list used, NSphG=    7.
                        Lebedev-Laikov grids with approx.  5.0 points / Ang**2.
                        Smoothing algorithm: York/Karplus (Gamma=1.0000).
                        Polarization charges: spherical gaussians, with
                                              point-specific exponents (IZeta= 3).
                        Self-potential: point-specific (ISelfS= 7).
                        Self-field    : sphere-specific E.n sum rule (ISelfD= 2).
 Solvent              : Water, Eps=  78.355300 Eps(inf)=   1.777849
 ------------------------------------------------------------------------------
 Spheres list:
 ISph  on   Nord     Re0    Alpha      Xe            Ye            Ze
    1  Mg      1    1.5105  1.100      2.491628     -0.021585      0.110317
    2   O      2    1.7500  1.100     -1.205610      1.438802     -0.143362
    3   P      3    2.0735  1.100     -0.638127      0.100334      0.144415
    4   O      4    1.7500  1.100     -1.631816     -1.125686     -0.020365
    5   O      5    1.7500  1.100      0.673512     -0.345466     -0.487110
    6   H      6    1.4430  1.100     -0.400151      0.029913      1.602426
    7   H      7    1.4430  1.100     -2.616171     -1.017108      0.114236
 ------------------------------------------------------------------------------
 One-electron integrals computed using PRISM.
   1 Symmetry operations used in ECPInt.
 ECPInt:  NShTT=    2211 NPrTT=    7893 LenC2=    2147 LenP2D=    6057.
 LDataN:  DoStor=T MaxTD1= 6 Len=  172
 NBasis=   174 RedAO= T EigKep=  1.20D-03  NBF=   174
 NBsUse=   174 1.00D-06 EigRej= -1.00D+00 NBFU=   174
 ExpMin= 3.69D-02 ExpMax= 5.24D+04 ExpMxC= 1.79D+03 IAcc=3 IRadAn=         5 AccDes= 0.00D+00
 Harris functional with IExCor= 2002 and IRadAn=       5 diagonalized for initial guess.
 HarFok:  IExCor= 2002 AccDes= 0.00D+00 IRadAn=         5 IDoV= 1 UseB2=F ITyADJ=14
 ICtDFT=  3500011 ScaDFX=  1.000000  1.000000  1.000000  1.000000
 FoFCou: FMM=F IPFlag=           0 FMFlag=      100000 FMFlg1=           0
         NFxFlg=           0 DoJE=T BraDBF=F KetDBF=T FulRan=T
         wScrn=  0.000000 ICntrl=       500 IOpCl=  0 I1Cent=   200000004 NGrid=           0
         NMat0=    1 NMatS0=      1 NMatT0=    0 NMatD0=    1 NMtDS0=    0 NMtDT0=    0
 Petite list used in FoFCou.
 Keep J ints in memory in canonical form, NReq=120008278.
 Requested convergence on RMS density matrix=1.00D-08 within 128 cycles.
 Requested convergence on MAX density matrix=1.00D-06.
 Requested convergence on             energy=1.00D-06.
 No special actions if energy rises.
 Inv3:  Mode=1 IEnd=     2561328.
 Iteration    1 A*A^-1 deviation from unit magnitude is 3.77D-15 for    916.
 Iteration    1 A*A^-1 deviation from orthogonality  is 1.38D-15 for    921    153.
 Iteration    1 A^-1*A deviation from unit magnitude is 4.11D-15 for    899.
 Iteration    1 A^-1*A deviation from orthogonality  is 1.15D-15 for    489    357.
 Error on total polarization charges =  0.01094
 SCF Done:  E(RO-LYP) =  -768.439668577     A.U. after   13 cycles
            NFock= 13  Conv=0.20D-08     -V/T= 2.0030

 **********************************************************************

            Population analysis using the SCF density.

 **********************************************************************

 Orbital symmetries:
       Occupied  (A) (A) (A) (A) (A) (A) (A) (A) (A) (A) (A) (A)
                 (A) (A) (A) (A) (A) (A) (A) (A) (A) (A) (A) (A)
                 (A) (A)
       Virtual   (A) (A) (A) (A) (A) (A) (A) (A) (A) (A) (A) (A)
                 (A) (A) (A) (A) (A) (A) (A) (A) (A) (A) (A) (A)
                 (A) (A) (A) (A) (A) (A) (A) (A) (A) (A) (A) (A)
                 (A) (A) (A) (A) (A) (A) (A) (A) (A) (A) (A) (A)
                 (A) (A) (A) (A) (A) (A) (A) (A) (A) (A) (A) (A)
                 (A) (A) (A) (A) (A) (A) (A) (A) (A) (A) (A) (A)
                 (A) (A) (A) (A) (A) (A) (A) (A) (A) (A) (A) (A)
                 (A) (A) (A) (A) (A) (A) (A) (A) (A) (A) (A) (A)
                 (A) (A) (A) (A) (A) (A) (A) (A) (A) (A) (A) (A)
                 (A) (A) (A) (A) (A) (A) (A) (A) (A) (A) (A) (A)
                 (A) (A) (A) (A) (A) (A) (A) (A) (A) (A) (A) (A)
                 (A) (A) (A) (A) (A) (A) (A) (A) (A) (A) (A) (A)
                 (A) (A) (A) (A)
 The electronic state is 1-A.
 Alpha  occ. eigenvalues --  -76.36536 -46.29836 -18.78524 -18.74572 -18.70639
 Alpha  occ. eigenvalues --   -6.38924  -4.59995  -4.59826  -4.59664  -3.01014
 Alpha  occ. eigenvalues --   -1.79271  -1.79251  -1.79015  -0.96710  -0.90246
 Alpha  occ. eigenvalues --   -0.85849  -0.55044  -0.43838  -0.40430  -0.37353
 Alpha  occ. eigenvalues --   -0.32901  -0.29785  -0.29480  -0.26622  -0.23692
 Alpha  occ. eigenvalues --   -0.23424
 Alpha virt. eigenvalues --   -0.08919   0.00470   0.01661   0.02080   0.04543
 Alpha virt. eigenvalues --    0.06970   0.08409   0.10117   0.10828   0.12864
 Alpha virt. eigenvalues --    0.15207   0.15382   0.17956   0.18613   0.20661
 Alpha virt. eigenvalues --    0.23547   0.25354   0.26591   0.27464   0.30342
 Alpha virt. eigenvalues --    0.33611   0.34600   0.34925   0.37795   0.38513
 Alpha virt. eigenvalues --    0.41158   0.43780   0.47441   0.48145   0.51840
 Alpha virt. eigenvalues --    0.52302   0.54549   0.56205   0.58302   0.59392
 Alpha virt. eigenvalues --    0.60179   0.62283   0.66438   0.67801   0.70592
 Alpha virt. eigenvalues --    0.72377   0.77332   0.78099   0.78993   0.82675
 Alpha virt. eigenvalues --    0.90538   1.12244   1.13167   1.14617   1.16546
 Alpha virt. eigenvalues --    1.21857   1.25535   1.29073   1.31924   1.35699
 Alpha virt. eigenvalues --    1.38525   1.40744   1.42442   1.50377   1.53764
 Alpha virt. eigenvalues --    1.57301   1.65451   1.70353   1.71858   1.74586
 Alpha virt. eigenvalues --    1.76048   1.76743   1.79597   1.82974   1.85851
 Alpha virt. eigenvalues --    1.88307   1.91468   1.97737   2.03191   2.04358
 Alpha virt. eigenvalues --    2.07418   2.11675   2.12891   2.17565   2.20462
 Alpha virt. eigenvalues --    2.22566   2.23808   2.28786   2.42592   2.50192
 Alpha virt. eigenvalues --    2.62417   2.67651   2.72518   2.75328   2.77852
 Alpha virt. eigenvalues --    2.82984   2.91135   2.92321   2.94858   2.96326
 Alpha virt. eigenvalues --    3.29758   3.51945   3.72897   3.82775   4.41907
 Alpha virt. eigenvalues --    4.96305   4.98353   5.00186   5.00725   5.03351
 Alpha virt. eigenvalues --    5.04066   5.04332   5.07970   5.09896   5.10893
 Alpha virt. eigenvalues --    5.14790   5.18044   5.21667   5.22994   5.27007
 Alpha virt. eigenvalues --    5.30087   5.36485   5.42658   5.49657   5.54993
 Alpha virt. eigenvalues --    5.97343   6.16039   6.17429   6.21644   6.21807
 Alpha virt. eigenvalues --    6.22317   6.22653   6.24025   6.27215   6.31530
 Alpha virt. eigenvalues --    6.35277   6.39472   6.46774   6.56281   6.58940
 Alpha virt. eigenvalues --    6.62579   6.63885   6.65716   6.73284   6.78180
 Alpha virt. eigenvalues --    6.91227   7.32101   7.87583   8.06503  16.40863
 Alpha virt. eigenvalues --   43.16627  43.21440  43.29813
          Condensed to atoms (all electrons):
               1          2          3          4          5          6
     1  Mg  10.109712   0.003067  -0.027317   0.000873   0.226064   0.021924
     2  O    0.003067   8.048283   0.718246  -0.060093  -0.058233  -0.054895
     3  P   -0.027317   0.718246  12.446039   0.414340   0.418171   0.330357
     4  O    0.000873  -0.060093   0.414340   7.908959  -0.029605  -0.052369
     5  O    0.226064  -0.058233   0.418171  -0.029605   8.076986  -0.042138
     6  H    0.021924  -0.054895   0.330357  -0.052369  -0.042138   0.868105
     7  H   -0.000235  -0.000042  -0.017092   0.282992   0.002555   0.004263
               7
     1  Mg  -0.000235
     2  O   -0.000042
     3  P   -0.017092
     4  O    0.282992
     5  O    0.002555
     6  H    0.004263
     7  H    0.380249
 Mulliken charges:
               1
     1  Mg   1.665910
     2  O   -0.596332
     3  P    0.717256
     4  O   -0.465097
     5  O   -0.593800
     6  H   -0.075247
     7  H    0.347310
 Sum of Mulliken charges =   1.00000
 Mulliken charges with hydrogens summed into heavy atoms:
               1
     1  Mg   1.665910
     2  O   -0.596332
     3  P    0.642008
     4  O   -0.117787
     5  O   -0.593800
 Electronic spatial extent (au):  <R**2>=            602.1311
 Charge=              1.0000 electrons
 Dipole moment (field-independent basis, Debye):
    X=             20.1918    Y=             -2.3642    Z=              3.1460  Tot=             20.5717
 Quadrupole moment (field-independent basis, Debye-Ang):
   XX=             26.0309   YY=            -41.7294   ZZ=            -34.6983
   XY=              6.5093   XZ=              2.7543   YZ=             -0.0829
 Traceless Quadrupole moment (field-independent basis, Debye-Ang):
   XX=             42.8298   YY=            -24.9305   ZZ=            -17.8994
   XY=              6.5093   XZ=              2.7543   YZ=             -0.0829
 Octapole moment (field-independent basis, Debye-Ang**2):
  XXX=            164.3445  YYY=             -9.7995  ZZZ=              0.4694  XYY=             22.7015
  XXY=            -14.2837  XXZ=             11.1471  XZZ=             14.5959  YZZ=             -0.6863
  YYZ=              2.0640  XYZ=             -0.4643
 Hexadecapole moment (field-independent basis, Debye-Ang**3):
 XXXX=            113.0520 YYYY=           -179.6234 ZZZZ=            -64.2623 XXXY=             36.9213
 XXXZ=             17.0190 YYYX=             14.6095 YYYZ=              0.8892 ZZZX=              7.2256
 ZZZY=             -0.1244 XXYY=            -86.7369 XXZZ=            -65.4352 YYZZ=            -38.1617
 XXYZ=             -1.4132 YYXZ=              0.3259 ZZXY=              1.6714
 N-N= 2.699895458374D+02 E-N=-2.359298107027D+03  KE= 7.661584630636D+02
 1\1\GINC-NODE97\SP\ROLYP\def2TZVP\H2Mg1O3P1(1+)\YANZ\05-Jun-2019\0\\# 
 scrf=(cpcm,solvent=water) def2tzvp olyp\\tmpdir/M1_ref_2.gjf\\1,1\Mg,0
 ,2.43572,0.84584,1.835215\O,0,-1.301306,0.717898,0.462292\P,0,-0.15561
 5,-0.221822,0.436475\O,0,-0.235906,-1.385887,-0.638793\O,0,1.27644,0.2
 92011,0.380324\H,0,-0.22137174,-1.02654444,1.67562253\H,0,-1.11535325,
 -1.74158607,-0.95329726\\Version=ES64L-G16RevA.03\State=1-A\HF=-768.43
 96686\RMSD=1.975e-09\Dipole=6.6550128,1.4927954,4.357459\Quadrupole=9.
 2127962,-8.3784102,-0.834386,16.0870488,19.6041946,8.5980336\PG=C01 [X
 (H2Mg1O3P1)]\\@


 THE MOLECULE ALSO HAS A BODY.  WHEN THIS BODY IS HIT, THE MOLECULE
 FEELS HURT ALL OVER -- A. KITAIGORODSKI
 Job cpu time:       0 days  0 hours  1 minutes 14.9 seconds.
 Elapsed time:       0 days  0 hours  0 minutes 20.8 seconds.
 File lengths (MBytes):  RWF=     24 Int=      0 D2E=      0 Chk=      3 Scr=      1
 Normal termination of Gaussian 16 at Wed Jun  5 22:38:41 2019.
