 Entering Gaussian System, Link 0=g16
 Initial command:
 /share/apps/gaussian/g16/l1.exe "/tmp/55608.mgr/Gau-88837.inp" -scrdir="/tmp/55608.mgr/"
 Entering Link 1 = /share/apps/gaussian/g16/l1.exe PID=     88838.
  
 Copyright (c) 1988,1990,1992,1993,1995,1998,2003,2009,2016,
            Gaussian, Inc.  All Rights Reserved.
  
 This is part of the Gaussian(R) 16 program.  It is based on
 the Gaussian(R) 09 system (copyright 2009, Gaussian, Inc.),
 the Gaussian(R) 03 system (copyright 2003, Gaussian, Inc.),
 the Gaussian(R) 98 system (copyright 1998, Gaussian, Inc.),
 the Gaussian(R) 94 system (copyright 1995, Gaussian, Inc.),
 the Gaussian 92(TM) system (copyright 1992, Gaussian, Inc.),
 the Gaussian 90(TM) system (copyright 1990, Gaussian, Inc.),
 the Gaussian 88(TM) system (copyright 1988, Gaussian, Inc.),
 the Gaussian 86(TM) system (copyright 1986, Carnegie Mellon
 University), and the Gaussian 82(TM) system (copyright 1983,
 Carnegie Mellon University). Gaussian is a federally registered
 trademark of Gaussian, Inc.
  
 This software contains proprietary and confidential information,
 including trade secrets, belonging to Gaussian, Inc.
  
 This software is provided under written license and may be
 used, copied, transmitted, or stored only in accord with that
 written license.
  
 The following legend is applicable only to US Government
 contracts under FAR:
  
                    RESTRICTED RIGHTS LEGEND
  
 Use, reproduction and disclosure by the US Government is
 subject to restrictions as set forth in subparagraphs (a)
 and (c) of the Commercial Computer Software - Restricted
 Rights clause in FAR 52.227-19.
  
 Gaussian, Inc.
 340 Quinnipiac St., Bldg. 40, Wallingford CT 06492
  
  
 ---------------------------------------------------------------
 Warning -- This program may not be used in any manner that
 competes with the business of Gaussian, Inc. or will provide
 assistance to any competitor of Gaussian, Inc.  The licensee
 of this program is prohibited from giving any competitor of
 Gaussian, Inc. access to this program.  By using this program,
 the user acknowledges that Gaussian, Inc. is engaged in the
 business of creating and licensing software in the field of
 computational chemistry and represents and warrants to the
 licensee that it is not a competitor of Gaussian, Inc. and that
 it will not use this program in any manner prohibited above.
 ---------------------------------------------------------------
  

 Cite this work as:
 Gaussian 16, Revision A.03,
 M. J. Frisch, G. W. Trucks, H. B. Schlegel, G. E. Scuseria, 
 M. A. Robb, J. R. Cheeseman, G. Scalmani, V. Barone, 
 G. A. Petersson, H. Nakatsuji, X. Li, M. Caricato, A. V. Marenich, 
 J. Bloino, B. G. Janesko, R. Gomperts, B. Mennucci, H. P. Hratchian, 
 J. V. Ortiz, A. F. Izmaylov, J. L. Sonnenberg, D. Williams-Young, 
 F. Ding, F. Lipparini, F. Egidi, J. Goings, B. Peng, A. Petrone, 
 T. Henderson, D. Ranasinghe, V. G. Zakrzewski, J. Gao, N. Rega, 
 G. Zheng, W. Liang, M. Hada, M. Ehara, K. Toyota, R. Fukuda, 
 J. Hasegawa, M. Ishida, T. Nakajima, Y. Honda, O. Kitao, H. Nakai, 
 T. Vreven, K. Throssell, J. A. Montgomery, Jr., J. E. Peralta, 
 F. Ogliaro, M. J. Bearpark, J. J. Heyd, E. N. Brothers, K. N. Kudin, 
 V. N. Staroverov, T. A. Keith, R. Kobayashi, J. Normand, 
 K. Raghavachari, A. P. Rendell, J. C. Burant, S. S. Iyengar, 
 J. Tomasi, M. Cossi, J. M. Millam, M. Klene, C. Adamo, R. Cammi, 
 J. W. Ochterski, R. L. Martin, K. Morokuma, O. Farkas, 
 J. B. Foresman, and D. J. Fox, Gaussian, Inc., Wallingford CT, 2016.
 
 ******************************************
 Gaussian 16:  ES64L-G16RevA.03 25-Dec-2016
                22-Sep-2023 
 ******************************************
 %nprocshared=4
 Will use up to    4 processors via shared memory.
 %mem=4GB
 -----------------------------------------
 # scrf=(cpcm,solvent=water) def2tzvp olyp
 -----------------------------------------
 1/38=1,172=1/1;
 2/12=2,17=6,18=5,40=1/2;
 3/5=44,7=101,11=2,25=1,30=1,70=2101,72=1,74=2002/1,2,3;
 4//1;
 5/5=2,38=5,53=1/2;
 6/7=2,8=2,9=2,10=2,28=1/1;
 99/5=1,9=1/99;
 -----------------------
 tmpdir/M2_conf_0_39.gjf
 -----------------------
 Symbolic Z-matrix:
 Charge =  0 Multiplicity = 1
 P                     0.        0.        0. 
 O                     1.5628    0.        0. 
 H                     1.98565   0.        0.87509 
 H                    -0.43857   1.16811   0.60964 
 O                    -0.51971  -0.09966  -1.40067 
 H                    -0.35578  -0.97445   0.84648 
 
                          Input orientation:                          
 ---------------------------------------------------------------------
 Center     Atomic      Atomic             Coordinates (Angstroms)
 Number     Number       Type             X           Y           Z
 ---------------------------------------------------------------------
      1         15           0        0.000000    0.000000    0.000000
      2          8           0        1.562800    0.000000    0.000000
      3          1           0        1.985650    0.000000    0.875090
      4          1           0       -0.438570    1.168110    0.609640
      5          8           0       -0.519710   -0.099660   -1.400670
      6          1           0       -0.355780   -0.974450    0.846480
 ---------------------------------------------------------------------
                    Distance matrix (angstroms):
                    1          2          3          4          5
     1  P    0.000000
     2  O    1.562800   0.000000
     3  H    2.169928   0.971897   0.000000
     4  H    1.388699   2.396169   2.704032   0.000000
     5  O    1.497300   2.511704   3.386125   2.378060   0.000000
     6  H    1.338903   2.312365   2.536270   2.157200   2.416984
                    6
     6  H    0.000000
 Stoichiometry    H3O2P
 Framework group  C1[X(H3O2P)]
 Deg. of freedom    12
 Full point group                 C1      NOp   1
 Largest Abelian subgroup         C1      NOp   1
 Largest concise Abelian subgroup C1      NOp   1
                         Standard orientation:                         
 ---------------------------------------------------------------------
 Center     Atomic      Atomic             Coordinates (Angstroms)
 Number     Number       Type             X           Y           Z
 ---------------------------------------------------------------------
      1         15           0        0.089030    0.373011   -0.006214
      2          8           0       -1.213071   -0.490910    0.016459
      3          1           0       -2.048591    0.001880   -0.043942
      4          1           0        0.082782    1.204966    1.105676
      5          8           0        1.298456   -0.509709   -0.006617
      6          1           0       -0.052729    1.202941   -1.047262
 ---------------------------------------------------------------------
 Rotational constants (GHZ):          28.8393223           8.8247518           7.2089818
 Standard basis: def2TZVP (5D, 7F)
 There are   132 symmetry adapted cartesian basis functions of A   symmetry.
 There are   117 symmetry adapted basis functions of A   symmetry.
   117 basis functions,   195 primitive gaussians,   132 cartesian basis functions
    17 alpha electrons       17 beta electrons
       nuclear repulsion energy       125.2146884107 Hartrees.
 NAtoms=    6 NActive=    6 NUniq=    6 SFac= 1.00D+00 NAtFMM=   60 NAOKFM=F Big=F
 Integral buffers will be    131072 words long.
 Raffenetti 2 integral format.
 Two-electron integral symmetry is turned on.
 ------------------------------------------------------------------------------
 Polarizable Continuum Model (PCM)
 =================================
 Model                : C-PCM.
 Atomic radii         : UFF (Universal Force Field).
 Polarization charges : Total charges.
 Charge compensation  : None.
 Solution method      : On-the-fly selection.
 Cavity type          : Scaled VdW (van der Waals Surface) (Alpha=1.100).
 Cavity algorithm     : GePol (No added spheres)
                        Default sphere list used, NSphG=    6.
                        Lebedev-Laikov grids with approx.  5.0 points / Ang**2.
                        Smoothing algorithm: York/Karplus (Gamma=1.0000).
                        Polarization charges: spherical gaussians, with
                                              point-specific exponents (IZeta= 3).
                        Self-potential: point-specific (ISelfS= 7).
                        Self-field    : sphere-specific E.n sum rule (ISelfD= 2).
 Solvent              : Water, Eps=  78.355300 Eps(inf)=   1.777849
 ------------------------------------------------------------------------------
 Spheres list:
 ISph  on   Nord     Re0    Alpha      Xe            Ye            Ze
    1   P      1    2.0735  1.100      0.089030      0.373011     -0.006214
    2   O      2    1.7500  1.100     -1.213071     -0.490910      0.016459
    3   H      3    1.4430  1.100     -2.048591      0.001880     -0.043942
    4   H      4    1.4430  1.100      0.082782      1.204966      1.105676
    5   O      5    1.7500  1.100      1.298456     -0.509709     -0.006617
    6   H      6    1.4430  1.100     -0.052729      1.202941     -1.047262
 ------------------------------------------------------------------------------
 One-electron integrals computed using PRISM.
   1 Symmetry operations used in ECPInt.
 ECPInt:  NShTT=    1128 NPrTT=    3744 LenC2=    1124 LenP2D=    3219.
 LDataN:  DoStor=T MaxTD1= 6 Len=  172
 NBasis=   117 RedAO= T EigKep=  2.09D-03  NBF=   117
 NBsUse=   117 1.00D-06 EigRej= -1.00D+00 NBFU=   117
 ExpMin= 9.04D-02 ExpMax= 5.24D+04 ExpMxC= 1.79D+03 IAcc=3 IRadAn=         5 AccDes= 0.00D+00
 Harris functional with IExCor= 2002 and IRadAn=       5 diagonalized for initial guess.
 HarFok:  IExCor= 2002 AccDes= 0.00D+00 IRadAn=         5 IDoV= 1 UseB2=F ITyADJ=14
 ICtDFT=  3500011 ScaDFX=  1.000000  1.000000  1.000000  1.000000
 FoFCou: FMM=F IPFlag=           0 FMFlag=      100000 FMFlg1=           0
         NFxFlg=           0 DoJE=T BraDBF=F KetDBF=T FulRan=T
         wScrn=  0.000000 ICntrl=       500 IOpCl=  0 I1Cent=   200000004 NGrid=           0
         NMat0=    1 NMatS0=      1 NMatT0=    0 NMatD0=    1 NMtDS0=    0 NMtDT0=    0
 Petite list used in FoFCou.
 Keep J ints in memory in canonical form, NReq=27663592.
 Requested convergence on RMS density matrix=1.00D-08 within 128 cycles.
 Requested convergence on MAX density matrix=1.00D-06.
 Requested convergence on             energy=1.00D-06.
 No special actions if energy rises.
 Inv3:  Mode=1 IEnd=     1710075.
 Iteration    1 A*A^-1 deviation from unit magnitude is 2.89D-15 for    743.
 Iteration    1 A*A^-1 deviation from orthogonality  is 1.70D-15 for    725    500.
 Iteration    1 A^-1*A deviation from unit magnitude is 2.89D-15 for    743.
 Iteration    1 A^-1*A deviation from orthogonality  is 9.94D-16 for    652    255.
 Error on total polarization charges =  0.00809
 SCF Done:  E(RO-LYP) =  -493.694239347     A.U. after   11 cycles
            NFock= 11  Conv=0.87D-08     -V/T= 2.0015

 **********************************************************************

            Population analysis using the SCF density.

 **********************************************************************

 Orbital symmetries:
       Occupied  (A) (A) (A) (A) (A) (A) (A) (A) (A) (A) (A) (A)
                 (A) (A) (A) (A) (A)
       Virtual   (A) (A) (A) (A) (A) (A) (A) (A) (A) (A) (A) (A)
                 (A) (A) (A) (A) (A) (A) (A) (A) (A) (A) (A) (A)
                 (A) (A) (A) (A) (A) (A) (A) (A) (A) (A) (A) (A)
                 (A) (A) (A) (A) (A) (A) (A) (A) (A) (A) (A) (A)
                 (A) (A) (A) (A) (A) (A) (A) (A) (A) (A) (A) (A)
                 (A) (A) (A) (A) (A) (A) (A) (A) (A) (A) (A) (A)
                 (A) (A) (A) (A) (A) (A) (A) (A) (A) (A) (A) (A)
                 (A) (A) (A) (A) (A) (A) (A) (A) (A) (A) (A) (A)
                 (A) (A) (A) (A)
 The electronic state is 1-A.
 Alpha  occ. eigenvalues --  -76.36709 -18.80518 -18.72168  -6.39874  -4.60930
 Alpha  occ. eigenvalues --   -4.60656  -4.60573  -0.99046  -0.87925  -0.58608
 Alpha  occ. eigenvalues --   -0.50202  -0.41922  -0.37106  -0.33221  -0.30405
 Alpha  occ. eigenvalues --   -0.26067  -0.24302
 Alpha virt. eigenvalues --   -0.00807   0.00847   0.03636   0.04859   0.08574
 Alpha virt. eigenvalues --    0.16959   0.20144   0.22400   0.27327   0.28151
 Alpha virt. eigenvalues --    0.29103   0.31003   0.35087   0.39754   0.43151
 Alpha virt. eigenvalues --    0.44733   0.46177   0.48178   0.52560   0.57606
 Alpha virt. eigenvalues --    0.59903   0.63407   0.64640   0.76165   0.77516
 Alpha virt. eigenvalues --    1.01677   1.06473   1.09928   1.09986   1.12069
 Alpha virt. eigenvalues --    1.17369   1.22840   1.25297   1.29390   1.33420
 Alpha virt. eigenvalues --    1.37629   1.39031   1.49946   1.51132   1.56057
 Alpha virt. eigenvalues --    1.57532   1.60054   1.75005   1.81081   1.84546
 Alpha virt. eigenvalues --    1.85409   1.86110   1.89366   1.98894   2.02972
 Alpha virt. eigenvalues --    2.06396   2.12702   2.15755   2.17653   2.21803
 Alpha virt. eigenvalues --    2.24746   2.38194   2.45029   2.46924   2.59084
 Alpha virt. eigenvalues --    2.66126   2.67386   2.75626   2.76808   2.79905
 Alpha virt. eigenvalues --    2.84328   2.86423   3.36378   3.63305   3.75411
 Alpha virt. eigenvalues --    4.96493   4.99481   5.02778   5.04909   5.07654
 Alpha virt. eigenvalues --    5.11177   5.16730   5.18937   5.23915   5.25892
 Alpha virt. eigenvalues --    5.27293   5.34507   5.45775   6.00414   6.17137
 Alpha virt. eigenvalues --    6.20719   6.25383   6.38569   6.42166   6.52411
 Alpha virt. eigenvalues --    6.56714   6.63329   6.73754   6.86655   7.20131
 Alpha virt. eigenvalues --    7.51651   7.88740  15.91965  43.06333  43.16491
          Condensed to atoms (all electrons):
               1          2          3          4          5          6
     1  P   12.581568   0.385487  -0.000100   0.365150   0.729010   0.359882
     2  O    0.385487   7.876770   0.275273  -0.034882  -0.054589  -0.037253
     3  H   -0.000100   0.275273   0.371583   0.000696   0.003271  -0.000101
     4  H    0.365150  -0.034882   0.000696   0.746120  -0.043769  -0.061617
     5  O    0.729010  -0.054589   0.003271  -0.043769   7.989756  -0.037981
     6  H    0.359882  -0.037253  -0.000101  -0.061617  -0.037981   0.737248
 Mulliken charges:
               1
     1  P    0.579003
     2  O   -0.410807
     3  H    0.349378
     4  H    0.028302
     5  O   -0.585698
     6  H    0.039822
 Sum of Mulliken charges =   0.00000
 Mulliken charges with hydrogens summed into heavy atoms:
               1
     1  P    0.647127
     2  O   -0.061429
     5  O   -0.585698
 Electronic spatial extent (au):  <R**2>=            200.3751
 Charge=              0.0000 electrons
 Dipole moment (field-independent basis, Debye):
    X=             -4.8959    Y=              3.9179    Z=             -0.2172  Tot=              6.2744
 Quadrupole moment (field-independent basis, Debye-Ang):
   XX=            -24.1960   YY=            -24.9377   ZZ=            -23.9157
   XY=              0.5070   XZ=              0.3285   YZ=             -0.1266
 Traceless Quadrupole moment (field-independent basis, Debye-Ang):
   XX=              0.1538   YY=             -0.5879   ZZ=              0.4341
   XY=              0.5070   XZ=              0.3285   YZ=             -0.1266
 Octapole moment (field-independent basis, Debye-Ang**2):
  XXX=            -25.1682  YYY=              1.2682  ZZZ=             -0.3377  XYY=             -1.2209
  XXY=              4.8853  XXZ=             -0.5600  XZZ=             -1.1611  YZZ=              0.3299
  YYZ=             -0.1912  XYZ=             -0.0357
 Hexadecapole moment (field-independent basis, Debye-Ang**3):
 XXXX=           -119.6319 YYYY=            -65.4248 ZZZZ=            -35.7180 XXXY=              1.1565
 XXXZ=              1.1660 YYYX=              0.9884 YYYZ=             -0.4788 ZZZX=              0.1733
 ZZZY=             -0.3175 XXYY=            -37.0583 XXZZ=            -31.0539 YYZZ=            -16.8076
 XXYZ=             -0.1265 YYXZ=              0.1082 ZZXY=              0.3059
 N-N= 1.252146884107D+02 E-N=-1.423266690779D+03  KE= 4.929380923349D+02
 1\1\GINC-NODE85\SP\ROLYP\def2TZVP\H3O2P1\YANZ\22-Sep-2023\0\\# scrf=(c
 pcm,solvent=water) def2tzvp olyp\\tmpdir/M2_conf_0_39.gjf\\0,1\P,0,0.,
 0.,0.\O,0,1.5628,0.,0.\H,0,1.98565,0.,0.87509\H,0,-0.43857,1.16811,0.6
 0964\O,0,-0.51971,-0.09966,-1.40067\H,0,-0.35578,-0.97445,0.84648\\Ver
 sion=ES64L-G16RevA.03\State=1-A\HF=-493.6942393\RMSD=8.655e-09\Dipole=
 0.7515436,0.0825431,2.3498909\Quadrupole=0.2886878,0.2891005,-0.577788
 3,-0.1425984,0.1156183,-0.2840186\PG=C01 [X(H3O2P1)]\\@


 CLIMB THE MOUNTAINS AND GET THEIR GOOD TIDINGS.
 NATURE'S PEACE WILL FLOW INTO YOU AS SUNSHINE FLOWS INTO TREES.
 THE WINDS WILL BLOW THEIR OWN FRESHNESS INTO YOU, 
 AND CARES WILL DROP OFF LIKE AUTUMN LEAVES.

                                         -- JOHN MUIR
 Job cpu time:       0 days  0 hours  0 minutes 37.5 seconds.
 Elapsed time:       0 days  0 hours  0 minutes  9.8 seconds.
 File lengths (MBytes):  RWF=     16 Int=      0 D2E=      0 Chk=      2 Scr=      1
 Normal termination of Gaussian 16 at Fri Sep 22 16:54:32 2023.
