 Entering Gaussian System, Link 0=g16
 Initial command:
 /share/apps/gaussian/g16/l1.exe "/tmp/55608.mgr/Gau-88756.inp" -scrdir="/tmp/55608.mgr/"
 Entering Link 1 = /share/apps/gaussian/g16/l1.exe PID=     88757.
  
 Copyright (c) 1988,1990,1992,1993,1995,1998,2003,2009,2016,
            Gaussian, Inc.  All Rights Reserved.
  
 This is part of the Gaussian(R) 16 program.  It is based on
 the Gaussian(R) 09 system (copyright 2009, Gaussian, Inc.),
 the Gaussian(R) 03 system (copyright 2003, Gaussian, Inc.),
 the Gaussian(R) 98 system (copyright 1998, Gaussian, Inc.),
 the Gaussian(R) 94 system (copyright 1995, Gaussian, Inc.),
 the Gaussian 92(TM) system (copyright 1992, Gaussian, Inc.),
 the Gaussian 90(TM) system (copyright 1990, Gaussian, Inc.),
 the Gaussian 88(TM) system (copyright 1988, Gaussian, Inc.),
 the Gaussian 86(TM) system (copyright 1986, Carnegie Mellon
 University), and the Gaussian 82(TM) system (copyright 1983,
 Carnegie Mellon University). Gaussian is a federally registered
 trademark of Gaussian, Inc.
  
 This software contains proprietary and confidential information,
 including trade secrets, belonging to Gaussian, Inc.
  
 This software is provided under written license and may be
 used, copied, transmitted, or stored only in accord with that
 written license.
  
 The following legend is applicable only to US Government
 contracts under FAR:
  
                    RESTRICTED RIGHTS LEGEND
  
 Use, reproduction and disclosure by the US Government is
 subject to restrictions as set forth in subparagraphs (a)
 and (c) of the Commercial Computer Software - Restricted
 Rights clause in FAR 52.227-19.
  
 Gaussian, Inc.
 340 Quinnipiac St., Bldg. 40, Wallingford CT 06492
  
  
 ---------------------------------------------------------------
 Warning -- This program may not be used in any manner that
 competes with the business of Gaussian, Inc. or will provide
 assistance to any competitor of Gaussian, Inc.  The licensee
 of this program is prohibited from giving any competitor of
 Gaussian, Inc. access to this program.  By using this program,
 the user acknowledges that Gaussian, Inc. is engaged in the
 business of creating and licensing software in the field of
 computational chemistry and represents and warrants to the
 licensee that it is not a competitor of Gaussian, Inc. and that
 it will not use this program in any manner prohibited above.
 ---------------------------------------------------------------
  

 Cite this work as:
 Gaussian 16, Revision A.03,
 M. J. Frisch, G. W. Trucks, H. B. Schlegel, G. E. Scuseria, 
 M. A. Robb, J. R. Cheeseman, G. Scalmani, V. Barone, 
 G. A. Petersson, H. Nakatsuji, X. Li, M. Caricato, A. V. Marenich, 
 J. Bloino, B. G. Janesko, R. Gomperts, B. Mennucci, H. P. Hratchian, 
 J. V. Ortiz, A. F. Izmaylov, J. L. Sonnenberg, D. Williams-Young, 
 F. Ding, F. Lipparini, F. Egidi, J. Goings, B. Peng, A. Petrone, 
 T. Henderson, D. Ranasinghe, V. G. Zakrzewski, J. Gao, N. Rega, 
 G. Zheng, W. Liang, M. Hada, M. Ehara, K. Toyota, R. Fukuda, 
 J. Hasegawa, M. Ishida, T. Nakajima, Y. Honda, O. Kitao, H. Nakai, 
 T. Vreven, K. Throssell, J. A. Montgomery, Jr., J. E. Peralta, 
 F. Ogliaro, M. J. Bearpark, J. J. Heyd, E. N. Brothers, K. N. Kudin, 
 V. N. Staroverov, T. A. Keith, R. Kobayashi, J. Normand, 
 K. Raghavachari, A. P. Rendell, J. C. Burant, S. S. Iyengar, 
 J. Tomasi, M. Cossi, J. M. Millam, M. Klene, C. Adamo, R. Cammi, 
 J. W. Ochterski, R. L. Martin, K. Morokuma, O. Farkas, 
 J. B. Foresman, and D. J. Fox, Gaussian, Inc., Wallingford CT, 2016.
 
 ******************************************
 Gaussian 16:  ES64L-G16RevA.03 25-Dec-2016
                22-Sep-2023 
 ******************************************
 %nprocshared=4
 Will use up to    4 processors via shared memory.
 %mem=4GB
 -----------------------------------------
 # scrf=(cpcm,solvent=water) def2tzvp olyp
 -----------------------------------------
 1/38=1,172=1/1;
 2/12=2,17=6,18=5,40=1/2;
 3/5=44,7=101,11=2,25=1,30=1,70=2101,72=1,74=2002/1,2,3;
 4//1;
 5/5=2,38=5,53=1/2;
 6/7=2,8=2,9=2,10=2,28=1/1;
 99/5=1,9=1/99;
 -----------------------
 tmpdir/M2_conf_0_23.gjf
 -----------------------
 Symbolic Z-matrix:
 Charge =  0 Multiplicity = 1
 O                     0.        0.        0. 
 P                     1.6258    0.        0. 
 O                     2.09272   0.        1.42432 
 H                    -0.53129  -0.13705   0.70506 
 H                     1.96639  -1.07905  -0.71855 
 H                     1.98696   1.11021  -0.6485 
 
                          Input orientation:                          
 ---------------------------------------------------------------------
 Center     Atomic      Atomic             Coordinates (Angstroms)
 Number     Number       Type             X           Y           Z
 ---------------------------------------------------------------------
      1          8           0        0.000000    0.000000    0.000000
      2         15           0        1.625800    0.000000    0.000000
      3          8           0        2.092720    0.000000    1.424320
      4          1           0       -0.531290   -0.137050    0.705060
      5          1           0        1.966390   -1.079050   -0.718550
      6          1           0        1.986960    1.110210   -0.648500
 ---------------------------------------------------------------------
                    Distance matrix (angstroms):
                    1          2          3          4          5
     1  O    0.000000
     2  P    1.625800   0.000000
     3  O    2.531435   1.498900   0.000000
     4  H    0.893399   2.273528   2.724251   0.000000
     5  H    2.355282   1.340397   2.402540   3.025299   0.000000
     6  H    2.366670   1.335498   2.353791   3.119193   2.190477
                    6
     6  H    0.000000
 Stoichiometry    H3O2P
 Framework group  C1[X(H3O2P)]
 Deg. of freedom    12
 Full point group                 C1      NOp   1
 Largest Abelian subgroup         C1      NOp   1
 Largest concise Abelian subgroup C1      NOp   1
                         Standard orientation:                         
 ---------------------------------------------------------------------
 Center     Atomic      Atomic             Coordinates (Angstroms)
 Number     Number       Type             X           Y           Z
 ---------------------------------------------------------------------
      1          8           0        1.313582   -0.301039   -0.021561
      2         15           0       -0.141773    0.423149    0.005235
      3          8           0       -1.194449   -0.643872   -0.001277
      4          1           0        1.476397   -1.171070    0.099674
      5          1           0       -0.115331    1.200521    1.096865
      6          1           0       -0.187533    1.182605   -1.092348
 ---------------------------------------------------------------------
 Rotational constants (GHZ):          25.0418322           9.0559005           7.1055249
 Standard basis: def2TZVP (5D, 7F)
 There are   132 symmetry adapted cartesian basis functions of A   symmetry.
 There are   117 symmetry adapted basis functions of A   symmetry.
   117 basis functions,   195 primitive gaussians,   132 cartesian basis functions
    17 alpha electrons       17 beta electrons
       nuclear repulsion energy       124.1846969531 Hartrees.
 NAtoms=    6 NActive=    6 NUniq=    6 SFac= 1.00D+00 NAtFMM=   60 NAOKFM=F Big=F
 Integral buffers will be    131072 words long.
 Raffenetti 2 integral format.
 Two-electron integral symmetry is turned on.
 ------------------------------------------------------------------------------
 Polarizable Continuum Model (PCM)
 =================================
 Model                : C-PCM.
 Atomic radii         : UFF (Universal Force Field).
 Polarization charges : Total charges.
 Charge compensation  : None.
 Solution method      : On-the-fly selection.
 Cavity type          : Scaled VdW (van der Waals Surface) (Alpha=1.100).
 Cavity algorithm     : GePol (No added spheres)
                        Default sphere list used, NSphG=    6.
                        Lebedev-Laikov grids with approx.  5.0 points / Ang**2.
                        Smoothing algorithm: York/Karplus (Gamma=1.0000).
                        Polarization charges: spherical gaussians, with
                                              point-specific exponents (IZeta= 3).
                        Self-potential: point-specific (ISelfS= 7).
                        Self-field    : sphere-specific E.n sum rule (ISelfD= 2).
 Solvent              : Water, Eps=  78.355300 Eps(inf)=   1.777849
 ------------------------------------------------------------------------------
 Spheres list:
 ISph  on   Nord     Re0    Alpha      Xe            Ye            Ze
    1   O      1    1.7500  1.100      1.313582     -0.301039     -0.021561
    2   P      2    2.0735  1.100     -0.141773      0.423149      0.005235
    3   O      3    1.7500  1.100     -1.194449     -0.643872     -0.001277
    4   H      4    1.4430  1.100      1.476397     -1.171070      0.099674
    5   H      5    1.4430  1.100     -0.115331      1.200521      1.096865
    6   H      6    1.4430  1.100     -0.187533      1.182605     -1.092348
 ------------------------------------------------------------------------------
 One-electron integrals computed using PRISM.
   1 Symmetry operations used in ECPInt.
 ECPInt:  NShTT=    1128 NPrTT=    3744 LenC2=    1124 LenP2D=    3219.
 LDataN:  DoStor=T MaxTD1= 6 Len=  172
 NBasis=   117 RedAO= T EigKep=  2.11D-03  NBF=   117
 NBsUse=   117 1.00D-06 EigRej= -1.00D+00 NBFU=   117
 ExpMin= 9.04D-02 ExpMax= 5.24D+04 ExpMxC= 1.79D+03 IAcc=3 IRadAn=         5 AccDes= 0.00D+00
 Harris functional with IExCor= 2002 and IRadAn=       5 diagonalized for initial guess.
 HarFok:  IExCor= 2002 AccDes= 0.00D+00 IRadAn=         5 IDoV= 1 UseB2=F ITyADJ=14
 ICtDFT=  3500011 ScaDFX=  1.000000  1.000000  1.000000  1.000000
 FoFCou: FMM=F IPFlag=           0 FMFlag=      100000 FMFlg1=           0
         NFxFlg=           0 DoJE=T BraDBF=F KetDBF=T FulRan=T
         wScrn=  0.000000 ICntrl=       500 IOpCl=  0 I1Cent=   200000004 NGrid=           0
         NMat0=    1 NMatS0=      1 NMatT0=    0 NMatD0=    1 NMtDS0=    0 NMtDT0=    0
 Petite list used in FoFCou.
 Keep J ints in memory in canonical form, NReq=27663592.
 Requested convergence on RMS density matrix=1.00D-08 within 128 cycles.
 Requested convergence on MAX density matrix=1.00D-06.
 Requested convergence on             energy=1.00D-06.
 No special actions if energy rises.
 Inv3:  Mode=1 IEnd=     1751088.
 Iteration    1 A*A^-1 deviation from unit magnitude is 3.33D-15 for    762.
 Iteration    1 A*A^-1 deviation from orthogonality  is 9.44D-16 for    287    201.
 Iteration    1 A^-1*A deviation from unit magnitude is 3.33D-15 for    762.
 Iteration    1 A^-1*A deviation from orthogonality  is 1.04D-15 for    613    107.
 Error on total polarization charges =  0.00787
 SCF Done:  E(RO-LYP) =  -493.680129159     A.U. after   11 cycles
            NFock= 11  Conv=0.94D-08     -V/T= 2.0014

 **********************************************************************

            Population analysis using the SCF density.

 **********************************************************************

 Orbital symmetries:
       Occupied  (A) (A) (A) (A) (A) (A) (A) (A) (A) (A) (A) (A)
                 (A) (A) (A) (A) (A)
       Virtual   (A) (A) (A) (A) (A) (A) (A) (A) (A) (A) (A) (A)
                 (A) (A) (A) (A) (A) (A) (A) (A) (A) (A) (A) (A)
                 (A) (A) (A) (A) (A) (A) (A) (A) (A) (A) (A) (A)
                 (A) (A) (A) (A) (A) (A) (A) (A) (A) (A) (A) (A)
                 (A) (A) (A) (A) (A) (A) (A) (A) (A) (A) (A) (A)
                 (A) (A) (A) (A) (A) (A) (A) (A) (A) (A) (A) (A)
                 (A) (A) (A) (A) (A) (A) (A) (A) (A) (A) (A) (A)
                 (A) (A) (A) (A) (A) (A) (A) (A) (A) (A) (A) (A)
                 (A) (A) (A) (A)
 The electronic state is 1-A.
 Alpha  occ. eigenvalues --  -76.37482 -18.78088 -18.71876  -6.40572  -4.61692
 Alpha  occ. eigenvalues --   -4.61305  -4.61265  -0.97355  -0.87683  -0.61221
 Alpha  occ. eigenvalues --   -0.48108  -0.42635  -0.37546  -0.32147  -0.29504
 Alpha  occ. eigenvalues --   -0.24941  -0.24434
 Alpha virt. eigenvalues --   -0.01595   0.00645   0.03171   0.05525   0.08894
 Alpha virt. eigenvalues --    0.16944   0.20169   0.22901   0.24243   0.27201
 Alpha virt. eigenvalues --    0.29910   0.31998   0.37663   0.40205   0.43976
 Alpha virt. eigenvalues --    0.44431   0.47995   0.51366   0.53422   0.58567
 Alpha virt. eigenvalues --    0.61128   0.62859   0.63803   0.72112   0.76669
 Alpha virt. eigenvalues --    1.02982   1.06072   1.08393   1.10964   1.15657
 Alpha virt. eigenvalues --    1.18481   1.21770   1.24116   1.30092   1.33207
 Alpha virt. eigenvalues --    1.37176   1.37453   1.45214   1.51494   1.53983
 Alpha virt. eigenvalues --    1.56495   1.61183   1.70537   1.78839   1.81874
 Alpha virt. eigenvalues --    1.84349   1.87475   1.94231   1.98453   2.05660
 Alpha virt. eigenvalues --    2.08166   2.12245   2.17631   2.18364   2.23163
 Alpha virt. eigenvalues --    2.24756   2.41950   2.48974   2.53554   2.59752
 Alpha virt. eigenvalues --    2.64077   2.71769   2.79805   2.80511   2.83704
 Alpha virt. eigenvalues --    2.85412   2.85894   3.33472   3.61809   3.83545
 Alpha virt. eigenvalues --    4.96642   4.97316   5.02933   5.03893   5.08982
 Alpha virt. eigenvalues --    5.11131   5.14491   5.16083   5.23681   5.25105
 Alpha virt. eigenvalues --    5.36613   5.37736   5.46648   6.15153   6.20609
 Alpha virt. eigenvalues --    6.23061   6.25406   6.42034   6.43287   6.52619
 Alpha virt. eigenvalues --    6.59120   6.60762   6.73579   6.93788   7.21165
 Alpha virt. eigenvalues --    7.51610   7.80110  15.80777  43.07385  43.10494
          Condensed to atoms (all electrons):
               1          2          3          4          5          6
     1  O    7.865655   0.414999  -0.076182   0.316451  -0.031072  -0.026902
     2  P    0.414999  12.561496   0.715476  -0.018479   0.356642   0.358856
     3  O   -0.076182   0.715476   8.016935   0.004179  -0.037125  -0.038851
     4  H    0.316451  -0.018479   0.004179   0.373493   0.002164   0.003171
     5  H   -0.031072   0.356642  -0.037125   0.002164   0.714732  -0.062568
     6  H   -0.026902   0.358856  -0.038851   0.003171  -0.062568   0.706174
 Mulliken charges:
               1
     1  O   -0.462948
     2  P    0.611011
     3  O   -0.584432
     4  H    0.319021
     5  H    0.057227
     6  H    0.060121
 Sum of Mulliken charges =  -0.00000
 Mulliken charges with hydrogens summed into heavy atoms:
               1
     1  O   -0.143928
     2  P    0.728359
     3  O   -0.584432
 Electronic spatial extent (au):  <R**2>=            201.7339
 Charge=             -0.0000 electrons
 Dipole moment (field-independent basis, Debye):
    X=              2.5867    Y=              2.1819    Z=              0.2780  Tot=              3.3954
 Quadrupole moment (field-independent basis, Debye-Ang):
   XX=            -29.2816   YY=            -21.1785   ZZ=            -23.4847
   XY=             -5.4516   XZ=              0.4627   YZ=             -0.3326
 Traceless Quadrupole moment (field-independent basis, Debye-Ang):
   XX=             -4.6334   YY=              3.4698   ZZ=              1.1636
   XY=             -5.4516   XZ=              0.4627   YZ=             -0.3326
 Octapole moment (field-independent basis, Debye-Ang**2):
  XXX=              7.7639  YYY=             -2.4771  ZZZ=              0.1089  XYY=              6.6223
  XXY=             -1.3848  XXZ=              0.6129  XZZ=              0.6346  YZZ=              0.6535
  YYZ=              0.3676  XYZ=             -0.4676
 Hexadecapole moment (field-independent basis, Debye-Ang**3):
 XXXX=           -150.7786 YYYY=            -64.1706 ZZZZ=            -34.2677 XXXY=            -13.6734
 XXXZ=              1.1492 YYYX=             -9.8737 YYYZ=             -0.5699 ZZZX=              0.3302
 ZZZY=             -0.2295 XXYY=            -29.4119 XXZZ=            -30.5845 YYZZ=            -16.8325
 XXYZ=             -0.7828 YYXZ=              0.6538 ZZXY=             -1.3218
 N-N= 1.241846969531D+02 E-N=-1.421230147449D+03  KE= 4.929964071867D+02
 1\1\GINC-NODE85\SP\ROLYP\def2TZVP\H3O2P1\YANZ\22-Sep-2023\0\\# scrf=(c
 pcm,solvent=water) def2tzvp olyp\\tmpdir/M2_conf_0_23.gjf\\0,1\O,0,0.,
 0.,0.\P,0,1.6258,0.,0.\O,0,2.09272,0.,1.42432\H,0,-0.53129,-0.13705,0.
 70506\H,0,1.96639,-1.07905,-0.71855\H,0,1.98696,1.11021,-0.6485\\Versi
 on=ES64L-G16RevA.03\State=1-A\HF=-493.6801292\RMSD=9.441e-09\Dipole=-0
 .5268257,-0.1058653,-1.2230208\Quadrupole=0.9701953,0.8815893,-1.85178
 46,0.4682158,-4.840938,-0.1207722\PG=C01 [X(H3O2P1)]\\@


 JUST WHEN YOU THINK YOU'VE GOT THE WORLD ON A STRING,
 YOU FIND OUT IT'S YOUR LEASH.
 Job cpu time:       0 days  0 hours  0 minutes 38.2 seconds.
 Elapsed time:       0 days  0 hours  0 minutes 10.1 seconds.
 File lengths (MBytes):  RWF=     16 Int=      0 D2E=      0 Chk=      2 Scr=      1
 Normal termination of Gaussian 16 at Fri Sep 22 16:54:29 2023.
