 Entering Gaussian System, Link 0=g16
 Initial command:
 /share/apps/gaussian/g16/l1.exe "/tmp/55608.mgr/Gau-88337.inp" -scrdir="/tmp/55608.mgr/"
 Entering Link 1 = /share/apps/gaussian/g16/l1.exe PID=     88338.
  
 Copyright (c) 1988,1990,1992,1993,1995,1998,2003,2009,2016,
            Gaussian, Inc.  All Rights Reserved.
  
 This is part of the Gaussian(R) 16 program.  It is based on
 the Gaussian(R) 09 system (copyright 2009, Gaussian, Inc.),
 the Gaussian(R) 03 system (copyright 2003, Gaussian, Inc.),
 the Gaussian(R) 98 system (copyright 1998, Gaussian, Inc.),
 the Gaussian(R) 94 system (copyright 1995, Gaussian, Inc.),
 the Gaussian 92(TM) system (copyright 1992, Gaussian, Inc.),
 the Gaussian 90(TM) system (copyright 1990, Gaussian, Inc.),
 the Gaussian 88(TM) system (copyright 1988, Gaussian, Inc.),
 the Gaussian 86(TM) system (copyright 1986, Carnegie Mellon
 University), and the Gaussian 82(TM) system (copyright 1983,
 Carnegie Mellon University). Gaussian is a federally registered
 trademark of Gaussian, Inc.
  
 This software contains proprietary and confidential information,
 including trade secrets, belonging to Gaussian, Inc.
  
 This software is provided under written license and may be
 used, copied, transmitted, or stored only in accord with that
 written license.
  
 The following legend is applicable only to US Government
 contracts under FAR:
  
                    RESTRICTED RIGHTS LEGEND
  
 Use, reproduction and disclosure by the US Government is
 subject to restrictions as set forth in subparagraphs (a)
 and (c) of the Commercial Computer Software - Restricted
 Rights clause in FAR 52.227-19.
  
 Gaussian, Inc.
 340 Quinnipiac St., Bldg. 40, Wallingford CT 06492
  
  
 ---------------------------------------------------------------
 Warning -- This program may not be used in any manner that
 competes with the business of Gaussian, Inc. or will provide
 assistance to any competitor of Gaussian, Inc.  The licensee
 of this program is prohibited from giving any competitor of
 Gaussian, Inc. access to this program.  By using this program,
 the user acknowledges that Gaussian, Inc. is engaged in the
 business of creating and licensing software in the field of
 computational chemistry and represents and warrants to the
 licensee that it is not a competitor of Gaussian, Inc. and that
 it will not use this program in any manner prohibited above.
 ---------------------------------------------------------------
  

 Cite this work as:
 Gaussian 16, Revision A.03,
 M. J. Frisch, G. W. Trucks, H. B. Schlegel, G. E. Scuseria, 
 M. A. Robb, J. R. Cheeseman, G. Scalmani, V. Barone, 
 G. A. Petersson, H. Nakatsuji, X. Li, M. Caricato, A. V. Marenich, 
 J. Bloino, B. G. Janesko, R. Gomperts, B. Mennucci, H. P. Hratchian, 
 J. V. Ortiz, A. F. Izmaylov, J. L. Sonnenberg, D. Williams-Young, 
 F. Ding, F. Lipparini, F. Egidi, J. Goings, B. Peng, A. Petrone, 
 T. Henderson, D. Ranasinghe, V. G. Zakrzewski, J. Gao, N. Rega, 
 G. Zheng, W. Liang, M. Hada, M. Ehara, K. Toyota, R. Fukuda, 
 J. Hasegawa, M. Ishida, T. Nakajima, Y. Honda, O. Kitao, H. Nakai, 
 T. Vreven, K. Throssell, J. A. Montgomery, Jr., J. E. Peralta, 
 F. Ogliaro, M. J. Bearpark, J. J. Heyd, E. N. Brothers, K. N. Kudin, 
 V. N. Staroverov, T. A. Keith, R. Kobayashi, J. Normand, 
 K. Raghavachari, A. P. Rendell, J. C. Burant, S. S. Iyengar, 
 J. Tomasi, M. Cossi, J. M. Millam, M. Klene, C. Adamo, R. Cammi, 
 J. W. Ochterski, R. L. Martin, K. Morokuma, O. Farkas, 
 J. B. Foresman, and D. J. Fox, Gaussian, Inc., Wallingford CT, 2016.
 
 ******************************************
 Gaussian 16:  ES64L-G16RevA.03 25-Dec-2016
                22-Sep-2023 
 ******************************************
 %nprocshared=4
 Will use up to    4 processors via shared memory.
 %mem=4GB
 -----------------------------------------
 # scrf=(cpcm,solvent=water) def2tzvp olyp
 -----------------------------------------
 1/38=1,172=1/1;
 2/12=2,17=6,18=5,40=1/2;
 3/5=44,7=101,11=2,25=1,30=1,70=2101,72=1,74=2002/1,2,3;
 4//1;
 5/5=2,38=5,53=1/2;
 6/7=2,8=2,9=2,10=2,28=1/1;
 99/5=1,9=1/99;
 -----------------------
 tmpdir/M2_conf_0_24.gjf
 -----------------------
 Symbolic Z-matrix:
 Charge =  0 Multiplicity = 1
 O                     0.        0.        0. 
 P                     1.5593    0.        0. 
 O                     2.07441   0.        1.40761 
 H                    -0.42949   0.16939  -0.85547 
 H                     2.01532   0.99189  -0.77774 
 H                     1.93585  -1.16765  -0.65847 
 
                          Input orientation:                          
 ---------------------------------------------------------------------
 Center     Atomic      Atomic             Coordinates (Angstroms)
 Number     Number       Type             X           Y           Z
 ---------------------------------------------------------------------
      1          8           0        0.000000    0.000000    0.000000
      2         15           0        1.559300    0.000000    0.000000
      3          8           0        2.074410    0.000000    1.407610
      4          1           0       -0.429490    0.169390   -0.855470
      5          1           0        2.015320    0.991890   -0.777740
      6          1           0        1.935850   -1.167650   -0.658470
 ---------------------------------------------------------------------
                    Distance matrix (angstroms):
                    1          2          3          4          5
     1  O    0.000000
     2  P    1.559300   0.000000
     3  O    2.506899   1.498901   0.000000
     4  H    0.972103   2.171591   3.379310   0.000000
     5  H    2.377023   1.340403   2.400644   2.580629   0.000000
     6  H    2.354677   1.392401   2.377245   2.724210   2.164291
                    6
     6  H    0.000000
 Stoichiometry    H3O2P
 Framework group  C1[X(H3O2P)]
 Deg. of freedom    12
 Full point group                 C1      NOp   1
 Largest Abelian subgroup         C1      NOp   1
 Largest concise Abelian subgroup C1      NOp   1
                         Standard orientation:                         
 ---------------------------------------------------------------------
 Center     Atomic      Atomic             Coordinates (Angstroms)
 Number     Number       Type             X           Y           Z
 ---------------------------------------------------------------------
      1          8           0        1.212310   -0.486703    0.019868
      2         15           0       -0.087447    0.374371   -0.004620
      3          8           0       -1.294224   -0.514635   -0.012495
      4          1           0        2.044982   -0.012201   -0.142887
      5          1           0       -0.025124    1.265829   -1.003669
      6          1           0       -0.052844    1.141520    1.156871
 ---------------------------------------------------------------------
 Rotational constants (GHZ):          28.6731642           8.8530287           7.2272130
 Standard basis: def2TZVP (5D, 7F)
 There are   132 symmetry adapted cartesian basis functions of A   symmetry.
 There are   117 symmetry adapted basis functions of A   symmetry.
   117 basis functions,   195 primitive gaussians,   132 cartesian basis functions
    17 alpha electrons       17 beta electrons
       nuclear repulsion energy       125.2514325757 Hartrees.
 NAtoms=    6 NActive=    6 NUniq=    6 SFac= 1.00D+00 NAtFMM=   60 NAOKFM=F Big=F
 Integral buffers will be    131072 words long.
 Raffenetti 2 integral format.
 Two-electron integral symmetry is turned on.
 ------------------------------------------------------------------------------
 Polarizable Continuum Model (PCM)
 =================================
 Model                : C-PCM.
 Atomic radii         : UFF (Universal Force Field).
 Polarization charges : Total charges.
 Charge compensation  : None.
 Solution method      : On-the-fly selection.
 Cavity type          : Scaled VdW (van der Waals Surface) (Alpha=1.100).
 Cavity algorithm     : GePol (No added spheres)
                        Default sphere list used, NSphG=    6.
                        Lebedev-Laikov grids with approx.  5.0 points / Ang**2.
                        Smoothing algorithm: York/Karplus (Gamma=1.0000).
                        Polarization charges: spherical gaussians, with
                                              point-specific exponents (IZeta= 3).
                        Self-potential: point-specific (ISelfS= 7).
                        Self-field    : sphere-specific E.n sum rule (ISelfD= 2).
 Solvent              : Water, Eps=  78.355300 Eps(inf)=   1.777849
 ------------------------------------------------------------------------------
 Spheres list:
 ISph  on   Nord     Re0    Alpha      Xe            Ye            Ze
    1   O      1    1.7500  1.100      1.212310     -0.486703      0.019868
    2   P      2    2.0735  1.100     -0.087447      0.374371     -0.004620
    3   O      3    1.7500  1.100     -1.294224     -0.514635     -0.012495
    4   H      4    1.4430  1.100      2.044982     -0.012201     -0.142887
    5   H      5    1.4430  1.100     -0.025124      1.265829     -1.003669
    6   H      6    1.4430  1.100     -0.052844      1.141520      1.156871
 ------------------------------------------------------------------------------
 One-electron integrals computed using PRISM.
   1 Symmetry operations used in ECPInt.
 ECPInt:  NShTT=    1128 NPrTT=    3744 LenC2=    1124 LenP2D=    3219.
 LDataN:  DoStor=T MaxTD1= 6 Len=  172
 NBasis=   117 RedAO= T EigKep=  2.09D-03  NBF=   117
 NBsUse=   117 1.00D-06 EigRej= -1.00D+00 NBFU=   117
 ExpMin= 9.04D-02 ExpMax= 5.24D+04 ExpMxC= 1.79D+03 IAcc=3 IRadAn=         5 AccDes= 0.00D+00
 Harris functional with IExCor= 2002 and IRadAn=       5 diagonalized for initial guess.
 HarFok:  IExCor= 2002 AccDes= 0.00D+00 IRadAn=         5 IDoV= 1 UseB2=F ITyADJ=14
 ICtDFT=  3500011 ScaDFX=  1.000000  1.000000  1.000000  1.000000
 FoFCou: FMM=F IPFlag=           0 FMFlag=      100000 FMFlg1=           0
         NFxFlg=           0 DoJE=T BraDBF=F KetDBF=T FulRan=T
         wScrn=  0.000000 ICntrl=       500 IOpCl=  0 I1Cent=   200000004 NGrid=           0
         NMat0=    1 NMatS0=      1 NMatT0=    0 NMatD0=    1 NMtDS0=    0 NMtDT0=    0
 Petite list used in FoFCou.
 Keep J ints in memory in canonical form, NReq=27663592.
 Requested convergence on RMS density matrix=1.00D-08 within 128 cycles.
 Requested convergence on MAX density matrix=1.00D-06.
 Requested convergence on             energy=1.00D-06.
 No special actions if energy rises.
 Inv3:  Mode=1 IEnd=     1719147.
 Iteration    1 A*A^-1 deviation from unit magnitude is 3.11D-15 for    735.
 Iteration    1 A*A^-1 deviation from orthogonality  is 1.05D-15 for    745    125.
 Iteration    1 A^-1*A deviation from unit magnitude is 3.11D-15 for    735.
 Iteration    1 A^-1*A deviation from orthogonality  is 1.10D-15 for    754     44.
 Error on total polarization charges =  0.00811
 SCF Done:  E(RO-LYP) =  -493.693568989     A.U. after   11 cycles
            NFock= 11  Conv=0.90D-08     -V/T= 2.0015

 **********************************************************************

            Population analysis using the SCF density.

 **********************************************************************

 Orbital symmetries:
       Occupied  (A) (A) (A) (A) (A) (A) (A) (A) (A) (A) (A) (A)
                 (A) (A) (A) (A) (A)
       Virtual   (A) (A) (A) (A) (A) (A) (A) (A) (A) (A) (A) (A)
                 (A) (A) (A) (A) (A) (A) (A) (A) (A) (A) (A) (A)
                 (A) (A) (A) (A) (A) (A) (A) (A) (A) (A) (A) (A)
                 (A) (A) (A) (A) (A) (A) (A) (A) (A) (A) (A) (A)
                 (A) (A) (A) (A) (A) (A) (A) (A) (A) (A) (A) (A)
                 (A) (A) (A) (A) (A) (A) (A) (A) (A) (A) (A) (A)
                 (A) (A) (A) (A) (A) (A) (A) (A) (A) (A) (A) (A)
                 (A) (A) (A) (A) (A) (A) (A) (A) (A) (A) (A) (A)
                 (A) (A) (A) (A)
 The electronic state is 1-A.
 Alpha  occ. eigenvalues --  -76.36734 -18.80682 -18.71975  -6.39891  -4.60941
 Alpha  occ. eigenvalues --   -4.60669  -4.60600  -0.99221  -0.87741  -0.58679
 Alpha  occ. eigenvalues --   -0.50320  -0.41834  -0.37205  -0.33282  -0.30449
 Alpha  occ. eigenvalues --   -0.25860  -0.24114
 Alpha virt. eigenvalues --   -0.00830   0.00808   0.03600   0.04703   0.08755
 Alpha virt. eigenvalues --    0.16915   0.20019   0.22407   0.27348   0.28204
 Alpha virt. eigenvalues --    0.29839   0.30531   0.35046   0.39596   0.43315
 Alpha virt. eigenvalues --    0.44534   0.45895   0.48350   0.52750   0.57814
 Alpha virt. eigenvalues --    0.60246   0.63346   0.64652   0.76227   0.76994
 Alpha virt. eigenvalues --    1.02739   1.06234   1.09416   1.10006   1.12103
 Alpha virt. eigenvalues --    1.17107   1.22845   1.24771   1.29351   1.34503
 Alpha virt. eigenvalues --    1.37790   1.38934   1.49684   1.50881   1.56337
 Alpha virt. eigenvalues --    1.57679   1.59999   1.74230   1.80904   1.83226
 Alpha virt. eigenvalues --    1.84967   1.87974   1.90643   1.99827   2.02244
 Alpha virt. eigenvalues --    2.06786   2.12246   2.14687   2.17219   2.20940
 Alpha virt. eigenvalues --    2.24760   2.38578   2.45516   2.47325   2.59715
 Alpha virt. eigenvalues --    2.65206   2.66625   2.75191   2.76825   2.80203
 Alpha virt. eigenvalues --    2.84289   2.87282   3.37124   3.62449   3.75274
 Alpha virt. eigenvalues --    4.96266   4.99261   5.02921   5.05038   5.07921
 Alpha virt. eigenvalues --    5.10633   5.17021   5.19087   5.23434   5.24896
 Alpha virt. eigenvalues --    5.28826   5.34294   5.45737   6.00491   6.17283
 Alpha virt. eigenvalues --    6.20782   6.24784   6.38306   6.42517   6.52422
 Alpha virt. eigenvalues --    6.56985   6.63502   6.73720   6.86509   7.19952
 Alpha virt. eigenvalues --    7.52068   7.88607  15.92307  43.06287  43.16681
          Condensed to atoms (all electrons):
               1          2          3          4          5          6
     1  O    7.871134   0.387043  -0.055954   0.275193  -0.033963  -0.037182
     2  P    0.387043  12.582624   0.728480  -0.000160   0.357674   0.367124
     3  O   -0.055954   0.728480   7.996925   0.003277  -0.038245  -0.045110
     4  H    0.275193  -0.000160   0.003277   0.370734  -0.000578   0.001248
     5  H   -0.033963   0.357674  -0.038245  -0.000578   0.731127  -0.061122
     6  H   -0.037182   0.367124  -0.045110   0.001248  -0.061122   0.752005
 Mulliken charges:
               1
     1  O   -0.406271
     2  P    0.577216
     3  O   -0.589373
     4  H    0.350286
     5  H    0.045107
     6  H    0.023036
 Sum of Mulliken charges =  -0.00000
 Mulliken charges with hydrogens summed into heavy atoms:
               1
     1  O   -0.055985
     2  P    0.645359
     3  O   -0.589373
 Electronic spatial extent (au):  <R**2>=            200.1687
 Charge=             -0.0000 electrons
 Dipole moment (field-independent basis, Debye):
    X=              4.9598    Y=              3.9106    Z=             -0.4870  Tot=              6.3348
 Quadrupole moment (field-independent basis, Debye-Ang):
   XX=            -24.2000   YY=            -24.9395   ZZ=            -23.8819
   XY=             -0.6463   XZ=             -0.7889   YZ=             -0.2840
 Traceless Quadrupole moment (field-independent basis, Debye-Ang):
   XX=              0.1405   YY=             -0.5991   ZZ=              0.4586
   XY=             -0.6463   XZ=             -0.7889   YZ=             -0.2840
 Octapole moment (field-independent basis, Debye-Ang**2):
  XXX=             25.2550  YYY=              1.3146  ZZZ=             -0.6175  XYY=              1.2972
  XXY=              4.7242  XXZ=             -1.5599  XZZ=              1.2827  YZZ=              0.3118
  YYZ=             -0.3913  XYZ=              0.0775
 Hexadecapole moment (field-independent basis, Debye-Ang**3):
 XXXX=           -119.3090 YYYY=            -65.5117 ZZZZ=            -35.9816 XXXY=             -1.6073
 XXXZ=             -3.5531 YYYX=             -1.1234 YYYZ=             -0.8959 ZZZX=             -0.3966
 ZZZY=             -0.5353 XXYY=            -36.9980 XXZZ=            -30.8261 YYZZ=            -16.8872
 XXYZ=             -0.1879 YYXZ=             -0.0863 ZZXY=             -0.3727
 N-N= 1.252514325757D+02 E-N=-1.423338589903D+03  KE= 4.929340947152D+02
 1\1\GINC-NODE85\SP\ROLYP\def2TZVP\H3O2P1\YANZ\22-Sep-2023\0\\# scrf=(c
 pcm,solvent=water) def2tzvp olyp\\tmpdir/M2_conf_0_24.gjf\\0,1\O,0,0.,
 0.,0.\P,0,1.5593,0.,0.\O,0,2.07441,0.,1.40761\H,0,-0.42949,0.16939,-0.
 85547\H,0,2.01532,0.99189,-0.77774\H,0,1.93585,-1.16765,-0.65847\\Vers
 ion=ES64L-G16RevA.03\State=1-A\HF=-493.693569\RMSD=9.024e-09\Dipole=-0
 .7739021,0.2034284,-2.3603474\Quadrupole=0.3675406,0.3524785,-0.720019
 1,-0.3727505,0.0579613,-0.5011205\PG=C01 [X(H3O2P1)]\\@


 WE ARE PERHAPS NOT FAR REMOVED FROM THE TIME WHEN WE SHALL BE ABLE TO SUBMIT
 THE BULK OF CHEMICAL PHENOMENA TO CALCULATION.

            -- JOSEPH LOUIS GAY-LUSSAC
               MEMOIRES DE LA SOCIETE D'ARCUEIL, 2, 207 (1808)
 Job cpu time:       0 days  0 hours  0 minutes 39.0 seconds.
 Elapsed time:       0 days  0 hours  0 minutes 10.4 seconds.
 File lengths (MBytes):  RWF=     16 Int=      0 D2E=      0 Chk=      2 Scr=      1
 Normal termination of Gaussian 16 at Fri Sep 22 16:54:07 2023.
