 Entering Gaussian System, Link 0=g16
 Initial command:
 /share/apps/gaussian/g16/l1.exe "/tmp/55608.mgr/Gau-89458.inp" -scrdir="/tmp/55608.mgr/"
 Entering Link 1 = /share/apps/gaussian/g16/l1.exe PID=     89459.
  
 Copyright (c) 1988,1990,1992,1993,1995,1998,2003,2009,2016,
            Gaussian, Inc.  All Rights Reserved.
  
 This is part of the Gaussian(R) 16 program.  It is based on
 the Gaussian(R) 09 system (copyright 2009, Gaussian, Inc.),
 the Gaussian(R) 03 system (copyright 2003, Gaussian, Inc.),
 the Gaussian(R) 98 system (copyright 1998, Gaussian, Inc.),
 the Gaussian(R) 94 system (copyright 1995, Gaussian, Inc.),
 the Gaussian 92(TM) system (copyright 1992, Gaussian, Inc.),
 the Gaussian 90(TM) system (copyright 1990, Gaussian, Inc.),
 the Gaussian 88(TM) system (copyright 1988, Gaussian, Inc.),
 the Gaussian 86(TM) system (copyright 1986, Carnegie Mellon
 University), and the Gaussian 82(TM) system (copyright 1983,
 Carnegie Mellon University). Gaussian is a federally registered
 trademark of Gaussian, Inc.
  
 This software contains proprietary and confidential information,
 including trade secrets, belonging to Gaussian, Inc.
  
 This software is provided under written license and may be
 used, copied, transmitted, or stored only in accord with that
 written license.
  
 The following legend is applicable only to US Government
 contracts under FAR:
  
                    RESTRICTED RIGHTS LEGEND
  
 Use, reproduction and disclosure by the US Government is
 subject to restrictions as set forth in subparagraphs (a)
 and (c) of the Commercial Computer Software - Restricted
 Rights clause in FAR 52.227-19.
  
 Gaussian, Inc.
 340 Quinnipiac St., Bldg. 40, Wallingford CT 06492
  
  
 ---------------------------------------------------------------
 Warning -- This program may not be used in any manner that
 competes with the business of Gaussian, Inc. or will provide
 assistance to any competitor of Gaussian, Inc.  The licensee
 of this program is prohibited from giving any competitor of
 Gaussian, Inc. access to this program.  By using this program,
 the user acknowledges that Gaussian, Inc. is engaged in the
 business of creating and licensing software in the field of
 computational chemistry and represents and warrants to the
 licensee that it is not a competitor of Gaussian, Inc. and that
 it will not use this program in any manner prohibited above.
 ---------------------------------------------------------------
  

 Cite this work as:
 Gaussian 16, Revision A.03,
 M. J. Frisch, G. W. Trucks, H. B. Schlegel, G. E. Scuseria, 
 M. A. Robb, J. R. Cheeseman, G. Scalmani, V. Barone, 
 G. A. Petersson, H. Nakatsuji, X. Li, M. Caricato, A. V. Marenich, 
 J. Bloino, B. G. Janesko, R. Gomperts, B. Mennucci, H. P. Hratchian, 
 J. V. Ortiz, A. F. Izmaylov, J. L. Sonnenberg, D. Williams-Young, 
 F. Ding, F. Lipparini, F. Egidi, J. Goings, B. Peng, A. Petrone, 
 T. Henderson, D. Ranasinghe, V. G. Zakrzewski, J. Gao, N. Rega, 
 G. Zheng, W. Liang, M. Hada, M. Ehara, K. Toyota, R. Fukuda, 
 J. Hasegawa, M. Ishida, T. Nakajima, Y. Honda, O. Kitao, H. Nakai, 
 T. Vreven, K. Throssell, J. A. Montgomery, Jr., J. E. Peralta, 
 F. Ogliaro, M. J. Bearpark, J. J. Heyd, E. N. Brothers, K. N. Kudin, 
 V. N. Staroverov, T. A. Keith, R. Kobayashi, J. Normand, 
 K. Raghavachari, A. P. Rendell, J. C. Burant, S. S. Iyengar, 
 J. Tomasi, M. Cossi, J. M. Millam, M. Klene, C. Adamo, R. Cammi, 
 J. W. Ochterski, R. L. Martin, K. Morokuma, O. Farkas, 
 J. B. Foresman, and D. J. Fox, Gaussian, Inc., Wallingford CT, 2016.
 
 ******************************************
 Gaussian 16:  ES64L-G16RevA.03 25-Dec-2016
                22-Sep-2023 
 ******************************************
 %nprocshared=4
 Will use up to    4 processors via shared memory.
 %mem=4GB
 -----------------------------------------
 # scrf=(cpcm,solvent=water) def2tzvp olyp
 -----------------------------------------
 1/38=1,172=1/1;
 2/12=2,17=6,18=5,40=1/2;
 3/5=44,7=101,11=2,25=1,30=1,70=2101,72=1,74=2002/1,2,3;
 4//1;
 5/5=2,38=5,53=1/2;
 6/7=2,8=2,9=2,10=2,28=1/1;
 99/5=1,9=1/99;
 -----------------------
 tmpdir/M2_conf_0_53.gjf
 -----------------------
 Symbolic Z-matrix:
 Charge = -1 Multiplicity = 1
 C                     0.        0.        0. 
 O                     1.3763    0.        0. 
 H                    -0.46031   0.       -1.01994 
 H                    -0.4612   -0.8825    0.51054 
 H                    -0.46017   0.88371   0.50959 
 
                          Input orientation:                          
 ---------------------------------------------------------------------
 Center     Atomic      Atomic             Coordinates (Angstroms)
 Number     Number       Type             X           Y           Z
 ---------------------------------------------------------------------
      1          6           0        0.000000    0.000000    0.000000
      2          8           0        1.376300    0.000000    0.000000
      3          1           0       -0.460310    0.000000   -1.019940
      4          1           0       -0.461200   -0.882500    0.510540
      5          1           0       -0.460170    0.883710    0.509590
 ---------------------------------------------------------------------
                    Distance matrix (angstroms):
                    1          2          3          4          5
     1  C    0.000000
     2  O    1.376300   0.000000
     3  H    1.119001   2.100813   0.000000
     4  H    1.119001   2.101396   1.766685   0.000000
     5  H    1.119099   2.100773   1.766467   1.766211   0.000000
 Stoichiometry    CH3O(1-)
 Framework group  C1[X(CH3O)]
 Deg. of freedom     9
 Full point group                 C1      NOp   1
 Largest Abelian subgroup         C1      NOp   1
 Largest concise Abelian subgroup C1      NOp   1
                         Standard orientation:                         
 ---------------------------------------------------------------------
 Center     Atomic      Atomic             Coordinates (Angstroms)
 Number     Number       Type             X           Y           Z
 ---------------------------------------------------------------------
      1          6           0       -0.566395    0.000025   -0.000101
      2          8           0        0.809905   -0.000051   -0.000029
      3          1           0       -1.026638    0.991275   -0.240441
      4          1           0       -1.027595   -0.704047   -0.737488
      5          1           0       -1.026632   -0.286975    0.978772
 ---------------------------------------------------------------------
 Rotational constants (GHZ):         160.7042372          26.8795941          26.8781986
 Standard basis: def2TZVP (5D, 7F)
 There are    90 symmetry adapted cartesian basis functions of A   symmetry.
 There are    80 symmetry adapted basis functions of A   symmetry.
    80 basis functions,   126 primitive gaussians,    90 cartesian basis functions
     9 alpha electrons        9 beta electrons
       nuclear repulsion energy        33.9112160424 Hartrees.
 NAtoms=    5 NActive=    5 NUniq=    5 SFac= 1.00D+00 NAtFMM=   60 NAOKFM=F Big=F
 Integral buffers will be    131072 words long.
 Raffenetti 2 integral format.
 Two-electron integral symmetry is turned on.
 ------------------------------------------------------------------------------
 Polarizable Continuum Model (PCM)
 =================================
 Model                : C-PCM.
 Atomic radii         : UFF (Universal Force Field).
 Polarization charges : Total charges.
 Charge compensation  : None.
 Solution method      : On-the-fly selection.
 Cavity type          : Scaled VdW (van der Waals Surface) (Alpha=1.100).
 Cavity algorithm     : GePol (No added spheres)
                        Default sphere list used, NSphG=    5.
                        Lebedev-Laikov grids with approx.  5.0 points / Ang**2.
                        Smoothing algorithm: York/Karplus (Gamma=1.0000).
                        Polarization charges: spherical gaussians, with
                                              point-specific exponents (IZeta= 3).
                        Self-potential: point-specific (ISelfS= 7).
                        Self-field    : sphere-specific E.n sum rule (ISelfD= 2).
 Solvent              : Water, Eps=  78.355300 Eps(inf)=   1.777849
 ------------------------------------------------------------------------------
 Spheres list:
 ISph  on   Nord     Re0    Alpha      Xe            Ye            Ze
    1   C      1    1.9255  1.100     -0.566395      0.000025     -0.000101
    2   O      2    1.7500  1.100      0.809905     -0.000051     -0.000029
    3   H      3    1.4430  1.100     -1.026638      0.991275     -0.240441
    4   H      4    1.4430  1.100     -1.027595     -0.704047     -0.737488
    5   H      5    1.4430  1.100     -1.026632     -0.286975      0.978772
 ------------------------------------------------------------------------------
 One-electron integrals computed using PRISM.
   1 Symmetry operations used in ECPInt.
 ECPInt:  NShTT=     595 NPrTT=    1764 LenC2=     595 LenP2D=    1623.
 LDataN:  DoStor=T MaxTD1= 6 Len=  172
 NBasis=    80 RedAO= T EigKep=  1.85D-03  NBF=    80
 NBsUse=    80 1.00D-06 EigRej= -1.00D+00 NBFU=    80
 ExpMin= 9.52D-02 ExpMax= 2.70D+04 ExpMxC= 9.22D+02 IAcc=3 IRadAn=         5 AccDes= 0.00D+00
 Harris functional with IExCor= 2002 and IRadAn=       5 diagonalized for initial guess.
 HarFok:  IExCor= 2002 AccDes= 0.00D+00 IRadAn=         5 IDoV= 1 UseB2=F ITyADJ=14
 ICtDFT=  3500011 ScaDFX=  1.000000  1.000000  1.000000  1.000000
 FoFCou: FMM=F IPFlag=           0 FMFlag=      100000 FMFlg1=           0
         NFxFlg=           0 DoJE=T BraDBF=F KetDBF=T FulRan=T
         wScrn=  0.000000 ICntrl=       500 IOpCl=  0 I1Cent=   200000004 NGrid=           0
         NMat0=    1 NMatS0=      1 NMatT0=    0 NMatD0=    1 NMtDS0=    0 NMtDT0=    0
 Petite list used in FoFCou.
 Keep J ints in memory in canonical form, NReq=8902651.
 Requested convergence on RMS density matrix=1.00D-08 within 128 cycles.
 Requested convergence on MAX density matrix=1.00D-06.
 Requested convergence on             energy=1.00D-06.
 No special actions if energy rises.
 Inv3:  Mode=1 IEnd=     1040763.
 Iteration    1 A*A^-1 deviation from unit magnitude is 3.00D-15 for    583.
 Iteration    1 A*A^-1 deviation from orthogonality  is 1.87D-15 for    556    198.
 Iteration    1 A^-1*A deviation from unit magnitude is 3.00D-15 for    583.
 Iteration    1 A^-1*A deviation from orthogonality  is 1.29D-15 for    585    331.
 Error on total polarization charges =  0.01616
 SCF Done:  E(RO-LYP) =  -115.211449647     A.U. after   12 cycles
            NFock= 12  Conv=0.18D-08     -V/T= 2.0033

 **********************************************************************

            Population analysis using the SCF density.

 **********************************************************************

 Orbital symmetries:
       Occupied  (A) (A) (A) (A) (A) (A) (A) (A) (A)
       Virtual   (A) (A) (A) (A) (A) (A) (A) (A) (A) (A) (A) (A)
                 (A) (A) (A) (A) (A) (A) (A) (A) (A) (A) (A) (A)
                 (A) (A) (A) (A) (A) (A) (A) (A) (A) (A) (A) (A)
                 (A) (A) (A) (A) (A) (A) (A) (A) (A) (A) (A) (A)
                 (A) (A) (A) (A) (A) (A) (A) (A) (A) (A) (A) (A)
                 (A) (A) (A) (A) (A) (A) (A) (A) (A) (A) (A)
 The electronic state is 1-A.
 Alpha  occ. eigenvalues --  -18.60432  -9.87818  -0.76998  -0.51743  -0.31307
 Alpha  occ. eigenvalues --   -0.31299  -0.25619  -0.10340  -0.10336
 Alpha virt. eigenvalues --    0.05101   0.11038   0.12491   0.12493   0.22668
 Alpha virt. eigenvalues --    0.22675   0.33844   0.38031   0.43033   0.43041
 Alpha virt. eigenvalues --    0.43066   0.50376   0.53930   0.53937   0.70724
 Alpha virt. eigenvalues --    0.70740   0.78715   0.93526   0.93535   1.03498
 Alpha virt. eigenvalues --    1.39912   1.39918   1.45532   1.51286   1.59801
 Alpha virt. eigenvalues --    1.59825   1.63849   1.65237   1.65240   1.95281
 Alpha virt. eigenvalues --    1.99938   1.99984   2.02253   2.25044   2.25084
 Alpha virt. eigenvalues --    2.25356   2.39102   2.39135   2.50711   2.50745
 Alpha virt. eigenvalues --    2.77957   2.77992   2.79088   2.91144   2.97811
 Alpha virt. eigenvalues --    2.97818   3.10272   3.19173   3.38876   3.38914
 Alpha virt. eigenvalues --    3.47243   3.54338   3.54351   4.06420   4.06457
 Alpha virt. eigenvalues --    4.19452   4.39613   5.17106   5.18183   5.36662
 Alpha virt. eigenvalues --    5.36668   5.78773   5.78778   5.91655   6.33090
 Alpha virt. eigenvalues --    6.33099   6.72479   6.72492   6.90998  22.13494
 Alpha virt. eigenvalues --   43.30351
          Condensed to atoms (all electrons):
               1          2          3          4          5
     1  C    4.525142   0.560036   0.349094   0.348510   0.348890
     2  O    0.560036   8.627230  -0.103768  -0.103639  -0.103791
     3  H    0.349094  -0.103768   1.008486  -0.128243  -0.128193
     4  H    0.348510  -0.103639  -0.128243   1.009010  -0.128223
     5  H    0.348890  -0.103791  -0.128193  -0.128223   1.008789
 Mulliken charges:
               1
     1  C   -0.131671
     2  O   -0.876067
     3  H    0.002625
     4  H    0.002585
     5  H    0.002529
 Sum of Mulliken charges =  -1.00000
 Mulliken charges with hydrogens summed into heavy atoms:
               1
     1  C   -0.123933
     2  O   -0.876067
 Electronic spatial extent (au):  <R**2>=             87.6198
 Charge=             -1.0000 electrons
 Dipole moment (field-independent basis, Debye):
    X=             -3.0706    Y=              0.0003    Z=             -0.0004  Tot=              3.0706
 Quadrupole moment (field-independent basis, Debye-Ang):
   XX=            -20.3837   YY=            -16.4155   ZZ=            -16.4173
   XY=              0.0006   XZ=              0.0012   YZ=              0.0000
 Traceless Quadrupole moment (field-independent basis, Debye-Ang):
   XX=             -2.6449   YY=              1.3233   ZZ=              1.3215
   XY=              0.0006   XZ=              0.0012   YZ=              0.0000
 Octapole moment (field-independent basis, Debye-Ang**2):
  XXX=              1.0547  YYY=             -0.1917  ZZZ=             -0.1687  XYY=              1.1996
  XXY=              0.0003  XXZ=             -0.0005  XZZ=              1.2016  YZZ=              0.1924
  YYZ=              0.1663  XYZ=             -0.0001
 Hexadecapole moment (field-independent basis, Debye-Ang**3):
 XXXX=            -78.6816 YYYY=            -28.3732 ZZZZ=            -28.3740 XXXY=              0.0002
 XXXZ=              0.0024 YYYX=              0.3781 YYYZ=              0.0000 ZZZX=              0.3307
 ZZZY=              0.0001 XXYY=            -18.7528 XXZZ=            -18.7545 YYZZ=             -9.4579
 XXYZ=              0.0001 YYXZ=             -0.3276 ZZXY=             -0.3782
 N-N= 3.391121604242D+01 E-N=-3.441096083056D+02  KE= 1.148366142242D+02
 1\1\GINC-NODE85\SP\ROLYP\def2TZVP\C1H3O1(1-)\YANZ\22-Sep-2023\0\\# scr
 f=(cpcm,solvent=water) def2tzvp olyp\\tmpdir/M2_conf_0_53.gjf\\-1,1\C,
 0,0.,0.,0.\O,0,1.3763,0.,0.\H,0,-0.46031,0.,-1.01994\H,0,-0.4612,-0.88
 25,0.51054\H,0,-0.46017,0.88371,0.50959\\Version=ES64L-G16RevA.03\Stat
 e=1-A\HF=-115.2114496\RMSD=1.839e-09\Dipole=-1.2080581,-0.0000778,-0.0
 000844\Quadrupole=-1.966401,0.9826184,0.9837826,0.0010766,-0.0000545,-
 0.0003249\PG=C01 [X(C1H3O1)]\\@


 BE LIKE A POSTAGE STAMP.  STICK TO ONE THING UNTIL
 YOU GET THERE -- JOSH BILLINGS
 Job cpu time:       0 days  0 hours  0 minutes 22.8 seconds.
 Elapsed time:       0 days  0 hours  0 minutes  5.9 seconds.
 File lengths (MBytes):  RWF=     10 Int=      0 D2E=      0 Chk=      2 Scr=      1
 Normal termination of Gaussian 16 at Fri Sep 22 16:54:58 2023.
