 Entering Gaussian System, Link 0=g16
 Initial command:
 /share/apps/gaussian/g16/l1.exe "/tmp/55608.mgr/Gau-87921.inp" -scrdir="/tmp/55608.mgr/"
 Entering Link 1 = /share/apps/gaussian/g16/l1.exe PID=     87922.
  
 Copyright (c) 1988,1990,1992,1993,1995,1998,2003,2009,2016,
            Gaussian, Inc.  All Rights Reserved.
  
 This is part of the Gaussian(R) 16 program.  It is based on
 the Gaussian(R) 09 system (copyright 2009, Gaussian, Inc.),
 the Gaussian(R) 03 system (copyright 2003, Gaussian, Inc.),
 the Gaussian(R) 98 system (copyright 1998, Gaussian, Inc.),
 the Gaussian(R) 94 system (copyright 1995, Gaussian, Inc.),
 the Gaussian 92(TM) system (copyright 1992, Gaussian, Inc.),
 the Gaussian 90(TM) system (copyright 1990, Gaussian, Inc.),
 the Gaussian 88(TM) system (copyright 1988, Gaussian, Inc.),
 the Gaussian 86(TM) system (copyright 1986, Carnegie Mellon
 University), and the Gaussian 82(TM) system (copyright 1983,
 Carnegie Mellon University). Gaussian is a federally registered
 trademark of Gaussian, Inc.
  
 This software contains proprietary and confidential information,
 including trade secrets, belonging to Gaussian, Inc.
  
 This software is provided under written license and may be
 used, copied, transmitted, or stored only in accord with that
 written license.
  
 The following legend is applicable only to US Government
 contracts under FAR:
  
                    RESTRICTED RIGHTS LEGEND
  
 Use, reproduction and disclosure by the US Government is
 subject to restrictions as set forth in subparagraphs (a)
 and (c) of the Commercial Computer Software - Restricted
 Rights clause in FAR 52.227-19.
  
 Gaussian, Inc.
 340 Quinnipiac St., Bldg. 40, Wallingford CT 06492
  
  
 ---------------------------------------------------------------
 Warning -- This program may not be used in any manner that
 competes with the business of Gaussian, Inc. or will provide
 assistance to any competitor of Gaussian, Inc.  The licensee
 of this program is prohibited from giving any competitor of
 Gaussian, Inc. access to this program.  By using this program,
 the user acknowledges that Gaussian, Inc. is engaged in the
 business of creating and licensing software in the field of
 computational chemistry and represents and warrants to the
 licensee that it is not a competitor of Gaussian, Inc. and that
 it will not use this program in any manner prohibited above.
 ---------------------------------------------------------------
  

 Cite this work as:
 Gaussian 16, Revision A.03,
 M. J. Frisch, G. W. Trucks, H. B. Schlegel, G. E. Scuseria, 
 M. A. Robb, J. R. Cheeseman, G. Scalmani, V. Barone, 
 G. A. Petersson, H. Nakatsuji, X. Li, M. Caricato, A. V. Marenich, 
 J. Bloino, B. G. Janesko, R. Gomperts, B. Mennucci, H. P. Hratchian, 
 J. V. Ortiz, A. F. Izmaylov, J. L. Sonnenberg, D. Williams-Young, 
 F. Ding, F. Lipparini, F. Egidi, J. Goings, B. Peng, A. Petrone, 
 T. Henderson, D. Ranasinghe, V. G. Zakrzewski, J. Gao, N. Rega, 
 G. Zheng, W. Liang, M. Hada, M. Ehara, K. Toyota, R. Fukuda, 
 J. Hasegawa, M. Ishida, T. Nakajima, Y. Honda, O. Kitao, H. Nakai, 
 T. Vreven, K. Throssell, J. A. Montgomery, Jr., J. E. Peralta, 
 F. Ogliaro, M. J. Bearpark, J. J. Heyd, E. N. Brothers, K. N. Kudin, 
 V. N. Staroverov, T. A. Keith, R. Kobayashi, J. Normand, 
 K. Raghavachari, A. P. Rendell, J. C. Burant, S. S. Iyengar, 
 J. Tomasi, M. Cossi, J. M. Millam, M. Klene, C. Adamo, R. Cammi, 
 J. W. Ochterski, R. L. Martin, K. Morokuma, O. Farkas, 
 J. B. Foresman, and D. J. Fox, Gaussian, Inc., Wallingford CT, 2016.
 
 ******************************************
 Gaussian 16:  ES64L-G16RevA.03 25-Dec-2016
                22-Sep-2023 
 ******************************************
 %nprocshared=4
 Will use up to    4 processors via shared memory.
 %mem=4GB
 -----------------------------------------
 # scrf=(cpcm,solvent=water) def2tzvp olyp
 -----------------------------------------
 1/38=1,172=1/1;
 2/12=2,17=6,18=5,40=1/2;
 3/5=44,7=101,11=2,25=1,30=1,70=2101,72=1,74=2002/1,2,3;
 4//1;
 5/5=2,38=5,53=1/2;
 6/7=2,8=2,9=2,10=2,28=1/1;
 99/5=1,9=1/99;
 ----------------------
 tmpdir/M2_conf_0_1.gjf
 ----------------------
 Symbolic Z-matrix:
 Charge =  0 Multiplicity = 1
 O                     0.        0.        0. 
 P                     1.4794    0.        0. 
 H                     2.07451   0.        1.22177 
 H                     2.14945  -0.85771  -0.71818 
 H                     1.91725   1.32615  -0.48688 
 
                          Input orientation:                          
 ---------------------------------------------------------------------
 Center     Atomic      Atomic             Coordinates (Angstroms)
 Number     Number       Type             X           Y           Z
 ---------------------------------------------------------------------
      1          8           0        0.000000    0.000000    0.000000
      2         15           0        1.479400    0.000000    0.000000
      3          1           0        2.074510    0.000000    1.221770
      4          1           0        2.149450   -0.857710   -0.718180
      5          1           0        1.917250    1.326150   -0.486880
 ---------------------------------------------------------------------
                    Distance matrix (angstroms):
                    1          2          3          4          5
     1  O    0.000000
     2  P    1.479400   0.000000
     3  H    2.407553   1.358999   0.000000
     4  H    2.423135   1.304000   2.122425   0.000000
     5  H    2.381507   1.478999   2.168615   2.208316   0.000000
 Stoichiometry    H3OP
 Framework group  C1[X(H3OP)]
 Deg. of freedom     9
 Full point group                 C1      NOp   1
 Largest Abelian subgroup         C1      NOp   1
 Largest concise Abelian subgroup C1      NOp   1
                         Standard orientation:                         
 ---------------------------------------------------------------------
 Center     Atomic      Atomic             Coordinates (Angstroms)
 Number     Number       Type             X           Y           Z
 ---------------------------------------------------------------------
      1          8           0       -1.089845   -0.001353    0.002636
      2         15           0        0.389367   -0.023670   -0.004882
      3          1           0        0.988245   -0.186258    1.204162
      4          1           0        1.043689   -0.794287   -0.828549
      5          1           0        0.846323    1.346415   -0.323471
 ---------------------------------------------------------------------
 Rotational constants (GHZ):         105.9372450          17.6482259          17.4943334
 Standard basis: def2TZVP (5D, 7F)
 There are    96 symmetry adapted cartesian basis functions of A   symmetry.
 There are    86 symmetry adapted basis functions of A   symmetry.
    86 basis functions,   144 primitive gaussians,    96 cartesian basis functions
    13 alpha electrons       13 beta electrons
       nuclear repulsion energy        66.2346144270 Hartrees.
 NAtoms=    5 NActive=    5 NUniq=    5 SFac= 1.00D+00 NAtFMM=   60 NAOKFM=F Big=F
 Integral buffers will be    131072 words long.
 Raffenetti 2 integral format.
 Two-electron integral symmetry is turned on.
 ------------------------------------------------------------------------------
 Polarizable Continuum Model (PCM)
 =================================
 Model                : C-PCM.
 Atomic radii         : UFF (Universal Force Field).
 Polarization charges : Total charges.
 Charge compensation  : None.
 Solution method      : On-the-fly selection.
 Cavity type          : Scaled VdW (van der Waals Surface) (Alpha=1.100).
 Cavity algorithm     : GePol (No added spheres)
                        Default sphere list used, NSphG=    5.
                        Lebedev-Laikov grids with approx.  5.0 points / Ang**2.
                        Smoothing algorithm: York/Karplus (Gamma=1.0000).
                        Polarization charges: spherical gaussians, with
                                              point-specific exponents (IZeta= 3).
                        Self-potential: point-specific (ISelfS= 7).
                        Self-field    : sphere-specific E.n sum rule (ISelfD= 2).
 Solvent              : Water, Eps=  78.355300 Eps(inf)=   1.777849
 ------------------------------------------------------------------------------
 Spheres list:
 ISph  on   Nord     Re0    Alpha      Xe            Ye            Ze
    1   O      1    1.7500  1.100     -1.089845     -0.001353      0.002636
    2   P      2    2.0735  1.100      0.389367     -0.023670     -0.004882
    3   H      3    1.4430  1.100      0.988245     -0.186258      1.204162
    4   H      4    1.4430  1.100      1.043689     -0.794287     -0.828549
    5   H      5    1.4430  1.100      0.846323      1.346415     -0.323471
 ------------------------------------------------------------------------------
 One-electron integrals computed using PRISM.
   1 Symmetry operations used in ECPInt.
 ECPInt:  NShTT=     666 NPrTT=    2212 LenC2=     666 LenP2D=    1990.
 LDataN:  DoStor=T MaxTD1= 6 Len=  172
 NBasis=    86 RedAO= T EigKep=  2.73D-03  NBF=    86
 NBsUse=    86 1.00D-06 EigRej= -1.00D+00 NBFU=    86
 ExpMin= 9.04D-02 ExpMax= 5.24D+04 ExpMxC= 1.79D+03 IAcc=3 IRadAn=         5 AccDes= 0.00D+00
 Harris functional with IExCor= 2002 and IRadAn=       5 diagonalized for initial guess.
 HarFok:  IExCor= 2002 AccDes= 0.00D+00 IRadAn=         5 IDoV= 1 UseB2=F ITyADJ=14
 ICtDFT=  3500011 ScaDFX=  1.000000  1.000000  1.000000  1.000000
 FoFCou: FMM=F IPFlag=           0 FMFlag=      100000 FMFlg1=           0
         NFxFlg=           0 DoJE=T BraDBF=F KetDBF=T FulRan=T
         wScrn=  0.000000 ICntrl=       500 IOpCl=  0 I1Cent=   200000004 NGrid=           0
         NMat0=    1 NMatS0=      1 NMatT0=    0 NMatD0=    1 NMtDS0=    0 NMtDT0=    0
 Petite list used in FoFCou.
 Keep J ints in memory in canonical form, NReq=10684354.
 Requested convergence on RMS density matrix=1.00D-08 within 128 cycles.
 Requested convergence on MAX density matrix=1.00D-06.
 Requested convergence on             energy=1.00D-06.
 No special actions if energy rises.
 Inv3:  Mode=1 IEnd=     1263603.
 Iteration    1 A*A^-1 deviation from unit magnitude is 2.78D-15 for    202.
 Iteration    1 A*A^-1 deviation from orthogonality  is 1.66D-15 for    601     24.
 Iteration    1 A^-1*A deviation from unit magnitude is 2.55D-15 for    202.
 Iteration    1 A^-1*A deviation from orthogonality  is 2.03D-15 for    638    138.
 Error on total polarization charges =  0.00885
 SCF Done:  E(RO-LYP) =  -418.404041117     A.U. after   10 cycles
            NFock= 10  Conv=0.91D-08     -V/T= 2.0012

 **********************************************************************

            Population analysis using the SCF density.

 **********************************************************************

 Orbital symmetries:
       Occupied  (A) (A) (A) (A) (A) (A) (A) (A) (A) (A) (A) (A)
                 (A)
       Virtual   (A) (A) (A) (A) (A) (A) (A) (A) (A) (A) (A) (A)
                 (A) (A) (A) (A) (A) (A) (A) (A) (A) (A) (A) (A)
                 (A) (A) (A) (A) (A) (A) (A) (A) (A) (A) (A) (A)
                 (A) (A) (A) (A) (A) (A) (A) (A) (A) (A) (A) (A)
                 (A) (A) (A) (A) (A) (A) (A) (A) (A) (A) (A) (A)
                 (A) (A) (A) (A) (A) (A) (A) (A) (A) (A) (A) (A)
                 (A)
 The electronic state is 1-A.
 Alpha  occ. eigenvalues --  -76.34344 -18.71902  -6.38099  -4.58991  -4.58906
 Alpha  occ. eigenvalues --   -4.58810  -0.89119  -0.58548  -0.40708  -0.38112
 Alpha  occ. eigenvalues --   -0.34230  -0.24983  -0.23968
 Alpha virt. eigenvalues --   -0.02163   0.01355   0.02417   0.06188   0.14476
 Alpha virt. eigenvalues --    0.15059   0.22083   0.25087   0.26523   0.28222
 Alpha virt. eigenvalues --    0.29732   0.30595   0.38780   0.48002   0.49776
 Alpha virt. eigenvalues --    0.51743   0.55586   0.61237   0.68248   0.76200
 Alpha virt. eigenvalues --    1.02424   1.06215   1.07864   1.09202   1.10338
 Alpha virt. eigenvalues --    1.17900   1.19778   1.24116   1.28227   1.34552
 Alpha virt. eigenvalues --    1.38711   1.46210   1.53050   1.53127   1.56602
 Alpha virt. eigenvalues --    1.63910   1.77753   1.78974   1.85634   1.95433
 Alpha virt. eigenvalues --    1.98220   1.99609   2.03840   2.11027   2.15864
 Alpha virt. eigenvalues --    2.23272   2.41190   2.48673   2.52771   2.61583
 Alpha virt. eigenvalues --    2.69878   2.79453   2.80069   2.82300   2.82987
 Alpha virt. eigenvalues --    3.62155   5.04751   5.05345   5.14783   5.14992
 Alpha virt. eigenvalues --    5.21965   5.24104   5.43605   6.19301   6.20648
 Alpha virt. eigenvalues --    6.52756   6.53342   6.75557   7.15946   7.22467
 Alpha virt. eigenvalues --    7.71647  15.36405  43.08319
          Condensed to atoms (all electrons):
               1          2          3          4          5
     1  O    8.003655   0.701416  -0.038268  -0.034606  -0.048335
     2  P    0.701416  12.805569   0.360061   0.353951   0.359902
     3  H   -0.038268   0.360061   0.698440  -0.043674  -0.037012
     4  H   -0.034606   0.353951  -0.043674   0.686654  -0.035712
     5  H   -0.048335   0.359902  -0.037012  -0.035712   0.730237
 Mulliken charges:
               1
     1  O   -0.583862
     2  P    0.419101
     3  H    0.060454
     4  H    0.073387
     5  H    0.030920
 Sum of Mulliken charges =  -0.00000
 Mulliken charges with hydrogens summed into heavy atoms:
               1
     1  O   -0.583862
     2  P    0.583862
 Electronic spatial extent (au):  <R**2>=            113.1382
 Charge=             -0.0000 electrons
 Dipole moment (field-independent basis, Debye):
    X=              4.4230    Y=             -0.4526    Z=             -0.0513  Tot=              4.4464
 Quadrupole moment (field-independent basis, Debye-Ang):
   XX=            -22.3063   YY=            -18.7235   ZZ=            -18.5068
   XY=             -0.4871   XZ=             -0.0316   YZ=              0.1962
 Traceless Quadrupole moment (field-independent basis, Debye-Ang):
   XX=             -2.4608   YY=              1.1221   ZZ=              1.3387
   XY=             -0.4871   XZ=             -0.0316   YZ=              0.1962
 Octapole moment (field-independent basis, Debye-Ang**2):
  XXX=              4.6651  YYY=             -1.1187  ZZZ=              0.0697  XYY=              0.2013
  XXY=             -0.5705  XXZ=             -0.0534  XZZ=              0.5089  YZZ=             -0.5156
  YYZ=             -0.1237  XYZ=              0.2343
 Hexadecapole moment (field-independent basis, Debye-Ang**3):
 XXXX=            -90.2758 YYYY=            -33.2142 ZZZZ=            -30.5207 XXXY=             -1.5042
 XXXZ=             -0.1566 YYYX=             -0.9477 YYYZ=              0.3507 ZZZX=              0.1693
 ZZZY=              0.6193 XXYY=            -20.6196 XXZZ=            -19.7753 YYZZ=            -10.8627
 XXYZ=              0.4051 YYXZ=             -0.2341 ZZXY=             -0.5701
 N-N= 6.623461442704D+01 E-N=-1.127220570570D+03  KE= 4.179215695038D+02
 1\1\GINC-NODE85\SP\ROLYP\def2TZVP\H3O1P1\YANZ\22-Sep-2023\0\\# scrf=(c
 pcm,solvent=water) def2tzvp olyp\\tmpdir/M2_conf_0_1.gjf\\0,1\O,0,0.,0
 .,0.\P,0,1.4794,0.,0.\H,0,2.07451,0.,1.22177\H,0,2.14945,-0.85771,-0.7
 1818\H,0,1.91725,1.32615,-0.48688\\Version=ES64L-G16RevA.03\State=1-A\
 HF=-418.4040411\RMSD=9.128e-09\Dipole=1.7427226,-0.1520152,0.007843\Qu
 adrupole=-1.817648,0.8611757,0.9564723,-0.4047539,0.0109361,0.1603939\
 PG=C01 [X(H3O1P1)]\\@


 ...THE PHYSICISTS HAVE MADE THEIR UNIVERSE, AND IF YOU DO NOT LIKE
 IT, YOU MUST MAKE YOUR OWN.
                               -- E. R. HARRISON IN "COSMOLOGY" (1980)
 Job cpu time:       0 days  0 hours  0 minutes 25.2 seconds.
 Elapsed time:       0 days  0 hours  0 minutes  6.7 seconds.
 File lengths (MBytes):  RWF=     10 Int=      0 D2E=      0 Chk=      2 Scr=      1
 Normal termination of Gaussian 16 at Fri Sep 22 16:53:28 2023.
