 Entering Gaussian System, Link 0=g16
 Initial command:
 /share/apps/gaussian/g16/l1.exe "/tmp/55608.mgr/Gau-89754.inp" -scrdir="/tmp/55608.mgr/"
 Entering Link 1 = /share/apps/gaussian/g16/l1.exe PID=     89755.
  
 Copyright (c) 1988,1990,1992,1993,1995,1998,2003,2009,2016,
            Gaussian, Inc.  All Rights Reserved.
  
 This is part of the Gaussian(R) 16 program.  It is based on
 the Gaussian(R) 09 system (copyright 2009, Gaussian, Inc.),
 the Gaussian(R) 03 system (copyright 2003, Gaussian, Inc.),
 the Gaussian(R) 98 system (copyright 1998, Gaussian, Inc.),
 the Gaussian(R) 94 system (copyright 1995, Gaussian, Inc.),
 the Gaussian 92(TM) system (copyright 1992, Gaussian, Inc.),
 the Gaussian 90(TM) system (copyright 1990, Gaussian, Inc.),
 the Gaussian 88(TM) system (copyright 1988, Gaussian, Inc.),
 the Gaussian 86(TM) system (copyright 1986, Carnegie Mellon
 University), and the Gaussian 82(TM) system (copyright 1983,
 Carnegie Mellon University). Gaussian is a federally registered
 trademark of Gaussian, Inc.
  
 This software contains proprietary and confidential information,
 including trade secrets, belonging to Gaussian, Inc.
  
 This software is provided under written license and may be
 used, copied, transmitted, or stored only in accord with that
 written license.
  
 The following legend is applicable only to US Government
 contracts under FAR:
  
                    RESTRICTED RIGHTS LEGEND
  
 Use, reproduction and disclosure by the US Government is
 subject to restrictions as set forth in subparagraphs (a)
 and (c) of the Commercial Computer Software - Restricted
 Rights clause in FAR 52.227-19.
  
 Gaussian, Inc.
 340 Quinnipiac St., Bldg. 40, Wallingford CT 06492
  
  
 ---------------------------------------------------------------
 Warning -- This program may not be used in any manner that
 competes with the business of Gaussian, Inc. or will provide
 assistance to any competitor of Gaussian, Inc.  The licensee
 of this program is prohibited from giving any competitor of
 Gaussian, Inc. access to this program.  By using this program,
 the user acknowledges that Gaussian, Inc. is engaged in the
 business of creating and licensing software in the field of
 computational chemistry and represents and warrants to the
 licensee that it is not a competitor of Gaussian, Inc. and that
 it will not use this program in any manner prohibited above.
 ---------------------------------------------------------------
  

 Cite this work as:
 Gaussian 16, Revision A.03,
 M. J. Frisch, G. W. Trucks, H. B. Schlegel, G. E. Scuseria, 
 M. A. Robb, J. R. Cheeseman, G. Scalmani, V. Barone, 
 G. A. Petersson, H. Nakatsuji, X. Li, M. Caricato, A. V. Marenich, 
 J. Bloino, B. G. Janesko, R. Gomperts, B. Mennucci, H. P. Hratchian, 
 J. V. Ortiz, A. F. Izmaylov, J. L. Sonnenberg, D. Williams-Young, 
 F. Ding, F. Lipparini, F. Egidi, J. Goings, B. Peng, A. Petrone, 
 T. Henderson, D. Ranasinghe, V. G. Zakrzewski, J. Gao, N. Rega, 
 G. Zheng, W. Liang, M. Hada, M. Ehara, K. Toyota, R. Fukuda, 
 J. Hasegawa, M. Ishida, T. Nakajima, Y. Honda, O. Kitao, H. Nakai, 
 T. Vreven, K. Throssell, J. A. Montgomery, Jr., J. E. Peralta, 
 F. Ogliaro, M. J. Bearpark, J. J. Heyd, E. N. Brothers, K. N. Kudin, 
 V. N. Staroverov, T. A. Keith, R. Kobayashi, J. Normand, 
 K. Raghavachari, A. P. Rendell, J. C. Burant, S. S. Iyengar, 
 J. Tomasi, M. Cossi, J. M. Millam, M. Klene, C. Adamo, R. Cammi, 
 J. W. Ochterski, R. L. Martin, K. Morokuma, O. Farkas, 
 J. B. Foresman, and D. J. Fox, Gaussian, Inc., Wallingford CT, 2016.
 
 ******************************************
 Gaussian 16:  ES64L-G16RevA.03 25-Dec-2016
                22-Sep-2023 
 ******************************************
 %nprocshared=4
 Will use up to    4 processors via shared memory.
 %mem=4GB
 -----------------------------------------
 # scrf=(cpcm,solvent=water) def2tzvp olyp
 -----------------------------------------
 1/38=1,172=1/1;
 2/12=2,17=6,18=5,40=1/2;
 3/5=44,7=101,11=2,25=1,30=1,70=2101,72=1,74=2002/1,2,3;
 4//1;
 5/5=2,38=5,53=1/2;
 6/7=2,8=2,9=2,10=2,28=1/1;
 99/5=1,9=1/99;
 -----------------------
 tmpdir/M2_conf_0_59.gjf
 -----------------------
 Symbolic Z-matrix:
 Charge =  0 Multiplicity = 1
 H                     0.        0.        0. 
 C                     1.119     0.        0. 
 H                     1.39731   0.        1.08394 
 H                     1.39463   1.02525  -0.35362 
 H                     1.5856   -0.84005  -0.59854 
 
                          Input orientation:                          
 ---------------------------------------------------------------------
 Center     Atomic      Atomic             Coordinates (Angstroms)
 Number     Number       Type             X           Y           Z
 ---------------------------------------------------------------------
      1          1           0        0.000000    0.000000    0.000000
      2          6           0        1.119000    0.000000    0.000000
      3          1           0        1.397310    0.000000    1.083940
      4          1           0        1.394630    1.025250   -0.353620
      5          1           0        1.585600   -0.840050   -0.598540
 ---------------------------------------------------------------------
                    Distance matrix (angstroms):
                    1          2          3          4          5
     1  H    0.000000
     2  C    1.119000   0.000000
     3  H    1.768446   1.119099   0.000000
     4  H    1.766685   1.118998   1.765708   0.000000
     5  H    1.891576   1.132100   1.889941   1.890978   0.000000
 Stoichiometry    CH4
 Framework group  C1[X(CH4)]
 Deg. of freedom     9
 Full point group                 C1      NOp   1
 Largest Abelian subgroup         C1      NOp   1
 Largest concise Abelian subgroup C1      NOp   1
                         Standard orientation:                         
 ---------------------------------------------------------------------
 Center     Atomic      Atomic             Coordinates (Angstroms)
 Number     Number       Type             X           Y           Z
 ---------------------------------------------------------------------
      1          1           0       -0.437117    0.959880   -0.343946
      2          6           0        0.024767    0.000425   -0.000041
      3          1           0       -0.429027   -0.779773   -0.661663
      4          1           0       -0.439312   -0.185620    1.001046
      5          1           0        1.156854    0.002963    0.004808
 ---------------------------------------------------------------------
 Rotational constants (GHZ):         160.6150558         144.4860829         144.2504992
 Standard basis: def2TZVP (5D, 7F)
 There are    60 symmetry adapted cartesian basis functions of A   symmetry.
 There are    55 symmetry adapted basis functions of A   symmetry.
    55 basis functions,    83 primitive gaussians,    60 cartesian basis functions
     5 alpha electrons        5 beta electrons
       nuclear repulsion energy        13.0546227518 Hartrees.
 NAtoms=    5 NActive=    5 NUniq=    5 SFac= 1.00D+00 NAtFMM=   60 NAOKFM=F Big=F
 Integral buffers will be    131072 words long.
 Raffenetti 2 integral format.
 Two-electron integral symmetry is turned on.
 ------------------------------------------------------------------------------
 Polarizable Continuum Model (PCM)
 =================================
 Model                : C-PCM.
 Atomic radii         : UFF (Universal Force Field).
 Polarization charges : Total charges.
 Charge compensation  : None.
 Solution method      : On-the-fly selection.
 Cavity type          : Scaled VdW (van der Waals Surface) (Alpha=1.100).
 Cavity algorithm     : GePol (No added spheres)
                        Default sphere list used, NSphG=    5.
                        Lebedev-Laikov grids with approx.  5.0 points / Ang**2.
                        Smoothing algorithm: York/Karplus (Gamma=1.0000).
                        Polarization charges: spherical gaussians, with
                                              point-specific exponents (IZeta= 3).
                        Self-potential: point-specific (ISelfS= 7).
                        Self-field    : sphere-specific E.n sum rule (ISelfD= 2).
 Solvent              : Water, Eps=  78.355300 Eps(inf)=   1.777849
 ------------------------------------------------------------------------------
 Spheres list:
 ISph  on   Nord     Re0    Alpha      Xe            Ye            Ze
    1   H      1    1.4430  1.100     -0.437117      0.959880     -0.343946
    2   C      2    1.9255  1.100      0.024767      0.000425     -0.000041
    3   H      3    1.4430  1.100     -0.429027     -0.779773     -0.661663
    4   H      4    1.4430  1.100     -0.439312     -0.185620      1.001046
    5   H      5    1.4430  1.100      1.156854      0.002963      0.004808
 ------------------------------------------------------------------------------
 One-electron integrals computed using PRISM.
   1 Symmetry operations used in ECPInt.
 ECPInt:  NShTT=     378 NPrTT=    1024 LenC2=     379 LenP2D=     988.
 LDataN:  DoStor=T MaxTD1= 6 Len=  172
 NBasis=    55 RedAO= T EigKep=  1.65D-03  NBF=    55
 NBsUse=    55 1.00D-06 EigRej= -1.00D+00 NBFU=    55
 ExpMin= 9.52D-02 ExpMax= 1.36D+04 ExpMxC= 4.63D+02 IAcc=3 IRadAn=         5 AccDes= 0.00D+00
 Harris functional with IExCor= 2002 and IRadAn=       5 diagonalized for initial guess.
 HarFok:  IExCor= 2002 AccDes= 0.00D+00 IRadAn=         5 IDoV= 1 UseB2=F ITyADJ=14
 ICtDFT=  3500011 ScaDFX=  1.000000  1.000000  1.000000  1.000000
 FoFCou: FMM=F IPFlag=           0 FMFlag=      100000 FMFlg1=           0
         NFxFlg=           0 DoJE=T BraDBF=F KetDBF=T FulRan=T
         wScrn=  0.000000 ICntrl=       500 IOpCl=  0 I1Cent=   200000004 NGrid=           0
         NMat0=    1 NMatS0=      1 NMatT0=    0 NMatD0=    1 NMtDS0=    0 NMtDT0=    0
 Petite list used in FoFCou.
 Keep J ints in memory in canonical form, NReq=4722199.
 Requested convergence on RMS density matrix=1.00D-08 within 128 cycles.
 Requested convergence on MAX density matrix=1.00D-06.
 Requested convergence on             energy=1.00D-06.
 No special actions if energy rises.
 Inv3:  Mode=1 IEnd=      720300.
 Iteration    1 A*A^-1 deviation from unit magnitude is 2.44D-15 for    484.
 Iteration    1 A*A^-1 deviation from orthogonality  is 1.10D-15 for    355    125.
 Iteration    1 A^-1*A deviation from unit magnitude is 2.44D-15 for    487.
 Iteration    1 A^-1*A deviation from orthogonality  is 8.32D-16 for    364    312.
 Error on total polarization charges =  0.00947
 SCF Done:  E(RO-LYP) =  -40.5053700890     A.U. after    8 cycles
            NFock=  8  Conv=0.40D-08     -V/T= 2.0080

 **********************************************************************

            Population analysis using the SCF density.

 **********************************************************************

 Orbital symmetries:
       Occupied  (A) (A) (A) (A) (A)
       Virtual   (A) (A) (A) (A) (A) (A) (A) (A) (A) (A) (A) (A)
                 (A) (A) (A) (A) (A) (A) (A) (A) (A) (A) (A) (A)
                 (A) (A) (A) (A) (A) (A) (A) (A) (A) (A) (A) (A)
                 (A) (A) (A) (A) (A) (A) (A) (A) (A) (A) (A) (A)
                 (A) (A)
 The electronic state is 1-A.
 Alpha  occ. eigenvalues --   -9.89206  -0.61814  -0.35158  -0.33129  -0.33087
 Alpha virt. eigenvalues --    0.02242   0.09463   0.09602   0.09608   0.17852
 Alpha virt. eigenvalues --    0.17854   0.18195   0.36739   0.41108   0.41137
 Alpha virt. eigenvalues --    0.41674   0.47061   0.55909   0.55927   0.88244
 Alpha virt. eigenvalues --    0.89863   0.89880   1.41191   1.41224   1.44750
 Alpha virt. eigenvalues --    1.45541   1.45586   1.47853   1.48158   1.88881
 Alpha virt. eigenvalues --    1.88959   1.90228   1.99585   2.12765   2.12906
 Alpha virt. eigenvalues --    2.14792   2.35587   2.35800   2.46895   2.47059
 Alpha virt. eigenvalues --    2.49456   2.87881   2.87885   2.89760   3.15970
 Alpha virt. eigenvalues --    3.27713   3.27885   3.32033   3.42882   3.42993
 Alpha virt. eigenvalues --    3.93965   4.08500   4.08748   4.32021  21.81456
          Condensed to atoms (all electrons):
               1          2          3          4          5
     1  H    0.553373   0.395572  -0.026472  -0.026652  -0.018872
     2  C    0.395572   4.917087   0.395509   0.395492   0.394720
     3  H   -0.026472   0.395509   0.553681  -0.026709  -0.018974
     4  H   -0.026652   0.395492  -0.026709   0.553746  -0.018848
     5  H   -0.018872   0.394720  -0.018974  -0.018848   0.532580
 Mulliken charges:
               1
     1  H    0.123051
     2  C   -0.498381
     3  H    0.122964
     4  H    0.122972
     5  H    0.129394
 Sum of Mulliken charges =  -0.00000
 Mulliken charges with hydrogens summed into heavy atoms:
               1
     2  C   -0.000000
 Electronic spatial extent (au):  <R**2>=             36.9766
 Charge=             -0.0000 electrons
 Dipole moment (field-independent basis, Debye):
    X=             -0.0940    Y=             -0.0016    Z=              0.0004  Tot=              0.0940
 Quadrupole moment (field-independent basis, Debye-Ang):
   XX=             -8.1234   YY=             -8.7153   ZZ=             -8.7253
   XY=             -0.0002   XZ=              0.0002   YZ=             -0.0004
 Traceless Quadrupole moment (field-independent basis, Debye-Ang):
   XX=              0.3979   YY=             -0.1940   ZZ=             -0.2039
   XY=             -0.0002   XZ=              0.0002   YZ=             -0.0004
 Octapole moment (field-independent basis, Debye-Ang**2):
  XXX=              0.9595  YYY=              0.2721  ZZZ=              0.4558  XYY=             -0.5884
  XXY=              0.0056  XXZ=              0.0103  XZZ=             -0.5869  YZZ=             -0.2816
  YYZ=             -0.4651  XYZ=              0.0036
 Hexadecapole moment (field-independent basis, Debye-Ang**3):
 XXXX=            -17.0268 YYYY=            -17.2180 ZZZZ=            -17.2214 XXXY=              0.0009
 XXXZ=              0.0044 YYYX=             -0.2270 YYYZ=              0.0035 ZZZX=             -0.3749
 ZZZY=             -0.0002 XXYY=             -5.9713 XXZZ=             -5.9675 YYZZ=             -5.7339
 XXYZ=             -0.0054 YYXZ=              0.3725 ZZXY=              0.2245
 N-N= 1.305462275180D+01 E-N=-1.193318959503D+02  KE= 4.018314976749D+01
 1\1\GINC-NODE85\SP\ROLYP\def2TZVP\C1H4\YANZ\22-Sep-2023\0\\# scrf=(cpc
 m,solvent=water) def2tzvp olyp\\tmpdir/M2_conf_0_59.gjf\\0,1\H,0,0.,0.
 ,0.\C,0,1.119,0.,0.\H,0,1.39731,0.,1.08394\H,0,1.39463,1.02525,-0.3536
 2\H,0,1.5856,-0.84005,-0.59854\\Version=ES64L-G16RevA.03\State=1-A\HF=
 -40.5053701\RMSD=4.035e-09\Dipole=-0.0146585,0.0277217,0.0196107\Quadr
 upole=-0.0696379,0.0964001,-0.0267622,-0.1366566,-0.093949,0.1752608\P
 G=C01 [X(C1H4)]\\@


 In the race for quality, there is no finish line.
                               -- David T. Kearns
 Job cpu time:       0 days  0 hours  0 minutes 12.2 seconds.
 Elapsed time:       0 days  0 hours  0 minutes  3.2 seconds.
 File lengths (MBytes):  RWF=     10 Int=      0 D2E=      0 Chk=      1 Scr=      1
 Normal termination of Gaussian 16 at Fri Sep 22 16:55:05 2023.
