 Entering Gaussian System, Link 0=g16
 Initial command:
 /share/apps/gaussian/g16/l1.exe "/tmp/55608.mgr/Gau-88221.inp" -scrdir="/tmp/55608.mgr/"
 Entering Link 1 = /share/apps/gaussian/g16/l1.exe PID=     88222.
  
 Copyright (c) 1988,1990,1992,1993,1995,1998,2003,2009,2016,
            Gaussian, Inc.  All Rights Reserved.
  
 This is part of the Gaussian(R) 16 program.  It is based on
 the Gaussian(R) 09 system (copyright 2009, Gaussian, Inc.),
 the Gaussian(R) 03 system (copyright 2003, Gaussian, Inc.),
 the Gaussian(R) 98 system (copyright 1998, Gaussian, Inc.),
 the Gaussian(R) 94 system (copyright 1995, Gaussian, Inc.),
 the Gaussian 92(TM) system (copyright 1992, Gaussian, Inc.),
 the Gaussian 90(TM) system (copyright 1990, Gaussian, Inc.),
 the Gaussian 88(TM) system (copyright 1988, Gaussian, Inc.),
 the Gaussian 86(TM) system (copyright 1986, Carnegie Mellon
 University), and the Gaussian 82(TM) system (copyright 1983,
 Carnegie Mellon University). Gaussian is a federally registered
 trademark of Gaussian, Inc.
  
 This software contains proprietary and confidential information,
 including trade secrets, belonging to Gaussian, Inc.
  
 This software is provided under written license and may be
 used, copied, transmitted, or stored only in accord with that
 written license.
  
 The following legend is applicable only to US Government
 contracts under FAR:
  
                    RESTRICTED RIGHTS LEGEND
  
 Use, reproduction and disclosure by the US Government is
 subject to restrictions as set forth in subparagraphs (a)
 and (c) of the Commercial Computer Software - Restricted
 Rights clause in FAR 52.227-19.
  
 Gaussian, Inc.
 340 Quinnipiac St., Bldg. 40, Wallingford CT 06492
  
  
 ---------------------------------------------------------------
 Warning -- This program may not be used in any manner that
 competes with the business of Gaussian, Inc. or will provide
 assistance to any competitor of Gaussian, Inc.  The licensee
 of this program is prohibited from giving any competitor of
 Gaussian, Inc. access to this program.  By using this program,
 the user acknowledges that Gaussian, Inc. is engaged in the
 business of creating and licensing software in the field of
 computational chemistry and represents and warrants to the
 licensee that it is not a competitor of Gaussian, Inc. and that
 it will not use this program in any manner prohibited above.
 ---------------------------------------------------------------
  

 Cite this work as:
 Gaussian 16, Revision A.03,
 M. J. Frisch, G. W. Trucks, H. B. Schlegel, G. E. Scuseria, 
 M. A. Robb, J. R. Cheeseman, G. Scalmani, V. Barone, 
 G. A. Petersson, H. Nakatsuji, X. Li, M. Caricato, A. V. Marenich, 
 J. Bloino, B. G. Janesko, R. Gomperts, B. Mennucci, H. P. Hratchian, 
 J. V. Ortiz, A. F. Izmaylov, J. L. Sonnenberg, D. Williams-Young, 
 F. Ding, F. Lipparini, F. Egidi, J. Goings, B. Peng, A. Petrone, 
 T. Henderson, D. Ranasinghe, V. G. Zakrzewski, J. Gao, N. Rega, 
 G. Zheng, W. Liang, M. Hada, M. Ehara, K. Toyota, R. Fukuda, 
 J. Hasegawa, M. Ishida, T. Nakajima, Y. Honda, O. Kitao, H. Nakai, 
 T. Vreven, K. Throssell, J. A. Montgomery, Jr., J. E. Peralta, 
 F. Ogliaro, M. J. Bearpark, J. J. Heyd, E. N. Brothers, K. N. Kudin, 
 V. N. Staroverov, T. A. Keith, R. Kobayashi, J. Normand, 
 K. Raghavachari, A. P. Rendell, J. C. Burant, S. S. Iyengar, 
 J. Tomasi, M. Cossi, J. M. Millam, M. Klene, C. Adamo, R. Cammi, 
 J. W. Ochterski, R. L. Martin, K. Morokuma, O. Farkas, 
 J. B. Foresman, and D. J. Fox, Gaussian, Inc., Wallingford CT, 2016.
 
 ******************************************
 Gaussian 16:  ES64L-G16RevA.03 25-Dec-2016
                22-Sep-2023 
 ******************************************
 %nprocshared=4
 Will use up to    4 processors via shared memory.
 %mem=4GB
 -----------------------------------------
 # scrf=(cpcm,solvent=water) def2tzvp olyp
 -----------------------------------------
 1/38=1,172=1/1;
 2/12=2,17=6,18=5,40=1/2;
 3/5=44,7=101,11=2,25=1,30=1,70=2101,72=1,74=2002/1,2,3;
 4//1;
 5/5=2,38=5,53=1/2;
 6/7=2,8=2,9=2,10=2,28=1/1;
 99/5=1,9=1/99;
 -----------------------
 tmpdir/M2_conf_0_19.gjf
 -----------------------
 Symbolic Z-matrix:
 Charge =  0 Multiplicity = 1
 O                     0.        0.        0. 
 P                     1.565     0.        0. 
 O                     2.00002   0.        1.56652 
 H                    -0.55699  -0.70567  -0.31168 
 H                     2.01936   1.15514  -0.49271 
 O                     2.18968  -1.1723   -0.6944 
 H                     2.4087   -0.66286   2.00442 
 
                          Input orientation:                          
 ---------------------------------------------------------------------
 Center     Atomic      Atomic             Coordinates (Angstroms)
 Number     Number       Type             X           Y           Z
 ---------------------------------------------------------------------
      1          8           0        0.000000    0.000000    0.000000
      2         15           0        1.565000    0.000000    0.000000
      3          8           0        2.000020    0.000000    1.566520
      4          1           0       -0.556990   -0.705670   -0.311680
      5          1           0        2.019360    1.155140   -0.492710
      6          8           0        2.189680   -1.172300   -0.694400
      7          1           0        2.408700   -0.662860    2.004420
 ---------------------------------------------------------------------
                    Distance matrix (angstroms):
                    1          2          3          4          5
     1  O    0.000000
     2  P    1.565000   0.000000
     3  O    2.540485   1.625801   0.000000
     4  H    0.951500   2.257865   3.250216   0.000000
     5  H    2.378009   1.335498   2.361176   3.183232   0.000000
     6  O    2.578988   1.498901   2.553824   2.812190   2.342363
     7  H    3.202955   2.273524   0.893398   3.763173   3.113257
                    6          7
     6  O    0.000000
     7  H    2.755200   0.000000
 Stoichiometry    H3O3P
 Framework group  C1[X(H3O3P)]
 Deg. of freedom    15
 Full point group                 C1      NOp   1
 Largest Abelian subgroup         C1      NOp   1
 Largest concise Abelian subgroup C1      NOp   1
                         Standard orientation:                         
 ---------------------------------------------------------------------
 Center     Atomic      Atomic             Coordinates (Angstroms)
 Number     Number       Type             X           Y           Z
 ---------------------------------------------------------------------
      1          8           0       -1.290537   -0.707265   -0.156018
      2         15           0       -0.026310    0.090203    0.307662
      3          8           0        1.247774   -0.811901   -0.146371
      4          1           0       -1.907879   -0.432230   -0.825793
      5          1           0        0.024040    0.126373    1.641720
      6          8           0        0.096196    1.463625   -0.280054
      7          1           0        1.851029   -0.602861   -0.771307
 ---------------------------------------------------------------------
 Rotational constants (GHZ):           8.0829941           7.4596386           4.4931931
 Standard basis: def2TZVP (5D, 7F)
 There are   168 symmetry adapted cartesian basis functions of A   symmetry.
 There are   148 symmetry adapted basis functions of A   symmetry.
   148 basis functions,   246 primitive gaussians,   168 cartesian basis functions
    21 alpha electrons       21 beta electrons
       nuclear repulsion energy       195.3857893247 Hartrees.
 NAtoms=    7 NActive=    7 NUniq=    7 SFac= 1.00D+00 NAtFMM=   60 NAOKFM=F Big=F
 Integral buffers will be    131072 words long.
 Raffenetti 2 integral format.
 Two-electron integral symmetry is turned on.
 ------------------------------------------------------------------------------
 Polarizable Continuum Model (PCM)
 =================================
 Model                : C-PCM.
 Atomic radii         : UFF (Universal Force Field).
 Polarization charges : Total charges.
 Charge compensation  : None.
 Solution method      : On-the-fly selection.
 Cavity type          : Scaled VdW (van der Waals Surface) (Alpha=1.100).
 Cavity algorithm     : GePol (No added spheres)
                        Default sphere list used, NSphG=    7.
                        Lebedev-Laikov grids with approx.  5.0 points / Ang**2.
                        Smoothing algorithm: York/Karplus (Gamma=1.0000).
                        Polarization charges: spherical gaussians, with
                                              point-specific exponents (IZeta= 3).
                        Self-potential: point-specific (ISelfS= 7).
                        Self-field    : sphere-specific E.n sum rule (ISelfD= 2).
 Solvent              : Water, Eps=  78.355300 Eps(inf)=   1.777849
 ------------------------------------------------------------------------------
 Spheres list:
 ISph  on   Nord     Re0    Alpha      Xe            Ye            Ze
    1   O      1    1.7500  1.100     -1.290537     -0.707265     -0.156018
    2   P      2    2.0735  1.100     -0.026310      0.090203      0.307662
    3   O      3    1.7500  1.100      1.247774     -0.811901     -0.146371
    4   H      4    1.4430  1.100     -1.907879     -0.432230     -0.825793
    5   H      5    1.4430  1.100      0.024040      0.126373      1.641720
    6   O      6    1.7500  1.100      0.096196      1.463625     -0.280054
    7   H      7    1.4430  1.100      1.851029     -0.602861     -0.771307
 ------------------------------------------------------------------------------
 One-electron integrals computed using PRISM.
   1 Symmetry operations used in ECPInt.
 ECPInt:  NShTT=    1711 NPrTT=    5676 LenC2=    1698 LenP2D=    4720.
 LDataN:  DoStor=T MaxTD1= 6 Len=  172
 NBasis=   148 RedAO= T EigKep=  1.49D-03  NBF=   148
 NBsUse=   148 1.00D-06 EigRej= -1.00D+00 NBFU=   148
 ExpMin= 9.04D-02 ExpMax= 5.24D+04 ExpMxC= 1.79D+03 IAcc=3 IRadAn=         5 AccDes= 0.00D+00
 Harris functional with IExCor= 2002 and IRadAn=       5 diagonalized for initial guess.
 HarFok:  IExCor= 2002 AccDes= 0.00D+00 IRadAn=         5 IDoV= 1 UseB2=F ITyADJ=14
 ICtDFT=  3500011 ScaDFX=  1.000000  1.000000  1.000000  1.000000
 FoFCou: FMM=F IPFlag=           0 FMFlag=      100000 FMFlg1=           0
         NFxFlg=           0 DoJE=T BraDBF=F KetDBF=T FulRan=T
         wScrn=  0.000000 ICntrl=       500 IOpCl=  0 I1Cent=   200000004 NGrid=           0
         NMat0=    1 NMatS0=      1 NMatT0=    0 NMatD0=    1 NMtDS0=    0 NMtDT0=    0
 Petite list used in FoFCou.
 Keep J ints in memory in canonical form, NReq=64775784.
 Requested convergence on RMS density matrix=1.00D-08 within 128 cycles.
 Requested convergence on MAX density matrix=1.00D-06.
 Requested convergence on             energy=1.00D-06.
 No special actions if energy rises.
 Inv3:  Mode=1 IEnd=     2193075.
 Iteration    1 A*A^-1 deviation from unit magnitude is 3.11D-15 for    838.
 Iteration    1 A*A^-1 deviation from orthogonality  is 1.50D-15 for    852    669.
 Iteration    1 A^-1*A deviation from unit magnitude is 3.11D-15 for    838.
 Iteration    1 A^-1*A deviation from orthogonality  is 1.45D-15 for    822    683.
 Error on total polarization charges =  0.00750
 SCF Done:  E(RO-LYP) =  -568.967157070     A.U. after   12 cycles
            NFock= 12  Conv=0.95D-08     -V/T= 2.0018

 **********************************************************************

            Population analysis using the SCF density.

 **********************************************************************

 Orbital symmetries:
       Occupied  (A) (A) (A) (A) (A) (A) (A) (A) (A) (A) (A) (A)
                 (A) (A) (A) (A) (A) (A) (A) (A) (A)
       Virtual   (A) (A) (A) (A) (A) (A) (A) (A) (A) (A) (A) (A)
                 (A) (A) (A) (A) (A) (A) (A) (A) (A) (A) (A) (A)
                 (A) (A) (A) (A) (A) (A) (A) (A) (A) (A) (A) (A)
                 (A) (A) (A) (A) (A) (A) (A) (A) (A) (A) (A) (A)
                 (A) (A) (A) (A) (A) (A) (A) (A) (A) (A) (A) (A)
                 (A) (A) (A) (A) (A) (A) (A) (A) (A) (A) (A) (A)
                 (A) (A) (A) (A) (A) (A) (A) (A) (A) (A) (A) (A)
                 (A) (A) (A) (A) (A) (A) (A) (A) (A) (A) (A) (A)
                 (A) (A) (A) (A) (A) (A) (A) (A) (A) (A) (A) (A)
                 (A) (A) (A) (A) (A) (A) (A) (A) (A) (A) (A) (A)
                 (A) (A) (A) (A) (A) (A) (A)
 The electronic state is 1-A.
 Alpha  occ. eigenvalues --  -76.40136 -18.80489 -18.78232 -18.71580  -6.42572
 Alpha  occ. eigenvalues --   -4.63630  -4.63517  -4.63242  -1.00157  -0.96119
 Alpha  occ. eigenvalues --   -0.87115  -0.62522  -0.52898  -0.46209  -0.40187
 Alpha  occ. eigenvalues --   -0.36281  -0.33065  -0.31337  -0.30130  -0.24911
 Alpha  occ. eigenvalues --   -0.24430
 Alpha virt. eigenvalues --   -0.00878   0.02090   0.03862   0.05854   0.06878
 Alpha virt. eigenvalues --    0.13203   0.18515   0.21739   0.22196   0.24718
 Alpha virt. eigenvalues --    0.30852   0.33576   0.35892   0.37243   0.39506
 Alpha virt. eigenvalues --    0.41643   0.42611   0.45991   0.48128   0.50014
 Alpha virt. eigenvalues --    0.52226   0.54524   0.57147   0.58148   0.63753
 Alpha virt. eigenvalues --    0.65999   0.67025   0.67583   0.77032   0.80133
 Alpha virt. eigenvalues --    1.05942   1.08104   1.11850   1.13319   1.16813
 Alpha virt. eigenvalues --    1.17535   1.21063   1.26581   1.30009   1.31492
 Alpha virt. eigenvalues --    1.35098   1.35718   1.39002   1.48539   1.50293
 Alpha virt. eigenvalues --    1.54163   1.58577   1.61532   1.66361   1.76807
 Alpha virt. eigenvalues --    1.78008   1.79345   1.83314   1.84083   1.84604
 Alpha virt. eigenvalues --    1.93280   1.95549   2.04215   2.08456   2.11350
 Alpha virt. eigenvalues --    2.13923   2.17093   2.17222   2.22439   2.26851
 Alpha virt. eigenvalues --    2.30359   2.43081   2.43863   2.52535   2.63524
 Alpha virt. eigenvalues --    2.66323   2.68436   2.70879   2.74403   2.78067
 Alpha virt. eigenvalues --    2.81553   2.84523   2.89765   2.92329   3.25128
 Alpha virt. eigenvalues --    3.45809   3.69029   3.76846   3.84285   4.93409
 Alpha virt. eigenvalues --    4.95280   4.96903   4.97441   5.00717   5.02493
 Alpha virt. eigenvalues --    5.04877   5.06033   5.14662   5.15059   5.17283
 Alpha virt. eigenvalues --    5.21288   5.24084   5.26775   5.30955   5.34576
 Alpha virt. eigenvalues --    5.42956   5.45610   5.48053   6.09621   6.14225
 Alpha virt. eigenvalues --    6.17481   6.21259   6.24735   6.29662   6.34275
 Alpha virt. eigenvalues --    6.40032   6.43510   6.51975   6.58412   6.61363
 Alpha virt. eigenvalues --    6.62926   6.63410   6.73662   6.88264   6.94385
 Alpha virt. eigenvalues --    7.37299   7.75132   7.92429  16.27984  43.09935
 Alpha virt. eigenvalues --   43.15433  43.16751
          Condensed to atoms (all electrons):
               1          2          3          4          5          6
     1  O    7.836784   0.431890  -0.050600   0.298195  -0.033975  -0.063594
     2  P    0.431890  12.359363   0.418239  -0.013505   0.375999   0.735896
     3  O   -0.050600   0.418239   7.870436   0.000908  -0.035205  -0.069156
     4  H    0.298195  -0.013505   0.000908   0.349422   0.003897   0.000938
     5  H   -0.033975   0.375999  -0.035205   0.003897   0.660178  -0.039693
     6  O   -0.063594   0.735896  -0.069156   0.000938  -0.039693   8.019367
     7  H    0.000823  -0.016759   0.314160  -0.000051   0.004544   0.002348
               7
     1  O    0.000823
     2  P   -0.016759
     3  O    0.314160
     4  H   -0.000051
     5  H    0.004544
     6  O    0.002348
     7  H    0.373851
 Mulliken charges:
               1
     1  O   -0.419523
     2  P    0.708877
     3  O   -0.448783
     4  H    0.360196
     5  H    0.064255
     6  O   -0.586106
     7  H    0.321084
 Sum of Mulliken charges =  -0.00000
 Mulliken charges with hydrogens summed into heavy atoms:
               1
     1  O   -0.059327
     2  P    0.773132
     3  O   -0.127699
     6  O   -0.586106
 Electronic spatial extent (au):  <R**2>=            301.6156
 Charge=             -0.0000 electrons
 Dipole moment (field-independent basis, Debye):
    X=             -0.8603    Y=             -2.5009    Z=             -0.1453  Tot=              2.6487
 Quadrupole moment (field-independent basis, Debye-Ang):
   XX=            -22.7405   YY=            -38.5775   ZZ=            -25.3493
   XY=             -0.4456   XZ=              0.4173   YZ=              2.5358
 Traceless Quadrupole moment (field-independent basis, Debye-Ang):
   XX=              6.1486   YY=             -9.6884   ZZ=              3.5398
   XY=             -0.4456   XZ=              0.4173   YZ=              2.5358
 Octapole moment (field-independent basis, Debye-Ang**2):
  XXX=             -2.2837  YYY=            -10.6561  ZZZ=             -1.5582  XYY=             -0.9471
  XXY=             -1.7475  XXZ=            -12.8377  XZZ=             -0.7456  YZZ=             -2.4599
  YYZ=              1.2431  XYZ=              0.4659
 Hexadecapole moment (field-independent basis, Debye-Ang**3):
 XXXX=           -110.3388 YYYY=           -167.9587 ZZZZ=            -47.8082 XXXY=             -1.4912
 XXXZ=              2.2744 YYYX=             -0.4309 YYYZ=              3.3686 ZZZX=              0.9209
 ZZZY=              3.6113 XXYY=            -52.8082 XXZZ=            -23.5189 YYZZ=            -33.6575
 XXYZ=              7.1008 YYXZ=             -0.3824 ZZXY=             -0.2598
 N-N= 1.953857893247D+02 E-N=-1.741685667845D+03  KE= 5.679638811634D+02
 1\1\GINC-NODE85\SP\ROLYP\def2TZVP\H3O3P1\YANZ\22-Sep-2023\0\\# scrf=(c
 pcm,solvent=water) def2tzvp olyp\\tmpdir/M2_conf_0_19.gjf\\0,1\O,0,0.,
 0.,0.\P,0,1.565,0.,0.\O,0,2.00002,0.,1.56652\H,0,-0.55699,-0.70567,-0.
 31168\H,0,2.01936,1.15514,-0.49271\O,0,2.18968,-1.1723,-0.6944\H,0,2.4
 087,-0.66286,2.00442\\Version=ES64L-G16RevA.03\State=1-A\HF=-568.96715
 71\RMSD=9.466e-09\Dipole=-0.7917429,0.4249512,0.5277431\Quadrupole=1.7
 888392,-1.1827386,-0.6061006,3.2740771,3.8131777,-3.9839019\PG=C01 [X(
 H3O3P1)]\\@


 PICNIC:  A SNACK IN THE GRASS.
 Job cpu time:       0 days  0 hours  1 minutes 10.3 seconds.
 Elapsed time:       0 days  0 hours  0 minutes 19.1 seconds.
 File lengths (MBytes):  RWF=     17 Int=      0 D2E=      0 Chk=      3 Scr=      1
 Normal termination of Gaussian 16 at Fri Sep 22 16:54:05 2023.
