 Entering Gaussian System, Link 0=g16
 Initial command:
 /share/apps/gaussian/g16/l1.exe "/tmp/55608.mgr/Gau-88141.inp" -scrdir="/tmp/55608.mgr/"
 Entering Link 1 = /share/apps/gaussian/g16/l1.exe PID=     88142.
  
 Copyright (c) 1988,1990,1992,1993,1995,1998,2003,2009,2016,
            Gaussian, Inc.  All Rights Reserved.
  
 This is part of the Gaussian(R) 16 program.  It is based on
 the Gaussian(R) 09 system (copyright 2009, Gaussian, Inc.),
 the Gaussian(R) 03 system (copyright 2003, Gaussian, Inc.),
 the Gaussian(R) 98 system (copyright 1998, Gaussian, Inc.),
 the Gaussian(R) 94 system (copyright 1995, Gaussian, Inc.),
 the Gaussian 92(TM) system (copyright 1992, Gaussian, Inc.),
 the Gaussian 90(TM) system (copyright 1990, Gaussian, Inc.),
 the Gaussian 88(TM) system (copyright 1988, Gaussian, Inc.),
 the Gaussian 86(TM) system (copyright 1986, Carnegie Mellon
 University), and the Gaussian 82(TM) system (copyright 1983,
 Carnegie Mellon University). Gaussian is a federally registered
 trademark of Gaussian, Inc.
  
 This software contains proprietary and confidential information,
 including trade secrets, belonging to Gaussian, Inc.
  
 This software is provided under written license and may be
 used, copied, transmitted, or stored only in accord with that
 written license.
  
 The following legend is applicable only to US Government
 contracts under FAR:
  
                    RESTRICTED RIGHTS LEGEND
  
 Use, reproduction and disclosure by the US Government is
 subject to restrictions as set forth in subparagraphs (a)
 and (c) of the Commercial Computer Software - Restricted
 Rights clause in FAR 52.227-19.
  
 Gaussian, Inc.
 340 Quinnipiac St., Bldg. 40, Wallingford CT 06492
  
  
 ---------------------------------------------------------------
 Warning -- This program may not be used in any manner that
 competes with the business of Gaussian, Inc. or will provide
 assistance to any competitor of Gaussian, Inc.  The licensee
 of this program is prohibited from giving any competitor of
 Gaussian, Inc. access to this program.  By using this program,
 the user acknowledges that Gaussian, Inc. is engaged in the
 business of creating and licensing software in the field of
 computational chemistry and represents and warrants to the
 licensee that it is not a competitor of Gaussian, Inc. and that
 it will not use this program in any manner prohibited above.
 ---------------------------------------------------------------
  

 Cite this work as:
 Gaussian 16, Revision A.03,
 M. J. Frisch, G. W. Trucks, H. B. Schlegel, G. E. Scuseria, 
 M. A. Robb, J. R. Cheeseman, G. Scalmani, V. Barone, 
 G. A. Petersson, H. Nakatsuji, X. Li, M. Caricato, A. V. Marenich, 
 J. Bloino, B. G. Janesko, R. Gomperts, B. Mennucci, H. P. Hratchian, 
 J. V. Ortiz, A. F. Izmaylov, J. L. Sonnenberg, D. Williams-Young, 
 F. Ding, F. Lipparini, F. Egidi, J. Goings, B. Peng, A. Petrone, 
 T. Henderson, D. Ranasinghe, V. G. Zakrzewski, J. Gao, N. Rega, 
 G. Zheng, W. Liang, M. Hada, M. Ehara, K. Toyota, R. Fukuda, 
 J. Hasegawa, M. Ishida, T. Nakajima, Y. Honda, O. Kitao, H. Nakai, 
 T. Vreven, K. Throssell, J. A. Montgomery, Jr., J. E. Peralta, 
 F. Ogliaro, M. J. Bearpark, J. J. Heyd, E. N. Brothers, K. N. Kudin, 
 V. N. Staroverov, T. A. Keith, R. Kobayashi, J. Normand, 
 K. Raghavachari, A. P. Rendell, J. C. Burant, S. S. Iyengar, 
 J. Tomasi, M. Cossi, J. M. Millam, M. Klene, C. Adamo, R. Cammi, 
 J. W. Ochterski, R. L. Martin, K. Morokuma, O. Farkas, 
 J. B. Foresman, and D. J. Fox, Gaussian, Inc., Wallingford CT, 2016.
 
 ******************************************
 Gaussian 16:  ES64L-G16RevA.03 25-Dec-2016
                22-Sep-2023 
 ******************************************
 %nprocshared=4
 Will use up to    4 processors via shared memory.
 %mem=4GB
 -----------------------------------------
 # scrf=(cpcm,solvent=water) def2tzvp olyp
 -----------------------------------------
 1/38=1,172=1/1;
 2/12=2,17=6,18=5,40=1/2;
 3/5=44,7=101,11=2,25=1,30=1,70=2101,72=1,74=2002/1,2,3;
 4//1;
 5/5=2,38=5,53=1/2;
 6/7=2,8=2,9=2,10=2,28=1/1;
 99/5=1,9=1/99;
 ----------------------
 tmpdir/M2_conf_0_8.gjf
 ----------------------
 Symbolic Z-matrix:
 Charge =  0 Multiplicity = 1
 O                     0.        0.        0. 
 P                     1.5867    0.        0. 
 O                     2.07332   0.        1.44264 
 H                    -0.51861  -0.21722  -0.82623 
 O                     2.23567  -0.91019  -0.97299 
 H                     1.83284   1.38301  -0.46275 
 H                     2.76745   0.44481   1.8086 
 
                          Input orientation:                          
 ---------------------------------------------------------------------
 Center     Atomic      Atomic             Coordinates (Angstroms)
 Number     Number       Type             X           Y           Z
 ---------------------------------------------------------------------
      1          8           0        0.000000    0.000000    0.000000
      2         15           0        1.586700    0.000000    0.000000
      3          8           0        2.073320    0.000000    1.442640
      4          1           0       -0.518610   -0.217220   -0.826230
      5          8           0        2.235670   -0.910190   -0.972990
      6          1           0        1.832840    1.383010   -0.462750
      7          1           0        2.767450    0.444810    1.808600
 ---------------------------------------------------------------------
                    Distance matrix (angstroms):
                    1          2          3          4          5
     1  O    0.000000
     2  P    1.586700   0.000000
     3  O    2.525840   1.522501   0.000000
     4  H    0.999398   2.272041   3.451530   0.000000
     5  O    2.602571   1.481998   2.586517   2.843907   0.000000
     6  H    2.342255   1.478999   2.366656   2.867433   2.383565
     7  H    3.335816   2.205235   0.901997   4.263661   3.139436
                    6          7
     6  H    0.000000
     7  H    2.629210   0.000000
 Stoichiometry    H3O3P
 Framework group  C1[X(H3O3P)]
 Deg. of freedom    15
 Full point group                 C1      NOp   1
 Largest Abelian subgroup         C1      NOp   1
 Largest concise Abelian subgroup C1      NOp   1
                         Standard orientation:                         
 ---------------------------------------------------------------------
 Center     Atomic      Atomic             Coordinates (Angstroms)
 Number     Number       Type             X           Y           Z
 ---------------------------------------------------------------------
      1          8           0       -1.176710   -0.910887   -0.135422
      2         15           0        0.022140    0.079707    0.179379
      3          8           0        1.327267   -0.591719   -0.225391
      4          1           0       -2.123445   -0.591090   -0.150273
      5          8           0       -0.195181    1.498931   -0.187898
      6          1           0        0.021961    0.004774    1.656479
      7          1           0        2.126376   -0.579890    0.192801
 ---------------------------------------------------------------------
 Rotational constants (GHZ):           8.2669293           7.7138399           4.3665297
 Standard basis: def2TZVP (5D, 7F)
 There are   168 symmetry adapted cartesian basis functions of A   symmetry.
 There are   148 symmetry adapted basis functions of A   symmetry.
   148 basis functions,   246 primitive gaussians,   168 cartesian basis functions
    21 alpha electrons       21 beta electrons
       nuclear repulsion energy       196.6973113433 Hartrees.
 NAtoms=    7 NActive=    7 NUniq=    7 SFac= 1.00D+00 NAtFMM=   60 NAOKFM=F Big=F
 Integral buffers will be    131072 words long.
 Raffenetti 2 integral format.
 Two-electron integral symmetry is turned on.
 ------------------------------------------------------------------------------
 Polarizable Continuum Model (PCM)
 =================================
 Model                : C-PCM.
 Atomic radii         : UFF (Universal Force Field).
 Polarization charges : Total charges.
 Charge compensation  : None.
 Solution method      : On-the-fly selection.
 Cavity type          : Scaled VdW (van der Waals Surface) (Alpha=1.100).
 Cavity algorithm     : GePol (No added spheres)
                        Default sphere list used, NSphG=    7.
                        Lebedev-Laikov grids with approx.  5.0 points / Ang**2.
                        Smoothing algorithm: York/Karplus (Gamma=1.0000).
                        Polarization charges: spherical gaussians, with
                                              point-specific exponents (IZeta= 3).
                        Self-potential: point-specific (ISelfS= 7).
                        Self-field    : sphere-specific E.n sum rule (ISelfD= 2).
 Solvent              : Water, Eps=  78.355300 Eps(inf)=   1.777849
 ------------------------------------------------------------------------------
 Spheres list:
 ISph  on   Nord     Re0    Alpha      Xe            Ye            Ze
    1   O      1    1.7500  1.100     -1.176710     -0.910887     -0.135422
    2   P      2    2.0735  1.100      0.022140      0.079707      0.179379
    3   O      3    1.7500  1.100      1.327267     -0.591719     -0.225391
    4   H      4    1.4430  1.100     -2.123445     -0.591090     -0.150273
    5   O      5    1.7500  1.100     -0.195181      1.498931     -0.187898
    6   H      6    1.4430  1.100      0.021961      0.004774      1.656479
    7   H      7    1.4430  1.100      2.126376     -0.579890      0.192801
 ------------------------------------------------------------------------------
 One-electron integrals computed using PRISM.
   1 Symmetry operations used in ECPInt.
 ECPInt:  NShTT=    1711 NPrTT=    5676 LenC2=    1698 LenP2D=    4711.
 LDataN:  DoStor=T MaxTD1= 6 Len=  172
 NBasis=   148 RedAO= T EigKep=  1.43D-03  NBF=   148
 NBsUse=   148 1.00D-06 EigRej= -1.00D+00 NBFU=   148
 ExpMin= 9.04D-02 ExpMax= 5.24D+04 ExpMxC= 1.79D+03 IAcc=3 IRadAn=         5 AccDes= 0.00D+00
 Harris functional with IExCor= 2002 and IRadAn=       5 diagonalized for initial guess.
 HarFok:  IExCor= 2002 AccDes= 0.00D+00 IRadAn=         5 IDoV= 1 UseB2=F ITyADJ=14
 ICtDFT=  3500011 ScaDFX=  1.000000  1.000000  1.000000  1.000000
 FoFCou: FMM=F IPFlag=           0 FMFlag=      100000 FMFlg1=           0
         NFxFlg=           0 DoJE=T BraDBF=F KetDBF=T FulRan=T
         wScrn=  0.000000 ICntrl=       500 IOpCl=  0 I1Cent=   200000004 NGrid=           0
         NMat0=    1 NMatS0=      1 NMatT0=    0 NMatD0=    1 NMtDS0=    0 NMtDT0=    0
 Petite list used in FoFCou.
 Keep J ints in memory in canonical form, NReq=64775784.
 Requested convergence on RMS density matrix=1.00D-08 within 128 cycles.
 Requested convergence on MAX density matrix=1.00D-06.
 Requested convergence on             energy=1.00D-06.
 No special actions if energy rises.
 Inv3:  Mode=1 IEnd=     2286387.
 Iteration    1 A*A^-1 deviation from unit magnitude is 5.44D-15 for    873.
 Iteration    1 A*A^-1 deviation from orthogonality  is 3.18D-15 for    868    320.
 Iteration    1 A^-1*A deviation from unit magnitude is 5.44D-15 for    873.
 Iteration    1 A^-1*A deviation from orthogonality  is 1.82D-15 for    765    496.
 Error on total polarization charges =  0.00816
 SCF Done:  E(RO-LYP) =  -568.964717968     A.U. after   11 cycles
            NFock= 11  Conv=0.76D-08     -V/T= 2.0019

 **********************************************************************

            Population analysis using the SCF density.

 **********************************************************************

 Orbital symmetries:
       Occupied  (A) (A) (A) (A) (A) (A) (A) (A) (A) (A) (A) (A)
                 (A) (A) (A) (A) (A) (A) (A) (A) (A)
       Virtual   (A) (A) (A) (A) (A) (A) (A) (A) (A) (A) (A) (A)
                 (A) (A) (A) (A) (A) (A) (A) (A) (A) (A) (A) (A)
                 (A) (A) (A) (A) (A) (A) (A) (A) (A) (A) (A) (A)
                 (A) (A) (A) (A) (A) (A) (A) (A) (A) (A) (A) (A)
                 (A) (A) (A) (A) (A) (A) (A) (A) (A) (A) (A) (A)
                 (A) (A) (A) (A) (A) (A) (A) (A) (A) (A) (A) (A)
                 (A) (A) (A) (A) (A) (A) (A) (A) (A) (A) (A) (A)
                 (A) (A) (A) (A) (A) (A) (A) (A) (A) (A) (A) (A)
                 (A) (A) (A) (A) (A) (A) (A) (A) (A) (A) (A) (A)
                 (A) (A) (A) (A) (A) (A) (A) (A) (A) (A) (A) (A)
                 (A) (A) (A) (A) (A) (A) (A)
 The electronic state is 1-A.
 Alpha  occ. eigenvalues --  -76.39938 -18.80979 -18.80437 -18.72170  -6.42292
 Alpha  occ. eigenvalues --   -4.63314  -4.63285  -4.62960  -1.02288  -0.96768
 Alpha  occ. eigenvalues --   -0.88081  -0.62910  -0.52828  -0.45618  -0.39576
 Alpha  occ. eigenvalues --   -0.37263  -0.34299  -0.33059  -0.29066  -0.25534
 Alpha  occ. eigenvalues --   -0.24889
 Alpha virt. eigenvalues --   -0.01604   0.01787   0.05105   0.06699   0.08067
 Alpha virt. eigenvalues --    0.10751   0.17813   0.20876   0.24984   0.25892
 Alpha virt. eigenvalues --    0.31278   0.34336   0.34979   0.35563   0.38094
 Alpha virt. eigenvalues --    0.40495   0.41786   0.44048   0.47252   0.49671
 Alpha virt. eigenvalues --    0.50939   0.52673   0.55390   0.62814   0.64408
 Alpha virt. eigenvalues --    0.65478   0.70303   0.71214   0.77163   0.81754
 Alpha virt. eigenvalues --    1.06869   1.07396   1.11136   1.12362   1.16620
 Alpha virt. eigenvalues --    1.17893   1.23292   1.24978   1.28390   1.33193
 Alpha virt. eigenvalues --    1.36368   1.38841   1.40491   1.48696   1.49099
 Alpha virt. eigenvalues --    1.54784   1.60521   1.64892   1.66582   1.71806
 Alpha virt. eigenvalues --    1.76300   1.78118   1.79643   1.82012   1.89377
 Alpha virt. eigenvalues --    1.93627   1.95047   2.00536   2.05201   2.08913
 Alpha virt. eigenvalues --    2.11621   2.16195   2.18021   2.20330   2.29029
 Alpha virt. eigenvalues --    2.32101   2.37795   2.41076   2.52001   2.60496
 Alpha virt. eigenvalues --    2.63869   2.68898   2.70143   2.74312   2.79256
 Alpha virt. eigenvalues --    2.80531   2.88275   2.89427   2.92174   3.23384
 Alpha virt. eigenvalues --    3.50368   3.69569   3.74182   3.86714   4.93645
 Alpha virt. eigenvalues --    4.94775   4.95706   4.98336   5.01793   5.04012
 Alpha virt. eigenvalues --    5.07087   5.08213   5.10203   5.12959   5.14915
 Alpha virt. eigenvalues --    5.21475   5.23525   5.24819   5.29727   5.39845
 Alpha virt. eigenvalues --    5.44383   5.48602   5.54033   5.95150   6.14428
 Alpha virt. eigenvalues --    6.15082   6.21299   6.22440   6.26556   6.37177
 Alpha virt. eigenvalues --    6.41636   6.45003   6.54716   6.55544   6.60547
 Alpha virt. eigenvalues --    6.61937   6.67964   6.75507   6.87683   6.92293
 Alpha virt. eigenvalues --    7.27585   7.86629   8.00762  16.35217  43.12428
 Alpha virt. eigenvalues --   43.17387  43.22334
          Condensed to atoms (all electrons):
               1          2          3          4          5          6
     1  O    7.866364   0.421739  -0.024710   0.288875  -0.060506  -0.049486
     2  P    0.421739  12.366857   0.436076  -0.015772   0.737297   0.368294
     3  O   -0.024710   0.436076   7.745202   0.001212  -0.057361  -0.048808
     4  H    0.288875  -0.015772   0.001212   0.352733  -0.000393   0.005143
     5  O   -0.060506   0.737297  -0.057361  -0.000393   7.991442  -0.053776
     6  H   -0.049486   0.368294  -0.048808   0.005143  -0.053776   0.818029
     7  H    0.000988  -0.016390   0.322747  -0.000059  -0.000084   0.002105
               7
     1  O    0.000988
     2  P   -0.016390
     3  O    0.322747
     4  H   -0.000059
     5  O   -0.000084
     6  H    0.002105
     7  H    0.345104
 Mulliken charges:
               1
     1  O   -0.443264
     2  P    0.701898
     3  O   -0.374360
     4  H    0.368261
     5  O   -0.556621
     6  H   -0.041502
     7  H    0.345589
 Sum of Mulliken charges =  -0.00000
 Mulliken charges with hydrogens summed into heavy atoms:
               1
     1  O   -0.075003
     2  P    0.660396
     3  O   -0.028771
     5  O   -0.556621
 Electronic spatial extent (au):  <R**2>=            302.1420
 Charge=             -0.0000 electrons
 Dipole moment (field-independent basis, Debye):
    X=              0.6842    Y=             -3.1360    Z=              1.6039  Tot=              3.5882
 Quadrupole moment (field-independent basis, Debye-Ang):
   XX=            -17.0702   YY=            -38.1318   ZZ=            -30.1942
   XY=             -0.0978   XZ=              1.9269   YZ=              0.2943
 Traceless Quadrupole moment (field-independent basis, Debye-Ang):
   XX=             11.3952   YY=             -9.6664   ZZ=             -1.7288
   XY=             -0.0978   XZ=              1.9269   YZ=              0.2943
 Octapole moment (field-independent basis, Debye-Ang**2):
  XXX=              0.3884  YYY=            -11.3063  ZZZ=             -1.7669  XYY=              3.3562
  XXY=             -7.0518  XXZ=              2.2438  XZZ=              0.4052  YZZ=             -1.0803
  YYZ=              1.6190  XYZ=             -1.2615
 Hexadecapole moment (field-independent basis, Debye-Ang**3):
 XXXX=            -66.9676 YYYY=           -170.9044 ZZZZ=            -53.0497 XXXY=             -0.8902
 XXXZ=             10.0108 YYYX=             -0.4429 YYYZ=              1.7128 ZZZX=              0.5350
 ZZZY=              0.5414 XXYY=            -49.7792 XXZZ=            -34.6259 YYZZ=            -35.1399
 XXYZ=             -1.2162 YYXZ=              0.5954 ZZXY=             -0.1672
 N-N= 1.966973113433D+02 E-N=-1.744136464742D+03  KE= 5.679053573445D+02
 1\1\GINC-NODE85\SP\ROLYP\def2TZVP\H3O3P1\YANZ\22-Sep-2023\0\\# scrf=(c
 pcm,solvent=water) def2tzvp olyp\\tmpdir/M2_conf_0_8.gjf\\0,1\O,0,0.,0
 .,0.\P,0,1.5867,0.,0.\O,0,2.07332,0.,1.44264\H,0,-0.51861,-0.21722,-0.
 82623\O,0,2.23567,-0.91019,-0.97299\H,0,1.83284,1.38301,-0.46275\H,0,2
 .76745,0.44481,1.8086\\Version=ES64L-G16RevA.03\State=1-A\HF=-568.9647
 18\RMSD=7.644e-09\Dipole=-0.4417052,1.0835973,0.7896796\Quadrupole=2.3
 998656,-2.057634,-0.3422316,3.1944623,7.0206464,-0.307862\PG=C01 [X(H3
 O3P1)]\\@


 IT IS A SIMPLE TASK TO MAKE THINGS COMPLEX,
 BUT A COMPLEX TASK TO MAKE THEM SIMPLE.
 Job cpu time:       0 days  0 hours  1 minutes  1.1 seconds.
 Elapsed time:       0 days  0 hours  0 minutes 16.5 seconds.
 File lengths (MBytes):  RWF=     17 Int=      0 D2E=      0 Chk=      3 Scr=      1
 Normal termination of Gaussian 16 at Fri Sep 22 16:53:56 2023.
