 Entering Gaussian System, Link 0=g16
 Initial command:
 /share/apps/gaussian/g16/l1.exe "/tmp/55608.mgr/Gau-87758.inp" -scrdir="/tmp/55608.mgr/"
 Entering Link 1 = /share/apps/gaussian/g16/l1.exe PID=     87762.
  
 Copyright (c) 1988,1990,1992,1993,1995,1998,2003,2009,2016,
            Gaussian, Inc.  All Rights Reserved.
  
 This is part of the Gaussian(R) 16 program.  It is based on
 the Gaussian(R) 09 system (copyright 2009, Gaussian, Inc.),
 the Gaussian(R) 03 system (copyright 2003, Gaussian, Inc.),
 the Gaussian(R) 98 system (copyright 1998, Gaussian, Inc.),
 the Gaussian(R) 94 system (copyright 1995, Gaussian, Inc.),
 the Gaussian 92(TM) system (copyright 1992, Gaussian, Inc.),
 the Gaussian 90(TM) system (copyright 1990, Gaussian, Inc.),
 the Gaussian 88(TM) system (copyright 1988, Gaussian, Inc.),
 the Gaussian 86(TM) system (copyright 1986, Carnegie Mellon
 University), and the Gaussian 82(TM) system (copyright 1983,
 Carnegie Mellon University). Gaussian is a federally registered
 trademark of Gaussian, Inc.
  
 This software contains proprietary and confidential information,
 including trade secrets, belonging to Gaussian, Inc.
  
 This software is provided under written license and may be
 used, copied, transmitted, or stored only in accord with that
 written license.
  
 The following legend is applicable only to US Government
 contracts under FAR:
  
                    RESTRICTED RIGHTS LEGEND
  
 Use, reproduction and disclosure by the US Government is
 subject to restrictions as set forth in subparagraphs (a)
 and (c) of the Commercial Computer Software - Restricted
 Rights clause in FAR 52.227-19.
  
 Gaussian, Inc.
 340 Quinnipiac St., Bldg. 40, Wallingford CT 06492
  
  
 ---------------------------------------------------------------
 Warning -- This program may not be used in any manner that
 competes with the business of Gaussian, Inc. or will provide
 assistance to any competitor of Gaussian, Inc.  The licensee
 of this program is prohibited from giving any competitor of
 Gaussian, Inc. access to this program.  By using this program,
 the user acknowledges that Gaussian, Inc. is engaged in the
 business of creating and licensing software in the field of
 computational chemistry and represents and warrants to the
 licensee that it is not a competitor of Gaussian, Inc. and that
 it will not use this program in any manner prohibited above.
 ---------------------------------------------------------------
  

 Cite this work as:
 Gaussian 16, Revision A.03,
 M. J. Frisch, G. W. Trucks, H. B. Schlegel, G. E. Scuseria, 
 M. A. Robb, J. R. Cheeseman, G. Scalmani, V. Barone, 
 G. A. Petersson, H. Nakatsuji, X. Li, M. Caricato, A. V. Marenich, 
 J. Bloino, B. G. Janesko, R. Gomperts, B. Mennucci, H. P. Hratchian, 
 J. V. Ortiz, A. F. Izmaylov, J. L. Sonnenberg, D. Williams-Young, 
 F. Ding, F. Lipparini, F. Egidi, J. Goings, B. Peng, A. Petrone, 
 T. Henderson, D. Ranasinghe, V. G. Zakrzewski, J. Gao, N. Rega, 
 G. Zheng, W. Liang, M. Hada, M. Ehara, K. Toyota, R. Fukuda, 
 J. Hasegawa, M. Ishida, T. Nakajima, Y. Honda, O. Kitao, H. Nakai, 
 T. Vreven, K. Throssell, J. A. Montgomery, Jr., J. E. Peralta, 
 F. Ogliaro, M. J. Bearpark, J. J. Heyd, E. N. Brothers, K. N. Kudin, 
 V. N. Staroverov, T. A. Keith, R. Kobayashi, J. Normand, 
 K. Raghavachari, A. P. Rendell, J. C. Burant, S. S. Iyengar, 
 J. Tomasi, M. Cossi, J. M. Millam, M. Klene, C. Adamo, R. Cammi, 
 J. W. Ochterski, R. L. Martin, K. Morokuma, O. Farkas, 
 J. B. Foresman, and D. J. Fox, Gaussian, Inc., Wallingford CT, 2016.
 
 ******************************************
 Gaussian 16:  ES64L-G16RevA.03 25-Dec-2016
                22-Sep-2023 
 ******************************************
 %nprocshared=4
 Will use up to    4 processors via shared memory.
 %mem=4GB
 -----------------------------------------
 # scrf=(cpcm,solvent=water) def2tzvp olyp
 -----------------------------------------
 1/38=1,172=1/1;
 2/12=2,17=6,18=5,40=1/2;
 3/5=44,7=101,11=2,25=1,30=1,70=2101,72=1,74=2002/1,2,3;
 4//1;
 5/5=2,38=5,53=1/2;
 6/7=2,8=2,9=2,10=2,28=1/1;
 99/5=1,9=1/99;
 ----------------------
 tmpdir/M2_conf_0_6.gjf
 ----------------------
 Symbolic Z-matrix:
 Charge =  0 Multiplicity = 1
 O                     0.        0.        0. 
 P                     1.482     0.        0. 
 O                     2.37991   0.        1.22954 
 H                     2.07711   0.93675  -0.78436 
 H                     1.91985  -1.22467  -0.70422 
 H                     2.66755  -0.6977    1.72359 
 
                          Input orientation:                          
 ---------------------------------------------------------------------
 Center     Atomic      Atomic             Coordinates (Angstroms)
 Number     Number       Type             X           Y           Z
 ---------------------------------------------------------------------
      1          8           0        0.000000    0.000000    0.000000
      2         15           0        1.482000    0.000000    0.000000
      3          8           0        2.379910    0.000000    1.229540
      4          1           0        2.077110    0.936750   -0.784360
      5          1           0        1.919850   -1.224670   -0.704220
      6          1           0        2.667550   -0.697700    1.723590
 ---------------------------------------------------------------------
                    Distance matrix (angstroms):
                    1          2          3          4          5
     1  O    0.000000
     2  P    1.482000   0.000000
     3  O    2.678757   1.522502   0.000000
     4  H    2.409794   1.358999   2.241647   0.000000
     5  H    2.383604   1.479005   2.334716   2.168615   0.000000
     6  H    3.251672   2.205238   0.902002   3.051206   2.594420
                    6
     6  H    0.000000
 Stoichiometry    H3O2P
 Framework group  C1[X(H3O2P)]
 Deg. of freedom    12
 Full point group                 C1      NOp   1
 Largest Abelian subgroup         C1      NOp   1
 Largest concise Abelian subgroup C1      NOp   1
                         Standard orientation:                         
 ---------------------------------------------------------------------
 Center     Atomic      Atomic             Coordinates (Angstroms)
 Number     Number       Type             X           Y           Z
 ---------------------------------------------------------------------
      1          8           0        1.369727   -0.447233   -0.000797
      2         15           0        0.086277    0.293725   -0.008748
      3          8           0       -1.304201   -0.319836   -0.098897
      4          1           0       -0.001292    1.322853   -0.891982
      5          1           0        0.009935    1.050846    1.259477
      6          1           0       -1.827007   -0.643019    0.561279
 ---------------------------------------------------------------------
 Rotational constants (GHZ):          37.1842663           7.9414137           7.0632925
 Standard basis: def2TZVP (5D, 7F)
 There are   132 symmetry adapted cartesian basis functions of A   symmetry.
 There are   117 symmetry adapted basis functions of A   symmetry.
   117 basis functions,   195 primitive gaussians,   132 cartesian basis functions
    17 alpha electrons       17 beta electrons
       nuclear repulsion energy       125.8582392479 Hartrees.
 NAtoms=    6 NActive=    6 NUniq=    6 SFac= 1.00D+00 NAtFMM=   60 NAOKFM=F Big=F
 Integral buffers will be    131072 words long.
 Raffenetti 2 integral format.
 Two-electron integral symmetry is turned on.
 ------------------------------------------------------------------------------
 Polarizable Continuum Model (PCM)
 =================================
 Model                : C-PCM.
 Atomic radii         : UFF (Universal Force Field).
 Polarization charges : Total charges.
 Charge compensation  : None.
 Solution method      : On-the-fly selection.
 Cavity type          : Scaled VdW (van der Waals Surface) (Alpha=1.100).
 Cavity algorithm     : GePol (No added spheres)
                        Default sphere list used, NSphG=    6.
                        Lebedev-Laikov grids with approx.  5.0 points / Ang**2.
                        Smoothing algorithm: York/Karplus (Gamma=1.0000).
                        Polarization charges: spherical gaussians, with
                                              point-specific exponents (IZeta= 3).
                        Self-potential: point-specific (ISelfS= 7).
                        Self-field    : sphere-specific E.n sum rule (ISelfD= 2).
 Solvent              : Water, Eps=  78.355300 Eps(inf)=   1.777849
 ------------------------------------------------------------------------------
 Spheres list:
 ISph  on   Nord     Re0    Alpha      Xe            Ye            Ze
    1   O      1    1.7500  1.100      1.369727     -0.447233     -0.000797
    2   P      2    2.0735  1.100      0.086277      0.293725     -0.008748
    3   O      3    1.7500  1.100     -1.304201     -0.319836     -0.098897
    4   H      4    1.4430  1.100     -0.001292      1.322853     -0.891982
    5   H      5    1.4430  1.100      0.009935      1.050846      1.259477
    6   H      6    1.4430  1.100     -1.827007     -0.643019      0.561279
 ------------------------------------------------------------------------------
 One-electron integrals computed using PRISM.
   1 Symmetry operations used in ECPInt.
 ECPInt:  NShTT=    1128 NPrTT=    3744 LenC2=    1123 LenP2D=    3211.
 LDataN:  DoStor=T MaxTD1= 6 Len=  172
 NBasis=   117 RedAO= T EigKep=  1.74D-03  NBF=   117
 NBsUse=   117 1.00D-06 EigRej= -1.00D+00 NBFU=   117
 ExpMin= 9.04D-02 ExpMax= 5.24D+04 ExpMxC= 1.79D+03 IAcc=3 IRadAn=         5 AccDes= 0.00D+00
 Harris functional with IExCor= 2002 and IRadAn=       5 diagonalized for initial guess.
 HarFok:  IExCor= 2002 AccDes= 0.00D+00 IRadAn=         5 IDoV= 1 UseB2=F ITyADJ=14
 ICtDFT=  3500011 ScaDFX=  1.000000  1.000000  1.000000  1.000000
 FoFCou: FMM=F IPFlag=           0 FMFlag=      100000 FMFlg1=           0
         NFxFlg=           0 DoJE=T BraDBF=F KetDBF=T FulRan=T
         wScrn=  0.000000 ICntrl=       500 IOpCl=  0 I1Cent=   200000004 NGrid=           0
         NMat0=    1 NMatS0=      1 NMatT0=    0 NMatD0=    1 NMtDS0=    0 NMtDT0=    0
 Petite list used in FoFCou.
 Keep J ints in memory in canonical form, NReq=27663592.
 Requested convergence on RMS density matrix=1.00D-08 within 128 cycles.
 Requested convergence on MAX density matrix=1.00D-06.
 Requested convergence on             energy=1.00D-06.
 No special actions if energy rises.
 Inv3:  Mode=1 IEnd=     1751088.
 Iteration    1 A*A^-1 deviation from unit magnitude is 3.55D-15 for    742.
 Iteration    1 A*A^-1 deviation from orthogonality  is 1.62D-15 for    762    213.
 Iteration    1 A^-1*A deviation from unit magnitude is 3.33D-15 for    742.
 Iteration    1 A^-1*A deviation from orthogonality  is 9.87D-16 for    737    236.
 Error on total polarization charges =  0.00866
 SCF Done:  E(RO-LYP) =  -493.681969864     A.U. after   11 cycles
            NFock= 11  Conv=0.72D-08     -V/T= 2.0013

 **********************************************************************

            Population analysis using the SCF density.

 **********************************************************************

 Orbital symmetries:
       Occupied  (A) (A) (A) (A) (A) (A) (A) (A) (A) (A) (A) (A)
                 (A) (A) (A) (A) (A)
       Virtual   (A) (A) (A) (A) (A) (A) (A) (A) (A) (A) (A) (A)
                 (A) (A) (A) (A) (A) (A) (A) (A) (A) (A) (A) (A)
                 (A) (A) (A) (A) (A) (A) (A) (A) (A) (A) (A) (A)
                 (A) (A) (A) (A) (A) (A) (A) (A) (A) (A) (A) (A)
                 (A) (A) (A) (A) (A) (A) (A) (A) (A) (A) (A) (A)
                 (A) (A) (A) (A) (A) (A) (A) (A) (A) (A) (A) (A)
                 (A) (A) (A) (A) (A) (A) (A) (A) (A) (A) (A) (A)
                 (A) (A) (A) (A) (A) (A) (A) (A) (A) (A) (A) (A)
                 (A) (A) (A) (A)
 The electronic state is 1-A.
 Alpha  occ. eigenvalues --  -76.37041 -18.80726 -18.72726  -6.40034  -4.61105
 Alpha  occ. eigenvalues --   -4.60857  -4.60707  -1.01346  -0.89022  -0.62567
 Alpha  occ. eigenvalues --   -0.48193  -0.41967  -0.37920  -0.33290  -0.31307
 Alpha  occ. eigenvalues --   -0.26847  -0.23988
 Alpha virt. eigenvalues --   -0.01340   0.03007   0.03590   0.06285   0.07494
 Alpha virt. eigenvalues --    0.16602   0.20649   0.23095   0.23848   0.26995
 Alpha virt. eigenvalues --    0.31177   0.32799   0.36806   0.38251   0.44189
 Alpha virt. eigenvalues --    0.46762   0.47437   0.49430   0.52235   0.56567
 Alpha virt. eigenvalues --    0.60721   0.65531   0.68563   0.73768   0.78534
 Alpha virt. eigenvalues --    1.02098   1.05470   1.12083   1.13210   1.15231
 Alpha virt. eigenvalues --    1.19558   1.20283   1.25112   1.27736   1.33913
 Alpha virt. eigenvalues --    1.37736   1.39577   1.48071   1.53079   1.54483
 Alpha virt. eigenvalues --    1.58140   1.62124   1.68421   1.77191   1.78279
 Alpha virt. eigenvalues --    1.78734   1.88725   1.91620   1.97839   1.99092
 Alpha virt. eigenvalues --    2.07778   2.08139   2.13824   2.23611   2.28081
 Alpha virt. eigenvalues --    2.32968   2.39389   2.44014   2.51698   2.59252
 Alpha virt. eigenvalues --    2.66734   2.69196   2.74961   2.78308   2.85330
 Alpha virt. eigenvalues --    2.91426   2.95092   3.33179   3.71396   3.89686
 Alpha virt. eigenvalues --    4.95360   4.95975   5.03988   5.04608   5.07805
 Alpha virt. eigenvalues --    5.09669   5.14858   5.19738   5.23141   5.34317
 Alpha virt. eigenvalues --    5.42011   5.44592   5.46163   6.15289   6.17132
 Alpha virt. eigenvalues --    6.21017   6.24606   6.40891   6.49478   6.52935
 Alpha virt. eigenvalues --    6.61551   6.65614   6.75210   6.91164   7.20625
 Alpha virt. eigenvalues --    7.40886   8.06094  15.87848  43.10783  43.18647
          Condensed to atoms (all electrons):
               1          2          3          4          5          6
     1  O    7.989738   0.708114  -0.048719  -0.041821  -0.051323  -0.000013
     2  P    0.708114  12.589750   0.419329   0.363316   0.368676  -0.019516
     3  O   -0.048719   0.419329   7.763377  -0.031633  -0.039277   0.319626
     4  H   -0.041821   0.363316  -0.031633   0.717340  -0.058777   0.004417
     5  H   -0.051323   0.368676  -0.039277  -0.058777   0.802793  -0.002682
     6  H   -0.000013  -0.019516   0.319626   0.004417  -0.002682   0.357568
 Mulliken charges:
               1
     1  O   -0.555975
     2  P    0.570331
     3  O   -0.382703
     4  H    0.047158
     5  H   -0.019410
     6  H    0.340599
 Sum of Mulliken charges =  -0.00000
 Mulliken charges with hydrogens summed into heavy atoms:
               1
     1  O   -0.555975
     2  P    0.598080
     3  O   -0.042105
 Electronic spatial extent (au):  <R**2>=            204.4088
 Charge=             -0.0000 electrons
 Dipole moment (field-independent basis, Debye):
    X=             -4.5719    Y=              1.3025    Z=              0.9447  Tot=              4.8468
 Quadrupole moment (field-independent basis, Debye-Ang):
   XX=            -26.6519   YY=            -23.9570   ZZ=            -23.4432
   XY=              3.6362   XZ=             -2.7303   YZ=             -1.5394
 Traceless Quadrupole moment (field-independent basis, Debye-Ang):
   XX=             -1.9678   YY=              0.7270   ZZ=              1.2408
   XY=              3.6362   XZ=             -2.7303   YZ=             -1.5394
 Octapole moment (field-independent basis, Debye-Ang**2):
  XXX=            -19.6626  YYY=             -1.2931  ZZZ=             -0.4719  XYY=             -3.5137
  XXY=             -1.6287  XXZ=              5.2975  XZZ=             -2.8617  YZZ=             -1.3113
  YYZ=              0.0040  XYZ=              1.8252
 Hexadecapole moment (field-independent basis, Debye-Ang**3):
 XXXX=           -147.1893 YYYY=            -56.4331 ZZZZ=            -39.1069 XXXY=             13.3568
 XXXZ=            -10.6130 YYYX=              3.8407 YYYZ=             -2.7496 ZZZX=             -2.0694
 ZZZY=             -2.1824 XXYY=            -33.7390 XXZZ=            -30.4865 YYZZ=            -15.8884
 XXYZ=             -3.8889 YYXZ=             -1.5700 ZZXY=              1.8036
 N-N= 1.258582392479D+02 E-N=-1.424365331800D+03  KE= 4.930371730560D+02
 1\1\GINC-NODE85\SP\ROLYP\def2TZVP\H3O2P1\YANZ\22-Sep-2023\0\\# scrf=(c
 pcm,solvent=water) def2tzvp olyp\\tmpdir/M2_conf_0_6.gjf\\0,1\O,0,0.,0
 .,0.\P,0,1.482,0.,0.\O,0,2.37991,0.,1.22954\H,0,2.07711,0.93675,-0.784
 36\H,0,1.91985,-1.22467,-0.70422\H,0,2.66755,-0.6977,1.72359\\Version=
 ES64L-G16RevA.03\State=1-A\HF=-493.6819699\RMSD=7.225e-09\Dipole=1.811
 9448,-0.4121073,0.4279737\Quadrupole=-3.3159403,1.220233,2.0957073,-1.
 1930695,0.3916447,-2.0893838\PG=C01 [X(H3O2P1)]\\@


 WE'RE IN THE POSITION OF A VISITOR FROM ANOTHER
 DIMENSION WHO COMES TO EARTH AND SEES A CHESS MATCH.
 ASSUMING HE KNOWS IT'S A GAME, HE'S GOT TWO PROBLEMS:
 FIRST, FIGURE OUT THE RULES, AND SECOND, FIGURE OUT HOW TO WIN.
 NINETY PERCENT OF SCIENCE (INCLUDING VIRTUALLY ALL OF CHEMISRY)
 IS IN THAT SECOND CATEGORY.  THEY'RE TRYING TO APPLY
 THE LAWS THAT ARE ALREADY KNOWN.

                     -- SHELDON GLASHOW, 1979
 Job cpu time:       0 days  0 hours  0 minutes 41.1 seconds.
 Elapsed time:       0 days  0 hours  0 minutes 11.0 seconds.
 File lengths (MBytes):  RWF=     16 Int=      0 D2E=      0 Chk=      2 Scr=      1
 Normal termination of Gaussian 16 at Fri Sep 22 16:53:29 2023.
