 Entering Gaussian System, Link 0=g16
 Initial command:
 /share/apps/gaussian/g16/l1.exe "/tmp/55608.mgr/Gau-89253.inp" -scrdir="/tmp/55608.mgr/"
 Entering Link 1 = /share/apps/gaussian/g16/l1.exe PID=     89254.
  
 Copyright (c) 1988,1990,1992,1993,1995,1998,2003,2009,2016,
            Gaussian, Inc.  All Rights Reserved.
  
 This is part of the Gaussian(R) 16 program.  It is based on
 the Gaussian(R) 09 system (copyright 2009, Gaussian, Inc.),
 the Gaussian(R) 03 system (copyright 2003, Gaussian, Inc.),
 the Gaussian(R) 98 system (copyright 1998, Gaussian, Inc.),
 the Gaussian(R) 94 system (copyright 1995, Gaussian, Inc.),
 the Gaussian 92(TM) system (copyright 1992, Gaussian, Inc.),
 the Gaussian 90(TM) system (copyright 1990, Gaussian, Inc.),
 the Gaussian 88(TM) system (copyright 1988, Gaussian, Inc.),
 the Gaussian 86(TM) system (copyright 1986, Carnegie Mellon
 University), and the Gaussian 82(TM) system (copyright 1983,
 Carnegie Mellon University). Gaussian is a federally registered
 trademark of Gaussian, Inc.
  
 This software contains proprietary and confidential information,
 including trade secrets, belonging to Gaussian, Inc.
  
 This software is provided under written license and may be
 used, copied, transmitted, or stored only in accord with that
 written license.
  
 The following legend is applicable only to US Government
 contracts under FAR:
  
                    RESTRICTED RIGHTS LEGEND
  
 Use, reproduction and disclosure by the US Government is
 subject to restrictions as set forth in subparagraphs (a)
 and (c) of the Commercial Computer Software - Restricted
 Rights clause in FAR 52.227-19.
  
 Gaussian, Inc.
 340 Quinnipiac St., Bldg. 40, Wallingford CT 06492
  
  
 ---------------------------------------------------------------
 Warning -- This program may not be used in any manner that
 competes with the business of Gaussian, Inc. or will provide
 assistance to any competitor of Gaussian, Inc.  The licensee
 of this program is prohibited from giving any competitor of
 Gaussian, Inc. access to this program.  By using this program,
 the user acknowledges that Gaussian, Inc. is engaged in the
 business of creating and licensing software in the field of
 computational chemistry and represents and warrants to the
 licensee that it is not a competitor of Gaussian, Inc. and that
 it will not use this program in any manner prohibited above.
 ---------------------------------------------------------------
  

 Cite this work as:
 Gaussian 16, Revision A.03,
 M. J. Frisch, G. W. Trucks, H. B. Schlegel, G. E. Scuseria, 
 M. A. Robb, J. R. Cheeseman, G. Scalmani, V. Barone, 
 G. A. Petersson, H. Nakatsuji, X. Li, M. Caricato, A. V. Marenich, 
 J. Bloino, B. G. Janesko, R. Gomperts, B. Mennucci, H. P. Hratchian, 
 J. V. Ortiz, A. F. Izmaylov, J. L. Sonnenberg, D. Williams-Young, 
 F. Ding, F. Lipparini, F. Egidi, J. Goings, B. Peng, A. Petrone, 
 T. Henderson, D. Ranasinghe, V. G. Zakrzewski, J. Gao, N. Rega, 
 G. Zheng, W. Liang, M. Hada, M. Ehara, K. Toyota, R. Fukuda, 
 J. Hasegawa, M. Ishida, T. Nakajima, Y. Honda, O. Kitao, H. Nakai, 
 T. Vreven, K. Throssell, J. A. Montgomery, Jr., J. E. Peralta, 
 F. Ogliaro, M. J. Bearpark, J. J. Heyd, E. N. Brothers, K. N. Kudin, 
 V. N. Staroverov, T. A. Keith, R. Kobayashi, J. Normand, 
 K. Raghavachari, A. P. Rendell, J. C. Burant, S. S. Iyengar, 
 J. Tomasi, M. Cossi, J. M. Millam, M. Klene, C. Adamo, R. Cammi, 
 J. W. Ochterski, R. L. Martin, K. Morokuma, O. Farkas, 
 J. B. Foresman, and D. J. Fox, Gaussian, Inc., Wallingford CT, 2016.
 
 ******************************************
 Gaussian 16:  ES64L-G16RevA.03 25-Dec-2016
                22-Sep-2023 
 ******************************************
 %nprocshared=4
 Will use up to    4 processors via shared memory.
 %mem=4GB
 -----------------------------------------
 # scrf=(cpcm,solvent=water) def2tzvp olyp
 -----------------------------------------
 1/38=1,172=1/1;
 2/12=2,17=6,18=5,40=1/2;
 3/5=44,7=101,11=2,25=1,30=1,70=2101,72=1,74=2002/1,2,3;
 4//1;
 5/5=2,38=5,53=1/2;
 6/7=2,8=2,9=2,10=2,28=1/1;
 99/5=1,9=1/99;
 -----------------------
 tmpdir/M2_conf_0_49.gjf
 -----------------------
 Symbolic Z-matrix:
 Charge =  0 Multiplicity = 1
 H                     0.        0.        0. 
 C                     1.0922    0.        0. 
 H                     1.47595   0.        1.02096 
 H                     1.50613  -0.94904  -0.59626 
 H                     1.46319   0.87081  -0.5393 
 
                          Input orientation:                          
 ---------------------------------------------------------------------
 Center     Atomic      Atomic             Coordinates (Angstroms)
 Number     Number       Type             X           Y           Z
 ---------------------------------------------------------------------
      1          1           0        0.000000    0.000000    0.000000
      2          6           0        1.092200    0.000000    0.000000
      3          1           0        1.475950    0.000000    1.020960
      4          1           0        1.506130   -0.949040   -0.596260
      5          1           0        1.463190    0.870810   -0.539300
 ---------------------------------------------------------------------
                    Distance matrix (angstroms):
                    1          2          3          4          5
     1  H    0.000000
     2  C    1.092200   0.000000
     3  H    1.794655   1.090699   0.000000
     4  H    1.877400   1.194797   1.875364   0.000000
     5  H    1.786079   1.089398   1.786864   1.821247   0.000000
 Stoichiometry    CH4
 Framework group  C1[X(CH4)]
 Deg. of freedom     9
 Full point group                 C1      NOp   1
 Largest Abelian subgroup         C1      NOp   1
 Largest concise Abelian subgroup C1      NOp   1
                         Standard orientation:                         
 ---------------------------------------------------------------------
 Center     Atomic      Atomic             Coordinates (Angstroms)
 Number     Number       Type             X           Y           Z
 ---------------------------------------------------------------------
      1          1           0        0.521937   -0.877217   -0.409790
      2          6           0        0.015704    0.000488   -0.002037
      3          1           0        0.501313    0.916039   -0.342000
      4          1           0       -1.135314    0.000582   -0.322504
      5          1           0        0.017839   -0.042333    1.086517
 ---------------------------------------------------------------------
 Rotational constants (GHZ):         157.6956797         148.1472029         146.3753809
 Standard basis: def2TZVP (5D, 7F)
 There are    60 symmetry adapted cartesian basis functions of A   symmetry.
 There are    55 symmetry adapted basis functions of A   symmetry.
    55 basis functions,    83 primitive gaussians,    60 cartesian basis functions
     5 alpha electrons        5 beta electrons
       nuclear repulsion energy        13.1318775999 Hartrees.
 NAtoms=    5 NActive=    5 NUniq=    5 SFac= 1.00D+00 NAtFMM=   60 NAOKFM=F Big=F
 Integral buffers will be    131072 words long.
 Raffenetti 2 integral format.
 Two-electron integral symmetry is turned on.
 ------------------------------------------------------------------------------
 Polarizable Continuum Model (PCM)
 =================================
 Model                : C-PCM.
 Atomic radii         : UFF (Universal Force Field).
 Polarization charges : Total charges.
 Charge compensation  : None.
 Solution method      : On-the-fly selection.
 Cavity type          : Scaled VdW (van der Waals Surface) (Alpha=1.100).
 Cavity algorithm     : GePol (No added spheres)
                        Default sphere list used, NSphG=    5.
                        Lebedev-Laikov grids with approx.  5.0 points / Ang**2.
                        Smoothing algorithm: York/Karplus (Gamma=1.0000).
                        Polarization charges: spherical gaussians, with
                                              point-specific exponents (IZeta= 3).
                        Self-potential: point-specific (ISelfS= 7).
                        Self-field    : sphere-specific E.n sum rule (ISelfD= 2).
 Solvent              : Water, Eps=  78.355300 Eps(inf)=   1.777849
 ------------------------------------------------------------------------------
 Spheres list:
 ISph  on   Nord     Re0    Alpha      Xe            Ye            Ze
    1   H      1    1.4430  1.100      0.521937     -0.877217     -0.409790
    2   C      2    1.9255  1.100      0.015704      0.000488     -0.002037
    3   H      3    1.4430  1.100      0.501313      0.916039     -0.342000
    4   H      4    1.4430  1.100     -1.135314      0.000582     -0.322504
    5   H      5    1.4430  1.100      0.017839     -0.042333      1.086517
 ------------------------------------------------------------------------------
 One-electron integrals computed using PRISM.
   1 Symmetry operations used in ECPInt.
 ECPInt:  NShTT=     378 NPrTT=    1024 LenC2=     379 LenP2D=     987.
 LDataN:  DoStor=T MaxTD1= 6 Len=  172
 NBasis=    55 RedAO= T EigKep=  1.62D-03  NBF=    55
 NBsUse=    55 1.00D-06 EigRej= -1.00D+00 NBFU=    55
 ExpMin= 9.52D-02 ExpMax= 1.36D+04 ExpMxC= 4.63D+02 IAcc=3 IRadAn=         5 AccDes= 0.00D+00
 Harris functional with IExCor= 2002 and IRadAn=       5 diagonalized for initial guess.
 HarFok:  IExCor= 2002 AccDes= 0.00D+00 IRadAn=         5 IDoV= 1 UseB2=F ITyADJ=14
 ICtDFT=  3500011 ScaDFX=  1.000000  1.000000  1.000000  1.000000
 FoFCou: FMM=F IPFlag=           0 FMFlag=      100000 FMFlg1=           0
         NFxFlg=           0 DoJE=T BraDBF=F KetDBF=T FulRan=T
         wScrn=  0.000000 ICntrl=       500 IOpCl=  0 I1Cent=   200000004 NGrid=           0
         NMat0=    1 NMatS0=      1 NMatT0=    0 NMatD0=    1 NMtDS0=    0 NMtDT0=    0
 Petite list used in FoFCou.
 Keep J ints in memory in canonical form, NReq=4722199.
 Requested convergence on RMS density matrix=1.00D-08 within 128 cycles.
 Requested convergence on MAX density matrix=1.00D-06.
 Requested convergence on             energy=1.00D-06.
 No special actions if energy rises.
 Inv3:  Mode=1 IEnd=      744012.
 Iteration    1 A*A^-1 deviation from unit magnitude is 3.33D-15 for    478.
 Iteration    1 A*A^-1 deviation from orthogonality  is 1.19D-15 for    422    228.
 Iteration    1 A^-1*A deviation from unit magnitude is 3.11D-15 for    478.
 Iteration    1 A^-1*A deviation from orthogonality  is 9.78D-16 for    433     97.
 Error on total polarization charges =  0.00938
 SCF Done:  E(RO-LYP) =  -40.5045907269     A.U. after    8 cycles
            NFock=  8  Conv=0.64D-08     -V/T= 2.0070

 **********************************************************************

            Population analysis using the SCF density.

 **********************************************************************

 Orbital symmetries:
       Occupied  (A) (A) (A) (A) (A)
       Virtual   (A) (A) (A) (A) (A) (A) (A) (A) (A) (A) (A) (A)
                 (A) (A) (A) (A) (A) (A) (A) (A) (A) (A) (A) (A)
                 (A) (A) (A) (A) (A) (A) (A) (A) (A) (A) (A) (A)
                 (A) (A) (A) (A) (A) (A) (A) (A) (A) (A) (A) (A)
                 (A) (A)
 The electronic state is 1-A.
 Alpha  occ. eigenvalues --   -9.88930  -0.61986  -0.34579  -0.34535  -0.32663
 Alpha virt. eigenvalues --    0.02287   0.08643   0.10184   0.10261   0.17700
 Alpha virt. eigenvalues --    0.17711   0.18327   0.36517   0.39333   0.42909
 Alpha virt. eigenvalues --    0.42992   0.47049   0.55843   0.56030   0.89468
 Alpha virt. eigenvalues --    0.89526   0.89915   1.41059   1.42183   1.43221
 Alpha virt. eigenvalues --    1.45044   1.46278   1.46421   1.48002   1.88666
 Alpha virt. eigenvalues --    1.90300   1.91653   1.94751   2.13902   2.15804
 Alpha virt. eigenvalues --    2.17089   2.31049   2.34914   2.47658   2.49546
 Alpha virt. eigenvalues --    2.50366   2.86705   2.88110   2.91045   3.21206
 Alpha virt. eigenvalues --    3.24900   3.28925   3.37627   3.40020   3.42212
 Alpha virt. eigenvalues --    3.96761   4.09329   4.10602   4.35806  21.86248
          Condensed to atoms (all electrons):
               1          2          3          4          5
     1  H    0.538692   0.401712  -0.023863  -0.019674  -0.023565
     2  C    0.401712   4.907664   0.402042   0.379882   0.402033
     3  H   -0.023863   0.402042   0.538165  -0.019820  -0.023415
     4  H   -0.019674   0.379882  -0.019820   0.570544  -0.024075
     5  H   -0.023565   0.402033  -0.023415  -0.024075   0.542420
 Mulliken charges:
               1
     1  H    0.126698
     2  C   -0.493334
     3  H    0.126891
     4  H    0.113144
     5  H    0.126601
 Sum of Mulliken charges =   0.00000
 Mulliken charges with hydrogens summed into heavy atoms:
               1
     2  C    0.000000
 Electronic spatial extent (au):  <R**2>=             36.8022
 Charge=              0.0000 electrons
 Dipole moment (field-independent basis, Debye):
    X=              0.0679    Y=             -0.0008    Z=              0.0529  Tot=              0.0861
 Quadrupole moment (field-independent basis, Debye-Ang):
   XX=             -8.4620   YY=             -8.4727   ZZ=             -8.5766
   XY=              0.0021   XZ=             -0.0955   YZ=             -0.0010
 Traceless Quadrupole moment (field-independent basis, Debye-Ang):
   XX=              0.0418   YY=              0.0310   ZZ=             -0.0728
   XY=              0.0021   XZ=             -0.0955   YZ=             -0.0010
 Octapole moment (field-independent basis, Debye-Ang**2):
  XXX=             -0.4910  YYY=              0.0758  ZZZ=              1.0228  XYY=              0.7786
  XXY=             -0.0066  XXZ=             -0.3832  XZZ=              0.1659  YZZ=             -0.0685
  YYZ=             -0.4140  XYZ=              0.0238
 Hexadecapole moment (field-independent basis, Debye-Ang**3):
 XXXX=            -17.8825 YYYY=            -16.5003 ZZZZ=            -16.3928 XXXY=             -0.0076
 XXXZ=              0.2168 YYYX=              0.0457 YYYZ=              0.0149 ZZZX=             -0.2305
 ZZZY=             -0.0415 XXYY=             -5.8445 XXZZ=             -6.1324 YYZZ=             -5.7692
 XXYZ=              0.0230 YYXZ=             -0.4584 ZZXY=             -0.0279
 N-N= 1.313187759992D+01 E-N=-1.195128326308D+02  KE= 4.022441613361D+01
 1\1\GINC-NODE85\SP\ROLYP\def2TZVP\C1H4\YANZ\22-Sep-2023\0\\# scrf=(cpc
 m,solvent=water) def2tzvp olyp\\tmpdir/M2_conf_0_49.gjf\\0,1\H,0,0.,0.
 ,0.\C,0,1.0922,0.,0.\H,0,1.47595,0.,1.02096\H,0,1.50613,-0.94904,-0.59
 626\H,0,1.46319,0.87081,-0.5393\\Version=ES64L-G16RevA.03\State=1-A\HF
 =-40.5045907\RMSD=6.443e-09\Dipole=-0.004856,0.0327214,0.0073365\Quadr
 upole=0.0369894,-0.0914093,0.05442,-0.0146698,-0.0210595,0.0158943\PG=
 C01 [X(C1H4)]\\@


 Where a calculator on the ENIAC is equipped with 18,000
 vacuum tubes and weighs 30 tons, computers inthe future
 may  have only 1,000 vacuum tubes and weigh only 1 1/2 tons.
              ---Popular Mechanics, March 1949
 Job cpu time:       0 days  0 hours  0 minutes 12.6 seconds.
 Elapsed time:       0 days  0 hours  0 minutes  3.3 seconds.
 File lengths (MBytes):  RWF=     10 Int=      0 D2E=      0 Chk=      1 Scr=      1
 Normal termination of Gaussian 16 at Fri Sep 22 16:54:49 2023.
