 Entering Gaussian System, Link 0=g16
 Initial command:
 /share/apps/gaussian/g16/l1.exe "/tmp/55608.mgr/Gau-89091.inp" -scrdir="/tmp/55608.mgr/"
 Entering Link 1 = /share/apps/gaussian/g16/l1.exe PID=     89092.
  
 Copyright (c) 1988,1990,1992,1993,1995,1998,2003,2009,2016,
            Gaussian, Inc.  All Rights Reserved.
  
 This is part of the Gaussian(R) 16 program.  It is based on
 the Gaussian(R) 09 system (copyright 2009, Gaussian, Inc.),
 the Gaussian(R) 03 system (copyright 2003, Gaussian, Inc.),
 the Gaussian(R) 98 system (copyright 1998, Gaussian, Inc.),
 the Gaussian(R) 94 system (copyright 1995, Gaussian, Inc.),
 the Gaussian 92(TM) system (copyright 1992, Gaussian, Inc.),
 the Gaussian 90(TM) system (copyright 1990, Gaussian, Inc.),
 the Gaussian 88(TM) system (copyright 1988, Gaussian, Inc.),
 the Gaussian 86(TM) system (copyright 1986, Carnegie Mellon
 University), and the Gaussian 82(TM) system (copyright 1983,
 Carnegie Mellon University). Gaussian is a federally registered
 trademark of Gaussian, Inc.
  
 This software contains proprietary and confidential information,
 including trade secrets, belonging to Gaussian, Inc.
  
 This software is provided under written license and may be
 used, copied, transmitted, or stored only in accord with that
 written license.
  
 The following legend is applicable only to US Government
 contracts under FAR:
  
                    RESTRICTED RIGHTS LEGEND
  
 Use, reproduction and disclosure by the US Government is
 subject to restrictions as set forth in subparagraphs (a)
 and (c) of the Commercial Computer Software - Restricted
 Rights clause in FAR 52.227-19.
  
 Gaussian, Inc.
 340 Quinnipiac St., Bldg. 40, Wallingford CT 06492
  
  
 ---------------------------------------------------------------
 Warning -- This program may not be used in any manner that
 competes with the business of Gaussian, Inc. or will provide
 assistance to any competitor of Gaussian, Inc.  The licensee
 of this program is prohibited from giving any competitor of
 Gaussian, Inc. access to this program.  By using this program,
 the user acknowledges that Gaussian, Inc. is engaged in the
 business of creating and licensing software in the field of
 computational chemistry and represents and warrants to the
 licensee that it is not a competitor of Gaussian, Inc. and that
 it will not use this program in any manner prohibited above.
 ---------------------------------------------------------------
  

 Cite this work as:
 Gaussian 16, Revision A.03,
 M. J. Frisch, G. W. Trucks, H. B. Schlegel, G. E. Scuseria, 
 M. A. Robb, J. R. Cheeseman, G. Scalmani, V. Barone, 
 G. A. Petersson, H. Nakatsuji, X. Li, M. Caricato, A. V. Marenich, 
 J. Bloino, B. G. Janesko, R. Gomperts, B. Mennucci, H. P. Hratchian, 
 J. V. Ortiz, A. F. Izmaylov, J. L. Sonnenberg, D. Williams-Young, 
 F. Ding, F. Lipparini, F. Egidi, J. Goings, B. Peng, A. Petrone, 
 T. Henderson, D. Ranasinghe, V. G. Zakrzewski, J. Gao, N. Rega, 
 G. Zheng, W. Liang, M. Hada, M. Ehara, K. Toyota, R. Fukuda, 
 J. Hasegawa, M. Ishida, T. Nakajima, Y. Honda, O. Kitao, H. Nakai, 
 T. Vreven, K. Throssell, J. A. Montgomery, Jr., J. E. Peralta, 
 F. Ogliaro, M. J. Bearpark, J. J. Heyd, E. N. Brothers, K. N. Kudin, 
 V. N. Staroverov, T. A. Keith, R. Kobayashi, J. Normand, 
 K. Raghavachari, A. P. Rendell, J. C. Burant, S. S. Iyengar, 
 J. Tomasi, M. Cossi, J. M. Millam, M. Klene, C. Adamo, R. Cammi, 
 J. W. Ochterski, R. L. Martin, K. Morokuma, O. Farkas, 
 J. B. Foresman, and D. J. Fox, Gaussian, Inc., Wallingford CT, 2016.
 
 ******************************************
 Gaussian 16:  ES64L-G16RevA.03 25-Dec-2016
                22-Sep-2023 
 ******************************************
 %nprocshared=4
 Will use up to    4 processors via shared memory.
 %mem=4GB
 -----------------------------------------
 # scrf=(cpcm,solvent=water) def2tzvp olyp
 -----------------------------------------
 1/38=1,172=1/1;
 2/12=2,17=6,18=5,40=1/2;
 3/5=44,7=101,11=2,25=1,30=1,70=2101,72=1,74=2002/1,2,3;
 4//1;
 5/5=2,38=5,53=1/2;
 6/7=2,8=2,9=2,10=2,28=1/1;
 99/5=1,9=1/99;
 -----------------------
 tmpdir/M2_conf_0_41.gjf
 -----------------------
 Symbolic Z-matrix:
 Charge =  0 Multiplicity = 1
 P                     0.        0.        0. 
 O                     1.5633    0.        0. 
 H                     1.98138   0.        0.87771 
 H                    -0.34817   1.22879   0.54529 
 O                    -0.6751   -1.11946   0.73004 
 H                    -0.35567  -0.00586  -1.29037 
 
                          Input orientation:                          
 ---------------------------------------------------------------------
 Center     Atomic      Atomic             Coordinates (Angstroms)
 Number     Number       Type             X           Y           Z
 ---------------------------------------------------------------------
      1         15           0        0.000000    0.000000    0.000000
      2          8           0        1.563300    0.000000    0.000000
      3          1           0        1.981380    0.000000    0.877710
      4          1           0       -0.348170    1.228790    0.545290
      5          8           0       -0.675100   -1.119460    0.730040
      6          1           0       -0.355670   -0.005860   -1.290370
 ---------------------------------------------------------------------
                    Distance matrix (angstroms):
                    1          2          3          4          5
     1  P    0.000000
     2  O    1.563300   0.000000
     3  H    2.167081   0.972196   0.000000
     4  H    1.388700   2.336875   2.654662   0.000000
     5  O    1.497301   2.607026   2.886500   2.378086   0.000000
     6  H    1.338503   2.312474   3.187853   2.212253   2.328991
                    6
     6  H    0.000000
 Stoichiometry    H3O2P
 Framework group  C1[X(H3O2P)]
 Deg. of freedom    12
 Full point group                 C1      NOp   1
 Largest Abelian subgroup         C1      NOp   1
 Largest concise Abelian subgroup C1      NOp   1
                         Standard orientation:                         
 ---------------------------------------------------------------------
 Center     Atomic      Atomic             Coordinates (Angstroms)
 Number     Number       Type             X           Y           Z
 ---------------------------------------------------------------------
      1         15           0       -0.095888    0.365818    0.019070
      2          8           0        1.306072   -0.313617   -0.110479
      3          1           0        1.500444   -1.000365    0.549643
      4          1           0       -0.038969    1.054713    1.223508
      5          8           0       -1.290003   -0.536439   -0.024867
      6          1           0       -0.151696    1.258831   -0.976422
 ---------------------------------------------------------------------
 Rotational constants (GHZ):          29.8425867           8.4975919           7.1659605
 Standard basis: def2TZVP (5D, 7F)
 There are   132 symmetry adapted cartesian basis functions of A   symmetry.
 There are   117 symmetry adapted basis functions of A   symmetry.
   117 basis functions,   195 primitive gaussians,   132 cartesian basis functions
    17 alpha electrons       17 beta electrons
       nuclear repulsion energy       124.9960798064 Hartrees.
 NAtoms=    6 NActive=    6 NUniq=    6 SFac= 1.00D+00 NAtFMM=   60 NAOKFM=F Big=F
 Integral buffers will be    131072 words long.
 Raffenetti 2 integral format.
 Two-electron integral symmetry is turned on.
 ------------------------------------------------------------------------------
 Polarizable Continuum Model (PCM)
 =================================
 Model                : C-PCM.
 Atomic radii         : UFF (Universal Force Field).
 Polarization charges : Total charges.
 Charge compensation  : None.
 Solution method      : On-the-fly selection.
 Cavity type          : Scaled VdW (van der Waals Surface) (Alpha=1.100).
 Cavity algorithm     : GePol (No added spheres)
                        Default sphere list used, NSphG=    6.
                        Lebedev-Laikov grids with approx.  5.0 points / Ang**2.
                        Smoothing algorithm: York/Karplus (Gamma=1.0000).
                        Polarization charges: spherical gaussians, with
                                              point-specific exponents (IZeta= 3).
                        Self-potential: point-specific (ISelfS= 7).
                        Self-field    : sphere-specific E.n sum rule (ISelfD= 2).
 Solvent              : Water, Eps=  78.355300 Eps(inf)=   1.777849
 ------------------------------------------------------------------------------
 Spheres list:
 ISph  on   Nord     Re0    Alpha      Xe            Ye            Ze
    1   P      1    2.0735  1.100     -0.095888      0.365818      0.019070
    2   O      2    1.7500  1.100      1.306072     -0.313617     -0.110479
    3   H      3    1.4430  1.100      1.500444     -1.000365      0.549643
    4   H      4    1.4430  1.100     -0.038969      1.054713      1.223508
    5   O      5    1.7500  1.100     -1.290003     -0.536439     -0.024867
    6   H      6    1.4430  1.100     -0.151696      1.258831     -0.976422
 ------------------------------------------------------------------------------
 One-electron integrals computed using PRISM.
   1 Symmetry operations used in ECPInt.
 ECPInt:  NShTT=    1128 NPrTT=    3744 LenC2=    1123 LenP2D=    3218.
 LDataN:  DoStor=T MaxTD1= 6 Len=  172
 NBasis=   117 RedAO= T EigKep=  1.90D-03  NBF=   117
 NBsUse=   117 1.00D-06 EigRej= -1.00D+00 NBFU=   117
 ExpMin= 9.04D-02 ExpMax= 5.24D+04 ExpMxC= 1.79D+03 IAcc=3 IRadAn=         5 AccDes= 0.00D+00
 Harris functional with IExCor= 2002 and IRadAn=       5 diagonalized for initial guess.
 HarFok:  IExCor= 2002 AccDes= 0.00D+00 IRadAn=         5 IDoV= 1 UseB2=F ITyADJ=14
 ICtDFT=  3500011 ScaDFX=  1.000000  1.000000  1.000000  1.000000
 FoFCou: FMM=F IPFlag=           0 FMFlag=      100000 FMFlg1=           0
         NFxFlg=           0 DoJE=T BraDBF=F KetDBF=T FulRan=T
         wScrn=  0.000000 ICntrl=       500 IOpCl=  0 I1Cent=   200000004 NGrid=           0
         NMat0=    1 NMatS0=      1 NMatT0=    0 NMatD0=    1 NMtDS0=    0 NMtDT0=    0
 Petite list used in FoFCou.
 Keep J ints in memory in canonical form, NReq=27663592.
 Requested convergence on RMS density matrix=1.00D-08 within 128 cycles.
 Requested convergence on MAX density matrix=1.00D-06.
 Requested convergence on             energy=1.00D-06.
 No special actions if energy rises.
 Inv3:  Mode=1 IEnd=     1710075.
 Iteration    1 A*A^-1 deviation from unit magnitude is 2.66D-15 for    223.
 Iteration    1 A*A^-1 deviation from orthogonality  is 2.20D-15 for    603    186.
 Iteration    1 A^-1*A deviation from unit magnitude is 2.33D-15 for     81.
 Iteration    1 A^-1*A deviation from orthogonality  is 2.66D-15 for    650    250.
 Error on total polarization charges =  0.00822
 SCF Done:  E(RO-LYP) =  -493.695058450     A.U. after   11 cycles
            NFock= 11  Conv=0.92D-08     -V/T= 2.0016

 **********************************************************************

            Population analysis using the SCF density.

 **********************************************************************

 Orbital symmetries:
       Occupied  (A) (A) (A) (A) (A) (A) (A) (A) (A) (A) (A) (A)
                 (A) (A) (A) (A) (A)
       Virtual   (A) (A) (A) (A) (A) (A) (A) (A) (A) (A) (A) (A)
                 (A) (A) (A) (A) (A) (A) (A) (A) (A) (A) (A) (A)
                 (A) (A) (A) (A) (A) (A) (A) (A) (A) (A) (A) (A)
                 (A) (A) (A) (A) (A) (A) (A) (A) (A) (A) (A) (A)
                 (A) (A) (A) (A) (A) (A) (A) (A) (A) (A) (A) (A)
                 (A) (A) (A) (A) (A) (A) (A) (A) (A) (A) (A) (A)
                 (A) (A) (A) (A) (A) (A) (A) (A) (A) (A) (A) (A)
                 (A) (A) (A) (A) (A) (A) (A) (A) (A) (A) (A) (A)
                 (A) (A) (A) (A)
 The electronic state is 1-A.
 Alpha  occ. eigenvalues --  -76.36662 -18.80713 -18.71706  -6.39818  -4.60862
 Alpha  occ. eigenvalues --   -4.60599  -4.60529  -0.99133  -0.87613  -0.59786
 Alpha  occ. eigenvalues --   -0.47831  -0.42322  -0.38361  -0.33623  -0.30451
 Alpha  occ. eigenvalues --   -0.25469  -0.23921
 Alpha virt. eigenvalues --   -0.01015   0.01463   0.03864   0.05594   0.07833
 Alpha virt. eigenvalues --    0.16724   0.21551   0.22030   0.23327   0.26724
 Alpha virt. eigenvalues --    0.30501   0.33971   0.36196   0.38057   0.42372
 Alpha virt. eigenvalues --    0.44455   0.46705   0.49790   0.52048   0.55662
 Alpha virt. eigenvalues --    0.62724   0.63259   0.69337   0.72231   0.77065
 Alpha virt. eigenvalues --    1.02105   1.05931   1.10221   1.12275   1.13343
 Alpha virt. eigenvalues --    1.15284   1.21365   1.24964   1.29649   1.32658
 Alpha virt. eigenvalues --    1.36676   1.39236   1.47708   1.50217   1.57559
 Alpha virt. eigenvalues --    1.59234   1.62765   1.75286   1.78426   1.79798
 Alpha virt. eigenvalues --    1.81784   1.93301   1.96064   1.97551   2.01952
 Alpha virt. eigenvalues --    2.06755   2.09797   2.14892   2.16829   2.22257
 Alpha virt. eigenvalues --    2.25518   2.32533   2.44793   2.50126   2.59491
 Alpha virt. eigenvalues --    2.62613   2.68309   2.74679   2.82413   2.83306
 Alpha virt. eigenvalues --    2.86109   2.87705   3.30379   3.63017   3.75972
 Alpha virt. eigenvalues --    4.97197   4.98936   5.03749   5.05351   5.07657
 Alpha virt. eigenvalues --    5.09823   5.14314   5.18984   5.21274   5.26575
 Alpha virt. eigenvalues --    5.32889   5.38200   5.44067   6.00251   6.17422
 Alpha virt. eigenvalues --    6.20567   6.22664   6.36580   6.46998   6.52748
 Alpha virt. eigenvalues --    6.57348   6.62956   6.74174   6.83896   7.22653
 Alpha virt. eigenvalues --    7.45840   7.93311  15.92489  43.10624  43.13233
          Condensed to atoms (all electrons):
               1          2          3          4          5          6
     1  P   12.592962   0.410983  -0.013980   0.361010   0.713687   0.362161
     2  O    0.410983   7.838088   0.293855  -0.035214  -0.061819  -0.023553
     3  H   -0.013980   0.293855   0.359733  -0.001591   0.001132   0.004288
     4  H    0.361010  -0.035214  -0.001591   0.756354  -0.047318  -0.057245
     5  O    0.713687  -0.061819   0.001132  -0.047318   8.024623  -0.043653
     6  H    0.362161  -0.023553   0.004288  -0.057245  -0.043653   0.702755
 Mulliken charges:
               1
     1  P    0.573178
     2  O   -0.422340
     3  H    0.356564
     4  H    0.024005
     5  O   -0.586651
     6  H    0.055245
 Sum of Mulliken charges =  -0.00000
 Mulliken charges with hydrogens summed into heavy atoms:
               1
     1  P    0.652428
     2  O   -0.065776
     5  O   -0.586651
 Electronic spatial extent (au):  <R**2>=            201.9727
 Charge=             -0.0000 electrons
 Dipole moment (field-independent basis, Debye):
    X=              3.6159    Y=              1.6763    Z=              1.3124  Tot=              4.1961
 Quadrupole moment (field-independent basis, Debye-Ang):
   XX=            -29.1939   YY=            -22.4051   ZZ=            -22.9959
   XY=             -4.6616   XZ=              2.1408   YZ=             -1.7944
 Traceless Quadrupole moment (field-independent basis, Debye-Ang):
   XX=             -4.3289   YY=              2.4598   ZZ=              1.8691
   XY=             -4.6616   XZ=              2.1408   YZ=             -1.7944
 Octapole moment (field-independent basis, Debye-Ang**2):
  XXX=             11.2267  YYY=             -1.8623  ZZZ=              0.4590  XYY=              5.2071
  XXY=             -1.0796  XXZ=              3.4777  XZZ=              2.1914  YZZ=             -0.5244
  YYZ=              1.1933  XYZ=             -2.1387
 Hexadecapole moment (field-independent basis, Debye-Ang**3):
 XXXX=           -155.9949 YYYY=            -59.6273 ZZZZ=            -36.6481 XXXY=            -12.1894
 XXXZ=              5.7802 YYYX=             -7.0097 YYYZ=             -3.0140 ZZZX=              1.5842
 ZZZY=             -1.7979 XXYY=            -31.3887 XXZZ=            -30.1705 YYZZ=            -15.6082
 XXYZ=             -3.7887 YYXZ=              2.5523 ZZXY=             -2.1875
 N-N= 1.249960798064D+02 E-N=-1.422781421469D+03  KE= 4.929300196114D+02
 1\1\GINC-NODE85\SP\ROLYP\def2TZVP\H3O2P1\YANZ\22-Sep-2023\0\\# scrf=(c
 pcm,solvent=water) def2tzvp olyp\\tmpdir/M2_conf_0_41.gjf\\0,1\P,0,0.,
 0.,0.\O,0,1.5633,0.,0.\H,0,1.98138,0.,0.87771\H,0,-0.34817,1.22879,0.5
 4529\O,0,-0.6751,-1.11946,0.73004\H,0,-0.35567,-0.00586,-1.29037\\Vers
 ion=ES64L-G16RevA.03\State=1-A\HF=-493.6950585\RMSD=9.182e-09\Dipole=0
 .9463695,1.3268016,-0.2634171\Quadrupole=0.1356172,-1.3520732,1.216456
 ,-2.0741927,3.9909018,1.4997746\PG=C01 [X(H3O2P1)]\\@


 "A LITTLE BIT GOES A LONG WAY"
 R.S. MULLIKEN AS QUOTED BY K. RUEDENBERG
 Job cpu time:       0 days  0 hours  0 minutes 40.6 seconds.
 Elapsed time:       0 days  0 hours  0 minutes 10.9 seconds.
 File lengths (MBytes):  RWF=     16 Int=      0 D2E=      0 Chk=      2 Scr=      1
 Normal termination of Gaussian 16 at Fri Sep 22 16:54:45 2023.
