 Entering Gaussian System, Link 0=g16
 Initial command:
 /share/apps/gaussian/g16/l1.exe "/tmp/55608.mgr/Gau-89124.inp" -scrdir="/tmp/55608.mgr/"
 Entering Link 1 = /share/apps/gaussian/g16/l1.exe PID=     89125.
  
 Copyright (c) 1988,1990,1992,1993,1995,1998,2003,2009,2016,
            Gaussian, Inc.  All Rights Reserved.
  
 This is part of the Gaussian(R) 16 program.  It is based on
 the Gaussian(R) 09 system (copyright 2009, Gaussian, Inc.),
 the Gaussian(R) 03 system (copyright 2003, Gaussian, Inc.),
 the Gaussian(R) 98 system (copyright 1998, Gaussian, Inc.),
 the Gaussian(R) 94 system (copyright 1995, Gaussian, Inc.),
 the Gaussian 92(TM) system (copyright 1992, Gaussian, Inc.),
 the Gaussian 90(TM) system (copyright 1990, Gaussian, Inc.),
 the Gaussian 88(TM) system (copyright 1988, Gaussian, Inc.),
 the Gaussian 86(TM) system (copyright 1986, Carnegie Mellon
 University), and the Gaussian 82(TM) system (copyright 1983,
 Carnegie Mellon University). Gaussian is a federally registered
 trademark of Gaussian, Inc.
  
 This software contains proprietary and confidential information,
 including trade secrets, belonging to Gaussian, Inc.
  
 This software is provided under written license and may be
 used, copied, transmitted, or stored only in accord with that
 written license.
  
 The following legend is applicable only to US Government
 contracts under FAR:
  
                    RESTRICTED RIGHTS LEGEND
  
 Use, reproduction and disclosure by the US Government is
 subject to restrictions as set forth in subparagraphs (a)
 and (c) of the Commercial Computer Software - Restricted
 Rights clause in FAR 52.227-19.
  
 Gaussian, Inc.
 340 Quinnipiac St., Bldg. 40, Wallingford CT 06492
  
  
 ---------------------------------------------------------------
 Warning -- This program may not be used in any manner that
 competes with the business of Gaussian, Inc. or will provide
 assistance to any competitor of Gaussian, Inc.  The licensee
 of this program is prohibited from giving any competitor of
 Gaussian, Inc. access to this program.  By using this program,
 the user acknowledges that Gaussian, Inc. is engaged in the
 business of creating and licensing software in the field of
 computational chemistry and represents and warrants to the
 licensee that it is not a competitor of Gaussian, Inc. and that
 it will not use this program in any manner prohibited above.
 ---------------------------------------------------------------
  

 Cite this work as:
 Gaussian 16, Revision A.03,
 M. J. Frisch, G. W. Trucks, H. B. Schlegel, G. E. Scuseria, 
 M. A. Robb, J. R. Cheeseman, G. Scalmani, V. Barone, 
 G. A. Petersson, H. Nakatsuji, X. Li, M. Caricato, A. V. Marenich, 
 J. Bloino, B. G. Janesko, R. Gomperts, B. Mennucci, H. P. Hratchian, 
 J. V. Ortiz, A. F. Izmaylov, J. L. Sonnenberg, D. Williams-Young, 
 F. Ding, F. Lipparini, F. Egidi, J. Goings, B. Peng, A. Petrone, 
 T. Henderson, D. Ranasinghe, V. G. Zakrzewski, J. Gao, N. Rega, 
 G. Zheng, W. Liang, M. Hada, M. Ehara, K. Toyota, R. Fukuda, 
 J. Hasegawa, M. Ishida, T. Nakajima, Y. Honda, O. Kitao, H. Nakai, 
 T. Vreven, K. Throssell, J. A. Montgomery, Jr., J. E. Peralta, 
 F. Ogliaro, M. J. Bearpark, J. J. Heyd, E. N. Brothers, K. N. Kudin, 
 V. N. Staroverov, T. A. Keith, R. Kobayashi, J. Normand, 
 K. Raghavachari, A. P. Rendell, J. C. Burant, S. S. Iyengar, 
 J. Tomasi, M. Cossi, J. M. Millam, M. Klene, C. Adamo, R. Cammi, 
 J. W. Ochterski, R. L. Martin, K. Morokuma, O. Farkas, 
 J. B. Foresman, and D. J. Fox, Gaussian, Inc., Wallingford CT, 2016.
 
 ******************************************
 Gaussian 16:  ES64L-G16RevA.03 25-Dec-2016
                22-Sep-2023 
 ******************************************
 %nprocshared=4
 Will use up to    4 processors via shared memory.
 %mem=4GB
 -----------------------------------------
 # scrf=(cpcm,solvent=water) def2tzvp olyp
 -----------------------------------------
 1/38=1,172=1/1;
 2/12=2,17=6,18=5,40=1/2;
 3/5=44,7=101,11=2,25=1,30=1,70=2101,72=1,74=2002/1,2,3;
 4//1;
 5/5=2,38=5,53=1/2;
 6/7=2,8=2,9=2,10=2,28=1/1;
 99/5=1,9=1/99;
 -----------------------
 tmpdir/M2_conf_0_44.gjf
 -----------------------
 Symbolic Z-matrix:
 Charge =  0 Multiplicity = 1
 C                     0.        0.        0. 
 H                     1.0893    0.        0. 
 H                    -0.41491   0.       -1.12044 
 H                    -0.38035  -0.86722   0.54421 
 H                    -0.37635   0.91658   0.4528 
 
                          Input orientation:                          
 ---------------------------------------------------------------------
 Center     Atomic      Atomic             Coordinates (Angstroms)
 Number     Number       Type             X           Y           Z
 ---------------------------------------------------------------------
      1          6           0        0.000000    0.000000    0.000000
      2          1           0        1.089300    0.000000    0.000000
      3          1           0       -0.414910    0.000000   -1.120440
      4          1           0       -0.380350   -0.867220    0.544210
      5          1           0       -0.376350    0.916580    0.452800
 ---------------------------------------------------------------------
                    Distance matrix (angstroms):
                    1          2          3          4          5
     1  C    0.000000
     2  H    1.089300   0.000000
     3  H    1.194795   1.875642   0.000000
     4  H    1.092200   1.791119   1.877318   0.000000
     5  H    1.089397   1.786974   1.821178   1.786145   0.000000
 Stoichiometry    CH4
 Framework group  C1[X(CH4)]
 Deg. of freedom     9
 Full point group                 C1      NOp   1
 Largest Abelian subgroup         C1      NOp   1
 Largest concise Abelian subgroup C1      NOp   1
                         Standard orientation:                         
 ---------------------------------------------------------------------
 Center     Atomic      Atomic             Coordinates (Angstroms)
 Number     Number       Type             X           Y           Z
 ---------------------------------------------------------------------
      1          6           0        0.015515    0.000827   -0.001749
      2          1           0        0.507407    0.914638   -0.332757
      3          1           0       -1.133237    0.005619   -0.330203
      4          1           0        0.522860   -0.874618   -0.412966
      5          1           0        0.009878   -0.050598    1.086419
 ---------------------------------------------------------------------
 Rotational constants (GHZ):         157.9508325         148.0028538         146.5547629
 Standard basis: def2TZVP (5D, 7F)
 There are    60 symmetry adapted cartesian basis functions of A   symmetry.
 There are    55 symmetry adapted basis functions of A   symmetry.
    55 basis functions,    83 primitive gaussians,    60 cartesian basis functions
     5 alpha electrons        5 beta electrons
       nuclear repulsion energy        13.1361562773 Hartrees.
 NAtoms=    5 NActive=    5 NUniq=    5 SFac= 1.00D+00 NAtFMM=   60 NAOKFM=F Big=F
 Integral buffers will be    131072 words long.
 Raffenetti 2 integral format.
 Two-electron integral symmetry is turned on.
 ------------------------------------------------------------------------------
 Polarizable Continuum Model (PCM)
 =================================
 Model                : C-PCM.
 Atomic radii         : UFF (Universal Force Field).
 Polarization charges : Total charges.
 Charge compensation  : None.
 Solution method      : On-the-fly selection.
 Cavity type          : Scaled VdW (van der Waals Surface) (Alpha=1.100).
 Cavity algorithm     : GePol (No added spheres)
                        Default sphere list used, NSphG=    5.
                        Lebedev-Laikov grids with approx.  5.0 points / Ang**2.
                        Smoothing algorithm: York/Karplus (Gamma=1.0000).
                        Polarization charges: spherical gaussians, with
                                              point-specific exponents (IZeta= 3).
                        Self-potential: point-specific (ISelfS= 7).
                        Self-field    : sphere-specific E.n sum rule (ISelfD= 2).
 Solvent              : Water, Eps=  78.355300 Eps(inf)=   1.777849
 ------------------------------------------------------------------------------
 Spheres list:
 ISph  on   Nord     Re0    Alpha      Xe            Ye            Ze
    1   C      1    1.9255  1.100      0.015515      0.000827     -0.001749
    2   H      2    1.4430  1.100      0.507407      0.914638     -0.332757
    3   H      3    1.4430  1.100     -1.133237      0.005619     -0.330203
    4   H      4    1.4430  1.100      0.522860     -0.874618     -0.412966
    5   H      5    1.4430  1.100      0.009878     -0.050598      1.086419
 ------------------------------------------------------------------------------
 One-electron integrals computed using PRISM.
   1 Symmetry operations used in ECPInt.
 ECPInt:  NShTT=     378 NPrTT=    1024 LenC2=     379 LenP2D=     987.
 LDataN:  DoStor=T MaxTD1= 6 Len=  172
 NBasis=    55 RedAO= T EigKep=  1.62D-03  NBF=    55
 NBsUse=    55 1.00D-06 EigRej= -1.00D+00 NBFU=    55
 ExpMin= 9.52D-02 ExpMax= 1.36D+04 ExpMxC= 4.63D+02 IAcc=3 IRadAn=         5 AccDes= 0.00D+00
 Harris functional with IExCor= 2002 and IRadAn=       5 diagonalized for initial guess.
 HarFok:  IExCor= 2002 AccDes= 0.00D+00 IRadAn=         5 IDoV= 1 UseB2=F ITyADJ=14
 ICtDFT=  3500011 ScaDFX=  1.000000  1.000000  1.000000  1.000000
 FoFCou: FMM=F IPFlag=           0 FMFlag=      100000 FMFlg1=           0
         NFxFlg=           0 DoJE=T BraDBF=F KetDBF=T FulRan=T
         wScrn=  0.000000 ICntrl=       500 IOpCl=  0 I1Cent=   200000004 NGrid=           0
         NMat0=    1 NMatS0=      1 NMatT0=    0 NMatD0=    1 NMtDS0=    0 NMtDT0=    0
 Petite list used in FoFCou.
 Keep J ints in memory in canonical form, NReq=4722199.
 Requested convergence on RMS density matrix=1.00D-08 within 128 cycles.
 Requested convergence on MAX density matrix=1.00D-06.
 Requested convergence on             energy=1.00D-06.
 No special actions if energy rises.
 Inv3:  Mode=1 IEnd=      744012.
 Iteration    1 A*A^-1 deviation from unit magnitude is 2.11D-15 for     71.
 Iteration    1 A*A^-1 deviation from orthogonality  is 1.23D-15 for    440    194.
 Iteration    1 A^-1*A deviation from unit magnitude is 2.22D-15 for    101.
 Iteration    1 A^-1*A deviation from orthogonality  is 9.24D-16 for    421    101.
 Error on total polarization charges =  0.00937
 SCF Done:  E(RO-LYP) =  -40.5045815124     A.U. after    8 cycles
            NFock=  8  Conv=0.65D-08     -V/T= 2.0069

 **********************************************************************

            Population analysis using the SCF density.

 **********************************************************************

 Orbital symmetries:
       Occupied  (A) (A) (A) (A) (A)
       Virtual   (A) (A) (A) (A) (A) (A) (A) (A) (A) (A) (A) (A)
                 (A) (A) (A) (A) (A) (A) (A) (A) (A) (A) (A) (A)
                 (A) (A) (A) (A) (A) (A) (A) (A) (A) (A) (A) (A)
                 (A) (A) (A) (A) (A) (A) (A) (A) (A) (A) (A) (A)
                 (A) (A)
 The electronic state is 1-A.
 Alpha  occ. eigenvalues --   -9.88915  -0.61997  -0.34615  -0.34510  -0.32665
 Alpha virt. eigenvalues --    0.02291   0.08645   0.10190   0.10273   0.17689
 Alpha virt. eigenvalues --    0.17716   0.18331   0.36513   0.39331   0.42896
 Alpha virt. eigenvalues --    0.43045   0.47070   0.55849   0.56044   0.89486
 Alpha virt. eigenvalues --    0.89521   0.89907   1.41061   1.42214   1.43209
 Alpha virt. eigenvalues --    1.44981   1.46313   1.46450   1.48034   1.88704
 Alpha virt. eigenvalues --    1.90335   1.91619   1.94744   2.13890   2.15772
 Alpha virt. eigenvalues --    2.17202   2.30936   2.35051   2.47662   2.49512
 Alpha virt. eigenvalues --    2.50546   2.86583   2.88120   2.91228   3.21270
 Alpha virt. eigenvalues --    3.24980   3.28898   3.37600   3.40164   3.42183
 Alpha virt. eigenvalues --    3.96731   4.09666   4.10561   4.35848  21.86425
          Condensed to atoms (all electrons):
               1          2          3          4          5
     1  C    4.907384   0.402299   0.379879   0.401675   0.402047
     2  H    0.402299   0.537905  -0.019720  -0.024101  -0.023334
     3  H    0.379879  -0.019720   0.570440  -0.019635  -0.024124
     4  H    0.401675  -0.024101  -0.019635   0.538999  -0.023517
     5  H    0.402047  -0.023334  -0.024124  -0.023517   0.542336
 Mulliken charges:
               1
     1  C   -0.493283
     2  H    0.126951
     3  H    0.113160
     4  H    0.126580
     5  H    0.126593
 Sum of Mulliken charges =  -0.00000
 Mulliken charges with hydrogens summed into heavy atoms:
               1
     1  C   -0.000000
 Electronic spatial extent (au):  <R**2>=             36.7893
 Charge=             -0.0000 electrons
 Dipole moment (field-independent basis, Debye):
    X=              0.0689    Y=             -0.0015    Z=              0.0522  Tot=              0.0864
 Quadrupole moment (field-independent basis, Debye-Ang):
   XX=             -8.4547   YY=             -8.4796   ZZ=             -8.5741
   XY=              0.0054   XZ=             -0.0977   YZ=             -0.0018
 Traceless Quadrupole moment (field-independent basis, Debye-Ang):
   XX=              0.0481   YY=              0.0232   ZZ=             -0.0713
   XY=              0.0054   XZ=             -0.0977   YZ=             -0.0018
 Octapole moment (field-independent basis, Debye-Ang**2):
  XXX=             -0.4790  YYY=              0.0791  ZZZ=              1.0221  XYY=              0.7802
  XXY=              0.0026  XXZ=             -0.3911  XZZ=              0.1554  YZZ=             -0.0812
  YYZ=             -0.4064  XYZ=              0.0278
 Hexadecapole moment (field-independent basis, Debye-Ang**3):
 XXXX=            -17.8840 YYYY=            -16.4897 ZZZZ=            -16.3977 XXXY=             -0.0034
 XXXZ=              0.2205 YYYX=              0.0602 YYYZ=              0.0230 ZZZX=             -0.2453
 ZZZY=             -0.0518 XXYY=             -5.8335 XXZZ=             -6.1247 YYZZ=             -5.7695
 XXYZ=              0.0214 YYXZ=             -0.4578 ZZXY=             -0.0297
 N-N= 1.313615627728D+01 E-N=-1.195226773860D+02  KE= 4.022626384058D+01
 1\1\GINC-NODE85\SP\ROLYP\def2TZVP\C1H4\YANZ\22-Sep-2023\0\\# scrf=(cpc
 m,solvent=water) def2tzvp olyp\\tmpdir/M2_conf_0_44.gjf\\0,1\C,0,0.,0.
 ,0.\H,0,1.0893,0.,0.\H,0,-0.41491,0.,-1.12044\H,0,-0.38035,-0.86722,0.
 54421\H,0,-0.37635,0.91658,0.4528\\Version=ES64L-G16RevA.03\State=1-A\
 HF=-40.5045815\RMSD=6.478e-09\Dipole=0.0055217,0.0108089,0.0317658\Qua
 drupole=0.0381939,-0.0050839,-0.0331101,-0.0181318,0.0232052,-0.073004
 \PG=C01 [X(C1H4)]\\@


 FROM AN ANONYMOUS WRITER, ON PERSPECTIVE:

 MAN, DESPITE HIS ARTISTIC PRETENSIONS, HIS SOPHISTICATION AND MANY 
 ACCOMPLISHMENTS, OWES THE FACT OF HIS EXISTENCE TO A SIX-INCH LAYER OF 
 TOPSOIL AND THE FACT THAT IT RAINS.
 Job cpu time:       0 days  0 hours  0 minutes 14.2 seconds.
 Elapsed time:       0 days  0 hours  0 minutes  3.6 seconds.
 File lengths (MBytes):  RWF=     10 Int=      0 D2E=      0 Chk=      1 Scr=      1
 Normal termination of Gaussian 16 at Fri Sep 22 16:54:39 2023.
