 Entering Gaussian System, Link 0=g16
 Initial command:
 /share/apps/gaussian/g16/l1.exe "/tmp/55608.mgr/Gau-89226.inp" -scrdir="/tmp/55608.mgr/"
 Entering Link 1 = /share/apps/gaussian/g16/l1.exe PID=     89227.
  
 Copyright (c) 1988,1990,1992,1993,1995,1998,2003,2009,2016,
            Gaussian, Inc.  All Rights Reserved.
  
 This is part of the Gaussian(R) 16 program.  It is based on
 the Gaussian(R) 09 system (copyright 2009, Gaussian, Inc.),
 the Gaussian(R) 03 system (copyright 2003, Gaussian, Inc.),
 the Gaussian(R) 98 system (copyright 1998, Gaussian, Inc.),
 the Gaussian(R) 94 system (copyright 1995, Gaussian, Inc.),
 the Gaussian 92(TM) system (copyright 1992, Gaussian, Inc.),
 the Gaussian 90(TM) system (copyright 1990, Gaussian, Inc.),
 the Gaussian 88(TM) system (copyright 1988, Gaussian, Inc.),
 the Gaussian 86(TM) system (copyright 1986, Carnegie Mellon
 University), and the Gaussian 82(TM) system (copyright 1983,
 Carnegie Mellon University). Gaussian is a federally registered
 trademark of Gaussian, Inc.
  
 This software contains proprietary and confidential information,
 including trade secrets, belonging to Gaussian, Inc.
  
 This software is provided under written license and may be
 used, copied, transmitted, or stored only in accord with that
 written license.
  
 The following legend is applicable only to US Government
 contracts under FAR:
  
                    RESTRICTED RIGHTS LEGEND
  
 Use, reproduction and disclosure by the US Government is
 subject to restrictions as set forth in subparagraphs (a)
 and (c) of the Commercial Computer Software - Restricted
 Rights clause in FAR 52.227-19.
  
 Gaussian, Inc.
 340 Quinnipiac St., Bldg. 40, Wallingford CT 06492
  
  
 ---------------------------------------------------------------
 Warning -- This program may not be used in any manner that
 competes with the business of Gaussian, Inc. or will provide
 assistance to any competitor of Gaussian, Inc.  The licensee
 of this program is prohibited from giving any competitor of
 Gaussian, Inc. access to this program.  By using this program,
 the user acknowledges that Gaussian, Inc. is engaged in the
 business of creating and licensing software in the field of
 computational chemistry and represents and warrants to the
 licensee that it is not a competitor of Gaussian, Inc. and that
 it will not use this program in any manner prohibited above.
 ---------------------------------------------------------------
  

 Cite this work as:
 Gaussian 16, Revision A.03,
 M. J. Frisch, G. W. Trucks, H. B. Schlegel, G. E. Scuseria, 
 M. A. Robb, J. R. Cheeseman, G. Scalmani, V. Barone, 
 G. A. Petersson, H. Nakatsuji, X. Li, M. Caricato, A. V. Marenich, 
 J. Bloino, B. G. Janesko, R. Gomperts, B. Mennucci, H. P. Hratchian, 
 J. V. Ortiz, A. F. Izmaylov, J. L. Sonnenberg, D. Williams-Young, 
 F. Ding, F. Lipparini, F. Egidi, J. Goings, B. Peng, A. Petrone, 
 T. Henderson, D. Ranasinghe, V. G. Zakrzewski, J. Gao, N. Rega, 
 G. Zheng, W. Liang, M. Hada, M. Ehara, K. Toyota, R. Fukuda, 
 J. Hasegawa, M. Ishida, T. Nakajima, Y. Honda, O. Kitao, H. Nakai, 
 T. Vreven, K. Throssell, J. A. Montgomery, Jr., J. E. Peralta, 
 F. Ogliaro, M. J. Bearpark, J. J. Heyd, E. N. Brothers, K. N. Kudin, 
 V. N. Staroverov, T. A. Keith, R. Kobayashi, J. Normand, 
 K. Raghavachari, A. P. Rendell, J. C. Burant, S. S. Iyengar, 
 J. Tomasi, M. Cossi, J. M. Millam, M. Klene, C. Adamo, R. Cammi, 
 J. W. Ochterski, R. L. Martin, K. Morokuma, O. Farkas, 
 J. B. Foresman, and D. J. Fox, Gaussian, Inc., Wallingford CT, 2016.
 
 ******************************************
 Gaussian 16:  ES64L-G16RevA.03 25-Dec-2016
                22-Sep-2023 
 ******************************************
 %nprocshared=4
 Will use up to    4 processors via shared memory.
 %mem=4GB
 -----------------------------------------
 # scrf=(cpcm,solvent=water) def2tzvp olyp
 -----------------------------------------
 1/38=1,172=1/1;
 2/12=2,17=6,18=5,40=1/2;
 3/5=44,7=101,11=2,25=1,30=1,70=2101,72=1,74=2002/1,2,3;
 4//1;
 5/5=2,38=5,53=1/2;
 6/7=2,8=2,9=2,10=2,28=1/1;
 99/5=1,9=1/99;
 -----------------------
 tmpdir/M2_conf_0_51.gjf
 -----------------------
 Symbolic Z-matrix:
 Charge =  0 Multiplicity = 1
 H                     0.        0.        0. 
 C                     1.1192    0.        0. 
 H                     1.39483   0.        1.08452 
 H                     1.5849   -0.83965  -0.5998 
 H                     1.39429   1.0256   -0.35334 
 
                          Input orientation:                          
 ---------------------------------------------------------------------
 Center     Atomic      Atomic             Coordinates (Angstroms)
 Number     Number       Type             X           Y           Z
 ---------------------------------------------------------------------
      1          1           0        0.000000    0.000000    0.000000
      2          6           0        1.119200    0.000000    0.000000
      3          1           0        1.394830    0.000000    1.084520
      4          1           0        1.584900   -0.839650   -0.599800
      5          1           0        1.394290    1.025600   -0.353340
 ---------------------------------------------------------------------
                    Distance matrix (angstroms):
                    1          2          3          4          5
     1  H    0.000000
     2  C    1.119200   0.000000
     3  H    1.766843   1.118998   0.000000
     4  H    1.891211   1.132099   1.891579   0.000000
     5  H    1.766564   1.119097   1.766153   1.891093   0.000000
 Stoichiometry    CH4
 Framework group  C1[X(CH4)]
 Deg. of freedom     9
 Full point group                 C1      NOp   1
 Largest Abelian subgroup         C1      NOp   1
 Largest concise Abelian subgroup C1      NOp   1
                         Standard orientation:                         
 ---------------------------------------------------------------------
 Center     Atomic      Atomic             Coordinates (Angstroms)
 Number     Number       Type             X           Y           Z
 ---------------------------------------------------------------------
      1          1           0       -0.434377    0.999040   -0.208478
      2          6           0        0.024980   -0.000056   -0.000130
      3          1           0       -0.437474   -0.679753   -0.759276
      4          1           0        1.157078   -0.001373   -0.000808
      5          1           0       -0.435107   -0.317580    0.969342
 ---------------------------------------------------------------------
 Rotational constants (GHZ):         160.6922583         144.3507802         144.2919967
 Standard basis: def2TZVP (5D, 7F)
 There are    60 symmetry adapted cartesian basis functions of A   symmetry.
 There are    55 symmetry adapted basis functions of A   symmetry.
    55 basis functions,    83 primitive gaussians,    60 cartesian basis functions
     5 alpha electrons        5 beta electrons
       nuclear repulsion energy        13.0541327789 Hartrees.
 NAtoms=    5 NActive=    5 NUniq=    5 SFac= 1.00D+00 NAtFMM=   60 NAOKFM=F Big=F
 Integral buffers will be    131072 words long.
 Raffenetti 2 integral format.
 Two-electron integral symmetry is turned on.
 ------------------------------------------------------------------------------
 Polarizable Continuum Model (PCM)
 =================================
 Model                : C-PCM.
 Atomic radii         : UFF (Universal Force Field).
 Polarization charges : Total charges.
 Charge compensation  : None.
 Solution method      : On-the-fly selection.
 Cavity type          : Scaled VdW (van der Waals Surface) (Alpha=1.100).
 Cavity algorithm     : GePol (No added spheres)
                        Default sphere list used, NSphG=    5.
                        Lebedev-Laikov grids with approx.  5.0 points / Ang**2.
                        Smoothing algorithm: York/Karplus (Gamma=1.0000).
                        Polarization charges: spherical gaussians, with
                                              point-specific exponents (IZeta= 3).
                        Self-potential: point-specific (ISelfS= 7).
                        Self-field    : sphere-specific E.n sum rule (ISelfD= 2).
 Solvent              : Water, Eps=  78.355300 Eps(inf)=   1.777849
 ------------------------------------------------------------------------------
 Spheres list:
 ISph  on   Nord     Re0    Alpha      Xe            Ye            Ze
    1   H      1    1.4430  1.100     -0.434377      0.999040     -0.208478
    2   C      2    1.9255  1.100      0.024980     -0.000056     -0.000130
    3   H      3    1.4430  1.100     -0.437474     -0.679753     -0.759276
    4   H      4    1.4430  1.100      1.157078     -0.001373     -0.000808
    5   H      5    1.4430  1.100     -0.435107     -0.317580      0.969342
 ------------------------------------------------------------------------------
 One-electron integrals computed using PRISM.
   1 Symmetry operations used in ECPInt.
 ECPInt:  NShTT=     378 NPrTT=    1024 LenC2=     379 LenP2D=     988.
 LDataN:  DoStor=T MaxTD1= 6 Len=  172
 NBasis=    55 RedAO= T EigKep=  1.65D-03  NBF=    55
 NBsUse=    55 1.00D-06 EigRej= -1.00D+00 NBFU=    55
 ExpMin= 9.52D-02 ExpMax= 1.36D+04 ExpMxC= 4.63D+02 IAcc=3 IRadAn=         5 AccDes= 0.00D+00
 Harris functional with IExCor= 2002 and IRadAn=       5 diagonalized for initial guess.
 HarFok:  IExCor= 2002 AccDes= 0.00D+00 IRadAn=         5 IDoV= 1 UseB2=F ITyADJ=14
 ICtDFT=  3500011 ScaDFX=  1.000000  1.000000  1.000000  1.000000
 FoFCou: FMM=F IPFlag=           0 FMFlag=      100000 FMFlg1=           0
         NFxFlg=           0 DoJE=T BraDBF=F KetDBF=T FulRan=T
         wScrn=  0.000000 ICntrl=       500 IOpCl=  0 I1Cent=   200000004 NGrid=           0
         NMat0=    1 NMatS0=      1 NMatT0=    0 NMatD0=    1 NMtDS0=    0 NMtDT0=    0
 Petite list used in FoFCou.
 Keep J ints in memory in canonical form, NReq=4722199.
 Requested convergence on RMS density matrix=1.00D-08 within 128 cycles.
 Requested convergence on MAX density matrix=1.00D-06.
 Requested convergence on             energy=1.00D-06.
 No special actions if energy rises.
 Inv3:  Mode=1 IEnd=      729147.
 Iteration    1 A*A^-1 deviation from unit magnitude is 3.55D-15 for    116.
 Iteration    1 A*A^-1 deviation from orthogonality  is 2.46D-15 for    468    120.
 Iteration    1 A^-1*A deviation from unit magnitude is 3.33D-15 for    116.
 Iteration    1 A^-1*A deviation from orthogonality  is 9.54D-16 for    491      1.
 Error on total polarization charges =  0.00947
 SCF Done:  E(RO-LYP) =  -40.5053253808     A.U. after    8 cycles
            NFock=  8  Conv=0.40D-08     -V/T= 2.0080

 **********************************************************************

            Population analysis using the SCF density.

 **********************************************************************

 Orbital symmetries:
       Occupied  (A) (A) (A) (A) (A)
       Virtual   (A) (A) (A) (A) (A) (A) (A) (A) (A) (A) (A) (A)
                 (A) (A) (A) (A) (A) (A) (A) (A) (A) (A) (A) (A)
                 (A) (A) (A) (A) (A) (A) (A) (A) (A) (A) (A) (A)
                 (A) (A) (A) (A) (A) (A) (A) (A) (A) (A) (A) (A)
                 (A) (A)
 The electronic state is 1-A.
 Alpha  occ. eigenvalues --   -9.89209  -0.61814  -0.35170  -0.33105  -0.33096
 Alpha virt. eigenvalues --    0.02241   0.09462   0.09602   0.09603   0.17852
 Alpha virt. eigenvalues --    0.17854   0.18197   0.36739   0.41113   0.41118
 Alpha virt. eigenvalues --    0.41673   0.47070   0.55916   0.55921   0.88232
 Alpha virt. eigenvalues --    0.89867   0.89873   1.41185   1.41195   1.44745
 Alpha virt. eigenvalues --    1.45572   1.45586   1.47875   1.48187   1.88879
 Alpha virt. eigenvalues --    1.88909   1.90224   1.99655   2.12768   2.12816
 Alpha virt. eigenvalues --    2.14792   2.35703   2.35751   2.46961   2.46998
 Alpha virt. eigenvalues --    2.49459   2.87886   2.87888   2.89765   3.15898
 Alpha virt. eigenvalues --    3.27793   3.27853   3.31972   3.42938   3.42967
 Alpha virt. eigenvalues --    3.93869   4.08601   4.08665   4.32005  21.81424
          Condensed to atoms (all electrons):
               1          2          3          4          5
     1  H    0.553676   0.395489  -0.026619  -0.018886  -0.026638
     2  C    0.395489   4.917204   0.395531   0.394725   0.395497
     3  H   -0.026619   0.395531   0.553600  -0.018848  -0.026679
     4  H   -0.018886   0.394725  -0.018848   0.532424  -0.018882
     5  H   -0.026638   0.395497  -0.026679  -0.018882   0.553716
 Mulliken charges:
               1
     1  H    0.122978
     2  C   -0.498446
     3  H    0.123015
     4  H    0.129467
     5  H    0.122986
 Sum of Mulliken charges =   0.00000
 Mulliken charges with hydrogens summed into heavy atoms:
               1
     2  C    0.000000
 Electronic spatial extent (au):  <R**2>=             36.9782
 Charge=              0.0000 electrons
 Dipole moment (field-independent basis, Debye):
    X=             -0.0945    Y=              0.0000    Z=              0.0005  Tot=              0.0945
 Quadrupole moment (field-independent basis, Debye-Ang):
   XX=             -8.1203   YY=             -8.7211   ZZ=             -8.7232
   XY=              0.0002   XZ=              0.0001   YZ=              0.0003
 Traceless Quadrupole moment (field-independent basis, Debye-Ang):
   XX=              0.4012   YY=             -0.1995   ZZ=             -0.2017
   XY=              0.0002   XZ=              0.0001   YZ=              0.0003
 Octapole moment (field-independent basis, Debye-Ang**2):
  XXX=              0.9602  YYY=              0.4414  ZZZ=              0.3152  XYY=             -0.5883
  XXY=             -0.0031  XXZ=             -0.0015  XZZ=             -0.5881  YZZ=             -0.4386
  YYZ=             -0.3125  XYZ=             -0.0011
 Hexadecapole moment (field-independent basis, Debye-Ang**3):
 XXXX=            -17.0277 YYYY=            -17.2161 ZZZZ=            -17.2158 XXXY=             -0.0006
 XXXZ=             -0.0001 YYYX=             -0.3541 YYYZ=              0.0001 ZZZX=             -0.2526
 ZZZY=             -0.0004 XXYY=             -5.9700 XXZZ=             -5.9687 YYZZ=             -5.7407
 XXYZ=              0.0018 YYXZ=              0.2532 ZZXY=              0.3553
 N-N= 1.305413277888D+01 E-N=-1.193306603940D+02  KE= 4.018290215655D+01
 1\1\GINC-NODE85\SP\ROLYP\def2TZVP\C1H4\YANZ\22-Sep-2023\0\\# scrf=(cpc
 m,solvent=water) def2tzvp olyp\\tmpdir/M2_conf_0_51.gjf\\0,1\H,0,0.,0.
 ,0.\C,0,1.1192,0.,0.\H,0,1.39483,0.,1.08452\H,0,1.5849,-0.83965,-0.599
 8\H,0,1.39429,1.0256,-0.35334\\Version=ES64L-G16RevA.03\State=1-A\HF=-
 40.5053254\RMSD=4.037e-09\Dipole=-0.0152331,0.0276821,0.019585\Quadrup
 ole=-0.0732995,0.0965288,-0.0232293,-0.1361616,-0.0969287,0.1765779\PG
 =C01 [X(C1H4)]\\@


 THAT'S WHAT MAKES US A GREAT COUNTRY.
 THE LITTLE THINGS ARE SERIOUS AND THE BIG ONES ARE NOT.
           WILL ROGERS
 Job cpu time:       0 days  0 hours  0 minutes 12.4 seconds.
 Elapsed time:       0 days  0 hours  0 minutes  3.3 seconds.
 File lengths (MBytes):  RWF=     10 Int=      0 D2E=      0 Chk=      1 Scr=      1
 Normal termination of Gaussian 16 at Fri Sep 22 16:54:48 2023.
