 Entering Gaussian System, Link 0=g16
 Initial command:
 /share/apps/gaussian/g16/l1.exe "/tmp/55608.mgr/Gau-88660.inp" -scrdir="/tmp/55608.mgr/"
 Entering Link 1 = /share/apps/gaussian/g16/l1.exe PID=     88661.
  
 Copyright (c) 1988,1990,1992,1993,1995,1998,2003,2009,2016,
            Gaussian, Inc.  All Rights Reserved.
  
 This is part of the Gaussian(R) 16 program.  It is based on
 the Gaussian(R) 09 system (copyright 2009, Gaussian, Inc.),
 the Gaussian(R) 03 system (copyright 2003, Gaussian, Inc.),
 the Gaussian(R) 98 system (copyright 1998, Gaussian, Inc.),
 the Gaussian(R) 94 system (copyright 1995, Gaussian, Inc.),
 the Gaussian 92(TM) system (copyright 1992, Gaussian, Inc.),
 the Gaussian 90(TM) system (copyright 1990, Gaussian, Inc.),
 the Gaussian 88(TM) system (copyright 1988, Gaussian, Inc.),
 the Gaussian 86(TM) system (copyright 1986, Carnegie Mellon
 University), and the Gaussian 82(TM) system (copyright 1983,
 Carnegie Mellon University). Gaussian is a federally registered
 trademark of Gaussian, Inc.
  
 This software contains proprietary and confidential information,
 including trade secrets, belonging to Gaussian, Inc.
  
 This software is provided under written license and may be
 used, copied, transmitted, or stored only in accord with that
 written license.
  
 The following legend is applicable only to US Government
 contracts under FAR:
  
                    RESTRICTED RIGHTS LEGEND
  
 Use, reproduction and disclosure by the US Government is
 subject to restrictions as set forth in subparagraphs (a)
 and (c) of the Commercial Computer Software - Restricted
 Rights clause in FAR 52.227-19.
  
 Gaussian, Inc.
 340 Quinnipiac St., Bldg. 40, Wallingford CT 06492
  
  
 ---------------------------------------------------------------
 Warning -- This program may not be used in any manner that
 competes with the business of Gaussian, Inc. or will provide
 assistance to any competitor of Gaussian, Inc.  The licensee
 of this program is prohibited from giving any competitor of
 Gaussian, Inc. access to this program.  By using this program,
 the user acknowledges that Gaussian, Inc. is engaged in the
 business of creating and licensing software in the field of
 computational chemistry and represents and warrants to the
 licensee that it is not a competitor of Gaussian, Inc. and that
 it will not use this program in any manner prohibited above.
 ---------------------------------------------------------------
  

 Cite this work as:
 Gaussian 16, Revision A.03,
 M. J. Frisch, G. W. Trucks, H. B. Schlegel, G. E. Scuseria, 
 M. A. Robb, J. R. Cheeseman, G. Scalmani, V. Barone, 
 G. A. Petersson, H. Nakatsuji, X. Li, M. Caricato, A. V. Marenich, 
 J. Bloino, B. G. Janesko, R. Gomperts, B. Mennucci, H. P. Hratchian, 
 J. V. Ortiz, A. F. Izmaylov, J. L. Sonnenberg, D. Williams-Young, 
 F. Ding, F. Lipparini, F. Egidi, J. Goings, B. Peng, A. Petrone, 
 T. Henderson, D. Ranasinghe, V. G. Zakrzewski, J. Gao, N. Rega, 
 G. Zheng, W. Liang, M. Hada, M. Ehara, K. Toyota, R. Fukuda, 
 J. Hasegawa, M. Ishida, T. Nakajima, Y. Honda, O. Kitao, H. Nakai, 
 T. Vreven, K. Throssell, J. A. Montgomery, Jr., J. E. Peralta, 
 F. Ogliaro, M. J. Bearpark, J. J. Heyd, E. N. Brothers, K. N. Kudin, 
 V. N. Staroverov, T. A. Keith, R. Kobayashi, J. Normand, 
 K. Raghavachari, A. P. Rendell, J. C. Burant, S. S. Iyengar, 
 J. Tomasi, M. Cossi, J. M. Millam, M. Klene, C. Adamo, R. Cammi, 
 J. W. Ochterski, R. L. Martin, K. Morokuma, O. Farkas, 
 J. B. Foresman, and D. J. Fox, Gaussian, Inc., Wallingford CT, 2016.
 
 ******************************************
 Gaussian 16:  ES64L-G16RevA.03 25-Dec-2016
                22-Sep-2023 
 ******************************************
 %nprocshared=4
 Will use up to    4 processors via shared memory.
 %mem=4GB
 -----------------------------------------
 # scrf=(cpcm,solvent=water) def2tzvp olyp
 -----------------------------------------
 1/38=1,172=1/1;
 2/12=2,17=6,18=5,40=1/2;
 3/5=44,7=101,11=2,25=1,30=1,70=2101,72=1,74=2002/1,2,3;
 4//1;
 5/5=2,38=5,53=1/2;
 6/7=2,8=2,9=2,10=2,28=1/1;
 99/5=1,9=1/99;
 -----------------------
 tmpdir/M2_conf_0_33.gjf
 -----------------------
 Symbolic Z-matrix:
 Charge =  0 Multiplicity = 1
 O                     0.        0.        0. 
 P                     1.6214    0.        0. 
 O                     2.12245   0.        1.4803 
 H                    -0.53272   0.71869   0.04648 
 O                     2.15603   1.19555  -0.72576 
 H                     1.95709  -1.20133  -0.48659 
 H                     1.87753  -0.77336   2.01557 
 
                          Input orientation:                          
 ---------------------------------------------------------------------
 Center     Atomic      Atomic             Coordinates (Angstroms)
 Number     Number       Type             X           Y           Z
 ---------------------------------------------------------------------
      1          8           0        0.000000    0.000000    0.000000
      2         15           0        1.621400    0.000000    0.000000
      3          8           0        2.122450    0.000000    1.480300
      4          1           0       -0.532720    0.718690    0.046480
      5          8           0        2.156030    1.195550   -0.725760
      6          1           0        1.957090   -1.201330   -0.486590
      7          1           0        1.877530   -0.773360    2.015570
 ---------------------------------------------------------------------
                    Distance matrix (angstroms):
                    1          2          3          4          5
     1  O    0.000000
     2  P    1.621400   0.000000
     3  O    2.587679   1.562799   0.000000
     4  H    0.895805   2.271323   3.101980   0.000000
     5  O    2.569929   1.497296   2.509416   2.837803   0.000000
     6  H    2.347374   1.338899   2.310670   3.189011   2.416984
     7  H    2.861071   2.173985   0.971898   3.451497   3.386600
                    6          7
     6  H    0.000000
     7  H    2.539743   0.000000
 Stoichiometry    H3O3P
 Framework group  C1[X(H3O3P)]
 Deg. of freedom    15
 Full point group                 C1      NOp   1
 Largest Abelian subgroup         C1      NOp   1
 Largest concise Abelian subgroup C1      NOp   1
                         Standard orientation:                         
 ---------------------------------------------------------------------
 Center     Atomic      Atomic             Coordinates (Angstroms)
 Number     Number       Type             X           Y           Z
 ---------------------------------------------------------------------
      1          8           0        1.221522   -0.859684   -0.097278
      2         15           0       -0.028189    0.098326    0.289216
      3          8           0       -1.336546   -0.524063   -0.296595
      4          1           0        1.699184   -0.832652   -0.854625
      5          8           0        0.171585    1.481050   -0.249357
      6          1           0       -0.144298   -0.020959    1.617727
      7          1           0       -1.584544   -1.399700    0.044495
 ---------------------------------------------------------------------
 Rotational constants (GHZ):           8.0849684           7.5363594           4.4855589
 Standard basis: def2TZVP (5D, 7F)
 There are   168 symmetry adapted cartesian basis functions of A   symmetry.
 There are   148 symmetry adapted basis functions of A   symmetry.
   148 basis functions,   246 primitive gaussians,   168 cartesian basis functions
    21 alpha electrons       21 beta electrons
       nuclear repulsion energy       195.6275379425 Hartrees.
 NAtoms=    7 NActive=    7 NUniq=    7 SFac= 1.00D+00 NAtFMM=   60 NAOKFM=F Big=F
 Integral buffers will be    131072 words long.
 Raffenetti 2 integral format.
 Two-electron integral symmetry is turned on.
 ------------------------------------------------------------------------------
 Polarizable Continuum Model (PCM)
 =================================
 Model                : C-PCM.
 Atomic radii         : UFF (Universal Force Field).
 Polarization charges : Total charges.
 Charge compensation  : None.
 Solution method      : On-the-fly selection.
 Cavity type          : Scaled VdW (van der Waals Surface) (Alpha=1.100).
 Cavity algorithm     : GePol (No added spheres)
                        Default sphere list used, NSphG=    7.
                        Lebedev-Laikov grids with approx.  5.0 points / Ang**2.
                        Smoothing algorithm: York/Karplus (Gamma=1.0000).
                        Polarization charges: spherical gaussians, with
                                              point-specific exponents (IZeta= 3).
                        Self-potential: point-specific (ISelfS= 7).
                        Self-field    : sphere-specific E.n sum rule (ISelfD= 2).
 Solvent              : Water, Eps=  78.355300 Eps(inf)=   1.777849
 ------------------------------------------------------------------------------
 Spheres list:
 ISph  on   Nord     Re0    Alpha      Xe            Ye            Ze
    1   O      1    1.7500  1.100      1.221522     -0.859684     -0.097278
    2   P      2    2.0735  1.100     -0.028189      0.098326      0.289216
    3   O      3    1.7500  1.100     -1.336546     -0.524063     -0.296595
    4   H      4    1.4430  1.100      1.699184     -0.832652     -0.854625
    5   O      5    1.7500  1.100      0.171585      1.481050     -0.249357
    6   H      6    1.4430  1.100     -0.144298     -0.020959      1.617727
    7   H      7    1.4430  1.100     -1.584544     -1.399700      0.044495
 ------------------------------------------------------------------------------
 One-electron integrals computed using PRISM.
   1 Symmetry operations used in ECPInt.
 ECPInt:  NShTT=    1711 NPrTT=    5676 LenC2=    1698 LenP2D=    4719.
 LDataN:  DoStor=T MaxTD1= 6 Len=  172
 NBasis=   148 RedAO= T EigKep=  1.54D-03  NBF=   148
 NBsUse=   148 1.00D-06 EigRej= -1.00D+00 NBFU=   148
 ExpMin= 9.04D-02 ExpMax= 5.24D+04 ExpMxC= 1.79D+03 IAcc=3 IRadAn=         5 AccDes= 0.00D+00
 Harris functional with IExCor= 2002 and IRadAn=       5 diagonalized for initial guess.
 HarFok:  IExCor= 2002 AccDes= 0.00D+00 IRadAn=         5 IDoV= 1 UseB2=F ITyADJ=14
 ICtDFT=  3500011 ScaDFX=  1.000000  1.000000  1.000000  1.000000
 FoFCou: FMM=F IPFlag=           0 FMFlag=      100000 FMFlg1=           0
         NFxFlg=           0 DoJE=T BraDBF=F KetDBF=T FulRan=T
         wScrn=  0.000000 ICntrl=       500 IOpCl=  0 I1Cent=   200000004 NGrid=           0
         NMat0=    1 NMatS0=      1 NMatT0=    0 NMatD0=    1 NMtDS0=    0 NMtDT0=    0
 Petite list used in FoFCou.
 Keep J ints in memory in canonical form, NReq=64775784.
 Requested convergence on RMS density matrix=1.00D-08 within 128 cycles.
 Requested convergence on MAX density matrix=1.00D-06.
 Requested convergence on             energy=1.00D-06.
 No special actions if energy rises.
 Inv3:  Mode=1 IEnd=     2229132.
 Iteration    1 A*A^-1 deviation from unit magnitude is 3.55D-15 for    844.
 Iteration    1 A*A^-1 deviation from orthogonality  is 1.24D-15 for    280    112.
 Iteration    1 A^-1*A deviation from unit magnitude is 3.33D-15 for    844.
 Iteration    1 A^-1*A deviation from orthogonality  is 1.12D-15 for    816    469.
 Error on total polarization charges =  0.00743
 SCF Done:  E(RO-LYP) =  -568.973972785     A.U. after   11 cycles
            NFock= 11  Conv=0.10D-07     -V/T= 2.0017

 **********************************************************************

            Population analysis using the SCF density.

 **********************************************************************

 Orbital symmetries:
       Occupied  (A) (A) (A) (A) (A) (A) (A) (A) (A) (A) (A) (A)
                 (A) (A) (A) (A) (A) (A) (A) (A) (A)
       Virtual   (A) (A) (A) (A) (A) (A) (A) (A) (A) (A) (A) (A)
                 (A) (A) (A) (A) (A) (A) (A) (A) (A) (A) (A) (A)
                 (A) (A) (A) (A) (A) (A) (A) (A) (A) (A) (A) (A)
                 (A) (A) (A) (A) (A) (A) (A) (A) (A) (A) (A) (A)
                 (A) (A) (A) (A) (A) (A) (A) (A) (A) (A) (A) (A)
                 (A) (A) (A) (A) (A) (A) (A) (A) (A) (A) (A) (A)
                 (A) (A) (A) (A) (A) (A) (A) (A) (A) (A) (A) (A)
                 (A) (A) (A) (A) (A) (A) (A) (A) (A) (A) (A) (A)
                 (A) (A) (A) (A) (A) (A) (A) (A) (A) (A) (A) (A)
                 (A) (A) (A) (A) (A) (A) (A) (A) (A) (A) (A) (A)
                 (A) (A) (A) (A) (A) (A) (A)
 The electronic state is 1-A.
 Alpha  occ. eigenvalues --  -76.39738 -18.80717 -18.78685 -18.72164  -6.42269
 Alpha  occ. eigenvalues --   -4.63383  -4.63181  -4.62917  -1.00401  -0.96326
 Alpha  occ. eigenvalues --   -0.87621  -0.60773  -0.53609  -0.46380  -0.38397
 Alpha  occ. eigenvalues --   -0.38111  -0.32566  -0.32039  -0.30506  -0.25709
 Alpha  occ. eigenvalues --   -0.24846
 Alpha virt. eigenvalues --    0.00222   0.01383   0.03755   0.05577   0.07157
 Alpha virt. eigenvalues --    0.12735   0.19224   0.21096   0.22369   0.25582
 Alpha virt. eigenvalues --    0.28574   0.32873   0.36276   0.36385   0.39133
 Alpha virt. eigenvalues --    0.41342   0.42073   0.46925   0.47669   0.49977
 Alpha virt. eigenvalues --    0.51353   0.53518   0.56007   0.58568   0.62616
 Alpha virt. eigenvalues --    0.66247   0.69173   0.71362   0.77166   0.79967
 Alpha virt. eigenvalues --    1.04938   1.07169   1.09954   1.12863   1.14135
 Alpha virt. eigenvalues --    1.15200   1.22037   1.24800   1.31587   1.33341
 Alpha virt. eigenvalues --    1.36331   1.38442   1.39685   1.47313   1.50585
 Alpha virt. eigenvalues --    1.54586   1.57053   1.62043   1.69328   1.75036
 Alpha virt. eigenvalues --    1.77471   1.80383   1.83977   1.85021   1.86996
 Alpha virt. eigenvalues --    1.95256   1.98567   2.01925   2.04110   2.11827
 Alpha virt. eigenvalues --    2.14494   2.16964   2.18413   2.22355   2.27582
 Alpha virt. eigenvalues --    2.29967   2.37833   2.41631   2.51948   2.61641
 Alpha virt. eigenvalues --    2.67029   2.67867   2.73254   2.73335   2.77616
 Alpha virt. eigenvalues --    2.81062   2.82281   2.86836   2.92852   3.24441
 Alpha virt. eigenvalues --    3.47452   3.65637   3.75969   3.85209   4.93595
 Alpha virt. eigenvalues --    4.96201   4.97649   4.99199   5.00443   5.02411
 Alpha virt. eigenvalues --    5.04894   5.06186   5.11019   5.12356   5.21135
 Alpha virt. eigenvalues --    5.22952   5.25463   5.26745   5.27595   5.34387
 Alpha virt. eigenvalues --    5.40376   5.45900   5.48943   6.00529   6.15378
 Alpha virt. eigenvalues --    6.16619   6.19474   6.23741   6.29868   6.39583
 Alpha virt. eigenvalues --    6.41188   6.43666   6.50215   6.56049   6.59280
 Alpha virt. eigenvalues --    6.60813   6.64816   6.73777   6.88536   6.94115
 Alpha virt. eigenvalues --    7.37351   7.78920   7.89485  16.28735  43.08678
 Alpha virt. eigenvalues --   43.11082  43.21376
          Condensed to atoms (all electrons):
               1          2          3          4          5          6
     1  O    7.863851   0.413627  -0.049603   0.313638  -0.067255  -0.028432
     2  P    0.413627  12.387238   0.406947  -0.017139   0.748218   0.367444
     3  O   -0.049603   0.406947   7.862192   0.000887  -0.055811  -0.045197
     4  H    0.313638  -0.017139   0.000887   0.373880   0.001584   0.004125
     5  O   -0.067255   0.748218  -0.055811   0.001584   7.985063  -0.040475
     6  H   -0.028432   0.367444  -0.045197   0.004125  -0.040475   0.696017
     7  H   -0.000138  -0.003036   0.277696   0.000028   0.003157   0.000174
               7
     1  O   -0.000138
     2  P   -0.003036
     3  O    0.277696
     4  H    0.000028
     5  O    0.003157
     6  H    0.000174
     7  H    0.370879
 Mulliken charges:
               1
     1  O   -0.445689
     2  P    0.696701
     3  O   -0.397110
     4  H    0.322996
     5  O   -0.574481
     6  H    0.046344
     7  H    0.351239
 Sum of Mulliken charges =  -0.00000
 Mulliken charges with hydrogens summed into heavy atoms:
               1
     1  O   -0.122693
     2  P    0.743045
     3  O   -0.045871
     5  O   -0.574481
 Electronic spatial extent (au):  <R**2>=            301.2085
 Charge=             -0.0000 electrons
 Dipole moment (field-independent basis, Debye):
    X=             -0.4674    Y=             -5.1615    Z=              1.3525  Tot=              5.3562
 Quadrupole moment (field-independent basis, Debye-Ang):
   XX=            -26.7351   YY=            -33.3647   ZZ=            -26.9167
   XY=              2.1665   XZ=             -4.1917   YZ=              1.9089
 Traceless Quadrupole moment (field-independent basis, Debye-Ang):
   XX=              2.2704   YY=             -4.3592   ZZ=              2.0888
   XY=              2.1665   XZ=             -4.1917   YZ=              1.9089
 Octapole moment (field-independent basis, Debye-Ang**2):
  XXX=              2.9726  YYY=            -19.1085  ZZZ=             -0.2916  XYY=             -7.7226
  XXY=             -8.2723  XXZ=             -4.0265  XZZ=              3.0576  YZZ=             -2.7906
  YYZ=              0.7586  XYZ=              3.6218
 Hexadecapole moment (field-independent basis, Debye-Ang**3):
 XXXX=           -136.5719 YYYY=           -157.9993 ZZZZ=            -48.6632 XXXY=              5.4366
 XXXZ=            -14.1090 YYYX=              9.8060 YYYZ=              3.4516 ZZZX=             -4.9575
 ZZZY=              2.6926 XXYY=            -39.7484 XXZZ=            -29.6396 YYZZ=            -33.1897
 XXYZ=              4.3578 YYXZ=             -3.4233 ZZXY=             -2.5431
 N-N= 1.956275379425D+02 E-N=-1.742169928100D+03  KE= 5.679859911246D+02
 1\1\GINC-NODE85\SP\ROLYP\def2TZVP\H3O3P1\YANZ\22-Sep-2023\0\\# scrf=(c
 pcm,solvent=water) def2tzvp olyp\\tmpdir/M2_conf_0_33.gjf\\0,1\O,0,0.,
 0.,0.\P,0,1.6214,0.,0.\O,0,2.12245,0.,1.4803\H,0,-0.53272,0.71869,0.04
 648\O,0,2.15603,1.19555,-0.72576\H,0,1.95709,-1.20133,-0.48659\H,0,1.8
 7753,-0.77336,2.01557\\Version=ES64L-G16RevA.03\State=1-A\HF=-568.9739
 728\RMSD=9.995e-09\Dipole=-0.9312598,-1.5221196,1.1209405\Quadrupole=0
 .0374267,-0.0316906,-0.0057361,-4.654953,0.7086108,-0.1764858\PG=C01 [
 X(H3O3P1)]\\@


 CLIMB THE MOUNTAINS AND GET THEIR GOOD TIDINGS.
 NATURE'S PEACE WILL FLOW INTO YOU AS SUNSHINE FLOWS INTO TREES.
 THE WINDS WILL BLOW THEIR OWN FRESHNESS INTO YOU, 
 AND CARES WILL DROP OFF LIKE AUTUMN LEAVES.

                                         -- JOHN MUIR
 Job cpu time:       0 days  0 hours  1 minutes  4.1 seconds.
 Elapsed time:       0 days  0 hours  0 minutes 17.5 seconds.
 File lengths (MBytes):  RWF=     17 Int=      0 D2E=      0 Chk=      3 Scr=      1
 Normal termination of Gaussian 16 at Fri Sep 22 16:54:32 2023.
