 Entering Gaussian System, Link 0=g16
 Initial command:
 /share/apps/gaussian/g16/l1.exe "/tmp/55608.mgr/Gau-88976.inp" -scrdir="/tmp/55608.mgr/"
 Entering Link 1 = /share/apps/gaussian/g16/l1.exe PID=     88977.
  
 Copyright (c) 1988,1990,1992,1993,1995,1998,2003,2009,2016,
            Gaussian, Inc.  All Rights Reserved.
  
 This is part of the Gaussian(R) 16 program.  It is based on
 the Gaussian(R) 09 system (copyright 2009, Gaussian, Inc.),
 the Gaussian(R) 03 system (copyright 2003, Gaussian, Inc.),
 the Gaussian(R) 98 system (copyright 1998, Gaussian, Inc.),
 the Gaussian(R) 94 system (copyright 1995, Gaussian, Inc.),
 the Gaussian 92(TM) system (copyright 1992, Gaussian, Inc.),
 the Gaussian 90(TM) system (copyright 1990, Gaussian, Inc.),
 the Gaussian 88(TM) system (copyright 1988, Gaussian, Inc.),
 the Gaussian 86(TM) system (copyright 1986, Carnegie Mellon
 University), and the Gaussian 82(TM) system (copyright 1983,
 Carnegie Mellon University). Gaussian is a federally registered
 trademark of Gaussian, Inc.
  
 This software contains proprietary and confidential information,
 including trade secrets, belonging to Gaussian, Inc.
  
 This software is provided under written license and may be
 used, copied, transmitted, or stored only in accord with that
 written license.
  
 The following legend is applicable only to US Government
 contracts under FAR:
  
                    RESTRICTED RIGHTS LEGEND
  
 Use, reproduction and disclosure by the US Government is
 subject to restrictions as set forth in subparagraphs (a)
 and (c) of the Commercial Computer Software - Restricted
 Rights clause in FAR 52.227-19.
  
 Gaussian, Inc.
 340 Quinnipiac St., Bldg. 40, Wallingford CT 06492
  
  
 ---------------------------------------------------------------
 Warning -- This program may not be used in any manner that
 competes with the business of Gaussian, Inc. or will provide
 assistance to any competitor of Gaussian, Inc.  The licensee
 of this program is prohibited from giving any competitor of
 Gaussian, Inc. access to this program.  By using this program,
 the user acknowledges that Gaussian, Inc. is engaged in the
 business of creating and licensing software in the field of
 computational chemistry and represents and warrants to the
 licensee that it is not a competitor of Gaussian, Inc. and that
 it will not use this program in any manner prohibited above.
 ---------------------------------------------------------------
  

 Cite this work as:
 Gaussian 16, Revision A.03,
 M. J. Frisch, G. W. Trucks, H. B. Schlegel, G. E. Scuseria, 
 M. A. Robb, J. R. Cheeseman, G. Scalmani, V. Barone, 
 G. A. Petersson, H. Nakatsuji, X. Li, M. Caricato, A. V. Marenich, 
 J. Bloino, B. G. Janesko, R. Gomperts, B. Mennucci, H. P. Hratchian, 
 J. V. Ortiz, A. F. Izmaylov, J. L. Sonnenberg, D. Williams-Young, 
 F. Ding, F. Lipparini, F. Egidi, J. Goings, B. Peng, A. Petrone, 
 T. Henderson, D. Ranasinghe, V. G. Zakrzewski, J. Gao, N. Rega, 
 G. Zheng, W. Liang, M. Hada, M. Ehara, K. Toyota, R. Fukuda, 
 J. Hasegawa, M. Ishida, T. Nakajima, Y. Honda, O. Kitao, H. Nakai, 
 T. Vreven, K. Throssell, J. A. Montgomery, Jr., J. E. Peralta, 
 F. Ogliaro, M. J. Bearpark, J. J. Heyd, E. N. Brothers, K. N. Kudin, 
 V. N. Staroverov, T. A. Keith, R. Kobayashi, J. Normand, 
 K. Raghavachari, A. P. Rendell, J. C. Burant, S. S. Iyengar, 
 J. Tomasi, M. Cossi, J. M. Millam, M. Klene, C. Adamo, R. Cammi, 
 J. W. Ochterski, R. L. Martin, K. Morokuma, O. Farkas, 
 J. B. Foresman, and D. J. Fox, Gaussian, Inc., Wallingford CT, 2016.
 
 ******************************************
 Gaussian 16:  ES64L-G16RevA.03 25-Dec-2016
                22-Sep-2023 
 ******************************************
 %nprocshared=4
 Will use up to    4 processors via shared memory.
 %mem=4GB
 -----------------------------------------
 # scrf=(cpcm,solvent=water) def2tzvp olyp
 -----------------------------------------
 1/38=1,172=1/1;
 2/12=2,17=6,18=5,40=1/2;
 3/5=44,7=101,11=2,25=1,30=1,70=2101,72=1,74=2002/1,2,3;
 4//1;
 5/5=2,38=5,53=1/2;
 6/7=2,8=2,9=2,10=2,28=1/1;
 99/5=1,9=1/99;
 -----------------------
 tmpdir/M2_conf_0_34.gjf
 -----------------------
 Symbolic Z-matrix:
 Charge =  0 Multiplicity = 1
 O                     0.        0.        0. 
 P                     1.6214    0.        0. 
 O                     2.02417   0.        1.51053 
 H                    -0.53272  -0.22673  -0.68357 
 O                     2.15603  -1.12136  -0.83584 
 H                     2.04412   1.1771   -0.47678 
 H                     1.79061  -0.79958   2.01182 
 
                          Input orientation:                          
 ---------------------------------------------------------------------
 Center     Atomic      Atomic             Coordinates (Angstroms)
 Number     Number       Type             X           Y           Z
 ---------------------------------------------------------------------
      1          8           0        0.000000    0.000000    0.000000
      2         15           0        1.621400    0.000000    0.000000
      3          8           0        2.024170    0.000000    1.510530
      4          1           0       -0.532720   -0.226730   -0.683570
      5          8           0        2.156030   -1.121360   -0.835840
      6          1           0        2.044120    1.177100   -0.476780
      7          1           0        1.790610   -0.799580    2.011820
 ---------------------------------------------------------------------
                    Distance matrix (angstroms):
                    1          2          3          4          5
     1  O    0.000000
     2  P    1.621400   0.000000
     3  O    2.525661   1.563306   0.000000
     4  H    0.895804   2.271323   3.376858   0.000000
     5  O    2.569930   1.497300   2.603899   2.837768   0.000000
     6  H    2.406514   1.338498   2.309841   2.941701   2.329027
     7  H    2.809454   2.171493   0.972199   3.604323   2.888986
                    6          7
     6  H    0.000000
     7  H    3.188207   0.000000
 Stoichiometry    H3O3P
 Framework group  C1[X(H3O3P)]
 Deg. of freedom    15
 Full point group                 C1      NOp   1
 Largest Abelian subgroup         C1      NOp   1
 Largest concise Abelian subgroup C1      NOp   1
                         Standard orientation:                         
 ---------------------------------------------------------------------
 Center     Atomic      Atomic             Coordinates (Angstroms)
 Number     Number       Type             X           Y           Z
 ---------------------------------------------------------------------
      1          8           0       -1.106280   -0.963485   -0.167217
      2         15           0        0.020368    0.111037    0.285559
      3          8           0        1.383785   -0.545211   -0.107322
      4          1           0       -1.978365   -0.800633   -0.291357
      5          8           0       -0.264955    1.461477   -0.294795
      6          1           0        0.032179    0.173137    1.622563
      7          1           0        1.540267   -0.660315   -1.059915
 ---------------------------------------------------------------------
 Rotational constants (GHZ):           7.9587352           7.6339210           4.4738330
 Standard basis: def2TZVP (5D, 7F)
 There are   168 symmetry adapted cartesian basis functions of A   symmetry.
 There are   148 symmetry adapted basis functions of A   symmetry.
   148 basis functions,   246 primitive gaussians,   168 cartesian basis functions
    21 alpha electrons       21 beta electrons
       nuclear repulsion energy       195.5695359595 Hartrees.
 NAtoms=    7 NActive=    7 NUniq=    7 SFac= 1.00D+00 NAtFMM=   60 NAOKFM=F Big=F
 Integral buffers will be    131072 words long.
 Raffenetti 2 integral format.
 Two-electron integral symmetry is turned on.
 ------------------------------------------------------------------------------
 Polarizable Continuum Model (PCM)
 =================================
 Model                : C-PCM.
 Atomic radii         : UFF (Universal Force Field).
 Polarization charges : Total charges.
 Charge compensation  : None.
 Solution method      : On-the-fly selection.
 Cavity type          : Scaled VdW (van der Waals Surface) (Alpha=1.100).
 Cavity algorithm     : GePol (No added spheres)
                        Default sphere list used, NSphG=    7.
                        Lebedev-Laikov grids with approx.  5.0 points / Ang**2.
                        Smoothing algorithm: York/Karplus (Gamma=1.0000).
                        Polarization charges: spherical gaussians, with
                                              point-specific exponents (IZeta= 3).
                        Self-potential: point-specific (ISelfS= 7).
                        Self-field    : sphere-specific E.n sum rule (ISelfD= 2).
 Solvent              : Water, Eps=  78.355300 Eps(inf)=   1.777849
 ------------------------------------------------------------------------------
 Spheres list:
 ISph  on   Nord     Re0    Alpha      Xe            Ye            Ze
    1   O      1    1.7500  1.100     -1.106280     -0.963485     -0.167217
    2   P      2    2.0735  1.100      0.020368      0.111037      0.285559
    3   O      3    1.7500  1.100      1.383785     -0.545211     -0.107322
    4   H      4    1.4430  1.100     -1.978365     -0.800633     -0.291357
    5   O      5    1.7500  1.100     -0.264955      1.461477     -0.294795
    6   H      6    1.4430  1.100      0.032179      0.173137      1.622563
    7   H      7    1.4430  1.100      1.540267     -0.660315     -1.059915
 ------------------------------------------------------------------------------
 One-electron integrals computed using PRISM.
   1 Symmetry operations used in ECPInt.
 ECPInt:  NShTT=    1711 NPrTT=    5676 LenC2=    1698 LenP2D=    4719.
 LDataN:  DoStor=T MaxTD1= 6 Len=  172
 NBasis=   148 RedAO= T EigKep=  1.49D-03  NBF=   148
 NBsUse=   148 1.00D-06 EigRej= -1.00D+00 NBFU=   148
 ExpMin= 9.04D-02 ExpMax= 5.24D+04 ExpMxC= 1.79D+03 IAcc=3 IRadAn=         5 AccDes= 0.00D+00
 Harris functional with IExCor= 2002 and IRadAn=       5 diagonalized for initial guess.
 HarFok:  IExCor= 2002 AccDes= 0.00D+00 IRadAn=         5 IDoV= 1 UseB2=F ITyADJ=14
 ICtDFT=  3500011 ScaDFX=  1.000000  1.000000  1.000000  1.000000
 FoFCou: FMM=F IPFlag=           0 FMFlag=      100000 FMFlg1=           0
         NFxFlg=           0 DoJE=T BraDBF=F KetDBF=T FulRan=T
         wScrn=  0.000000 ICntrl=       500 IOpCl=  0 I1Cent=   200000004 NGrid=           0
         NMat0=    1 NMatS0=      1 NMatT0=    0 NMatD0=    1 NMtDS0=    0 NMtDT0=    0
 Petite list used in FoFCou.
 Keep J ints in memory in canonical form, NReq=64775784.
 Requested convergence on RMS density matrix=1.00D-08 within 128 cycles.
 Requested convergence on MAX density matrix=1.00D-06.
 Requested convergence on             energy=1.00D-06.
 No special actions if energy rises.
 Inv3:  Mode=1 IEnd=     2223963.
 Iteration    1 A*A^-1 deviation from unit magnitude is 3.44D-15 for    830.
 Iteration    1 A*A^-1 deviation from orthogonality  is 1.76D-15 for    856    596.
 Iteration    1 A^-1*A deviation from unit magnitude is 3.44D-15 for    830.
 Iteration    1 A^-1*A deviation from orthogonality  is 2.01D-15 for    853    530.
 Error on total polarization charges =  0.00752
 SCF Done:  E(RO-LYP) =  -568.974107428     A.U. after   11 cycles
            NFock= 11  Conv=0.98D-08     -V/T= 2.0018

 **********************************************************************

            Population analysis using the SCF density.

 **********************************************************************

 Orbital symmetries:
       Occupied  (A) (A) (A) (A) (A) (A) (A) (A) (A) (A) (A) (A)
                 (A) (A) (A) (A) (A) (A) (A) (A) (A)
       Virtual   (A) (A) (A) (A) (A) (A) (A) (A) (A) (A) (A) (A)
                 (A) (A) (A) (A) (A) (A) (A) (A) (A) (A) (A) (A)
                 (A) (A) (A) (A) (A) (A) (A) (A) (A) (A) (A) (A)
                 (A) (A) (A) (A) (A) (A) (A) (A) (A) (A) (A) (A)
                 (A) (A) (A) (A) (A) (A) (A) (A) (A) (A) (A) (A)
                 (A) (A) (A) (A) (A) (A) (A) (A) (A) (A) (A) (A)
                 (A) (A) (A) (A) (A) (A) (A) (A) (A) (A) (A) (A)
                 (A) (A) (A) (A) (A) (A) (A) (A) (A) (A) (A) (A)
                 (A) (A) (A) (A) (A) (A) (A) (A) (A) (A) (A) (A)
                 (A) (A) (A) (A) (A) (A) (A) (A) (A) (A) (A) (A)
                 (A) (A) (A) (A) (A) (A) (A)
 The electronic state is 1-A.
 Alpha  occ. eigenvalues --  -76.39741 -18.81341 -18.78719 -18.71833  -6.42254
 Alpha  occ. eigenvalues --   -4.63337  -4.63165  -4.62924  -1.00725  -0.96457
 Alpha  occ. eigenvalues --   -0.87391  -0.61486  -0.53284  -0.45355  -0.40498
 Alpha  occ. eigenvalues --   -0.36384  -0.34277  -0.32418  -0.29909  -0.25249
 Alpha  occ. eigenvalues --   -0.24666
 Alpha virt. eigenvalues --   -0.00180   0.01675   0.04633   0.06161   0.06986
 Alpha virt. eigenvalues --    0.11415   0.19582   0.20869   0.22789   0.24081
 Alpha virt. eigenvalues --    0.29713   0.33304   0.35633   0.36927   0.38478
 Alpha virt. eigenvalues --    0.41105   0.41896   0.44231   0.47943   0.49139
 Alpha virt. eigenvalues --    0.51918   0.53461   0.58525   0.59908   0.63864
 Alpha virt. eigenvalues --    0.66858   0.69290   0.71855   0.74469   0.81576
 Alpha virt. eigenvalues --    1.05502   1.08687   1.10671   1.11207   1.12477
 Alpha virt. eigenvalues --    1.16791   1.22919   1.25131   1.30158   1.30428
 Alpha virt. eigenvalues --    1.34731   1.38679   1.40196   1.48177   1.49297
 Alpha virt. eigenvalues --    1.52981   1.60621   1.63375   1.70512   1.72305
 Alpha virt. eigenvalues --    1.75887   1.81374   1.83846   1.86969   1.88629
 Alpha virt. eigenvalues --    1.92157   1.98454   2.04385   2.04973   2.07821
 Alpha virt. eigenvalues --    2.12253   2.16446   2.19857   2.22920   2.25315
 Alpha virt. eigenvalues --    2.28789   2.34635   2.45608   2.50679   2.60004
 Alpha virt. eigenvalues --    2.67021   2.70190   2.70761   2.74961   2.80825
 Alpha virt. eigenvalues --    2.83565   2.85297   2.86580   2.91867   3.25365
 Alpha virt. eigenvalues --    3.44883   3.64201   3.74967   3.86110   4.94395
 Alpha virt. eigenvalues --    4.95868   4.97624   4.99256   5.02265   5.03099
 Alpha virt. eigenvalues --    5.04772   5.07015   5.11147   5.12949   5.18445
 Alpha virt. eigenvalues --    5.19019   5.20048   5.26977   5.31993   5.37977
 Alpha virt. eigenvalues --    5.40255   5.45104   5.50436   5.99975   6.14958
 Alpha virt. eigenvalues --    6.17550   6.19841   6.22085   6.27785   6.37541
 Alpha virt. eigenvalues --    6.40621   6.45464   6.52646   6.56364   6.59724
 Alpha virt. eigenvalues --    6.61310   6.63133   6.74158   6.85793   6.94858
 Alpha virt. eigenvalues --    7.35941   7.75141   7.94701  16.28610  43.09124
 Alpha virt. eigenvalues --   43.15977  43.17097
          Condensed to atoms (all electrons):
               1          2          3          4          5          6
     1  O    7.872994   0.399658  -0.038493   0.312810  -0.069425  -0.037869
     2  P    0.399658  12.393545   0.429433  -0.015525   0.735351   0.377760
     3  O   -0.038493   0.429433   7.814271   0.002166  -0.058662  -0.032821
     4  H    0.312810  -0.015525   0.002166   0.374166   0.001088   0.002473
     5  O   -0.069425   0.735351  -0.058662   0.001088   8.013383  -0.046898
     6  H   -0.037869   0.377760  -0.032821   0.002473  -0.046898   0.686168
     7  H   -0.000115  -0.013413   0.292929  -0.000049   0.000210   0.004240
               7
     1  O   -0.000115
     2  P   -0.013413
     3  O    0.292929
     4  H   -0.000049
     5  O    0.000210
     6  H    0.004240
     7  H    0.355782
 Mulliken charges:
               1
     1  O   -0.439559
     2  P    0.693192
     3  O   -0.408822
     4  H    0.322872
     5  O   -0.575047
     6  H    0.046947
     7  H    0.360416
 Sum of Mulliken charges =  -0.00000
 Mulliken charges with hydrogens summed into heavy atoms:
               1
     1  O   -0.116686
     2  P    0.740139
     3  O   -0.048406
     5  O   -0.575047
 Electronic spatial extent (au):  <R**2>=            301.4701
 Charge=             -0.0000 electrons
 Dipole moment (field-independent basis, Debye):
    X=             -0.3052    Y=             -3.2695    Z=              0.1793  Tot=              3.2886
 Quadrupole moment (field-independent basis, Debye-Ang):
   XX=            -23.9476   YY=            -37.5729   ZZ=            -25.8801
   XY=              1.1978   XZ=             -2.6654   YZ=              3.0511
 Traceless Quadrupole moment (field-independent basis, Debye-Ang):
   XX=              5.1859   YY=             -8.4394   ZZ=              3.2535
   XY=              1.1978   XZ=             -2.6654   YZ=              3.0511
 Octapole moment (field-independent basis, Debye-Ang**2):
  XXX=            -12.9499  YYY=            -11.2978  ZZZ=             -2.1619  XYY=              2.6386
  XXY=             -5.7341  XXZ=             -7.4880  XZZ=              4.1977  YZZ=             -3.0293
  YYZ=              0.6756  XYZ=              1.3849
 Hexadecapole moment (field-independent basis, Debye-Ang**3):
 XXXX=           -115.7111 YYYY=           -170.8119 ZZZZ=            -47.1535 XXXY=             10.1357
 XXXZ=             -4.8826 YYYX=              1.8327 YYYZ=              4.4975 ZZZX=             -5.9302
 ZZZY=              4.3325 XXYY=            -48.5094 XXZZ=            -26.7222 YYZZ=            -33.8838
 XXYZ=              6.3810 YYXZ=             -1.8737 ZZXY=             -2.3634
 N-N= 1.955695359595D+02 E-N=-1.742000633190D+03  KE= 5.679717852995D+02
 1\1\GINC-NODE85\SP\ROLYP\def2TZVP\H3O3P1\YANZ\22-Sep-2023\0\\# scrf=(c
 pcm,solvent=water) def2tzvp olyp\\tmpdir/M2_conf_0_34.gjf\\0,1\O,0,0.,
 0.,0.\P,0,1.6214,0.,0.\O,0,2.02417,0.,1.51053\H,0,-0.53272,-0.22673,-0
 .68357\O,0,2.15603,-1.12136,-0.83584\H,0,2.04412,1.1771,-0.47678\H,0,1
 .79061,-0.79958,2.01182\\Version=ES64L-G16RevA.03\State=1-A\HF=-568.97
 41074\RMSD=9.837e-09\Dipole=-0.9162073,0.6140551,0.6764102\Quadrupole=
 0.1852467,-1.1943089,1.0090622,2.1179094,3.455934,-4.7159329\PG=C01 [X
 (H3O3P1)]\\@


 THAT'S WHAT MAKES US A GREAT COUNTRY.
 THE LITTLE THINGS ARE SERIOUS AND THE BIG ONES ARE NOT.
           WILL ROGERS
 Job cpu time:       0 days  0 hours  1 minutes  0.6 seconds.
 Elapsed time:       0 days  0 hours  0 minutes 16.0 seconds.
 File lengths (MBytes):  RWF=     17 Int=      0 D2E=      0 Chk=      3 Scr=      1
 Normal termination of Gaussian 16 at Fri Sep 22 16:54:48 2023.
