 Entering Gaussian System, Link 0=g16
 Initial command:
 /share/apps/gaussian/g16/l1.exe "/tmp/55608.mgr/Gau-89268.inp" -scrdir="/tmp/55608.mgr/"
 Entering Link 1 = /share/apps/gaussian/g16/l1.exe PID=     89269.
  
 Copyright (c) 1988,1990,1992,1993,1995,1998,2003,2009,2016,
            Gaussian, Inc.  All Rights Reserved.
  
 This is part of the Gaussian(R) 16 program.  It is based on
 the Gaussian(R) 09 system (copyright 2009, Gaussian, Inc.),
 the Gaussian(R) 03 system (copyright 2003, Gaussian, Inc.),
 the Gaussian(R) 98 system (copyright 1998, Gaussian, Inc.),
 the Gaussian(R) 94 system (copyright 1995, Gaussian, Inc.),
 the Gaussian 92(TM) system (copyright 1992, Gaussian, Inc.),
 the Gaussian 90(TM) system (copyright 1990, Gaussian, Inc.),
 the Gaussian 88(TM) system (copyright 1988, Gaussian, Inc.),
 the Gaussian 86(TM) system (copyright 1986, Carnegie Mellon
 University), and the Gaussian 82(TM) system (copyright 1983,
 Carnegie Mellon University). Gaussian is a federally registered
 trademark of Gaussian, Inc.
  
 This software contains proprietary and confidential information,
 including trade secrets, belonging to Gaussian, Inc.
  
 This software is provided under written license and may be
 used, copied, transmitted, or stored only in accord with that
 written license.
  
 The following legend is applicable only to US Government
 contracts under FAR:
  
                    RESTRICTED RIGHTS LEGEND
  
 Use, reproduction and disclosure by the US Government is
 subject to restrictions as set forth in subparagraphs (a)
 and (c) of the Commercial Computer Software - Restricted
 Rights clause in FAR 52.227-19.
  
 Gaussian, Inc.
 340 Quinnipiac St., Bldg. 40, Wallingford CT 06492
  
  
 ---------------------------------------------------------------
 Warning -- This program may not be used in any manner that
 competes with the business of Gaussian, Inc. or will provide
 assistance to any competitor of Gaussian, Inc.  The licensee
 of this program is prohibited from giving any competitor of
 Gaussian, Inc. access to this program.  By using this program,
 the user acknowledges that Gaussian, Inc. is engaged in the
 business of creating and licensing software in the field of
 computational chemistry and represents and warrants to the
 licensee that it is not a competitor of Gaussian, Inc. and that
 it will not use this program in any manner prohibited above.
 ---------------------------------------------------------------
  

 Cite this work as:
 Gaussian 16, Revision A.03,
 M. J. Frisch, G. W. Trucks, H. B. Schlegel, G. E. Scuseria, 
 M. A. Robb, J. R. Cheeseman, G. Scalmani, V. Barone, 
 G. A. Petersson, H. Nakatsuji, X. Li, M. Caricato, A. V. Marenich, 
 J. Bloino, B. G. Janesko, R. Gomperts, B. Mennucci, H. P. Hratchian, 
 J. V. Ortiz, A. F. Izmaylov, J. L. Sonnenberg, D. Williams-Young, 
 F. Ding, F. Lipparini, F. Egidi, J. Goings, B. Peng, A. Petrone, 
 T. Henderson, D. Ranasinghe, V. G. Zakrzewski, J. Gao, N. Rega, 
 G. Zheng, W. Liang, M. Hada, M. Ehara, K. Toyota, R. Fukuda, 
 J. Hasegawa, M. Ishida, T. Nakajima, Y. Honda, O. Kitao, H. Nakai, 
 T. Vreven, K. Throssell, J. A. Montgomery, Jr., J. E. Peralta, 
 F. Ogliaro, M. J. Bearpark, J. J. Heyd, E. N. Brothers, K. N. Kudin, 
 V. N. Staroverov, T. A. Keith, R. Kobayashi, J. Normand, 
 K. Raghavachari, A. P. Rendell, J. C. Burant, S. S. Iyengar, 
 J. Tomasi, M. Cossi, J. M. Millam, M. Klene, C. Adamo, R. Cammi, 
 J. W. Ochterski, R. L. Martin, K. Morokuma, O. Farkas, 
 J. B. Foresman, and D. J. Fox, Gaussian, Inc., Wallingford CT, 2016.
 
 ******************************************
 Gaussian 16:  ES64L-G16RevA.03 25-Dec-2016
                22-Sep-2023 
 ******************************************
 %nprocshared=4
 Will use up to    4 processors via shared memory.
 %mem=4GB
 -----------------------------------------
 # scrf=(cpcm,solvent=water) def2tzvp olyp
 -----------------------------------------
 1/38=1,172=1/1;
 2/12=2,17=6,18=5,40=1/2;
 3/5=44,7=101,11=2,25=1,30=1,70=2101,72=1,74=2002/1,2,3;
 4//1;
 5/5=2,38=5,53=1/2;
 6/7=2,8=2,9=2,10=2,28=1/1;
 99/5=1,9=1/99;
 -----------------------
 tmpdir/M2_conf_0_46.gjf
 -----------------------
 Symbolic Z-matrix:
 Charge =  0 Multiplicity = 1
 O                     0.        0.        0. 
 C                     1.4552    0.        0. 
 H                     1.74743   0.        1.04947 
 H                    -0.45369   0.08875  -0.74208 
 H                     1.83359  -0.89852  -0.49233 
 H                     1.83396   0.89371  -0.49744 
 
                          Input orientation:                          
 ---------------------------------------------------------------------
 Center     Atomic      Atomic             Coordinates (Angstroms)
 Number     Number       Type             X           Y           Z
 ---------------------------------------------------------------------
      1          8           0        0.000000    0.000000    0.000000
      2          6           0        1.455200    0.000000    0.000000
      3          1           0        1.747430    0.000000    1.049470
      4          1           0       -0.453690    0.088750   -0.742080
      5          1           0        1.833590   -0.898520   -0.492330
      6          1           0        1.833960    0.893710   -0.497440
 ---------------------------------------------------------------------
                    Distance matrix (angstroms):
                    1          2          3          4          5
     1  O    0.000000
     2  C    1.455200   0.000000
     3  H    2.038357   1.089397   0.000000
     4  H    0.874296   2.049981   2.839447   0.000000
     5  H    2.100424   1.092202   1.786591   2.503743   0.000000
     6  H    2.099898   1.090699   1.788613   2.437448   1.792237
                    6
     6  H    0.000000
 Stoichiometry    CH4O
 Framework group  C1[X(CH4O)]
 Deg. of freedom    12
 Full point group                 C1      NOp   1
 Largest Abelian subgroup         C1      NOp   1
 Largest concise Abelian subgroup C1      NOp   1
                         Standard orientation:                         
 ---------------------------------------------------------------------
 Center     Atomic      Atomic             Coordinates (Angstroms)
 Number     Number       Type             X           Y           Z
 ---------------------------------------------------------------------
      1          8           0       -0.754600    0.103407   -0.000016
      2          6           0        0.695220   -0.021612   -0.000254
      3          1           0        1.075794    0.990575   -0.132259
      4          1           0       -1.270818   -0.602202    0.005319
      5          1           0        1.040110   -0.428191    0.952978
      6          1           0        1.020394   -0.657765   -0.824386
 ---------------------------------------------------------------------
 Rotational constants (GHZ):         135.5110157          23.6399707          23.1063515
 Standard basis: def2TZVP (5D, 7F)
 There are    96 symmetry adapted cartesian basis functions of A   symmetry.
 There are    86 symmetry adapted basis functions of A   symmetry.
    86 basis functions,   134 primitive gaussians,    96 cartesian basis functions
     9 alpha electrons        9 beta electrons
       nuclear repulsion energy        40.1890170549 Hartrees.
 NAtoms=    6 NActive=    6 NUniq=    6 SFac= 1.00D+00 NAtFMM=   60 NAOKFM=F Big=F
 Integral buffers will be    131072 words long.
 Raffenetti 2 integral format.
 Two-electron integral symmetry is turned on.
 ------------------------------------------------------------------------------
 Polarizable Continuum Model (PCM)
 =================================
 Model                : C-PCM.
 Atomic radii         : UFF (Universal Force Field).
 Polarization charges : Total charges.
 Charge compensation  : None.
 Solution method      : On-the-fly selection.
 Cavity type          : Scaled VdW (van der Waals Surface) (Alpha=1.100).
 Cavity algorithm     : GePol (No added spheres)
                        Default sphere list used, NSphG=    6.
                        Lebedev-Laikov grids with approx.  5.0 points / Ang**2.
                        Smoothing algorithm: York/Karplus (Gamma=1.0000).
                        Polarization charges: spherical gaussians, with
                                              point-specific exponents (IZeta= 3).
                        Self-potential: point-specific (ISelfS= 7).
                        Self-field    : sphere-specific E.n sum rule (ISelfD= 2).
 Solvent              : Water, Eps=  78.355300 Eps(inf)=   1.777849
 ------------------------------------------------------------------------------
 Spheres list:
 ISph  on   Nord     Re0    Alpha      Xe            Ye            Ze
    1   O      1    1.7500  1.100     -0.754600      0.103407     -0.000016
    2   C      2    1.9255  1.100      0.695220     -0.021612     -0.000254
    3   H      3    1.4430  1.100      1.075794      0.990575     -0.132259
    4   H      4    1.4430  1.100     -1.270818     -0.602202      0.005319
    5   H      5    1.4430  1.100      1.040110     -0.428191      0.952978
    6   H      6    1.4430  1.100      1.020394     -0.657765     -0.824386
 ------------------------------------------------------------------------------
 One-electron integrals computed using PRISM.
   1 Symmetry operations used in ECPInt.
 ECPInt:  NShTT=     741 NPrTT=    2136 LenC2=     741 LenP2D=    1961.
 LDataN:  DoStor=T MaxTD1= 6 Len=  172
 NBasis=    86 RedAO= T EigKep=  1.65D-03  NBF=    86
 NBsUse=    86 1.00D-06 EigRej= -1.00D+00 NBFU=    86
 ExpMin= 9.52D-02 ExpMax= 2.70D+04 ExpMxC= 9.22D+02 IAcc=3 IRadAn=         5 AccDes= 0.00D+00
 Harris functional with IExCor= 2002 and IRadAn=       5 diagonalized for initial guess.
 HarFok:  IExCor= 2002 AccDes= 0.00D+00 IRadAn=         5 IDoV= 1 UseB2=F ITyADJ=14
 ICtDFT=  3500011 ScaDFX=  1.000000  1.000000  1.000000  1.000000
 FoFCou: FMM=F IPFlag=           0 FMFlag=      100000 FMFlg1=           0
         NFxFlg=           0 DoJE=T BraDBF=F KetDBF=T FulRan=T
         wScrn=  0.000000 ICntrl=       500 IOpCl=  0 I1Cent=   200000004 NGrid=           0
         NMat0=    1 NMatS0=      1 NMatT0=    0 NMatD0=    1 NMtDS0=    0 NMtDT0=    0
 Petite list used in FoFCou.
 Keep J ints in memory in canonical form, NReq=10684533.
 Requested convergence on RMS density matrix=1.00D-08 within 128 cycles.
 Requested convergence on MAX density matrix=1.00D-06.
 Requested convergence on             energy=1.00D-06.
 No special actions if energy rises.
 Inv3:  Mode=1 IEnd=     1156923.
 Iteration    1 A*A^-1 deviation from unit magnitude is 2.55D-15 for    602.
 Iteration    1 A*A^-1 deviation from orthogonality  is 1.59D-15 for    551    124.
 Iteration    1 A^-1*A deviation from unit magnitude is 2.44D-15 for    587.
 Iteration    1 A^-1*A deviation from orthogonality  is 1.38D-15 for    515     86.
 Error on total polarization charges =  0.00729
 SCF Done:  E(RO-LYP) =  -115.719021707     A.U. after    9 cycles
            NFock=  9  Conv=0.73D-08     -V/T= 2.0019

 **********************************************************************

            Population analysis using the SCF density.

 **********************************************************************

 Orbital symmetries:
       Occupied  (A) (A) (A) (A) (A) (A) (A) (A) (A)
       Virtual   (A) (A) (A) (A) (A) (A) (A) (A) (A) (A) (A) (A)
                 (A) (A) (A) (A) (A) (A) (A) (A) (A) (A) (A) (A)
                 (A) (A) (A) (A) (A) (A) (A) (A) (A) (A) (A) (A)
                 (A) (A) (A) (A) (A) (A) (A) (A) (A) (A) (A) (A)
                 (A) (A) (A) (A) (A) (A) (A) (A) (A) (A) (A) (A)
                 (A) (A) (A) (A) (A) (A) (A) (A) (A) (A) (A) (A)
                 (A) (A) (A) (A) (A)
 The electronic state is 1-A.
 Alpha  occ. eigenvalues --  -18.74380  -9.93915  -0.93606  -0.63198  -0.45825
 Alpha  occ. eigenvalues --   -0.38326  -0.37748  -0.27630  -0.22679
 Alpha virt. eigenvalues --    0.01684   0.04610   0.09305   0.09954   0.11483
 Alpha virt. eigenvalues --    0.19224   0.19886   0.24954   0.34064   0.37361
 Alpha virt. eigenvalues --    0.40881   0.42448   0.45588   0.46078   0.46649
 Alpha virt. eigenvalues --    0.56398   0.65024   0.72000   0.76382   0.86963
 Alpha virt. eigenvalues --    0.88184   0.96604   1.25687   1.37330   1.39623
 Alpha virt. eigenvalues --    1.43155   1.44973   1.45386   1.49071   1.53495
 Alpha virt. eigenvalues --    1.55609   1.79028   1.84871   1.87837   1.90630
 Alpha virt. eigenvalues --    1.96666   2.14718   2.16534   2.19619   2.22183
 Alpha virt. eigenvalues --    2.26470   2.31822   2.45703   2.48153   2.57922
 Alpha virt. eigenvalues --    2.66621   2.70982   2.76626   2.85118   2.91107
 Alpha virt. eigenvalues --    2.98272   3.10702   3.26234   3.28660   3.33002
 Alpha virt. eigenvalues --    3.39389   3.44684   3.49461   3.90287   4.03566
 Alpha virt. eigenvalues --    4.10221   4.30423   4.38887   5.07265   5.11135
 Alpha virt. eigenvalues --    5.39641   5.55726   5.58328   5.78848   6.27576
 Alpha virt. eigenvalues --    6.30965   6.56181   6.58467   6.78861   7.10137
 Alpha virt. eigenvalues --   22.00368  43.25940
          Condensed to atoms (all electrons):
               1          2          3          4          5          6
     1  O    7.975288   0.328253  -0.042484   0.318378  -0.050674  -0.047696
     2  C    0.328253   4.653081   0.387773  -0.040467   0.407545   0.412860
     3  H   -0.042484   0.387773   0.591015   0.009792  -0.036939  -0.032701
     4  H    0.318378  -0.040467   0.009792   0.432171  -0.002310  -0.004964
     5  H   -0.050674   0.407545  -0.036939  -0.002310   0.617814  -0.043803
     6  H   -0.047696   0.412860  -0.032701  -0.004964  -0.043803   0.605505
 Mulliken charges:
               1
     1  O   -0.481065
     2  C   -0.149045
     3  H    0.123545
     4  H    0.287400
     5  H    0.108366
     6  H    0.110799
 Sum of Mulliken charges =  -0.00000
 Mulliken charges with hydrogens summed into heavy atoms:
               1
     1  O   -0.193665
     2  C    0.193665
 Electronic spatial extent (au):  <R**2>=             85.5049
 Charge=             -0.0000 electrons
 Dipole moment (field-independent basis, Debye):
    X=              0.8204    Y=             -1.5446    Z=             -0.0057  Tot=              1.7490
 Quadrupole moment (field-independent basis, Debye-Ang):
   XX=            -11.9929   YY=            -12.5009   ZZ=            -13.6417
   XY=              2.2595   XZ=             -0.0405   YZ=             -0.0103
 Traceless Quadrupole moment (field-independent basis, Debye-Ang):
   XX=              0.7189   YY=              0.2109   ZZ=             -0.9299
   XY=              2.2595   XZ=             -0.0405   YZ=             -0.0103
 Octapole moment (field-independent basis, Debye-Ang**2):
  XXX=             -5.8149  YYY=             -0.5014  ZZZ=              0.1865  XYY=             -1.3243
  XXY=             -2.6946  XXZ=             -0.0084  XZZ=             -0.3165  YZZ=             -0.8232
  YYZ=             -0.2434  XYZ=             -0.0008
 Hexadecapole moment (field-independent basis, Debye-Ang**3):
 XXXX=            -61.1942 YYYY=            -20.1906 ZZZZ=            -20.2289 XXXY=              4.6935
 XXXZ=             -0.0942 YYYX=              2.7361 YYYZ=             -0.0045 ZZZX=              0.1724
 ZZZY=             -0.0000 XXYY=            -13.0373 XXZZ=            -14.5989 YYZZ=             -6.7725
 XXYZ=             -0.0425 YYXZ=             -0.2836 ZZXY=             -0.0841
 N-N= 4.018901705493D+01 E-N=-3.523263459445D+02  KE= 1.155013921264D+02
 1\1\GINC-NODE85\SP\ROLYP\def2TZVP\C1H4O1\YANZ\22-Sep-2023\0\\# scrf=(c
 pcm,solvent=water) def2tzvp olyp\\tmpdir/M2_conf_0_46.gjf\\0,1\O,0,0.,
 0.,0.\C,0,1.4552,0.,0.\H,0,1.74743,0.,1.04947\H,0,-0.45369,0.08875,-0.
 74208\H,0,1.83359,-0.89852,-0.49233\H,0,1.83396,0.89371,-0.49744\\Vers
 ion=ES64L-G16RevA.03\State=1-A\HF=-115.7190217\RMSD=7.309e-09\Dipole=0
 .3737974,0.0748071,-0.5728424\Quadrupole=0.2441347,-0.6758061,0.431671
 4,-0.1832016,1.6776979,-0.1324251\PG=C01 [X(C1H4O1)]\\@


 AN AIRPLANE IS A COLLECTION OF SPARE PARTS
 FLYING IN CLOSE FORMATION.
 Job cpu time:       0 days  0 hours  0 minutes 23.6 seconds.
 Elapsed time:       0 days  0 hours  0 minutes  6.1 seconds.
 File lengths (MBytes):  RWF=     10 Int=      0 D2E=      0 Chk=      2 Scr=      1
 Normal termination of Gaussian 16 at Fri Sep 22 16:54:52 2023.
