 Entering Gaussian System, Link 0=g16
 Initial command:
 /share/apps/gaussian/g16/l1.exe "/tmp/55608.mgr/Gau-87988.inp" -scrdir="/tmp/55608.mgr/"
 Entering Link 1 = /share/apps/gaussian/g16/l1.exe PID=     87989.
  
 Copyright (c) 1988,1990,1992,1993,1995,1998,2003,2009,2016,
            Gaussian, Inc.  All Rights Reserved.
  
 This is part of the Gaussian(R) 16 program.  It is based on
 the Gaussian(R) 09 system (copyright 2009, Gaussian, Inc.),
 the Gaussian(R) 03 system (copyright 2003, Gaussian, Inc.),
 the Gaussian(R) 98 system (copyright 1998, Gaussian, Inc.),
 the Gaussian(R) 94 system (copyright 1995, Gaussian, Inc.),
 the Gaussian 92(TM) system (copyright 1992, Gaussian, Inc.),
 the Gaussian 90(TM) system (copyright 1990, Gaussian, Inc.),
 the Gaussian 88(TM) system (copyright 1988, Gaussian, Inc.),
 the Gaussian 86(TM) system (copyright 1986, Carnegie Mellon
 University), and the Gaussian 82(TM) system (copyright 1983,
 Carnegie Mellon University). Gaussian is a federally registered
 trademark of Gaussian, Inc.
  
 This software contains proprietary and confidential information,
 including trade secrets, belonging to Gaussian, Inc.
  
 This software is provided under written license and may be
 used, copied, transmitted, or stored only in accord with that
 written license.
  
 The following legend is applicable only to US Government
 contracts under FAR:
  
                    RESTRICTED RIGHTS LEGEND
  
 Use, reproduction and disclosure by the US Government is
 subject to restrictions as set forth in subparagraphs (a)
 and (c) of the Commercial Computer Software - Restricted
 Rights clause in FAR 52.227-19.
  
 Gaussian, Inc.
 340 Quinnipiac St., Bldg. 40, Wallingford CT 06492
  
  
 ---------------------------------------------------------------
 Warning -- This program may not be used in any manner that
 competes with the business of Gaussian, Inc. or will provide
 assistance to any competitor of Gaussian, Inc.  The licensee
 of this program is prohibited from giving any competitor of
 Gaussian, Inc. access to this program.  By using this program,
 the user acknowledges that Gaussian, Inc. is engaged in the
 business of creating and licensing software in the field of
 computational chemistry and represents and warrants to the
 licensee that it is not a competitor of Gaussian, Inc. and that
 it will not use this program in any manner prohibited above.
 ---------------------------------------------------------------
  

 Cite this work as:
 Gaussian 16, Revision A.03,
 M. J. Frisch, G. W. Trucks, H. B. Schlegel, G. E. Scuseria, 
 M. A. Robb, J. R. Cheeseman, G. Scalmani, V. Barone, 
 G. A. Petersson, H. Nakatsuji, X. Li, M. Caricato, A. V. Marenich, 
 J. Bloino, B. G. Janesko, R. Gomperts, B. Mennucci, H. P. Hratchian, 
 J. V. Ortiz, A. F. Izmaylov, J. L. Sonnenberg, D. Williams-Young, 
 F. Ding, F. Lipparini, F. Egidi, J. Goings, B. Peng, A. Petrone, 
 T. Henderson, D. Ranasinghe, V. G. Zakrzewski, J. Gao, N. Rega, 
 G. Zheng, W. Liang, M. Hada, M. Ehara, K. Toyota, R. Fukuda, 
 J. Hasegawa, M. Ishida, T. Nakajima, Y. Honda, O. Kitao, H. Nakai, 
 T. Vreven, K. Throssell, J. A. Montgomery, Jr., J. E. Peralta, 
 F. Ogliaro, M. J. Bearpark, J. J. Heyd, E. N. Brothers, K. N. Kudin, 
 V. N. Staroverov, T. A. Keith, R. Kobayashi, J. Normand, 
 K. Raghavachari, A. P. Rendell, J. C. Burant, S. S. Iyengar, 
 J. Tomasi, M. Cossi, J. M. Millam, M. Klene, C. Adamo, R. Cammi, 
 J. W. Ochterski, R. L. Martin, K. Morokuma, O. Farkas, 
 J. B. Foresman, and D. J. Fox, Gaussian, Inc., Wallingford CT, 2016.
 
 ******************************************
 Gaussian 16:  ES64L-G16RevA.03 25-Dec-2016
                22-Sep-2023 
 ******************************************
 %nprocshared=4
 Will use up to    4 processors via shared memory.
 %mem=4GB
 -----------------------------------------
 # scrf=(cpcm,solvent=water) def2tzvp olyp
 -----------------------------------------
 1/38=1,172=1/1;
 2/12=2,17=6,18=5,40=1/2;
 3/5=44,7=101,11=2,25=1,30=1,70=2101,72=1,74=2002/1,2,3;
 4//1;
 5/5=2,38=5,53=1/2;
 6/7=2,8=2,9=2,10=2,28=1/1;
 99/5=1,9=1/99;
 ----------------------
 tmpdir/M2_conf_0_7.gjf
 ----------------------
 Symbolic Z-matrix:
 Charge =  0 Multiplicity = 1
 O                     0.        0.        0. 
 P                     1.482     0.        0. 
 O                     1.77532   0.        1.7017 
 H                     2.07711  -1.14692  -0.42108 
 H                     2.15205   0.96978  -0.55765 
 H                     1.85446   0.69916   2.20034 
 
                          Input orientation:                          
 ---------------------------------------------------------------------
 Center     Atomic      Atomic             Coordinates (Angstroms)
 Number     Number       Type             X           Y           Z
 ---------------------------------------------------------------------
      1          8           0        0.000000    0.000000    0.000000
      2         15           0        1.482000    0.000000    0.000000
      3          8           0        1.775320    0.000000    1.701700
      4          1           0        2.077110   -1.146920   -0.421080
      5          1           0        2.152050    0.969780   -0.557650
      6          1           0        1.854460    0.699160    2.200340
 ---------------------------------------------------------------------
                    Distance matrix (angstroms):
                    1          2          3          4          5
     1  O    0.000000
     2  P    1.482000   0.000000
     3  O    2.459175   1.726795   0.000000
     4  H    2.409797   1.359003   2.431604   0.000000
     5  H    2.425441   1.303999   2.487380   2.122425   0.000000
     6  H    2.961308   2.338599   0.862398   3.213943   2.787168
                    6
     6  H    0.000000
 Stoichiometry    H3O2P
 Framework group  C1[X(H3O2P)]
 Deg. of freedom    12
 Full point group                 C1      NOp   1
 Largest Abelian subgroup         C1      NOp   1
 Largest concise Abelian subgroup C1      NOp   1
                         Standard orientation:                         
 ---------------------------------------------------------------------
 Center     Atomic      Atomic             Coordinates (Angstroms)
 Number     Number       Type             X           Y           Z
 ---------------------------------------------------------------------
      1          8           0        1.093327   -0.747626    0.000429
      2         15           0        0.213935    0.445127   -0.017794
      3          8           0       -1.327356   -0.325035    0.096624
      4          1           0        0.254808    1.231610    1.089754
      5          1           0        0.217303    1.264653   -1.032082
      6          1           0       -1.808895   -0.591875   -0.567188
 ---------------------------------------------------------------------
 Rotational constants (GHZ):          22.0844330           9.2044979           6.9846808
 Standard basis: def2TZVP (5D, 7F)
 There are   132 symmetry adapted cartesian basis functions of A   symmetry.
 There are   117 symmetry adapted basis functions of A   symmetry.
   117 basis functions,   195 primitive gaussians,   132 cartesian basis functions
    17 alpha electrons       17 beta electrons
       nuclear repulsion energy       122.6038483020 Hartrees.
 NAtoms=    6 NActive=    6 NUniq=    6 SFac= 1.00D+00 NAtFMM=   60 NAOKFM=F Big=F
 Integral buffers will be    131072 words long.
 Raffenetti 2 integral format.
 Two-electron integral symmetry is turned on.
 ------------------------------------------------------------------------------
 Polarizable Continuum Model (PCM)
 =================================
 Model                : C-PCM.
 Atomic radii         : UFF (Universal Force Field).
 Polarization charges : Total charges.
 Charge compensation  : None.
 Solution method      : On-the-fly selection.
 Cavity type          : Scaled VdW (van der Waals Surface) (Alpha=1.100).
 Cavity algorithm     : GePol (No added spheres)
                        Default sphere list used, NSphG=    6.
                        Lebedev-Laikov grids with approx.  5.0 points / Ang**2.
                        Smoothing algorithm: York/Karplus (Gamma=1.0000).
                        Polarization charges: spherical gaussians, with
                                              point-specific exponents (IZeta= 3).
                        Self-potential: point-specific (ISelfS= 7).
                        Self-field    : sphere-specific E.n sum rule (ISelfD= 2).
 Solvent              : Water, Eps=  78.355300 Eps(inf)=   1.777849
 ------------------------------------------------------------------------------
 Spheres list:
 ISph  on   Nord     Re0    Alpha      Xe            Ye            Ze
    1   O      1    1.7500  1.100      1.093327     -0.747626      0.000429
    2   P      2    2.0735  1.100      0.213935      0.445127     -0.017794
    3   O      3    1.7500  1.100     -1.327356     -0.325035      0.096624
    4   H      4    1.4430  1.100      0.254808      1.231610      1.089754
    5   H      5    1.4430  1.100      0.217303      1.264653     -1.032082
    6   H      6    1.4430  1.100     -1.808895     -0.591875     -0.567188
 ------------------------------------------------------------------------------
 One-electron integrals computed using PRISM.
   1 Symmetry operations used in ECPInt.
 ECPInt:  NShTT=    1128 NPrTT=    3744 LenC2=    1124 LenP2D=    3216.
 LDataN:  DoStor=T MaxTD1= 6 Len=  172
 NBasis=   117 RedAO= T EigKep=  2.40D-03  NBF=   117
 NBsUse=   117 1.00D-06 EigRej= -1.00D+00 NBFU=   117
 ExpMin= 9.04D-02 ExpMax= 5.24D+04 ExpMxC= 1.79D+03 IAcc=3 IRadAn=         5 AccDes= 0.00D+00
 Harris functional with IExCor= 2002 and IRadAn=       5 diagonalized for initial guess.
 HarFok:  IExCor= 2002 AccDes= 0.00D+00 IRadAn=         5 IDoV= 1 UseB2=F ITyADJ=14
 ICtDFT=  3500011 ScaDFX=  1.000000  1.000000  1.000000  1.000000
 FoFCou: FMM=F IPFlag=           0 FMFlag=      100000 FMFlg1=           0
         NFxFlg=           0 DoJE=T BraDBF=F KetDBF=T FulRan=T
         wScrn=  0.000000 ICntrl=       500 IOpCl=  0 I1Cent=   200000004 NGrid=           0
         NMat0=    1 NMatS0=      1 NMatT0=    0 NMatD0=    1 NMtDS0=    0 NMtDT0=    0
 Petite list used in FoFCou.
 Keep J ints in memory in canonical form, NReq=27663592.
 Requested convergence on RMS density matrix=1.00D-08 within 128 cycles.
 Requested convergence on MAX density matrix=1.00D-06.
 Requested convergence on             energy=1.00D-06.
 No special actions if energy rises.
 Inv3:  Mode=1 IEnd=     1769472.
 Iteration    1 A*A^-1 deviation from unit magnitude is 3.33D-15 for    752.
 Iteration    1 A*A^-1 deviation from orthogonality  is 1.08D-15 for    366     13.
 Iteration    1 A^-1*A deviation from unit magnitude is 3.33D-15 for    752.
 Iteration    1 A^-1*A deviation from orthogonality  is 1.21D-15 for    426    252.
 Error on total polarization charges =  0.00781
 SCF Done:  E(RO-LYP) =  -493.659477472     A.U. after   12 cycles
            NFock= 12  Conv=0.18D-08     -V/T= 2.0013

 **********************************************************************

            Population analysis using the SCF density.

 **********************************************************************

 Orbital symmetries:
       Occupied  (A) (A) (A) (A) (A) (A) (A) (A) (A) (A) (A) (A)
                 (A) (A) (A) (A) (A)
       Virtual   (A) (A) (A) (A) (A) (A) (A) (A) (A) (A) (A) (A)
                 (A) (A) (A) (A) (A) (A) (A) (A) (A) (A) (A) (A)
                 (A) (A) (A) (A) (A) (A) (A) (A) (A) (A) (A) (A)
                 (A) (A) (A) (A) (A) (A) (A) (A) (A) (A) (A) (A)
                 (A) (A) (A) (A) (A) (A) (A) (A) (A) (A) (A) (A)
                 (A) (A) (A) (A) (A) (A) (A) (A) (A) (A) (A) (A)
                 (A) (A) (A) (A) (A) (A) (A) (A) (A) (A) (A) (A)
                 (A) (A) (A) (A) (A) (A) (A) (A) (A) (A) (A) (A)
                 (A) (A) (A) (A)
 The electronic state is 1-A.
 Alpha  occ. eigenvalues --  -76.37853 -18.76688 -18.72534  -6.40993  -4.62155
 Alpha  occ. eigenvalues --   -4.61746  -4.61616  -0.95548  -0.88720  -0.60188
 Alpha  occ. eigenvalues --   -0.48832  -0.41728  -0.35754  -0.32217  -0.29446
 Alpha  occ. eigenvalues --   -0.25443  -0.24526
 Alpha virt. eigenvalues --   -0.03312   0.00570   0.02558   0.05722   0.08472
 Alpha virt. eigenvalues --    0.16532   0.19250   0.22099   0.23335   0.24970
 Alpha virt. eigenvalues --    0.29505   0.34966   0.38347   0.40178   0.42576
 Alpha virt. eigenvalues --    0.45774   0.50221   0.53077   0.53499   0.56047
 Alpha virt. eigenvalues --    0.59206   0.61103   0.67110   0.70933   0.76350
 Alpha virt. eigenvalues --    1.03244   1.06563   1.07710   1.09700   1.13258
 Alpha virt. eigenvalues --    1.17103   1.23873   1.25217   1.27004   1.31480
 Alpha virt. eigenvalues --    1.36482   1.41598   1.46915   1.49926   1.54747
 Alpha virt. eigenvalues --    1.56319   1.62881   1.63605   1.73279   1.76284
 Alpha virt. eigenvalues --    1.89175   1.89476   1.91687   1.98747   2.00230
 Alpha virt. eigenvalues --    2.06590   2.14126   2.16766   2.20828   2.21978
 Alpha virt. eigenvalues --    2.29373   2.39386   2.47684   2.53001   2.61494
 Alpha virt. eigenvalues --    2.62895   2.71886   2.78406   2.80929   2.84989
 Alpha virt. eigenvalues --    2.86787   2.88693   3.33859   3.62396   3.86905
 Alpha virt. eigenvalues --    4.97503   4.98742   5.00894   5.02708   5.04840
 Alpha virt. eigenvalues --    5.06027   5.14899   5.22414   5.23923   5.26635
 Alpha virt. eigenvalues --    5.38291   5.44597   5.46060   6.16499   6.20796
 Alpha virt. eigenvalues --    6.22161   6.25022   6.40484   6.42700   6.53439
 Alpha virt. eigenvalues --    6.57123   6.61276   6.75028   7.00805   7.21985
 Alpha virt. eigenvalues --    7.47429   7.71602  15.58074  43.02111  43.10850
          Condensed to atoms (all electrons):
               1          2          3          4          5          6
     1  O    7.985691   0.715097  -0.095459  -0.039704  -0.033380   0.004234
     2  P    0.715097  12.634178   0.368240   0.364590   0.352257  -0.017131
     3  O   -0.095459   0.368240   7.933026  -0.018106  -0.024583   0.316749
     4  H   -0.039704   0.364590  -0.018106   0.680798  -0.058992   0.002740
     5  H   -0.033380   0.352257  -0.024583  -0.058992   0.694557  -0.001841
     6  H    0.004234  -0.017131   0.316749   0.002740  -0.001841   0.402330
 Mulliken charges:
               1
     1  O   -0.536479
     2  P    0.582770
     3  O   -0.479867
     4  H    0.068674
     5  H    0.071982
     6  H    0.292920
 Sum of Mulliken charges =  -0.00000
 Mulliken charges with hydrogens summed into heavy atoms:
               1
     1  O   -0.536479
     2  P    0.723427
     3  O   -0.186947
 Electronic spatial extent (au):  <R**2>=            204.7188
 Charge=             -0.0000 electrons
 Dipole moment (field-independent basis, Debye):
    X=             -2.1013    Y=              3.9280    Z=             -1.5887  Tot=              4.7295
 Quadrupole moment (field-independent basis, Debye-Ang):
   XX=            -26.5793   YY=            -23.8441   ZZ=            -22.5333
   XY=              4.1738   XZ=              2.8228   YZ=              0.8248
 Traceless Quadrupole moment (field-independent basis, Debye-Ang):
   XX=             -2.2604   YY=              0.4748   ZZ=              1.7856
   XY=              4.1738   XZ=              2.8228   YZ=              0.8248
 Octapole moment (field-independent basis, Debye-Ang**2):
  XXX=            -11.1556  YYY=              2.7224  ZZZ=             -1.3182  XYY=             -2.7983
  XXY=              0.3606  XXZ=             -5.3855  XZZ=             -1.8528  YZZ=              0.6630
  YYZ=             -0.9343  XYZ=             -1.6574
 Hexadecapole moment (field-independent basis, Debye-Ang**3):
 XXXX=           -133.6266 YYYY=            -73.7689 ZZZZ=            -33.7233 XXXY=             12.2233
 XXXZ=             10.6529 YYYX=              4.3048 YYYZ=              0.4564 ZZZX=              2.3589
 ZZZY=              0.6571 XXYY=            -35.1725 XXZZ=            -27.5001 YYZZ=            -17.2006
 XXYZ=              2.9153 YYXZ=              1.5031 ZZXY=              1.8658
 N-N= 1.226038483020D+02 E-N=-1.418156286753D+03  KE= 4.930347797530D+02
 1\1\GINC-NODE85\SP\ROLYP\def2TZVP\H3O2P1\YANZ\22-Sep-2023\0\\# scrf=(c
 pcm,solvent=water) def2tzvp olyp\\tmpdir/M2_conf_0_7.gjf\\0,1\O,0,0.,0
 .,0.\P,0,1.482,0.,0.\O,0,1.77532,0.,1.7017\H,0,2.07711,-1.14692,-0.421
 08\H,0,2.15205,0.96978,-0.55765\H,0,1.85446,0.69916,2.20034\\Version=E
 S64L-G16RevA.03\State=1-A\HF=-493.6594775\RMSD=1.766e-09\Dipole=1.7420
 156,0.5847488,-0.2929518\Quadrupole=-3.3082915,1.5990188,1.7092727,0.6
 776399,-1.9150871,2.1040553\PG=C01 [X(H3O2P1)]\\@


 Democracy is the recurrent suspicion that more than half of the people
 are right more than half of the time.
 -- E. B. White
 Job cpu time:       0 days  0 hours  0 minutes 41.8 seconds.
 Elapsed time:       0 days  0 hours  0 minutes 11.0 seconds.
 File lengths (MBytes):  RWF=     16 Int=      0 D2E=      0 Chk=      2 Scr=      1
 Normal termination of Gaussian 16 at Fri Sep 22 16:53:40 2023.
