 Entering Gaussian System, Link 0=g16
 Initial command:
 /share/apps/gaussian/g16/l1.exe "/tmp/55608.mgr/Gau-88789.inp" -scrdir="/tmp/55608.mgr/"
 Entering Link 1 = /share/apps/gaussian/g16/l1.exe PID=     88790.
  
 Copyright (c) 1988,1990,1992,1993,1995,1998,2003,2009,2016,
            Gaussian, Inc.  All Rights Reserved.
  
 This is part of the Gaussian(R) 16 program.  It is based on
 the Gaussian(R) 09 system (copyright 2009, Gaussian, Inc.),
 the Gaussian(R) 03 system (copyright 2003, Gaussian, Inc.),
 the Gaussian(R) 98 system (copyright 1998, Gaussian, Inc.),
 the Gaussian(R) 94 system (copyright 1995, Gaussian, Inc.),
 the Gaussian 92(TM) system (copyright 1992, Gaussian, Inc.),
 the Gaussian 90(TM) system (copyright 1990, Gaussian, Inc.),
 the Gaussian 88(TM) system (copyright 1988, Gaussian, Inc.),
 the Gaussian 86(TM) system (copyright 1986, Carnegie Mellon
 University), and the Gaussian 82(TM) system (copyright 1983,
 Carnegie Mellon University). Gaussian is a federally registered
 trademark of Gaussian, Inc.
  
 This software contains proprietary and confidential information,
 including trade secrets, belonging to Gaussian, Inc.
  
 This software is provided under written license and may be
 used, copied, transmitted, or stored only in accord with that
 written license.
  
 The following legend is applicable only to US Government
 contracts under FAR:
  
                    RESTRICTED RIGHTS LEGEND
  
 Use, reproduction and disclosure by the US Government is
 subject to restrictions as set forth in subparagraphs (a)
 and (c) of the Commercial Computer Software - Restricted
 Rights clause in FAR 52.227-19.
  
 Gaussian, Inc.
 340 Quinnipiac St., Bldg. 40, Wallingford CT 06492
  
  
 ---------------------------------------------------------------
 Warning -- This program may not be used in any manner that
 competes with the business of Gaussian, Inc. or will provide
 assistance to any competitor of Gaussian, Inc.  The licensee
 of this program is prohibited from giving any competitor of
 Gaussian, Inc. access to this program.  By using this program,
 the user acknowledges that Gaussian, Inc. is engaged in the
 business of creating and licensing software in the field of
 computational chemistry and represents and warrants to the
 licensee that it is not a competitor of Gaussian, Inc. and that
 it will not use this program in any manner prohibited above.
 ---------------------------------------------------------------
  

 Cite this work as:
 Gaussian 16, Revision A.03,
 M. J. Frisch, G. W. Trucks, H. B. Schlegel, G. E. Scuseria, 
 M. A. Robb, J. R. Cheeseman, G. Scalmani, V. Barone, 
 G. A. Petersson, H. Nakatsuji, X. Li, M. Caricato, A. V. Marenich, 
 J. Bloino, B. G. Janesko, R. Gomperts, B. Mennucci, H. P. Hratchian, 
 J. V. Ortiz, A. F. Izmaylov, J. L. Sonnenberg, D. Williams-Young, 
 F. Ding, F. Lipparini, F. Egidi, J. Goings, B. Peng, A. Petrone, 
 T. Henderson, D. Ranasinghe, V. G. Zakrzewski, J. Gao, N. Rega, 
 G. Zheng, W. Liang, M. Hada, M. Ehara, K. Toyota, R. Fukuda, 
 J. Hasegawa, M. Ishida, T. Nakajima, Y. Honda, O. Kitao, H. Nakai, 
 T. Vreven, K. Throssell, J. A. Montgomery, Jr., J. E. Peralta, 
 F. Ogliaro, M. J. Bearpark, J. J. Heyd, E. N. Brothers, K. N. Kudin, 
 V. N. Staroverov, T. A. Keith, R. Kobayashi, J. Normand, 
 K. Raghavachari, A. P. Rendell, J. C. Burant, S. S. Iyengar, 
 J. Tomasi, M. Cossi, J. M. Millam, M. Klene, C. Adamo, R. Cammi, 
 J. W. Ochterski, R. L. Martin, K. Morokuma, O. Farkas, 
 J. B. Foresman, and D. J. Fox, Gaussian, Inc., Wallingford CT, 2016.
 
 ******************************************
 Gaussian 16:  ES64L-G16RevA.03 25-Dec-2016
                22-Sep-2023 
 ******************************************
 %nprocshared=4
 Will use up to    4 processors via shared memory.
 %mem=4GB
 -----------------------------------------
 # scrf=(cpcm,solvent=water) def2tzvp olyp
 -----------------------------------------
 1/38=1,172=1/1;
 2/12=2,17=6,18=5,40=1/2;
 3/5=44,7=101,11=2,25=1,30=1,70=2101,72=1,74=2002/1,2,3;
 4//1;
 5/5=2,38=5,53=1/2;
 6/7=2,8=2,9=2,10=2,28=1/1;
 99/5=1,9=1/99;
 -----------------------
 tmpdir/M2_conf_0_31.gjf
 -----------------------
 Symbolic Z-matrix:
 Charge =  0 Multiplicity = 1
 P                     0.        0.        0. 
 O                     1.5666    0.        0. 
 H                    -0.34817   0.       -1.34435 
 O                    -0.6751    1.12136   0.72711 
 H                    -0.35567  -1.17707   0.52875 
 H                     1.9908    0.79958  -0.35483 
 
                          Input orientation:                          
 ---------------------------------------------------------------------
 Center     Atomic      Atomic             Coordinates (Angstroms)
 Number     Number       Type             X           Y           Z
 ---------------------------------------------------------------------
      1         15           0        0.000000    0.000000    0.000000
      2          8           0        1.566600    0.000000    0.000000
      3          1           0       -0.348170    0.000000   -1.344350
      4          8           0       -0.675100    1.121360    0.727110
      5          1           0       -0.355670   -1.177070    0.528750
      6          1           0        1.990800    0.799580   -0.354830
 ---------------------------------------------------------------------
                    Distance matrix (angstroms):
                    1          2          3          4          5
     1  P    0.000000
     2  O    1.566600   0.000000
     3  H    1.388704   2.339577   0.000000
     4  O    1.497297   2.609857   2.378083   0.000000
     5  H    1.338496   2.315209   2.212251   2.328983   0.000000
     6  H    2.174515   0.972203   2.662566   2.895023   3.192770
                    6
     6  H    0.000000
 Stoichiometry    H3O2P
 Framework group  C1[X(H3O2P)]
 Deg. of freedom    12
 Full point group                 C1      NOp   1
 Largest Abelian subgroup         C1      NOp   1
 Largest concise Abelian subgroup C1      NOp   1
                         Standard orientation:                         
 ---------------------------------------------------------------------
 Center     Atomic      Atomic             Coordinates (Angstroms)
 Number     Number       Type             X           Y           Z
 ---------------------------------------------------------------------
      1         15           0       -0.097479    0.366072    0.018975
      2          8           0        1.308623   -0.312486   -0.110145
      3          1           0       -0.041968    1.055818    1.222997
      4          8           0       -1.290045   -0.538241   -0.024625
      5          1           0       -0.154611    1.258362   -0.977081
      6          1           0        1.510130   -0.999448    0.547621
 ---------------------------------------------------------------------
 Rotational constants (GHZ):          29.8071798           8.4767958           7.1484611
 Standard basis: def2TZVP (5D, 7F)
 There are   132 symmetry adapted cartesian basis functions of A   symmetry.
 There are   117 symmetry adapted basis functions of A   symmetry.
   117 basis functions,   195 primitive gaussians,   132 cartesian basis functions
    17 alpha electrons       17 beta electrons
       nuclear repulsion energy       124.8745847301 Hartrees.
 NAtoms=    6 NActive=    6 NUniq=    6 SFac= 1.00D+00 NAtFMM=   60 NAOKFM=F Big=F
 Integral buffers will be    131072 words long.
 Raffenetti 2 integral format.
 Two-electron integral symmetry is turned on.
 ------------------------------------------------------------------------------
 Polarizable Continuum Model (PCM)
 =================================
 Model                : C-PCM.
 Atomic radii         : UFF (Universal Force Field).
 Polarization charges : Total charges.
 Charge compensation  : None.
 Solution method      : On-the-fly selection.
 Cavity type          : Scaled VdW (van der Waals Surface) (Alpha=1.100).
 Cavity algorithm     : GePol (No added spheres)
                        Default sphere list used, NSphG=    6.
                        Lebedev-Laikov grids with approx.  5.0 points / Ang**2.
                        Smoothing algorithm: York/Karplus (Gamma=1.0000).
                        Polarization charges: spherical gaussians, with
                                              point-specific exponents (IZeta= 3).
                        Self-potential: point-specific (ISelfS= 7).
                        Self-field    : sphere-specific E.n sum rule (ISelfD= 2).
 Solvent              : Water, Eps=  78.355300 Eps(inf)=   1.777849
 ------------------------------------------------------------------------------
 Spheres list:
 ISph  on   Nord     Re0    Alpha      Xe            Ye            Ze
    1   P      1    2.0735  1.100     -0.097479      0.366072      0.018975
    2   O      2    1.7500  1.100      1.308623     -0.312486     -0.110145
    3   H      3    1.4430  1.100     -0.041968      1.055818      1.222997
    4   O      4    1.7500  1.100     -1.290045     -0.538241     -0.024625
    5   H      5    1.4430  1.100     -0.154611      1.258362     -0.977081
    6   H      6    1.4430  1.100      1.510130     -0.999448      0.547621
 ------------------------------------------------------------------------------
 One-electron integrals computed using PRISM.
   1 Symmetry operations used in ECPInt.
 ECPInt:  NShTT=    1128 NPrTT=    3744 LenC2=    1123 LenP2D=    3218.
 LDataN:  DoStor=T MaxTD1= 6 Len=  172
 NBasis=   117 RedAO= T EigKep=  1.91D-03  NBF=   117
 NBsUse=   117 1.00D-06 EigRej= -1.00D+00 NBFU=   117
 ExpMin= 9.04D-02 ExpMax= 5.24D+04 ExpMxC= 1.79D+03 IAcc=3 IRadAn=         5 AccDes= 0.00D+00
 Harris functional with IExCor= 2002 and IRadAn=       5 diagonalized for initial guess.
 HarFok:  IExCor= 2002 AccDes= 0.00D+00 IRadAn=         5 IDoV= 1 UseB2=F ITyADJ=14
 ICtDFT=  3500011 ScaDFX=  1.000000  1.000000  1.000000  1.000000
 FoFCou: FMM=F IPFlag=           0 FMFlag=      100000 FMFlg1=           0
         NFxFlg=           0 DoJE=T BraDBF=F KetDBF=T FulRan=T
         wScrn=  0.000000 ICntrl=       500 IOpCl=  0 I1Cent=   200000004 NGrid=           0
         NMat0=    1 NMatS0=      1 NMatT0=    0 NMatD0=    1 NMtDS0=    0 NMtDT0=    0
 Petite list used in FoFCou.
 Keep J ints in memory in canonical form, NReq=27663592.
 Requested convergence on RMS density matrix=1.00D-08 within 128 cycles.
 Requested convergence on MAX density matrix=1.00D-06.
 Requested convergence on             energy=1.00D-06.
 No special actions if energy rises.
 Inv3:  Mode=1 IEnd=     1710075.
 Iteration    1 A*A^-1 deviation from unit magnitude is 5.11D-15 for    752.
 Iteration    1 A*A^-1 deviation from orthogonality  is 2.00D-15 for    635     71.
 Iteration    1 A^-1*A deviation from unit magnitude is 5.11D-15 for    752.
 Iteration    1 A^-1*A deviation from orthogonality  is 1.41D-15 for    649    250.
 Error on total polarization charges =  0.00822
 SCF Done:  E(RO-LYP) =  -493.695212573     A.U. after   11 cycles
            NFock= 11  Conv=0.92D-08     -V/T= 2.0016

 **********************************************************************

            Population analysis using the SCF density.

 **********************************************************************

 Orbital symmetries:
       Occupied  (A) (A) (A) (A) (A) (A) (A) (A) (A) (A) (A) (A)
                 (A) (A) (A) (A) (A)
       Virtual   (A) (A) (A) (A) (A) (A) (A) (A) (A) (A) (A) (A)
                 (A) (A) (A) (A) (A) (A) (A) (A) (A) (A) (A) (A)
                 (A) (A) (A) (A) (A) (A) (A) (A) (A) (A) (A) (A)
                 (A) (A) (A) (A) (A) (A) (A) (A) (A) (A) (A) (A)
                 (A) (A) (A) (A) (A) (A) (A) (A) (A) (A) (A) (A)
                 (A) (A) (A) (A) (A) (A) (A) (A) (A) (A) (A) (A)
                 (A) (A) (A) (A) (A) (A) (A) (A) (A) (A) (A) (A)
                 (A) (A) (A) (A) (A) (A) (A) (A) (A) (A) (A) (A)
                 (A) (A) (A) (A)
 The electronic state is 1-A.
 Alpha  occ. eigenvalues --  -76.36701 -18.80675 -18.71724  -6.39848  -4.60894
 Alpha  occ. eigenvalues --   -4.60629  -4.60560  -0.98997  -0.87628  -0.59784
 Alpha  occ. eigenvalues --   -0.47810  -0.42299  -0.38292  -0.33594  -0.30428
 Alpha  occ. eigenvalues --   -0.25479  -0.23932
 Alpha virt. eigenvalues --   -0.01027   0.01432   0.03847   0.05573   0.07811
 Alpha virt. eigenvalues --    0.16716   0.21535   0.21986   0.23288   0.26729
 Alpha virt. eigenvalues --    0.30494   0.33928   0.36228   0.38073   0.42466
 Alpha virt. eigenvalues --    0.44422   0.46687   0.49796   0.52049   0.55691
 Alpha virt. eigenvalues --    0.62703   0.63243   0.69275   0.72179   0.77066
 Alpha virt. eigenvalues --    1.02102   1.05923   1.10249   1.12249   1.13292
 Alpha virt. eigenvalues --    1.15267   1.21403   1.24954   1.29662   1.32530
 Alpha virt. eigenvalues --    1.36662   1.39230   1.47693   1.50162   1.57504
 Alpha virt. eigenvalues --    1.59223   1.62705   1.75059   1.78376   1.79738
 Alpha virt. eigenvalues --    1.81696   1.93268   1.96076   1.97480   2.01914
 Alpha virt. eigenvalues --    2.06727   2.09757   2.14855   2.16840   2.22333
 Alpha virt. eigenvalues --    2.25387   2.32663   2.44760   2.50006   2.59454
 Alpha virt. eigenvalues --    2.62578   2.68179   2.74638   2.82343   2.83265
 Alpha virt. eigenvalues --    2.86078   2.87659   3.30157   3.62996   3.75817
 Alpha virt. eigenvalues --    4.97203   4.98914   5.03694   5.05303   5.07626
 Alpha virt. eigenvalues --    5.09704   5.14202   5.18993   5.21135   5.26511
 Alpha virt. eigenvalues --    5.32903   5.38158   5.43970   6.00323   6.17341
 Alpha virt. eigenvalues --    6.20550   6.22593   6.36348   6.46907   6.52723
 Alpha virt. eigenvalues --    6.57285   6.62756   6.74138   6.83868   7.22562
 Alpha virt. eigenvalues --    7.45734   7.93009  15.91400  43.10551  43.13152
          Condensed to atoms (all electrons):
               1          2          3          4          5          6
     1  P   12.593450   0.409857   0.361002   0.713343   0.362093  -0.014004
     2  O    0.409857   7.841459  -0.035212  -0.061599  -0.023435   0.293749
     3  H    0.361002  -0.035212   0.755735  -0.047260  -0.057208  -0.001548
     4  O    0.713343  -0.061599  -0.047260   8.024198  -0.043623   0.001131
     5  H    0.362093  -0.023435  -0.057208  -0.043623   0.702207   0.004239
     6  H   -0.014004   0.293749  -0.001548   0.001131   0.004239   0.359903
 Mulliken charges:
               1
     1  P    0.574258
     2  O   -0.424818
     3  H    0.024492
     4  O   -0.586189
     5  H    0.055727
     6  H    0.356531
 Sum of Mulliken charges =  -0.00000
 Mulliken charges with hydrogens summed into heavy atoms:
               1
     1  P    0.654476
     2  O   -0.068288
     4  O   -0.586189
 Electronic spatial extent (au):  <R**2>=            202.3063
 Charge=             -0.0000 electrons
 Dipole moment (field-independent basis, Debye):
    X=              3.6074    Y=              1.6881    Z=              1.3100  Tot=              4.1928
 Quadrupole moment (field-independent basis, Debye-Ang):
   XX=            -29.1615   YY=            -22.4099   ZZ=            -23.0007
   XY=             -4.6906   XZ=              2.1514   YZ=             -1.7883
 Traceless Quadrupole moment (field-independent basis, Debye-Ang):
   XX=             -4.3041   YY=              2.4474   ZZ=              1.8566
   XY=             -4.6906   XZ=              2.1514   YZ=             -1.7883
 Octapole moment (field-independent basis, Debye-Ang**2):
  XXX=             11.2893  YYY=             -1.8304  ZZZ=              0.4604  XYY=              5.2204
  XXY=             -1.1317  XXZ=              3.5115  XZZ=              2.1765  YZZ=             -0.5051
  YYZ=              1.1846  XYZ=             -2.1414
 Hexadecapole moment (field-independent basis, Debye-Ang**3):
 XXXX=           -156.1350 YYYY=            -59.6817 ZZZZ=            -36.6295 XXXY=            -12.3588
 XXXZ=              5.8715 YYYX=             -7.0346 YYYZ=             -3.0047 ZZZX=              1.5913
 ZZZY=             -1.7884 XXYY=            -31.4035 XXZZ=            -30.2261 YYZZ=            -15.6132
 XXYZ=             -3.8147 YYXZ=              2.5580 ZZXY=             -2.1888
 N-N= 1.248745847301D+02 E-N=-1.422534930138D+03  KE= 4.929210127177D+02
 1\1\GINC-NODE85\SP\ROLYP\def2TZVP\H3O2P1\YANZ\22-Sep-2023\0\\# scrf=(c
 pcm,solvent=water) def2tzvp olyp\\tmpdir/M2_conf_0_31.gjf\\0,1\P,0,0.,
 0.,0.\O,0,1.5666,0.,0.\H,0,-0.34817,0.,-1.34435\O,0,-0.6751,1.12136,0.
 72711\H,0,-0.35567,-1.17707,0.52875\H,0,1.9908,0.79958,-0.35483\\Versi
 on=ES64L-G16RevA.03\State=1-A\HF=-493.6952126\RMSD=9.199e-09\Dipole=0.
 9437157,-0.7801393,-1.1053579\Quadrupole=0.1528223,-0.3287163,0.175893
 9,4.4986505,0.27653,-1.954624\PG=C01 [X(H3O2P1)]\\@


 THE RED LIGHT IS ALWAYS LONGER THAN THE GREEN LIGHT.

                     -- PETER'S THEORY OF RELATIVITY
 Job cpu time:       0 days  0 hours  0 minutes 41.1 seconds.
 Elapsed time:       0 days  0 hours  0 minutes 10.9 seconds.
 File lengths (MBytes):  RWF=     16 Int=      0 D2E=      0 Chk=      2 Scr=      1
 Normal termination of Gaussian 16 at Fri Sep 22 16:54:31 2023.
