 Entering Gaussian System, Link 0=g16
 Initial command:
 /share/apps/gaussian/g16/l1.exe "/tmp/55608.mgr/Gau-89623.inp" -scrdir="/tmp/55608.mgr/"
 Entering Link 1 = /share/apps/gaussian/g16/l1.exe PID=     89624.
  
 Copyright (c) 1988,1990,1992,1993,1995,1998,2003,2009,2016,
            Gaussian, Inc.  All Rights Reserved.
  
 This is part of the Gaussian(R) 16 program.  It is based on
 the Gaussian(R) 09 system (copyright 2009, Gaussian, Inc.),
 the Gaussian(R) 03 system (copyright 2003, Gaussian, Inc.),
 the Gaussian(R) 98 system (copyright 1998, Gaussian, Inc.),
 the Gaussian(R) 94 system (copyright 1995, Gaussian, Inc.),
 the Gaussian 92(TM) system (copyright 1992, Gaussian, Inc.),
 the Gaussian 90(TM) system (copyright 1990, Gaussian, Inc.),
 the Gaussian 88(TM) system (copyright 1988, Gaussian, Inc.),
 the Gaussian 86(TM) system (copyright 1986, Carnegie Mellon
 University), and the Gaussian 82(TM) system (copyright 1983,
 Carnegie Mellon University). Gaussian is a federally registered
 trademark of Gaussian, Inc.
  
 This software contains proprietary and confidential information,
 including trade secrets, belonging to Gaussian, Inc.
  
 This software is provided under written license and may be
 used, copied, transmitted, or stored only in accord with that
 written license.
  
 The following legend is applicable only to US Government
 contracts under FAR:
  
                    RESTRICTED RIGHTS LEGEND
  
 Use, reproduction and disclosure by the US Government is
 subject to restrictions as set forth in subparagraphs (a)
 and (c) of the Commercial Computer Software - Restricted
 Rights clause in FAR 52.227-19.
  
 Gaussian, Inc.
 340 Quinnipiac St., Bldg. 40, Wallingford CT 06492
  
  
 ---------------------------------------------------------------
 Warning -- This program may not be used in any manner that
 competes with the business of Gaussian, Inc. or will provide
 assistance to any competitor of Gaussian, Inc.  The licensee
 of this program is prohibited from giving any competitor of
 Gaussian, Inc. access to this program.  By using this program,
 the user acknowledges that Gaussian, Inc. is engaged in the
 business of creating and licensing software in the field of
 computational chemistry and represents and warrants to the
 licensee that it is not a competitor of Gaussian, Inc. and that
 it will not use this program in any manner prohibited above.
 ---------------------------------------------------------------
  

 Cite this work as:
 Gaussian 16, Revision A.03,
 M. J. Frisch, G. W. Trucks, H. B. Schlegel, G. E. Scuseria, 
 M. A. Robb, J. R. Cheeseman, G. Scalmani, V. Barone, 
 G. A. Petersson, H. Nakatsuji, X. Li, M. Caricato, A. V. Marenich, 
 J. Bloino, B. G. Janesko, R. Gomperts, B. Mennucci, H. P. Hratchian, 
 J. V. Ortiz, A. F. Izmaylov, J. L. Sonnenberg, D. Williams-Young, 
 F. Ding, F. Lipparini, F. Egidi, J. Goings, B. Peng, A. Petrone, 
 T. Henderson, D. Ranasinghe, V. G. Zakrzewski, J. Gao, N. Rega, 
 G. Zheng, W. Liang, M. Hada, M. Ehara, K. Toyota, R. Fukuda, 
 J. Hasegawa, M. Ishida, T. Nakajima, Y. Honda, O. Kitao, H. Nakai, 
 T. Vreven, K. Throssell, J. A. Montgomery, Jr., J. E. Peralta, 
 F. Ogliaro, M. J. Bearpark, J. J. Heyd, E. N. Brothers, K. N. Kudin, 
 V. N. Staroverov, T. A. Keith, R. Kobayashi, J. Normand, 
 K. Raghavachari, A. P. Rendell, J. C. Burant, S. S. Iyengar, 
 J. Tomasi, M. Cossi, J. M. Millam, M. Klene, C. Adamo, R. Cammi, 
 J. W. Ochterski, R. L. Martin, K. Morokuma, O. Farkas, 
 J. B. Foresman, and D. J. Fox, Gaussian, Inc., Wallingford CT, 2016.
 
 ******************************************
 Gaussian 16:  ES64L-G16RevA.03 25-Dec-2016
                22-Sep-2023 
 ******************************************
 %nprocshared=4
 Will use up to    4 processors via shared memory.
 %mem=4GB
 -----------------------------------------
 # scrf=(cpcm,solvent=water) def2tzvp olyp
 -----------------------------------------
 1/38=1,172=1/1;
 2/12=2,17=6,18=5,40=1/2;
 3/5=44,7=101,11=2,25=1,30=1,70=2101,72=1,74=2002/1,2,3;
 4//1;
 5/5=2,38=5,53=1/2;
 6/7=2,8=2,9=2,10=2,28=1/1;
 99/5=1,9=1/99;
 -----------------------
 tmpdir/M2_conf_0_55.gjf
 -----------------------
 Symbolic Z-matrix:
 Charge =  0 Multiplicity = 1
 H                     0.        0.        0. 
 C                     1.119     0.        0. 
 H                     1.40144   0.        1.08277 
 H                     1.5847   -0.83965  -0.5998 
 H                     1.39409   1.0256   -0.35334 
 
                          Input orientation:                          
 ---------------------------------------------------------------------
 Center     Atomic      Atomic             Coordinates (Angstroms)
 Number     Number       Type             X           Y           Z
 ---------------------------------------------------------------------
      1          1           0        0.000000    0.000000    0.000000
      2          6           0        1.119000    0.000000    0.000000
      3          1           0        1.401440    0.000000    1.082770
      4          1           0        1.584700   -0.839650   -0.599800
      5          1           0        1.394090    1.025600   -0.353340
 ---------------------------------------------------------------------
                    Distance matrix (angstroms):
                    1          2          3          4          5
     1  H    0.000000
     2  C    1.119000   0.000000
     3  H    1.770995   1.119001   0.000000
     4  H    1.891044   1.132099   1.889349   0.000000
     5  H    1.766406   1.119097   1.764744   1.891093   0.000000
 Stoichiometry    CH4
 Framework group  C1[X(CH4)]
 Deg. of freedom     9
 Full point group                 C1      NOp   1
 Largest Abelian subgroup         C1      NOp   1
 Largest concise Abelian subgroup C1      NOp   1
                         Standard orientation:                         
 ---------------------------------------------------------------------
 Center     Atomic      Atomic             Coordinates (Angstroms)
 Number     Number       Type             X           Y           Z
 ---------------------------------------------------------------------
      1          1           0       -0.432481    0.943062   -0.393609
      2          6           0        0.024602    0.000475   -0.000205
      3          1           0       -0.425444   -0.813000   -0.623004
      4          1           0        1.156636    0.001608    0.011876
      5          1           0       -0.446324   -0.134521    1.005968
 ---------------------------------------------------------------------
 Rotational constants (GHZ):         160.5369984         144.6737444         144.1224040
 Standard basis: def2TZVP (5D, 7F)
 There are    60 symmetry adapted cartesian basis functions of A   symmetry.
 There are    55 symmetry adapted basis functions of A   symmetry.
    55 basis functions,    83 primitive gaussians,    60 cartesian basis functions
     5 alpha electrons        5 beta electrons
       nuclear repulsion energy        13.0545499898 Hartrees.
 NAtoms=    5 NActive=    5 NUniq=    5 SFac= 1.00D+00 NAtFMM=   60 NAOKFM=F Big=F
 Integral buffers will be    131072 words long.
 Raffenetti 2 integral format.
 Two-electron integral symmetry is turned on.
 ------------------------------------------------------------------------------
 Polarizable Continuum Model (PCM)
 =================================
 Model                : C-PCM.
 Atomic radii         : UFF (Universal Force Field).
 Polarization charges : Total charges.
 Charge compensation  : None.
 Solution method      : On-the-fly selection.
 Cavity type          : Scaled VdW (van der Waals Surface) (Alpha=1.100).
 Cavity algorithm     : GePol (No added spheres)
                        Default sphere list used, NSphG=    5.
                        Lebedev-Laikov grids with approx.  5.0 points / Ang**2.
                        Smoothing algorithm: York/Karplus (Gamma=1.0000).
                        Polarization charges: spherical gaussians, with
                                              point-specific exponents (IZeta= 3).
                        Self-potential: point-specific (ISelfS= 7).
                        Self-field    : sphere-specific E.n sum rule (ISelfD= 2).
 Solvent              : Water, Eps=  78.355300 Eps(inf)=   1.777849
 ------------------------------------------------------------------------------
 Spheres list:
 ISph  on   Nord     Re0    Alpha      Xe            Ye            Ze
    1   H      1    1.4430  1.100     -0.432481      0.943062     -0.393609
    2   C      2    1.9255  1.100      0.024602      0.000475     -0.000205
    3   H      3    1.4430  1.100     -0.425444     -0.813000     -0.623004
    4   H      4    1.4430  1.100      1.156636      0.001608      0.011876
    5   H      5    1.4430  1.100     -0.446324     -0.134521      1.005968
 ------------------------------------------------------------------------------
 One-electron integrals computed using PRISM.
   1 Symmetry operations used in ECPInt.
 ECPInt:  NShTT=     378 NPrTT=    1024 LenC2=     379 LenP2D=     988.
 LDataN:  DoStor=T MaxTD1= 6 Len=  172
 NBasis=    55 RedAO= T EigKep=  1.65D-03  NBF=    55
 NBsUse=    55 1.00D-06 EigRej= -1.00D+00 NBFU=    55
 ExpMin= 9.52D-02 ExpMax= 1.36D+04 ExpMxC= 4.63D+02 IAcc=3 IRadAn=         5 AccDes= 0.00D+00
 Harris functional with IExCor= 2002 and IRadAn=       5 diagonalized for initial guess.
 HarFok:  IExCor= 2002 AccDes= 0.00D+00 IRadAn=         5 IDoV= 1 UseB2=F ITyADJ=14
 ICtDFT=  3500011 ScaDFX=  1.000000  1.000000  1.000000  1.000000
 FoFCou: FMM=F IPFlag=           0 FMFlag=      100000 FMFlg1=           0
         NFxFlg=           0 DoJE=T BraDBF=F KetDBF=T FulRan=T
         wScrn=  0.000000 ICntrl=       500 IOpCl=  0 I1Cent=   200000004 NGrid=           0
         NMat0=    1 NMatS0=      1 NMatT0=    0 NMatD0=    1 NMtDS0=    0 NMtDT0=    0
 Petite list used in FoFCou.
 Keep J ints in memory in canonical form, NReq=4722199.
 Requested convergence on RMS density matrix=1.00D-08 within 128 cycles.
 Requested convergence on MAX density matrix=1.00D-06.
 Requested convergence on             energy=1.00D-06.
 No special actions if energy rises.
 Inv3:  Mode=1 IEnd=      717363.
 Iteration    1 A*A^-1 deviation from unit magnitude is 3.11D-15 for    314.
 Iteration    1 A*A^-1 deviation from orthogonality  is 2.01D-15 for    472    299.
 Iteration    1 A^-1*A deviation from unit magnitude is 3.11D-15 for    477.
 Iteration    1 A^-1*A deviation from orthogonality  is 1.17D-15 for    361    227.
 Error on total polarization charges =  0.00947
 SCF Done:  E(RO-LYP) =  -40.5054005951     A.U. after    8 cycles
            NFock=  8  Conv=0.41D-08     -V/T= 2.0080

 **********************************************************************

            Population analysis using the SCF density.

 **********************************************************************

 Orbital symmetries:
       Occupied  (A) (A) (A) (A) (A)
       Virtual   (A) (A) (A) (A) (A) (A) (A) (A) (A) (A) (A) (A)
                 (A) (A) (A) (A) (A) (A) (A) (A) (A) (A) (A) (A)
                 (A) (A) (A) (A) (A) (A) (A) (A) (A) (A) (A) (A)
                 (A) (A) (A) (A) (A) (A) (A) (A) (A) (A) (A) (A)
                 (A) (A)
 The electronic state is 1-A.
 Alpha  occ. eigenvalues --   -9.89207  -0.61813  -0.35149  -0.33165  -0.33062
 Alpha virt. eigenvalues --    0.02243   0.09464   0.09596   0.09614   0.17850
 Alpha virt. eigenvalues --    0.17856   0.18194   0.36738   0.41090   0.41162
 Alpha virt. eigenvalues --    0.41674   0.47048   0.55896   0.55940   0.88254
 Alpha virt. eigenvalues --    0.89863   0.89881   1.41182   1.41262   1.44754
 Alpha virt. eigenvalues --    1.45493   1.45601   1.47838   1.48134   1.88899
 Alpha virt. eigenvalues --    1.88973   1.90235   1.99527   2.12795   2.12944
 Alpha virt. eigenvalues --    2.14788   2.35393   2.35928   2.46775   2.47167
 Alpha virt. eigenvalues --    2.49453   2.87842   2.87879   2.89787   3.16022
 Alpha virt. eigenvalues --    3.27669   3.27883   3.32083   3.42820   3.43018
 Alpha virt. eigenvalues --    3.94036   4.08321   4.08888   4.32029  21.81463
          Condensed to atoms (all electrons):
               1          2          3          4          5
     1  H    0.553186   0.395613  -0.026238  -0.018941  -0.026694
     2  C    0.395613   4.917035   0.395556   0.394717   0.395420
     3  H   -0.026238   0.395556   0.553529  -0.019030  -0.026812
     4  H   -0.018941   0.394717  -0.019030   0.532702  -0.018791
     5  H   -0.026694   0.395420  -0.026812  -0.018791   0.553948
 Mulliken charges:
               1
     1  H    0.123074
     2  C   -0.498342
     3  H    0.122996
     4  H    0.129343
     5  H    0.122929
 Sum of Mulliken charges =  -0.00000
 Mulliken charges with hydrogens summed into heavy atoms:
               1
     2  C   -0.000000
 Electronic spatial extent (au):  <R**2>=             36.9767
 Charge=             -0.0000 electrons
 Dipole moment (field-independent basis, Debye):
    X=             -0.0936    Y=             -0.0020    Z=              0.0011  Tot=              0.0936
 Quadrupole moment (field-independent basis, Debye-Ang):
   XX=             -8.1261   YY=             -8.7072   ZZ=             -8.7306
   XY=             -0.0003   XZ=              0.0008   YZ=             -0.0002
 Traceless Quadrupole moment (field-independent basis, Debye-Ang):
   XX=              0.3952   YY=             -0.1859   ZZ=             -0.2093
   XY=             -0.0003   XZ=              0.0008   YZ=             -0.0002
 Octapole moment (field-independent basis, Debye-Ang**2):
  XXX=              0.9589  YYY=              0.2010  ZZZ=              0.4829  XYY=             -0.5861
  XXY=              0.0025  XXZ=              0.0252  XZZ=             -0.5881  YZZ=             -0.2083
  YYZ=             -0.5063  XYZ=              0.0042
 Hexadecapole moment (field-independent basis, Debye-Ang**3):
 XXXX=            -17.0268 YYYY=            -17.2136 ZZZZ=            -17.2303 XXXY=             -0.0002
 XXXZ=              0.0117 YYYX=             -0.1675 YYYZ=              0.0030 ZZZX=             -0.4066
 ZZZY=              0.0020 XXYY=             -5.9784 XXZZ=             -5.9609 YYZZ=             -5.7308
 XXYZ=             -0.0062 YYXZ=              0.4014 ZZXY=              0.1657
 N-N= 1.305454998982D+01 E-N=-1.193318117031D+02  KE= 4.018315546541D+01
 1\1\GINC-NODE85\SP\ROLYP\def2TZVP\C1H4\YANZ\22-Sep-2023\0\\# scrf=(cpc
 m,solvent=water) def2tzvp olyp\\tmpdir/M2_conf_0_55.gjf\\0,1\H,0,0.,0.
 ,0.\C,0,1.119,0.,0.\H,0,1.40144,0.,1.08277\H,0,1.5847,-0.83965,-0.5998
 \H,0,1.39409,1.0256,-0.35334\\Version=ES64L-G16RevA.03\State=1-A\HF=-4
 0.5054006\RMSD=4.053e-09\Dipole=-0.0142408,0.0279003,0.0193568\Quadrup
 ole=-0.0678852,0.095792,-0.0279068,-0.1361663,-0.0884457,0.1765803\PG=
 C01 [X(C1H4)]\\@


 "TIGER, TIGER BURNING BRIGHT
 IN THE FOREST OF THE NIGHT.
 WHAT IMMORTAL HAND OR EYE
 CAN FRAME THY FEARFUL SYMMETRYE?"
                     - WILLIAM BLAKE
 Job cpu time:       0 days  0 hours  0 minutes 11.9 seconds.
 Elapsed time:       0 days  0 hours  0 minutes  3.1 seconds.
 File lengths (MBytes):  RWF=     10 Int=      0 D2E=      0 Chk=      1 Scr=      1
 Normal termination of Gaussian 16 at Fri Sep 22 16:54:59 2023.
