 Entering Gaussian System, Link 0=g16
 Initial command:
 /share/apps/gaussian/g16/l1.exe "/tmp/55608.mgr/Gau-88003.inp" -scrdir="/tmp/55608.mgr/"
 Entering Link 1 = /share/apps/gaussian/g16/l1.exe PID=     88004.
  
 Copyright (c) 1988,1990,1992,1993,1995,1998,2003,2009,2016,
            Gaussian, Inc.  All Rights Reserved.
  
 This is part of the Gaussian(R) 16 program.  It is based on
 the Gaussian(R) 09 system (copyright 2009, Gaussian, Inc.),
 the Gaussian(R) 03 system (copyright 2003, Gaussian, Inc.),
 the Gaussian(R) 98 system (copyright 1998, Gaussian, Inc.),
 the Gaussian(R) 94 system (copyright 1995, Gaussian, Inc.),
 the Gaussian 92(TM) system (copyright 1992, Gaussian, Inc.),
 the Gaussian 90(TM) system (copyright 1990, Gaussian, Inc.),
 the Gaussian 88(TM) system (copyright 1988, Gaussian, Inc.),
 the Gaussian 86(TM) system (copyright 1986, Carnegie Mellon
 University), and the Gaussian 82(TM) system (copyright 1983,
 Carnegie Mellon University). Gaussian is a federally registered
 trademark of Gaussian, Inc.
  
 This software contains proprietary and confidential information,
 including trade secrets, belonging to Gaussian, Inc.
  
 This software is provided under written license and may be
 used, copied, transmitted, or stored only in accord with that
 written license.
  
 The following legend is applicable only to US Government
 contracts under FAR:
  
                    RESTRICTED RIGHTS LEGEND
  
 Use, reproduction and disclosure by the US Government is
 subject to restrictions as set forth in subparagraphs (a)
 and (c) of the Commercial Computer Software - Restricted
 Rights clause in FAR 52.227-19.
  
 Gaussian, Inc.
 340 Quinnipiac St., Bldg. 40, Wallingford CT 06492
  
  
 ---------------------------------------------------------------
 Warning -- This program may not be used in any manner that
 competes with the business of Gaussian, Inc. or will provide
 assistance to any competitor of Gaussian, Inc.  The licensee
 of this program is prohibited from giving any competitor of
 Gaussian, Inc. access to this program.  By using this program,
 the user acknowledges that Gaussian, Inc. is engaged in the
 business of creating and licensing software in the field of
 computational chemistry and represents and warrants to the
 licensee that it is not a competitor of Gaussian, Inc. and that
 it will not use this program in any manner prohibited above.
 ---------------------------------------------------------------
  

 Cite this work as:
 Gaussian 16, Revision A.03,
 M. J. Frisch, G. W. Trucks, H. B. Schlegel, G. E. Scuseria, 
 M. A. Robb, J. R. Cheeseman, G. Scalmani, V. Barone, 
 G. A. Petersson, H. Nakatsuji, X. Li, M. Caricato, A. V. Marenich, 
 J. Bloino, B. G. Janesko, R. Gomperts, B. Mennucci, H. P. Hratchian, 
 J. V. Ortiz, A. F. Izmaylov, J. L. Sonnenberg, D. Williams-Young, 
 F. Ding, F. Lipparini, F. Egidi, J. Goings, B. Peng, A. Petrone, 
 T. Henderson, D. Ranasinghe, V. G. Zakrzewski, J. Gao, N. Rega, 
 G. Zheng, W. Liang, M. Hada, M. Ehara, K. Toyota, R. Fukuda, 
 J. Hasegawa, M. Ishida, T. Nakajima, Y. Honda, O. Kitao, H. Nakai, 
 T. Vreven, K. Throssell, J. A. Montgomery, Jr., J. E. Peralta, 
 F. Ogliaro, M. J. Bearpark, J. J. Heyd, E. N. Brothers, K. N. Kudin, 
 V. N. Staroverov, T. A. Keith, R. Kobayashi, J. Normand, 
 K. Raghavachari, A. P. Rendell, J. C. Burant, S. S. Iyengar, 
 J. Tomasi, M. Cossi, J. M. Millam, M. Klene, C. Adamo, R. Cammi, 
 J. W. Ochterski, R. L. Martin, K. Morokuma, O. Farkas, 
 J. B. Foresman, and D. J. Fox, Gaussian, Inc., Wallingford CT, 2016.
 
 ******************************************
 Gaussian 16:  ES64L-G16RevA.03 25-Dec-2016
                22-Sep-2023 
 ******************************************
 %nprocshared=4
 Will use up to    4 processors via shared memory.
 %mem=4GB
 -----------------------------------------
 # scrf=(cpcm,solvent=water) def2tzvp olyp
 -----------------------------------------
 1/38=1,172=1/1;
 2/12=2,17=6,18=5,40=1/2;
 3/5=44,7=101,11=2,25=1,30=1,70=2101,72=1,74=2002/1,2,3;
 4//1;
 5/5=2,38=5,53=1/2;
 6/7=2,8=2,9=2,10=2,28=1/1;
 99/5=1,9=1/99;
 ----------------------
 tmpdir/M2_conf_0_4.gjf
 ----------------------
 Symbolic Z-matrix:
 Charge =  0 Multiplicity = 1
 P                     0.        0.        0. 
 O                     1.8914    0.        0. 
 O                    -0.43873   0.       -1.41557 
 H                    -0.22617   1.14696   0.69298 
 H                    -0.3342   -0.96993   0.80496 
 H                     2.39623  -0.69916  -0.00671 
 
                          Input orientation:                          
 ---------------------------------------------------------------------
 Center     Atomic      Atomic             Coordinates (Angstroms)
 Number     Number       Type             X           Y           Z
 ---------------------------------------------------------------------
      1         15           0        0.000000    0.000000    0.000000
      2          8           0        1.891400    0.000000    0.000000
      3          8           0       -0.438730    0.000000   -1.415570
      4          1           0       -0.226170    1.146960    0.692980
      5          1           0       -0.334200   -0.969930    0.804960
      6          1           0        2.396230   -0.699160   -0.006710
 ---------------------------------------------------------------------
                    Distance matrix (angstroms):
                    1          2          3          4          5
     1  P    0.000000
     2  O    1.891400   0.000000
     3  O    1.481999   2.726416   0.000000
     4  H    1.359004   2.505961   2.409706   0.000000
     5  H    1.303999   2.557737   2.425375   2.122601   0.000000
     6  H    2.496155   0.862394   3.242022   3.282485   2.861359
                    6
     6  H    0.000000
 Stoichiometry    H3O2P
 Framework group  C1[X(H3O2P)]
 Deg. of freedom    12
 Full point group                 C1      NOp   1
 Largest Abelian subgroup         C1      NOp   1
 Largest concise Abelian subgroup C1      NOp   1
                         Standard orientation:                         
 ---------------------------------------------------------------------
 Center     Atomic      Atomic             Coordinates (Angstroms)
 Number     Number       Type             X           Y           Z
 ---------------------------------------------------------------------
      1         15           0        0.253124    0.419725   -0.017285
      2          8           0       -1.488738   -0.308776    0.094951
      3          8           0        1.205533   -0.715569    0.001321
      4          1           0        0.241743    1.205011    1.091808
      5          1           0        0.207825    1.239656   -1.030239
      6          1           0       -1.980790   -0.545778   -0.572460
 ---------------------------------------------------------------------
 Rotational constants (GHZ):          23.9139799           7.4894960           6.0762646
 Standard basis: def2TZVP (5D, 7F)
 There are   132 symmetry adapted cartesian basis functions of A   symmetry.
 There are   117 symmetry adapted basis functions of A   symmetry.
   117 basis functions,   195 primitive gaussians,   132 cartesian basis functions
    17 alpha electrons       17 beta electrons
       nuclear repulsion energy       117.6088304496 Hartrees.
 NAtoms=    6 NActive=    6 NUniq=    6 SFac= 1.00D+00 NAtFMM=   60 NAOKFM=F Big=F
 Integral buffers will be    131072 words long.
 Raffenetti 2 integral format.
 Two-electron integral symmetry is turned on.
 ------------------------------------------------------------------------------
 Polarizable Continuum Model (PCM)
 =================================
 Model                : C-PCM.
 Atomic radii         : UFF (Universal Force Field).
 Polarization charges : Total charges.
 Charge compensation  : None.
 Solution method      : On-the-fly selection.
 Cavity type          : Scaled VdW (van der Waals Surface) (Alpha=1.100).
 Cavity algorithm     : GePol (No added spheres)
                        Default sphere list used, NSphG=    6.
                        Lebedev-Laikov grids with approx.  5.0 points / Ang**2.
                        Smoothing algorithm: York/Karplus (Gamma=1.0000).
                        Polarization charges: spherical gaussians, with
                                              point-specific exponents (IZeta= 3).
                        Self-potential: point-specific (ISelfS= 7).
                        Self-field    : sphere-specific E.n sum rule (ISelfD= 2).
 Solvent              : Water, Eps=  78.355300 Eps(inf)=   1.777849
 ------------------------------------------------------------------------------
 Spheres list:
 ISph  on   Nord     Re0    Alpha      Xe            Ye            Ze
    1   P      1    2.0735  1.100      0.253124      0.419725     -0.017285
    2   O      2    1.7500  1.100     -1.488738     -0.308776      0.094951
    3   O      3    1.7500  1.100      1.205533     -0.715569      0.001321
    4   H      4    1.4430  1.100      0.241743      1.205011      1.091808
    5   H      5    1.4430  1.100      0.207825      1.239656     -1.030239
    6   H      6    1.4430  1.100     -1.980790     -0.545778     -0.572460
 ------------------------------------------------------------------------------
 One-electron integrals computed using PRISM.
   1 Symmetry operations used in ECPInt.
 ECPInt:  NShTT=    1128 NPrTT=    3744 LenC2=    1123 LenP2D=    3179.
 LDataN:  DoStor=T MaxTD1= 6 Len=  172
 NBasis=   117 RedAO= T EigKep=  2.49D-03  NBF=   117
 NBsUse=   117 1.00D-06 EigRej= -1.00D+00 NBFU=   117
 ExpMin= 9.04D-02 ExpMax= 5.24D+04 ExpMxC= 1.79D+03 IAcc=3 IRadAn=         5 AccDes= 0.00D+00
 Harris functional with IExCor= 2002 and IRadAn=       5 diagonalized for initial guess.
 HarFok:  IExCor= 2002 AccDes= 0.00D+00 IRadAn=         5 IDoV= 1 UseB2=F ITyADJ=14
 ICtDFT=  3500011 ScaDFX=  1.000000  1.000000  1.000000  1.000000
 FoFCou: FMM=F IPFlag=           0 FMFlag=      100000 FMFlg1=           0
         NFxFlg=           0 DoJE=T BraDBF=F KetDBF=T FulRan=T
         wScrn=  0.000000 ICntrl=       500 IOpCl=  0 I1Cent=   200000004 NGrid=           0
         NMat0=    1 NMatS0=      1 NMatT0=    0 NMatD0=    1 NMtDS0=    0 NMtDT0=    0
 Petite list used in FoFCou.
 Keep J ints in memory in canonical form, NReq=27663592.
 Requested convergence on RMS density matrix=1.00D-08 within 128 cycles.
 Requested convergence on MAX density matrix=1.00D-06.
 Requested convergence on             energy=1.00D-06.
 No special actions if energy rises.
 Inv3:  Mode=1 IEnd=     1839267.
 Iteration    1 A*A^-1 deviation from unit magnitude is 3.77D-15 for    737.
 Iteration    1 A*A^-1 deviation from orthogonality  is 2.35D-15 for    680    253.
 Iteration    1 A^-1*A deviation from unit magnitude is 3.55D-15 for    737.
 Iteration    1 A^-1*A deviation from orthogonality  is 2.23D-15 for    777    284.
 Error on total polarization charges =  0.00763
 SCF Done:  E(RO-LYP) =  -493.647399896     A.U. after   11 cycles
            NFock= 11  Conv=0.94D-08     -V/T= 2.0016

 **********************************************************************

            Population analysis using the SCF density.

 **********************************************************************

 Orbital symmetries:
       Occupied  (A) (A) (A) (A) (A) (A) (A) (A) (A) (A) (A) (A)
                 (A) (A) (A) (A) (A)
       Virtual   (A) (A) (A) (A) (A) (A) (A) (A) (A) (A) (A) (A)
                 (A) (A) (A) (A) (A) (A) (A) (A) (A) (A) (A) (A)
                 (A) (A) (A) (A) (A) (A) (A) (A) (A) (A) (A) (A)
                 (A) (A) (A) (A) (A) (A) (A) (A) (A) (A) (A) (A)
                 (A) (A) (A) (A) (A) (A) (A) (A) (A) (A) (A) (A)
                 (A) (A) (A) (A) (A) (A) (A) (A) (A) (A) (A) (A)
                 (A) (A) (A) (A) (A) (A) (A) (A) (A) (A) (A) (A)
                 (A) (A) (A) (A) (A) (A) (A) (A) (A) (A) (A) (A)
                 (A) (A) (A) (A)
 The electronic state is 1-A.
 Alpha  occ. eigenvalues --  -76.38886 -18.75601 -18.74564  -6.42004  -4.63203
 Alpha  occ. eigenvalues --   -4.62719  -4.62626  -0.92816  -0.90071  -0.59860
 Alpha  occ. eigenvalues --   -0.46299  -0.41834  -0.36693  -0.31692  -0.27850
 Alpha  occ. eigenvalues --   -0.26625  -0.25528
 Alpha virt. eigenvalues --   -0.04944  -0.00516   0.01767   0.05625   0.07377
 Alpha virt. eigenvalues --    0.16007   0.16735   0.21421   0.23197   0.24942
 Alpha virt. eigenvalues --    0.29372   0.31496   0.37608   0.40616   0.43348
 Alpha virt. eigenvalues --    0.46112   0.49905   0.51665   0.52912   0.54310
 Alpha virt. eigenvalues --    0.58219   0.62003   0.66339   0.71068   0.76095
 Alpha virt. eigenvalues --    1.03071   1.06447   1.07725   1.09225   1.11560
 Alpha virt. eigenvalues --    1.16281   1.22438   1.24287   1.25722   1.28677
 Alpha virt. eigenvalues --    1.34988   1.37904   1.46091   1.48468   1.53090
 Alpha virt. eigenvalues --    1.54359   1.54688   1.63076   1.65228   1.75534
 Alpha virt. eigenvalues --    1.88355   1.89431   1.94469   1.96521   1.98760
 Alpha virt. eigenvalues --    2.00984   2.12340   2.15056   2.17763   2.18902
 Alpha virt. eigenvalues --    2.27521   2.33576   2.47819   2.52157   2.60477
 Alpha virt. eigenvalues --    2.61426   2.67677   2.75333   2.78442   2.82759
 Alpha virt. eigenvalues --    2.84576   2.85614   3.25548   3.61038   3.83931
 Alpha virt. eigenvalues --    4.99024   4.99440   5.01736   5.02014   5.03249
 Alpha virt. eigenvalues --    5.04939   5.13114   5.17570   5.22081   5.23644
 Alpha virt. eigenvalues --    5.38657   5.42071   5.46420   6.14812   6.16834
 Alpha virt. eigenvalues --    6.20813   6.22314   6.36128   6.38357   6.51299
 Alpha virt. eigenvalues --    6.54543   6.59452   6.73298   7.03898   7.20694
 Alpha virt. eigenvalues --    7.28638   7.70840  15.32478  42.97022  43.07713
          Condensed to atoms (all electrons):
               1          2          3          4          5          6
     1  P   12.688503   0.308676   0.699623   0.366517   0.351201  -0.015552
     2  O    0.308676   8.023677  -0.051004  -0.017183  -0.022458   0.308922
     3  O    0.699623  -0.051004   7.926844  -0.037973  -0.032948   0.001973
     4  H    0.366517  -0.017183  -0.037973   0.659733  -0.054177   0.002270
     5  H    0.351201  -0.022458  -0.032948  -0.054177   0.675830  -0.001435
     6  H   -0.015552   0.308922   0.001973   0.002270  -0.001435   0.412507
 Mulliken charges:
               1
     1  P    0.601033
     2  O   -0.550631
     3  O   -0.506517
     4  H    0.080814
     5  H    0.083986
     6  H    0.291315
 Sum of Mulliken charges =  -0.00000
 Mulliken charges with hydrogens summed into heavy atoms:
               1
     1  P    0.765833
     2  O   -0.259316
     3  O   -0.506517
 Electronic spatial extent (au):  <R**2>=            225.5133
 Charge=             -0.0000 electrons
 Dipole moment (field-independent basis, Debye):
    X=             -1.2916    Y=              3.8884    Z=             -1.5867  Tot=              4.3938
 Quadrupole moment (field-independent basis, Debye-Ang):
   XX=            -27.4354   YY=            -23.8286   ZZ=            -22.5165
   XY=              3.9039   XZ=              3.0812   YZ=              0.7935
 Traceless Quadrupole moment (field-independent basis, Debye-Ang):
   XX=             -2.8419   YY=              0.7649   ZZ=              2.0770
   XY=              3.9039   XZ=              3.0812   YZ=              0.7935
 Octapole moment (field-independent basis, Debye-Ang**2):
  XXX=            -10.3984  YYY=              3.1278  ZZZ=             -1.3122  XYY=             -1.8404
  XXY=              0.5506  XXZ=             -6.3859  XZZ=             -1.4614  YZZ=              0.9289
  YYZ=             -0.8363  XYZ=             -1.6525
 Hexadecapole moment (field-independent basis, Debye-Ang**3):
 XXXX=           -159.0658 YYYY=            -69.2087 ZZZZ=            -33.4011 XXXY=             12.6977
 XXXZ=             13.6015 YYYX=              3.4415 YYYZ=              0.4725 ZZZX=              2.5948
 ZZZY=              0.6843 XXYY=            -39.6093 XXZZ=            -31.9498 YYZZ=            -16.2392
 XXYZ=              3.2140 YYXZ=              1.5318 ZZXY=              1.6889
 N-N= 1.176088304496D+02 E-N=-1.407946442136D+03  KE= 4.928786772817D+02
 1\1\GINC-NODE85\SP\ROLYP\def2TZVP\H3O2P1\YANZ\22-Sep-2023\0\\# scrf=(c
 pcm,solvent=water) def2tzvp olyp\\tmpdir/M2_conf_0_4.gjf\\0,1\P,0,0.,0
 .,0.\O,0,1.8914,0.,0.\O,0,-0.43873,0.,-1.41557\H,0,-0.22617,1.14696,0.
 69298\H,0,-0.3342,-0.96993,0.80496\H,0,2.39623,-0.69916,-0.00671\\Vers
 ion=ES64L-G16RevA.03\State=1-A\HF=-493.6473999\RMSD=9.429e-09\Dipole=-
 0.1583001,-0.5648761,1.6260821\Quadrupole=0.0795268,1.8034633,-1.88299
 01,-2.3478842,-2.9349541,-0.2783902\PG=C01 [X(H3O2P1)]\\@


 YE HAVE SOWN MUCH, AND BRING IN LITTLE.
 YE EAT, BUT YE HAVE NOT ENOUGH.
 YE DRINK, BUT YE ARE NOT FILLED WITH DRINK.
 YE CLOTHE YOU, BUT THERE IS NONE WARM.
 AND HE THAT EARNETH WAGES EARNETH WAGES TO PUT
 IT INTO A BAG WITH HOLES.
                                     HAGGAI I,6
 Job cpu time:       0 days  0 hours  0 minutes 39.2 seconds.
 Elapsed time:       0 days  0 hours  0 minutes 10.3 seconds.
 File lengths (MBytes):  RWF=     17 Int=      0 D2E=      0 Chk=      2 Scr=      1
 Normal termination of Gaussian 16 at Fri Sep 22 16:53:39 2023.
