 Entering Gaussian System, Link 0=g16
 Initial command:
 /share/apps/gaussian/g16/l1.exe "/tmp/55608.mgr/Gau-88289.inp" -scrdir="/tmp/55608.mgr/"
 Entering Link 1 = /share/apps/gaussian/g16/l1.exe PID=     88290.
  
 Copyright (c) 1988,1990,1992,1993,1995,1998,2003,2009,2016,
            Gaussian, Inc.  All Rights Reserved.
  
 This is part of the Gaussian(R) 16 program.  It is based on
 the Gaussian(R) 09 system (copyright 2009, Gaussian, Inc.),
 the Gaussian(R) 03 system (copyright 2003, Gaussian, Inc.),
 the Gaussian(R) 98 system (copyright 1998, Gaussian, Inc.),
 the Gaussian(R) 94 system (copyright 1995, Gaussian, Inc.),
 the Gaussian 92(TM) system (copyright 1992, Gaussian, Inc.),
 the Gaussian 90(TM) system (copyright 1990, Gaussian, Inc.),
 the Gaussian 88(TM) system (copyright 1988, Gaussian, Inc.),
 the Gaussian 86(TM) system (copyright 1986, Carnegie Mellon
 University), and the Gaussian 82(TM) system (copyright 1983,
 Carnegie Mellon University). Gaussian is a federally registered
 trademark of Gaussian, Inc.
  
 This software contains proprietary and confidential information,
 including trade secrets, belonging to Gaussian, Inc.
  
 This software is provided under written license and may be
 used, copied, transmitted, or stored only in accord with that
 written license.
  
 The following legend is applicable only to US Government
 contracts under FAR:
  
                    RESTRICTED RIGHTS LEGEND
  
 Use, reproduction and disclosure by the US Government is
 subject to restrictions as set forth in subparagraphs (a)
 and (c) of the Commercial Computer Software - Restricted
 Rights clause in FAR 52.227-19.
  
 Gaussian, Inc.
 340 Quinnipiac St., Bldg. 40, Wallingford CT 06492
  
  
 ---------------------------------------------------------------
 Warning -- This program may not be used in any manner that
 competes with the business of Gaussian, Inc. or will provide
 assistance to any competitor of Gaussian, Inc.  The licensee
 of this program is prohibited from giving any competitor of
 Gaussian, Inc. access to this program.  By using this program,
 the user acknowledges that Gaussian, Inc. is engaged in the
 business of creating and licensing software in the field of
 computational chemistry and represents and warrants to the
 licensee that it is not a competitor of Gaussian, Inc. and that
 it will not use this program in any manner prohibited above.
 ---------------------------------------------------------------
  

 Cite this work as:
 Gaussian 16, Revision A.03,
 M. J. Frisch, G. W. Trucks, H. B. Schlegel, G. E. Scuseria, 
 M. A. Robb, J. R. Cheeseman, G. Scalmani, V. Barone, 
 G. A. Petersson, H. Nakatsuji, X. Li, M. Caricato, A. V. Marenich, 
 J. Bloino, B. G. Janesko, R. Gomperts, B. Mennucci, H. P. Hratchian, 
 J. V. Ortiz, A. F. Izmaylov, J. L. Sonnenberg, D. Williams-Young, 
 F. Ding, F. Lipparini, F. Egidi, J. Goings, B. Peng, A. Petrone, 
 T. Henderson, D. Ranasinghe, V. G. Zakrzewski, J. Gao, N. Rega, 
 G. Zheng, W. Liang, M. Hada, M. Ehara, K. Toyota, R. Fukuda, 
 J. Hasegawa, M. Ishida, T. Nakajima, Y. Honda, O. Kitao, H. Nakai, 
 T. Vreven, K. Throssell, J. A. Montgomery, Jr., J. E. Peralta, 
 F. Ogliaro, M. J. Bearpark, J. J. Heyd, E. N. Brothers, K. N. Kudin, 
 V. N. Staroverov, T. A. Keith, R. Kobayashi, J. Normand, 
 K. Raghavachari, A. P. Rendell, J. C. Burant, S. S. Iyengar, 
 J. Tomasi, M. Cossi, J. M. Millam, M. Klene, C. Adamo, R. Cammi, 
 J. W. Ochterski, R. L. Martin, K. Morokuma, O. Farkas, 
 J. B. Foresman, and D. J. Fox, Gaussian, Inc., Wallingford CT, 2016.
 
 ******************************************
 Gaussian 16:  ES64L-G16RevA.03 25-Dec-2016
                22-Sep-2023 
 ******************************************
 %nprocshared=4
 Will use up to    4 processors via shared memory.
 %mem=4GB
 -----------------------------------------
 # scrf=(cpcm,solvent=water) def2tzvp olyp
 -----------------------------------------
 1/38=1,172=1/1;
 2/12=2,17=6,18=5,40=1/2;
 3/5=44,7=101,11=2,25=1,30=1,70=2101,72=1,74=2002/1,2,3;
 4//1;
 5/5=2,38=5,53=1/2;
 6/7=2,8=2,9=2,10=2,28=1/1;
 99/5=1,9=1/99;
 -----------------------
 tmpdir/M2_conf_0_16.gjf
 -----------------------
 Symbolic Z-matrix:
 Charge =  0 Multiplicity = 1
 P                     0.        0.        0. 
 O                     1.6456    0.        0. 
 H                    -0.34059   0.       -1.29641 
 H                    -0.36116  -1.15512   0.56464 
 O                    -0.5129    1.17228   0.78063 
 H                     2.17689   0.66286   0.2766 
 
                          Input orientation:                          
 ---------------------------------------------------------------------
 Center     Atomic      Atomic             Coordinates (Angstroms)
 Number     Number       Type             X           Y           Z
 ---------------------------------------------------------------------
      1         15           0        0.000000    0.000000    0.000000
      2          8           0        1.645600    0.000000    0.000000
      3          1           0       -0.340590    0.000000   -1.296410
      4          1           0       -0.361160   -1.155120    0.564640
      5          8           0       -0.512900    1.172280    0.780630
      6          1           0        2.176890    0.662860    0.276600
 ---------------------------------------------------------------------
                    Distance matrix (angstroms):
                    1          2          3          4          5
     1  P    0.000000
     2  O    1.645600   0.000000
     3  H    1.340403   2.371841   0.000000
     4  H    1.335499   2.383318   2.190487   0.000000
     5  O    1.498896   2.577352   2.391239   2.342321   0.000000
     6  H    2.292322   0.893398   3.041620   3.135238   2.783617
                    6
     6  H    0.000000
 Stoichiometry    H3O2P
 Framework group  C1[X(H3O2P)]
 Deg. of freedom    12
 Full point group                 C1      NOp   1
 Largest Abelian subgroup         C1      NOp   1
 Largest concise Abelian subgroup C1      NOp   1
                         Standard orientation:                         
 ---------------------------------------------------------------------
 Center     Atomic      Atomic             Coordinates (Angstroms)
 Number     Number       Type             X           Y           Z
 ---------------------------------------------------------------------
      1         15           0       -0.146127    0.414686    0.005197
      2          8           0        1.340240   -0.291007   -0.021449
      3          1           0       -0.134595    1.191964    1.097161
      4          1           0       -0.205326    1.173617   -1.092107
      5          8           0       -1.213639   -0.637486   -0.001384
      6          1           0        1.519028   -1.157916    0.099644
 ---------------------------------------------------------------------
 Rotational constants (GHZ):          25.7018805           8.7350812           6.9557730
 Standard basis: def2TZVP (5D, 7F)
 There are   132 symmetry adapted cartesian basis functions of A   symmetry.
 There are   117 symmetry adapted basis functions of A   symmetry.
   117 basis functions,   195 primitive gaussians,   132 cartesian basis functions
    17 alpha electrons       17 beta electrons
       nuclear repulsion energy       123.4049942001 Hartrees.
 NAtoms=    6 NActive=    6 NUniq=    6 SFac= 1.00D+00 NAtFMM=   60 NAOKFM=F Big=F
 Integral buffers will be    131072 words long.
 Raffenetti 2 integral format.
 Two-electron integral symmetry is turned on.
 ------------------------------------------------------------------------------
 Polarizable Continuum Model (PCM)
 =================================
 Model                : C-PCM.
 Atomic radii         : UFF (Universal Force Field).
 Polarization charges : Total charges.
 Charge compensation  : None.
 Solution method      : On-the-fly selection.
 Cavity type          : Scaled VdW (van der Waals Surface) (Alpha=1.100).
 Cavity algorithm     : GePol (No added spheres)
                        Default sphere list used, NSphG=    6.
                        Lebedev-Laikov grids with approx.  5.0 points / Ang**2.
                        Smoothing algorithm: York/Karplus (Gamma=1.0000).
                        Polarization charges: spherical gaussians, with
                                              point-specific exponents (IZeta= 3).
                        Self-potential: point-specific (ISelfS= 7).
                        Self-field    : sphere-specific E.n sum rule (ISelfD= 2).
 Solvent              : Water, Eps=  78.355300 Eps(inf)=   1.777849
 ------------------------------------------------------------------------------
 Spheres list:
 ISph  on   Nord     Re0    Alpha      Xe            Ye            Ze
    1   P      1    2.0735  1.100     -0.146127      0.414686      0.005197
    2   O      2    1.7500  1.100      1.340240     -0.291007     -0.021449
    3   H      3    1.4430  1.100     -0.134595      1.191964      1.097161
    4   H      4    1.4430  1.100     -0.205326      1.173617     -1.092107
    5   O      5    1.7500  1.100     -1.213639     -0.637486     -0.001384
    6   H      6    1.4430  1.100      1.519028     -1.157916      0.099644
 ------------------------------------------------------------------------------
 One-electron integrals computed using PRISM.
   1 Symmetry operations used in ECPInt.
 ECPInt:  NShTT=    1128 NPrTT=    3744 LenC2=    1123 LenP2D=    3215.
 LDataN:  DoStor=T MaxTD1= 6 Len=  172
 NBasis=   117 RedAO= T EigKep=  2.13D-03  NBF=   117
 NBsUse=   117 1.00D-06 EigRej= -1.00D+00 NBFU=   117
 ExpMin= 9.04D-02 ExpMax= 5.24D+04 ExpMxC= 1.79D+03 IAcc=3 IRadAn=         5 AccDes= 0.00D+00
 Harris functional with IExCor= 2002 and IRadAn=       5 diagonalized for initial guess.
 HarFok:  IExCor= 2002 AccDes= 0.00D+00 IRadAn=         5 IDoV= 1 UseB2=F ITyADJ=14
 ICtDFT=  3500011 ScaDFX=  1.000000  1.000000  1.000000  1.000000
 FoFCou: FMM=F IPFlag=           0 FMFlag=      100000 FMFlg1=           0
         NFxFlg=           0 DoJE=T BraDBF=F KetDBF=T FulRan=T
         wScrn=  0.000000 ICntrl=       500 IOpCl=  0 I1Cent=   200000004 NGrid=           0
         NMat0=    1 NMatS0=      1 NMatT0=    0 NMatD0=    1 NMtDS0=    0 NMtDT0=    0
 Petite list used in FoFCou.
 Keep J ints in memory in canonical form, NReq=27663592.
 Requested convergence on RMS density matrix=1.00D-08 within 128 cycles.
 Requested convergence on MAX density matrix=1.00D-06.
 Requested convergence on             energy=1.00D-06.
 No special actions if energy rises.
 Inv3:  Mode=1 IEnd=     1783323.
 Iteration    1 A*A^-1 deviation from unit magnitude is 3.11D-15 for    764.
 Iteration    1 A*A^-1 deviation from orthogonality  is 1.81D-15 for    765    285.
 Iteration    1 A^-1*A deviation from unit magnitude is 3.00D-15 for    747.
 Iteration    1 A^-1*A deviation from orthogonality  is 1.16D-15 for    601    479.
 Error on total polarization charges =  0.00785
 SCF Done:  E(RO-LYP) =  -493.680492208     A.U. after   11 cycles
            NFock= 11  Conv=0.93D-08     -V/T= 2.0015

 **********************************************************************

            Population analysis using the SCF density.

 **********************************************************************

 Orbital symmetries:
       Occupied  (A) (A) (A) (A) (A) (A) (A) (A) (A) (A) (A) (A)
                 (A) (A) (A) (A) (A)
       Virtual   (A) (A) (A) (A) (A) (A) (A) (A) (A) (A) (A) (A)
                 (A) (A) (A) (A) (A) (A) (A) (A) (A) (A) (A) (A)
                 (A) (A) (A) (A) (A) (A) (A) (A) (A) (A) (A) (A)
                 (A) (A) (A) (A) (A) (A) (A) (A) (A) (A) (A) (A)
                 (A) (A) (A) (A) (A) (A) (A) (A) (A) (A) (A) (A)
                 (A) (A) (A) (A) (A) (A) (A) (A) (A) (A) (A) (A)
                 (A) (A) (A) (A) (A) (A) (A) (A) (A) (A) (A) (A)
                 (A) (A) (A) (A) (A) (A) (A) (A) (A) (A) (A) (A)
                 (A) (A) (A) (A)
 The electronic state is 1-A.
 Alpha  occ. eigenvalues --  -76.37645 -18.78145 -18.72050  -6.40710  -4.61826
 Alpha  occ. eigenvalues --   -4.61443  -4.61409  -0.96945  -0.87872  -0.61042
 Alpha  occ. eigenvalues --   -0.47977  -0.42567  -0.37423  -0.32196  -0.29401
 Alpha  occ. eigenvalues --   -0.25203  -0.24457
 Alpha virt. eigenvalues --   -0.01565   0.00485   0.03232   0.05437   0.08625
 Alpha virt. eigenvalues --    0.16801   0.20033   0.22197   0.24322   0.27253
 Alpha virt. eigenvalues --    0.29978   0.31884   0.37310   0.40314   0.43929
 Alpha virt. eigenvalues --    0.44407   0.47963   0.51077   0.53266   0.58567
 Alpha virt. eigenvalues --    0.60924   0.62773   0.63860   0.72492   0.76764
 Alpha virt. eigenvalues --    1.03019   1.05888   1.08120   1.10729   1.15307
 Alpha virt. eigenvalues --    1.18520   1.21791   1.24172   1.29250   1.32574
 Alpha virt. eigenvalues --    1.36434   1.37384   1.45376   1.51298   1.53907
 Alpha virt. eigenvalues --    1.56668   1.60662   1.69880   1.77367   1.81713
 Alpha virt. eigenvalues --    1.84790   1.87637   1.95003   1.98908   2.05251
 Alpha virt. eigenvalues --    2.07177   2.11649   2.16900   2.18020   2.22603
 Alpha virt. eigenvalues --    2.24440   2.41668   2.48855   2.53268   2.59551
 Alpha virt. eigenvalues --    2.63252   2.72733   2.79468   2.80424   2.82196
 Alpha virt. eigenvalues --    2.84660   2.85672   3.31351   3.62285   3.82891
 Alpha virt. eigenvalues --    4.96718   4.97322   5.02825   5.03376   5.08480
 Alpha virt. eigenvalues --    5.10343   5.14240   5.15938   5.23183   5.25153
 Alpha virt. eigenvalues --    5.36126   5.37569   5.46523   6.15026   6.19806
 Alpha virt. eigenvalues --    6.22394   6.25025   6.41391   6.42873   6.52360
 Alpha virt. eigenvalues --    6.57991   6.59879   6.73448   6.93585   7.20823
 Alpha virt. eigenvalues --    7.48840   7.79828  15.75214  43.07393  43.09623
          Condensed to atoms (all electrons):
               1          2          3          4          5          6
     1  P   12.571196   0.403190   0.357356   0.359967   0.713498  -0.017732
     2  O    0.403190   7.878887  -0.030910  -0.026822  -0.069251   0.315020
     3  H    0.357356  -0.030910   0.712991  -0.061989  -0.037889   0.002079
     4  H    0.359967  -0.026822  -0.061989   0.704177  -0.039632   0.003020
     5  O    0.713498  -0.069251  -0.037889  -0.039632   8.010976   0.003521
     6  H   -0.017732   0.315020   0.002079   0.003020   0.003521   0.374920
 Mulliken charges:
               1
     1  P    0.612526
     2  O   -0.470114
     3  H    0.058361
     4  H    0.061280
     5  O   -0.581223
     6  H    0.319171
 Sum of Mulliken charges =  -0.00000
 Mulliken charges with hydrogens summed into heavy atoms:
               1
     1  P    0.732166
     2  O   -0.150943
     5  O   -0.581223
 Electronic spatial extent (au):  <R**2>=            204.6953
 Charge=             -0.0000 electrons
 Dipole moment (field-independent basis, Debye):
    X=              2.5717    Y=              2.1362    Z=              0.2796  Tot=              3.3549
 Quadrupole moment (field-independent basis, Debye-Ang):
   XX=            -29.3133   YY=            -21.2612   ZZ=            -23.4992
   XY=             -5.5372   XZ=              0.4733   YZ=             -0.3293
 Traceless Quadrupole moment (field-independent basis, Debye-Ang):
   XX=             -4.6221   YY=              3.4300   ZZ=              1.1921
   XY=             -5.5372   XZ=              0.4733   YZ=             -0.3293
 Octapole moment (field-independent basis, Debye-Ang**2):
  XXX=              8.0305  YYY=             -2.3318  ZZZ=              0.1159  XYY=              6.6155
  XXY=             -1.6284  XXZ=              0.6458  XZZ=              0.5612  YZZ=              0.6682
  YYZ=              0.3630  XYZ=             -0.4747
 Hexadecapole moment (field-independent basis, Debye-Ang**3):
 XXXX=           -154.8325 YYYY=            -63.2360 ZZZZ=            -34.2674 XXXY=            -14.3934
 XXXZ=              1.2348 YYYX=             -9.8302 YYYZ=             -0.5520 ZZZX=              0.3383
 ZZZY=             -0.2260 XXYY=            -29.7616 XXZZ=            -31.3625 YYZZ=            -16.6270
 XXYZ=             -0.8160 YYXZ=              0.6556 ZZXY=             -1.3566
 N-N= 1.234049942001D+02 E-N=-1.419628969137D+03  KE= 4.929595002475D+02
 1\1\GINC-NODE85\SP\ROLYP\def2TZVP\H3O2P1\YANZ\22-Sep-2023\0\\# scrf=(c
 pcm,solvent=water) def2tzvp olyp\\tmpdir/M2_conf_0_16.gjf\\0,1\P,0,0.,
 0.,0.\O,0,1.6456,0.,0.\H,0,-0.34059,0.,-1.29641\H,0,-0.36116,-1.15512,
 0.56464\O,0,-0.5129,1.17228,0.78063\H,0,2.17689,0.66286,0.2766\\Versio
 n=ES64L-G16RevA.03\State=1-A\HF=-493.6804922\RMSD=9.276e-09\Dipole=0.5
 516904,-0.9351875,-0.7504994\Quadrupole=0.8411329,-0.8183005,-0.022832
 4,4.3538717,2.3295843,-1.2680979\PG=C01 [X(H3O2P1)]\\@


 A successful marriage requires falling in love
 many times, always with the same person.
                           -- Mignon McLaughlin
 Job cpu time:       0 days  0 hours  0 minutes 38.2 seconds.
 Elapsed time:       0 days  0 hours  0 minutes 10.0 seconds.
 File lengths (MBytes):  RWF=     17 Int=      0 D2E=      0 Chk=      2 Scr=      1
 Normal termination of Gaussian 16 at Fri Sep 22 16:54:03 2023.
