 Entering Gaussian System, Link 0=g16
 Initial command:
 /share/apps/gaussian/g16/l1.exe "/tmp/55608.mgr/Gau-87955.inp" -scrdir="/tmp/55608.mgr/"
 Entering Link 1 = /share/apps/gaussian/g16/l1.exe PID=     87956.
  
 Copyright (c) 1988,1990,1992,1993,1995,1998,2003,2009,2016,
            Gaussian, Inc.  All Rights Reserved.
  
 This is part of the Gaussian(R) 16 program.  It is based on
 the Gaussian(R) 09 system (copyright 2009, Gaussian, Inc.),
 the Gaussian(R) 03 system (copyright 2003, Gaussian, Inc.),
 the Gaussian(R) 98 system (copyright 1998, Gaussian, Inc.),
 the Gaussian(R) 94 system (copyright 1995, Gaussian, Inc.),
 the Gaussian 92(TM) system (copyright 1992, Gaussian, Inc.),
 the Gaussian 90(TM) system (copyright 1990, Gaussian, Inc.),
 the Gaussian 88(TM) system (copyright 1988, Gaussian, Inc.),
 the Gaussian 86(TM) system (copyright 1986, Carnegie Mellon
 University), and the Gaussian 82(TM) system (copyright 1983,
 Carnegie Mellon University). Gaussian is a federally registered
 trademark of Gaussian, Inc.
  
 This software contains proprietary and confidential information,
 including trade secrets, belonging to Gaussian, Inc.
  
 This software is provided under written license and may be
 used, copied, transmitted, or stored only in accord with that
 written license.
  
 The following legend is applicable only to US Government
 contracts under FAR:
  
                    RESTRICTED RIGHTS LEGEND
  
 Use, reproduction and disclosure by the US Government is
 subject to restrictions as set forth in subparagraphs (a)
 and (c) of the Commercial Computer Software - Restricted
 Rights clause in FAR 52.227-19.
  
 Gaussian, Inc.
 340 Quinnipiac St., Bldg. 40, Wallingford CT 06492
  
  
 ---------------------------------------------------------------
 Warning -- This program may not be used in any manner that
 competes with the business of Gaussian, Inc. or will provide
 assistance to any competitor of Gaussian, Inc.  The licensee
 of this program is prohibited from giving any competitor of
 Gaussian, Inc. access to this program.  By using this program,
 the user acknowledges that Gaussian, Inc. is engaged in the
 business of creating and licensing software in the field of
 computational chemistry and represents and warrants to the
 licensee that it is not a competitor of Gaussian, Inc. and that
 it will not use this program in any manner prohibited above.
 ---------------------------------------------------------------
  

 Cite this work as:
 Gaussian 16, Revision A.03,
 M. J. Frisch, G. W. Trucks, H. B. Schlegel, G. E. Scuseria, 
 M. A. Robb, J. R. Cheeseman, G. Scalmani, V. Barone, 
 G. A. Petersson, H. Nakatsuji, X. Li, M. Caricato, A. V. Marenich, 
 J. Bloino, B. G. Janesko, R. Gomperts, B. Mennucci, H. P. Hratchian, 
 J. V. Ortiz, A. F. Izmaylov, J. L. Sonnenberg, D. Williams-Young, 
 F. Ding, F. Lipparini, F. Egidi, J. Goings, B. Peng, A. Petrone, 
 T. Henderson, D. Ranasinghe, V. G. Zakrzewski, J. Gao, N. Rega, 
 G. Zheng, W. Liang, M. Hada, M. Ehara, K. Toyota, R. Fukuda, 
 J. Hasegawa, M. Ishida, T. Nakajima, Y. Honda, O. Kitao, H. Nakai, 
 T. Vreven, K. Throssell, J. A. Montgomery, Jr., J. E. Peralta, 
 F. Ogliaro, M. J. Bearpark, J. J. Heyd, E. N. Brothers, K. N. Kudin, 
 V. N. Staroverov, T. A. Keith, R. Kobayashi, J. Normand, 
 K. Raghavachari, A. P. Rendell, J. C. Burant, S. S. Iyengar, 
 J. Tomasi, M. Cossi, J. M. Millam, M. Klene, C. Adamo, R. Cammi, 
 J. W. Ochterski, R. L. Martin, K. Morokuma, O. Farkas, 
 J. B. Foresman, and D. J. Fox, Gaussian, Inc., Wallingford CT, 2016.
 
 ******************************************
 Gaussian 16:  ES64L-G16RevA.03 25-Dec-2016
                22-Sep-2023 
 ******************************************
 %nprocshared=4
 Will use up to    4 processors via shared memory.
 %mem=4GB
 -----------------------------------------
 # scrf=(cpcm,solvent=water) def2tzvp olyp
 -----------------------------------------
 1/38=1,172=1/1;
 2/12=2,17=6,18=5,40=1/2;
 3/5=44,7=101,11=2,25=1,30=1,70=2101,72=1,74=2002/1,2,3;
 4//1;
 5/5=2,38=5,53=1/2;
 6/7=2,8=2,9=2,10=2,28=1/1;
 99/5=1,9=1/99;
 ----------------------
 tmpdir/M2_conf_0_2.gjf
 ----------------------
 Symbolic Z-matrix:
 Charge =  0 Multiplicity = 1
 P                     0.        0.        0. 
 O                     1.5844    0.        0. 
 O                    -0.64897   0.       -1.33235 
 H                    -0.35242   0.85767   0.91685 
 H                    -0.24614  -1.32611   0.60686 
 H                     2.10301  -0.40581  -0.75177 
 
                          Input orientation:                          
 ---------------------------------------------------------------------
 Center     Atomic      Atomic             Coordinates (Angstroms)
 Number     Number       Type             X           Y           Z
 ---------------------------------------------------------------------
      1         15           0        0.000000    0.000000    0.000000
      2          8           0        1.584400    0.000000    0.000000
      3          8           0       -0.648970    0.000000   -1.332350
      4          1           0       -0.352420    0.857670    0.916850
      5          1           0       -0.246140   -1.326110    0.606860
      6          1           0        2.103010   -0.405810   -0.751770
 ---------------------------------------------------------------------
                    Distance matrix (angstroms):
                    1          2          3          4          5
     1  P    0.000000
     2  O    1.584400   0.000000
     3  O    1.481998   2.600596   0.000000
     4  H    1.303998   2.308134   2.425374   0.000000
     5  H    1.478997   2.340454   2.383564   2.208231   0.000000
     6  H    2.269910   0.999398   2.841681   3.226424   2.865542
                    6
     6  H    0.000000
 Stoichiometry    H3O2P
 Framework group  C1[X(H3O2P)]
 Deg. of freedom    12
 Full point group                 C1      NOp   1
 Largest Abelian subgroup         C1      NOp   1
 Largest concise Abelian subgroup C1      NOp   1
                         Standard orientation:                         
 ---------------------------------------------------------------------
 Center     Atomic      Atomic             Coordinates (Angstroms)
 Number     Number       Type             X           Y           Z
 ---------------------------------------------------------------------
      1         15           0       -0.117540    0.375788   -0.008282
      2          8           0        1.318774   -0.290733   -0.063726
      3          8           0       -1.267653   -0.558741   -0.022937
      4          1           0       -0.067505    1.389463   -0.827043
      5          1           0       -0.058373    0.976061    1.342127
      6          1           0        1.480004   -1.206550    0.302445
 ---------------------------------------------------------------------
 Rotational constants (GHZ):          28.6203257           8.5839608           7.0957993
 Standard basis: def2TZVP (5D, 7F)
 There are   132 symmetry adapted cartesian basis functions of A   symmetry.
 There are   117 symmetry adapted basis functions of A   symmetry.
   117 basis functions,   195 primitive gaussians,   132 cartesian basis functions
    17 alpha electrons       17 beta electrons
       nuclear repulsion energy       124.3799192824 Hartrees.
 NAtoms=    6 NActive=    6 NUniq=    6 SFac= 1.00D+00 NAtFMM=   60 NAOKFM=F Big=F
 Integral buffers will be    131072 words long.
 Raffenetti 2 integral format.
 Two-electron integral symmetry is turned on.
 ------------------------------------------------------------------------------
 Polarizable Continuum Model (PCM)
 =================================
 Model                : C-PCM.
 Atomic radii         : UFF (Universal Force Field).
 Polarization charges : Total charges.
 Charge compensation  : None.
 Solution method      : On-the-fly selection.
 Cavity type          : Scaled VdW (van der Waals Surface) (Alpha=1.100).
 Cavity algorithm     : GePol (No added spheres)
                        Default sphere list used, NSphG=    6.
                        Lebedev-Laikov grids with approx.  5.0 points / Ang**2.
                        Smoothing algorithm: York/Karplus (Gamma=1.0000).
                        Polarization charges: spherical gaussians, with
                                              point-specific exponents (IZeta= 3).
                        Self-potential: point-specific (ISelfS= 7).
                        Self-field    : sphere-specific E.n sum rule (ISelfD= 2).
 Solvent              : Water, Eps=  78.355300 Eps(inf)=   1.777849
 ------------------------------------------------------------------------------
 Spheres list:
 ISph  on   Nord     Re0    Alpha      Xe            Ye            Ze
    1   P      1    2.0735  1.100     -0.117540      0.375788     -0.008282
    2   O      2    1.7500  1.100      1.318774     -0.290733     -0.063726
    3   O      3    1.7500  1.100     -1.267653     -0.558741     -0.022937
    4   H      4    1.4430  1.100     -0.067505      1.389463     -0.827043
    5   H      5    1.4430  1.100     -0.058373      0.976061      1.342127
    6   H      6    1.4430  1.100      1.480004     -1.206550      0.302445
 ------------------------------------------------------------------------------
 One-electron integrals computed using PRISM.
   1 Symmetry operations used in ECPInt.
 ECPInt:  NShTT=    1128 NPrTT=    3744 LenC2=    1123 LenP2D=    3217.
 LDataN:  DoStor=T MaxTD1= 6 Len=  172
 NBasis=   117 RedAO= T EigKep=  1.94D-03  NBF=   117
 NBsUse=   117 1.00D-06 EigRej= -1.00D+00 NBFU=   117
 ExpMin= 9.04D-02 ExpMax= 5.24D+04 ExpMxC= 1.79D+03 IAcc=3 IRadAn=         5 AccDes= 0.00D+00
 Harris functional with IExCor= 2002 and IRadAn=       5 diagonalized for initial guess.
 HarFok:  IExCor= 2002 AccDes= 0.00D+00 IRadAn=         5 IDoV= 1 UseB2=F ITyADJ=14
 ICtDFT=  3500011 ScaDFX=  1.000000  1.000000  1.000000  1.000000
 FoFCou: FMM=F IPFlag=           0 FMFlag=      100000 FMFlg1=           0
         NFxFlg=           0 DoJE=T BraDBF=F KetDBF=T FulRan=T
         wScrn=  0.000000 ICntrl=       500 IOpCl=  0 I1Cent=   200000004 NGrid=           0
         NMat0=    1 NMatS0=      1 NMatT0=    0 NMatD0=    1 NMtDS0=    0 NMtDT0=    0
 Petite list used in FoFCou.
 Keep J ints in memory in canonical form, NReq=27663592.
 Requested convergence on RMS density matrix=1.00D-08 within 128 cycles.
 Requested convergence on MAX density matrix=1.00D-06.
 Requested convergence on             energy=1.00D-06.
 No special actions if energy rises.
 Inv3:  Mode=1 IEnd=     1710075.
 Iteration    1 A*A^-1 deviation from unit magnitude is 3.33D-15 for    742.
 Iteration    1 A*A^-1 deviation from orthogonality  is 1.62D-15 for    656    126.
 Iteration    1 A^-1*A deviation from unit magnitude is 3.33D-15 for    742.
 Iteration    1 A^-1*A deviation from orthogonality  is 1.25D-15 for    749    291.
 Error on total polarization charges =  0.00852
 SCF Done:  E(RO-LYP) =  -493.686054953     A.U. after   11 cycles
            NFock= 11  Conv=0.83D-08     -V/T= 2.0018

 **********************************************************************

            Population analysis using the SCF density.

 **********************************************************************

 Orbital symmetries:
       Occupied  (A) (A) (A) (A) (A) (A) (A) (A) (A) (A) (A) (A)
                 (A) (A) (A) (A) (A)
       Virtual   (A) (A) (A) (A) (A) (A) (A) (A) (A) (A) (A) (A)
                 (A) (A) (A) (A) (A) (A) (A) (A) (A) (A) (A) (A)
                 (A) (A) (A) (A) (A) (A) (A) (A) (A) (A) (A) (A)
                 (A) (A) (A) (A) (A) (A) (A) (A) (A) (A) (A) (A)
                 (A) (A) (A) (A) (A) (A) (A) (A) (A) (A) (A) (A)
                 (A) (A) (A) (A) (A) (A) (A) (A) (A) (A) (A) (A)
                 (A) (A) (A) (A) (A) (A) (A) (A) (A) (A) (A) (A)
                 (A) (A) (A) (A) (A) (A) (A) (A) (A) (A) (A) (A)
                 (A) (A) (A) (A)
 The electronic state is 1-A.
 Alpha  occ. eigenvalues --  -76.37173 -18.80057 -18.72477  -6.40239  -4.61300
 Alpha  occ. eigenvalues --   -4.61043  -4.60931  -0.97414  -0.88553  -0.59798
 Alpha  occ. eigenvalues --   -0.46864  -0.41563  -0.38255  -0.33254  -0.29566
 Alpha  occ. eigenvalues --   -0.26182  -0.24245
 Alpha virt. eigenvalues --   -0.01500   0.00655   0.02805   0.04927   0.08764
 Alpha virt. eigenvalues --    0.16599   0.20769   0.22486   0.23996   0.27009
 Alpha virt. eigenvalues --    0.30921   0.31745   0.36101   0.38928   0.42606
 Alpha virt. eigenvalues --    0.43492   0.45762   0.50006   0.52363   0.56597
 Alpha virt. eigenvalues --    0.62447   0.64210   0.65246   0.74351   0.77466
 Alpha virt. eigenvalues --    1.03347   1.06540   1.07364   1.12855   1.15916
 Alpha virt. eigenvalues --    1.17416   1.20485   1.25415   1.29825   1.32004
 Alpha virt. eigenvalues --    1.35473   1.37666   1.46698   1.49870   1.55871
 Alpha virt. eigenvalues --    1.58426   1.64210   1.72326   1.77443   1.79839
 Alpha virt. eigenvalues --    1.81511   1.88843   1.93750   1.96465   2.00715
 Alpha virt. eigenvalues --    2.04774   2.10242   2.12171   2.16649   2.20767
 Alpha virt. eigenvalues --    2.28234   2.35209   2.43530   2.48301   2.61360
 Alpha virt. eigenvalues --    2.63155   2.67357   2.75140   2.78661   2.83414
 Alpha virt. eigenvalues --    2.87138   2.90036   3.30423   3.63846   3.73209
 Alpha virt. eigenvalues --    4.96937   4.98130   5.02348   5.04000   5.09042
 Alpha virt. eigenvalues --    5.10436   5.13410   5.16566   5.23005   5.23607
 Alpha virt. eigenvalues --    5.29730   5.39715   5.46344   5.94920   6.16285
 Alpha virt. eigenvalues --    6.19068   6.22061   6.34657   6.44988   6.53129
 Alpha virt. eigenvalues --    6.59047   6.61365   6.74845   6.83857   7.18974
 Alpha virt. eigenvalues --    7.48907   7.91745  15.82164  43.11888  43.13799
          Condensed to atoms (all electrons):
               1          2          3          4          5          6
     1  P   12.576950   0.417075   0.719815   0.345496   0.366242  -0.014893
     2  O    0.417075   7.878060  -0.062425  -0.022826  -0.041751   0.287733
     3  O    0.719815  -0.062425   7.983405  -0.030916  -0.049638   0.001119
     4  H    0.345496  -0.022826  -0.030916   0.693069  -0.061498   0.003138
     5  H    0.366242  -0.041751  -0.049638  -0.061498   0.793672   0.001927
     6  H   -0.014893   0.287733   0.001119   0.003138   0.001927   0.357645
 Mulliken charges:
               1
     1  P    0.589315
     2  O   -0.455866
     3  O   -0.561361
     4  H    0.073537
     5  H   -0.008955
     6  H    0.363331
 Sum of Mulliken charges =  -0.00000
 Mulliken charges with hydrogens summed into heavy atoms:
               1
     1  P    0.653896
     2  O   -0.092535
     3  O   -0.561361
 Electronic spatial extent (au):  <R**2>=            203.2833
 Charge=              0.0000 electrons
 Dipole moment (field-independent basis, Debye):
    X=              3.1154    Y=              1.2145    Z=              0.2188  Tot=              3.3509
 Quadrupole moment (field-independent basis, Debye-Ang):
   XX=            -29.2713   YY=            -21.1948   ZZ=            -24.0081
   XY=             -5.2483   XZ=              1.1628   YZ=             -1.8516
 Traceless Quadrupole moment (field-independent basis, Debye-Ang):
   XX=             -4.4466   YY=              3.6299   ZZ=              0.8166
   XY=             -5.2483   XZ=              1.1628   YZ=             -1.8516
 Octapole moment (field-independent basis, Debye-Ang**2):
  XXX=              9.2157  YYY=             -3.8230  ZZZ=             -1.3498  XYY=              6.6791
  XXY=             -2.1680  XXZ=              1.8346  XZZ=              1.1248  YZZ=             -0.5842
  YYZ=             -0.0414  XYZ=             -1.3253
 Hexadecapole moment (field-independent basis, Debye-Ang**3):
 XXXX=           -156.0325 YYYY=            -58.7512 ZZZZ=            -38.5795 XXXY=            -13.4047
 XXXZ=              3.0579 YYYX=             -9.7534 YYYZ=             -4.5187 ZZZX=              0.7074
 ZZZY=             -2.4585 XXYY=            -29.2100 XXZZ=            -31.6189 YYZZ=            -17.0920
 XXYZ=             -3.0236 YYXZ=              1.8982 ZZXY=             -1.3216
 N-N= 1.243799192824D+02 E-N=-1.421460194676D+03  KE= 4.928227066354D+02
 1\1\GINC-NODE85\SP\ROLYP\def2TZVP\H3O2P1\YANZ\22-Sep-2023\0\\# scrf=(c
 pcm,solvent=water) def2tzvp olyp\\tmpdir/M2_conf_0_2.gjf\\0,1\P,0,0.,0
 .,0.\O,0,1.5844,0.,0.\O,0,-0.64897,0.,-1.33235\H,0,-0.35242,0.85767,0.
 91685\H,0,-0.24614,-1.32611,0.60686\H,0,2.10301,-0.40581,-0.75177\\Ver
 sion=ES64L-G16RevA.03\State=1-A\HF=-493.686055\RMSD=8.269e-09\Dipole=0
 .9071075,-0.0912105,0.9522764\Quadrupole=0.6422478,0.7601428,-1.402390
 6,-1.4984329,-4.7378768,0.9935652\PG=C01 [X(H3O2P1)]\\@


 YE HAVE SOWN MUCH, AND BRING IN LITTLE.
 YE EAT, BUT YE HAVE NOT ENOUGH.
 YE DRINK, BUT YE ARE NOT FILLED WITH DRINK.
 YE CLOTHE YOU, BUT THERE IS NONE WARM.
 AND HE THAT EARNETH WAGES EARNETH WAGES TO PUT
 IT INTO A BAG WITH HOLES.
                                     HAGGAI I,6
 Job cpu time:       0 days  0 hours  0 minutes 41.5 seconds.
 Elapsed time:       0 days  0 hours  0 minutes 11.0 seconds.
 File lengths (MBytes):  RWF=     16 Int=      0 D2E=      0 Chk=      2 Scr=      1
 Normal termination of Gaussian 16 at Fri Sep 22 16:53:39 2023.
