 Entering Gaussian System, Link 0=g16
 Initial command:
 /share/apps/gaussian/g16/l1.exe "/tmp/55608.mgr/Gau-89382.inp" -scrdir="/tmp/55608.mgr/"
 Entering Link 1 = /share/apps/gaussian/g16/l1.exe PID=     89383.
  
 Copyright (c) 1988,1990,1992,1993,1995,1998,2003,2009,2016,
            Gaussian, Inc.  All Rights Reserved.
  
 This is part of the Gaussian(R) 16 program.  It is based on
 the Gaussian(R) 09 system (copyright 2009, Gaussian, Inc.),
 the Gaussian(R) 03 system (copyright 2003, Gaussian, Inc.),
 the Gaussian(R) 98 system (copyright 1998, Gaussian, Inc.),
 the Gaussian(R) 94 system (copyright 1995, Gaussian, Inc.),
 the Gaussian 92(TM) system (copyright 1992, Gaussian, Inc.),
 the Gaussian 90(TM) system (copyright 1990, Gaussian, Inc.),
 the Gaussian 88(TM) system (copyright 1988, Gaussian, Inc.),
 the Gaussian 86(TM) system (copyright 1986, Carnegie Mellon
 University), and the Gaussian 82(TM) system (copyright 1983,
 Carnegie Mellon University). Gaussian is a federally registered
 trademark of Gaussian, Inc.
  
 This software contains proprietary and confidential information,
 including trade secrets, belonging to Gaussian, Inc.
  
 This software is provided under written license and may be
 used, copied, transmitted, or stored only in accord with that
 written license.
  
 The following legend is applicable only to US Government
 contracts under FAR:
  
                    RESTRICTED RIGHTS LEGEND
  
 Use, reproduction and disclosure by the US Government is
 subject to restrictions as set forth in subparagraphs (a)
 and (c) of the Commercial Computer Software - Restricted
 Rights clause in FAR 52.227-19.
  
 Gaussian, Inc.
 340 Quinnipiac St., Bldg. 40, Wallingford CT 06492
  
  
 ---------------------------------------------------------------
 Warning -- This program may not be used in any manner that
 competes with the business of Gaussian, Inc. or will provide
 assistance to any competitor of Gaussian, Inc.  The licensee
 of this program is prohibited from giving any competitor of
 Gaussian, Inc. access to this program.  By using this program,
 the user acknowledges that Gaussian, Inc. is engaged in the
 business of creating and licensing software in the field of
 computational chemistry and represents and warrants to the
 licensee that it is not a competitor of Gaussian, Inc. and that
 it will not use this program in any manner prohibited above.
 ---------------------------------------------------------------
  

 Cite this work as:
 Gaussian 16, Revision A.03,
 M. J. Frisch, G. W. Trucks, H. B. Schlegel, G. E. Scuseria, 
 M. A. Robb, J. R. Cheeseman, G. Scalmani, V. Barone, 
 G. A. Petersson, H. Nakatsuji, X. Li, M. Caricato, A. V. Marenich, 
 J. Bloino, B. G. Janesko, R. Gomperts, B. Mennucci, H. P. Hratchian, 
 J. V. Ortiz, A. F. Izmaylov, J. L. Sonnenberg, D. Williams-Young, 
 F. Ding, F. Lipparini, F. Egidi, J. Goings, B. Peng, A. Petrone, 
 T. Henderson, D. Ranasinghe, V. G. Zakrzewski, J. Gao, N. Rega, 
 G. Zheng, W. Liang, M. Hada, M. Ehara, K. Toyota, R. Fukuda, 
 J. Hasegawa, M. Ishida, T. Nakajima, Y. Honda, O. Kitao, H. Nakai, 
 T. Vreven, K. Throssell, J. A. Montgomery, Jr., J. E. Peralta, 
 F. Ogliaro, M. J. Bearpark, J. J. Heyd, E. N. Brothers, K. N. Kudin, 
 V. N. Staroverov, T. A. Keith, R. Kobayashi, J. Normand, 
 K. Raghavachari, A. P. Rendell, J. C. Burant, S. S. Iyengar, 
 J. Tomasi, M. Cossi, J. M. Millam, M. Klene, C. Adamo, R. Cammi, 
 J. W. Ochterski, R. L. Martin, K. Morokuma, O. Farkas, 
 J. B. Foresman, and D. J. Fox, Gaussian, Inc., Wallingford CT, 2016.
 
 ******************************************
 Gaussian 16:  ES64L-G16RevA.03 25-Dec-2016
                22-Sep-2023 
 ******************************************
 %nprocshared=4
 Will use up to    4 processors via shared memory.
 %mem=4GB
 -----------------------------------------
 # scrf=(cpcm,solvent=water) def2tzvp olyp
 -----------------------------------------
 1/38=1,172=1/1;
 2/12=2,17=6,18=5,40=1/2;
 3/5=44,7=101,11=2,25=1,30=1,70=2101,72=1,74=2002/1,2,3;
 4//1;
 5/5=2,38=5,53=1/2;
 6/7=2,8=2,9=2,10=2,28=1/1;
 99/5=1,9=1/99;
 -----------------------
 tmpdir/M2_conf_0_50.gjf
 -----------------------
 Symbolic Z-matrix:
 Charge =  0 Multiplicity = 1
 H                     0.        0.        0. 
 C                     1.0894    0.        0. 
 H                     1.46762   0.        1.02302 
 H                     1.41171   1.0046   -0.56076 
 H                     1.46134  -0.87211  -0.54221 
 
                          Input orientation:                          
 ---------------------------------------------------------------------
 Center     Atomic      Atomic             Coordinates (Angstroms)
 Number     Number       Type             X           Y           Z
 ---------------------------------------------------------------------
      1          1           0        0.000000    0.000000    0.000000
      2          6           0        1.089400    0.000000    0.000000
      3          1           0        1.467620    0.000000    1.023020
      4          1           0        1.411710    1.004600   -0.560760
      5          1           0        1.461340   -0.872110   -0.542210
 ---------------------------------------------------------------------
                    Distance matrix (angstroms):
                    1          2          3          4          5
     1  H    0.000000
     2  C    1.089400   0.000000
     3  H    1.788988   1.090697   0.000000
     4  H    1.821153   1.194804   1.876354   0.000000
     5  H    1.786080   1.092203   1.791804   1.877458   0.000000
 Stoichiometry    CH4
 Framework group  C1[X(CH4)]
 Deg. of freedom     9
 Full point group                 C1      NOp   1
 Largest Abelian subgroup         C1      NOp   1
 Largest concise Abelian subgroup C1      NOp   1
                         Standard orientation:                         
 ---------------------------------------------------------------------
 Center     Atomic      Atomic             Coordinates (Angstroms)
 Number     Number       Type             X           Y           Z
 ---------------------------------------------------------------------
      1          1           0        0.004712   -0.117335    1.081460
      2          6           0        0.015478    0.000790   -0.001463
      3          1           0        0.511866    0.932558   -0.275374
      4          1           0       -1.131766    0.029371   -0.333988
      5          1           0        0.522321   -0.849331   -0.463319
 ---------------------------------------------------------------------
 Rotational constants (GHZ):         157.8250802         147.9354043         146.4644717
 Standard basis: def2TZVP (5D, 7F)
 There are    60 symmetry adapted cartesian basis functions of A   symmetry.
 There are    55 symmetry adapted basis functions of A   symmetry.
    55 basis functions,    83 primitive gaussians,    60 cartesian basis functions
     5 alpha electrons        5 beta electrons
       nuclear repulsion energy        13.1318291341 Hartrees.
 NAtoms=    5 NActive=    5 NUniq=    5 SFac= 1.00D+00 NAtFMM=   60 NAOKFM=F Big=F
 Integral buffers will be    131072 words long.
 Raffenetti 2 integral format.
 Two-electron integral symmetry is turned on.
 ------------------------------------------------------------------------------
 Polarizable Continuum Model (PCM)
 =================================
 Model                : C-PCM.
 Atomic radii         : UFF (Universal Force Field).
 Polarization charges : Total charges.
 Charge compensation  : None.
 Solution method      : On-the-fly selection.
 Cavity type          : Scaled VdW (van der Waals Surface) (Alpha=1.100).
 Cavity algorithm     : GePol (No added spheres)
                        Default sphere list used, NSphG=    5.
                        Lebedev-Laikov grids with approx.  5.0 points / Ang**2.
                        Smoothing algorithm: York/Karplus (Gamma=1.0000).
                        Polarization charges: spherical gaussians, with
                                              point-specific exponents (IZeta= 3).
                        Self-potential: point-specific (ISelfS= 7).
                        Self-field    : sphere-specific E.n sum rule (ISelfD= 2).
 Solvent              : Water, Eps=  78.355300 Eps(inf)=   1.777849
 ------------------------------------------------------------------------------
 Spheres list:
 ISph  on   Nord     Re0    Alpha      Xe            Ye            Ze
    1   H      1    1.4430  1.100      0.004712     -0.117335      1.081460
    2   C      2    1.9255  1.100      0.015478      0.000790     -0.001463
    3   H      3    1.4430  1.100      0.511866      0.932558     -0.275374
    4   H      4    1.4430  1.100     -1.131766      0.029371     -0.333988
    5   H      5    1.4430  1.100      0.522321     -0.849331     -0.463319
 ------------------------------------------------------------------------------
 One-electron integrals computed using PRISM.
   1 Symmetry operations used in ECPInt.
 ECPInt:  NShTT=     378 NPrTT=    1024 LenC2=     379 LenP2D=     987.
 LDataN:  DoStor=T MaxTD1= 6 Len=  172
 NBasis=    55 RedAO= T EigKep=  1.62D-03  NBF=    55
 NBsUse=    55 1.00D-06 EigRej= -1.00D+00 NBFU=    55
 ExpMin= 9.52D-02 ExpMax= 1.36D+04 ExpMxC= 4.63D+02 IAcc=3 IRadAn=         5 AccDes= 0.00D+00
 Harris functional with IExCor= 2002 and IRadAn=       5 diagonalized for initial guess.
 HarFok:  IExCor= 2002 AccDes= 0.00D+00 IRadAn=         5 IDoV= 1 UseB2=F ITyADJ=14
 ICtDFT=  3500011 ScaDFX=  1.000000  1.000000  1.000000  1.000000
 FoFCou: FMM=F IPFlag=           0 FMFlag=      100000 FMFlg1=           0
         NFxFlg=           0 DoJE=T BraDBF=F KetDBF=T FulRan=T
         wScrn=  0.000000 ICntrl=       500 IOpCl=  0 I1Cent=   200000004 NGrid=           0
         NMat0=    1 NMatS0=      1 NMatT0=    0 NMatD0=    1 NMtDS0=    0 NMtDT0=    0
 Petite list used in FoFCou.
 Keep J ints in memory in canonical form, NReq=4722199.
 Requested convergence on RMS density matrix=1.00D-08 within 128 cycles.
 Requested convergence on MAX density matrix=1.00D-06.
 Requested convergence on             energy=1.00D-06.
 No special actions if energy rises.
 Inv3:  Mode=1 IEnd=      750000.
 Iteration    1 A*A^-1 deviation from unit magnitude is 3.66D-15 for    228.
 Iteration    1 A*A^-1 deviation from orthogonality  is 1.79D-15 for    369    112.
 Iteration    1 A^-1*A deviation from unit magnitude is 3.44D-15 for    228.
 Iteration    1 A^-1*A deviation from orthogonality  is 9.54D-16 for    448    214.
 Error on total polarization charges =  0.00938
 SCF Done:  E(RO-LYP) =  -40.5045849003     A.U. after    8 cycles
            NFock=  8  Conv=0.65D-08     -V/T= 2.0070

 **********************************************************************

            Population analysis using the SCF density.

 **********************************************************************

 Orbital symmetries:
       Occupied  (A) (A) (A) (A) (A)
       Virtual   (A) (A) (A) (A) (A) (A) (A) (A) (A) (A) (A) (A)
                 (A) (A) (A) (A) (A) (A) (A) (A) (A) (A) (A) (A)
                 (A) (A) (A) (A) (A) (A) (A) (A) (A) (A) (A) (A)
                 (A) (A) (A) (A) (A) (A) (A) (A) (A) (A) (A) (A)
                 (A) (A)
 The electronic state is 1-A.
 Alpha  occ. eigenvalues --   -9.88930  -0.61986  -0.34615  -0.34498  -0.32663
 Alpha virt. eigenvalues --    0.02288   0.08642   0.10179   0.10266   0.17692
 Alpha virt. eigenvalues --    0.17719   0.18332   0.36509   0.39329   0.42875
 Alpha virt. eigenvalues --    0.43026   0.47034   0.55848   0.56049   0.89484
 Alpha virt. eigenvalues --    0.89525   0.89901   1.41059   1.42220   1.43227
 Alpha virt. eigenvalues --    1.44969   1.46283   1.46436   1.48012   1.88677
 Alpha virt. eigenvalues --    1.90351   1.91616   1.94712   2.13887   2.15738
 Alpha virt. eigenvalues --    2.17205   2.30861   2.35049   2.47624   2.49435
 Alpha virt. eigenvalues --    2.50523   2.86519   2.88113   2.91222   3.21260
 Alpha virt. eigenvalues --    3.24910   3.28866   3.37601   3.40131   3.42138
 Alpha virt. eigenvalues --    3.96699   4.09543   4.10484   4.35766  21.86244
          Condensed to atoms (all electrons):
               1          2          3          4          5
     1  H    0.542220   0.402066  -0.023232  -0.024159  -0.023553
     2  C    0.402066   4.907657   0.402033   0.379892   0.401676
     3  H   -0.023232   0.402033   0.538189  -0.019746  -0.024119
     4  H   -0.024159   0.379892  -0.019746   0.570447  -0.019619
     5  H   -0.023553   0.401676  -0.024119  -0.019619   0.539010
 Mulliken charges:
               1
     1  H    0.126658
     2  C   -0.493324
     3  H    0.126874
     4  H    0.113186
     5  H    0.126606
 Sum of Mulliken charges =  -0.00000
 Mulliken charges with hydrogens summed into heavy atoms:
               1
     2  C   -0.000000
 Electronic spatial extent (au):  <R**2>=             36.8025
 Charge=             -0.0000 electrons
 Dipole moment (field-independent basis, Debye):
    X=              0.0681    Y=             -0.0058    Z=              0.0519  Tot=              0.0859
 Quadrupole moment (field-independent basis, Debye-Ang):
   XX=             -8.4552   YY=             -8.4813   ZZ=             -8.5746
   XY=              0.0108   XZ=             -0.0980   YZ=              0.0018
 Traceless Quadrupole moment (field-independent basis, Debye-Ang):
   XX=              0.0485   YY=              0.0224   ZZ=             -0.0709
   XY=              0.0108   XZ=             -0.0980   YZ=              0.0018
 Octapole moment (field-independent basis, Debye-Ang**2):
  XXX=             -0.4759  YYY=              0.1418  ZZZ=              1.0004  XYY=              0.7763
  XXY=              0.0312  XXZ=             -0.3935  XZZ=              0.1522  YZZ=             -0.1929
  YYZ=             -0.3809  XYZ=              0.0659
 Hexadecapole moment (field-independent basis, Debye-Ang**3):
 XXXX=            -17.8950 YYYY=            -16.5192 ZZZZ=            -16.4242 XXXY=             -0.0206
 XXXZ=              0.2241 YYYX=              0.1434 YYYZ=              0.0780 ZZZX=             -0.2614
 ZZZY=             -0.1030 XXYY=             -5.8358 XXZZ=             -6.1189 YYZZ=             -5.7600
 XXYZ=              0.0368 YYXZ=             -0.4463 ZZXY=             -0.0688
 N-N= 1.313182913415D+01 E-N=-1.195127239574D+02  KE= 4.022440227437D+01
 1\1\GINC-NODE85\SP\ROLYP\def2TZVP\C1H4\YANZ\22-Sep-2023\0\\# scrf=(cpc
 m,solvent=water) def2tzvp olyp\\tmpdir/M2_conf_0_50.gjf\\0,1\H,0,0.,0.
 ,0.\C,0,1.0894,0.,0.\H,0,1.46762,0.,1.02302\H,0,1.41171,1.0046,-0.5607
 6\H,0,1.46134,-0.87211,-0.54221\\Version=ES64L-G16RevA.03\State=1-A\HF
 =-40.5045849\RMSD=6.474e-09\Dipole=-0.0202935,-0.0236975,0.0129541\Qua
 drupole=-0.0507344,0.0302981,0.0204363,-0.0619763,0.0411373,-0.0078351
 \PG=C01 [X(C1H4)]\\@


 AN AIRPLANE IS A COLLECTION OF SPARE PARTS
 FLYING IN CLOSE FORMATION.
 Job cpu time:       0 days  0 hours  0 minutes 11.9 seconds.
 Elapsed time:       0 days  0 hours  0 minutes  3.1 seconds.
 File lengths (MBytes):  RWF=     10 Int=      0 D2E=      0 Chk=      1 Scr=      1
 Normal termination of Gaussian 16 at Fri Sep 22 16:54:52 2023.
