 Entering Gaussian System, Link 0=g16
 Initial command:
 /share/apps/gaussian/g16/l1.exe "/tmp/55608.mgr/Gau-88627.inp" -scrdir="/tmp/55608.mgr/"
 Entering Link 1 = /share/apps/gaussian/g16/l1.exe PID=     88628.
  
 Copyright (c) 1988,1990,1992,1993,1995,1998,2003,2009,2016,
            Gaussian, Inc.  All Rights Reserved.
  
 This is part of the Gaussian(R) 16 program.  It is based on
 the Gaussian(R) 09 system (copyright 2009, Gaussian, Inc.),
 the Gaussian(R) 03 system (copyright 2003, Gaussian, Inc.),
 the Gaussian(R) 98 system (copyright 1998, Gaussian, Inc.),
 the Gaussian(R) 94 system (copyright 1995, Gaussian, Inc.),
 the Gaussian 92(TM) system (copyright 1992, Gaussian, Inc.),
 the Gaussian 90(TM) system (copyright 1990, Gaussian, Inc.),
 the Gaussian 88(TM) system (copyright 1988, Gaussian, Inc.),
 the Gaussian 86(TM) system (copyright 1986, Carnegie Mellon
 University), and the Gaussian 82(TM) system (copyright 1983,
 Carnegie Mellon University). Gaussian is a federally registered
 trademark of Gaussian, Inc.
  
 This software contains proprietary and confidential information,
 including trade secrets, belonging to Gaussian, Inc.
  
 This software is provided under written license and may be
 used, copied, transmitted, or stored only in accord with that
 written license.
  
 The following legend is applicable only to US Government
 contracts under FAR:
  
                    RESTRICTED RIGHTS LEGEND
  
 Use, reproduction and disclosure by the US Government is
 subject to restrictions as set forth in subparagraphs (a)
 and (c) of the Commercial Computer Software - Restricted
 Rights clause in FAR 52.227-19.
  
 Gaussian, Inc.
 340 Quinnipiac St., Bldg. 40, Wallingford CT 06492
  
  
 ---------------------------------------------------------------
 Warning -- This program may not be used in any manner that
 competes with the business of Gaussian, Inc. or will provide
 assistance to any competitor of Gaussian, Inc.  The licensee
 of this program is prohibited from giving any competitor of
 Gaussian, Inc. access to this program.  By using this program,
 the user acknowledges that Gaussian, Inc. is engaged in the
 business of creating and licensing software in the field of
 computational chemistry and represents and warrants to the
 licensee that it is not a competitor of Gaussian, Inc. and that
 it will not use this program in any manner prohibited above.
 ---------------------------------------------------------------
  

 Cite this work as:
 Gaussian 16, Revision A.03,
 M. J. Frisch, G. W. Trucks, H. B. Schlegel, G. E. Scuseria, 
 M. A. Robb, J. R. Cheeseman, G. Scalmani, V. Barone, 
 G. A. Petersson, H. Nakatsuji, X. Li, M. Caricato, A. V. Marenich, 
 J. Bloino, B. G. Janesko, R. Gomperts, B. Mennucci, H. P. Hratchian, 
 J. V. Ortiz, A. F. Izmaylov, J. L. Sonnenberg, D. Williams-Young, 
 F. Ding, F. Lipparini, F. Egidi, J. Goings, B. Peng, A. Petrone, 
 T. Henderson, D. Ranasinghe, V. G. Zakrzewski, J. Gao, N. Rega, 
 G. Zheng, W. Liang, M. Hada, M. Ehara, K. Toyota, R. Fukuda, 
 J. Hasegawa, M. Ishida, T. Nakajima, Y. Honda, O. Kitao, H. Nakai, 
 T. Vreven, K. Throssell, J. A. Montgomery, Jr., J. E. Peralta, 
 F. Ogliaro, M. J. Bearpark, J. J. Heyd, E. N. Brothers, K. N. Kudin, 
 V. N. Staroverov, T. A. Keith, R. Kobayashi, J. Normand, 
 K. Raghavachari, A. P. Rendell, J. C. Burant, S. S. Iyengar, 
 J. Tomasi, M. Cossi, J. M. Millam, M. Klene, C. Adamo, R. Cammi, 
 J. W. Ochterski, R. L. Martin, K. Morokuma, O. Farkas, 
 J. B. Foresman, and D. J. Fox, Gaussian, Inc., Wallingford CT, 2016.
 
 ******************************************
 Gaussian 16:  ES64L-G16RevA.03 25-Dec-2016
                22-Sep-2023 
 ******************************************
 %nprocshared=4
 Will use up to    4 processors via shared memory.
 %mem=4GB
 -----------------------------------------
 # scrf=(cpcm,solvent=water) def2tzvp olyp
 -----------------------------------------
 1/38=1,172=1/1;
 2/12=2,17=6,18=5,40=1/2;
 3/5=44,7=101,11=2,25=1,30=1,70=2101,72=1,74=2002/1,2,3;
 4//1;
 5/5=2,38=5,53=1/2;
 6/7=2,8=2,9=2,10=2,28=1/1;
 99/5=1,9=1/99;
 -----------------------
 tmpdir/M2_conf_0_30.gjf
 -----------------------
 Symbolic Z-matrix:
 Charge =  0 Multiplicity = 1
 P                     0.        0.        0. 
 O                     1.5672    0.        0. 
 H                    -0.43857   0.       -1.31763 
 O                    -0.51971  -1.19549   0.73662 
 H                    -0.35578   1.20136   0.47202 
 H                     1.99569   0.77336  -0.40361 
 
                          Input orientation:                          
 ---------------------------------------------------------------------
 Center     Atomic      Atomic             Coordinates (Angstroms)
 Number     Number       Type             X           Y           Z
 ---------------------------------------------------------------------
      1         15           0        0.000000    0.000000    0.000000
      2          8           0        1.567200    0.000000    0.000000
      3          1           0       -0.438570    0.000000   -1.317630
      4          8           0       -0.519710   -1.195490    0.736620
      5          1           0       -0.355780    1.201360    0.472020
      6          1           0        1.995690    0.773360   -0.403610
 ---------------------------------------------------------------------
                    Distance matrix (angstroms):
                    1          2          3          4          5
     1  P    0.000000
     2  O    1.567200   0.000000
     3  H    1.388702   2.399846   0.000000
     4  O    1.497299   2.515353   2.378176   0.000000
     5  H    1.338898   2.316014   2.157074   2.416977   0.000000
     6  H    2.178019   0.971900   2.712773   3.391715   2.545451
                    6
     6  H    0.000000
 Stoichiometry    H3O2P
 Framework group  C1[X(H3O2P)]
 Deg. of freedom    12
 Full point group                 C1      NOp   1
 Largest Abelian subgroup         C1      NOp   1
 Largest concise Abelian subgroup C1      NOp   1
                         Standard orientation:                         
 ---------------------------------------------------------------------
 Center     Atomic      Atomic             Coordinates (Angstroms)
 Number     Number       Type             X           Y           Z
 ---------------------------------------------------------------------
      1         15           0        0.091075    0.373573   -0.006216
      2          8           0       -1.216954   -0.489365    0.016433
      3          1           0        0.086838    1.205672    1.105577
      4          8           0        1.298188   -0.512306   -0.006585
      5          1           0       -0.048459    1.203892   -1.047249
      6          1           0       -2.054373    0.000210   -0.043864
 ---------------------------------------------------------------------
 Rotational constants (GHZ):          28.7818047           8.7978530           7.1873846
 Standard basis: def2TZVP (5D, 7F)
 There are   132 symmetry adapted cartesian basis functions of A   symmetry.
 There are   117 symmetry adapted basis functions of A   symmetry.
   117 basis functions,   195 primitive gaussians,   132 cartesian basis functions
    17 alpha electrons       17 beta electrons
       nuclear repulsion energy       125.0583860773 Hartrees.
 NAtoms=    6 NActive=    6 NUniq=    6 SFac= 1.00D+00 NAtFMM=   60 NAOKFM=F Big=F
 Integral buffers will be    131072 words long.
 Raffenetti 2 integral format.
 Two-electron integral symmetry is turned on.
 ------------------------------------------------------------------------------
 Polarizable Continuum Model (PCM)
 =================================
 Model                : C-PCM.
 Atomic radii         : UFF (Universal Force Field).
 Polarization charges : Total charges.
 Charge compensation  : None.
 Solution method      : On-the-fly selection.
 Cavity type          : Scaled VdW (van der Waals Surface) (Alpha=1.100).
 Cavity algorithm     : GePol (No added spheres)
                        Default sphere list used, NSphG=    6.
                        Lebedev-Laikov grids with approx.  5.0 points / Ang**2.
                        Smoothing algorithm: York/Karplus (Gamma=1.0000).
                        Polarization charges: spherical gaussians, with
                                              point-specific exponents (IZeta= 3).
                        Self-potential: point-specific (ISelfS= 7).
                        Self-field    : sphere-specific E.n sum rule (ISelfD= 2).
 Solvent              : Water, Eps=  78.355300 Eps(inf)=   1.777849
 ------------------------------------------------------------------------------
 Spheres list:
 ISph  on   Nord     Re0    Alpha      Xe            Ye            Ze
    1   P      1    2.0735  1.100      0.091075      0.373573     -0.006216
    2   O      2    1.7500  1.100     -1.216954     -0.489365      0.016433
    3   H      3    1.4430  1.100      0.086838      1.205672      1.105577
    4   O      4    1.7500  1.100      1.298188     -0.512306     -0.006585
    5   H      5    1.4430  1.100     -0.048459      1.203892     -1.047249
    6   H      6    1.4430  1.100     -2.054373      0.000210     -0.043864
 ------------------------------------------------------------------------------
 One-electron integrals computed using PRISM.
   1 Symmetry operations used in ECPInt.
 ECPInt:  NShTT=    1128 NPrTT=    3744 LenC2=    1124 LenP2D=    3219.
 LDataN:  DoStor=T MaxTD1= 6 Len=  172
 NBasis=   117 RedAO= T EigKep=  2.10D-03  NBF=   117
 NBsUse=   117 1.00D-06 EigRej= -1.00D+00 NBFU=   117
 ExpMin= 9.04D-02 ExpMax= 5.24D+04 ExpMxC= 1.79D+03 IAcc=3 IRadAn=         5 AccDes= 0.00D+00
 Harris functional with IExCor= 2002 and IRadAn=       5 diagonalized for initial guess.
 HarFok:  IExCor= 2002 AccDes= 0.00D+00 IRadAn=         5 IDoV= 1 UseB2=F ITyADJ=14
 ICtDFT=  3500011 ScaDFX=  1.000000  1.000000  1.000000  1.000000
 FoFCou: FMM=F IPFlag=           0 FMFlag=      100000 FMFlg1=           0
         NFxFlg=           0 DoJE=T BraDBF=F KetDBF=T FulRan=T
         wScrn=  0.000000 ICntrl=       500 IOpCl=  0 I1Cent=   200000004 NGrid=           0
         NMat0=    1 NMatS0=      1 NMatT0=    0 NMatD0=    1 NMtDS0=    0 NMtDT0=    0
 Petite list used in FoFCou.
 Keep J ints in memory in canonical form, NReq=27663592.
 Requested convergence on RMS density matrix=1.00D-08 within 128 cycles.
 Requested convergence on MAX density matrix=1.00D-06.
 Requested convergence on             energy=1.00D-06.
 No special actions if energy rises.
 Inv3:  Mode=1 IEnd=     1705548.
 Iteration    1 A*A^-1 deviation from unit magnitude is 2.44D-15 for    485.
 Iteration    1 A*A^-1 deviation from orthogonality  is 1.11D-15 for    744     31.
 Iteration    1 A^-1*A deviation from unit magnitude is 2.22D-15 for    379.
 Iteration    1 A^-1*A deviation from orthogonality  is 1.06D-15 for    652    256.
 Error on total polarization charges =  0.00808
 SCF Done:  E(RO-LYP) =  -493.694505751     A.U. after   11 cycles
            NFock= 11  Conv=0.86D-08     -V/T= 2.0016

 **********************************************************************

            Population analysis using the SCF density.

 **********************************************************************

 Orbital symmetries:
       Occupied  (A) (A) (A) (A) (A) (A) (A) (A) (A) (A) (A) (A)
                 (A) (A) (A) (A) (A)
       Virtual   (A) (A) (A) (A) (A) (A) (A) (A) (A) (A) (A) (A)
                 (A) (A) (A) (A) (A) (A) (A) (A) (A) (A) (A) (A)
                 (A) (A) (A) (A) (A) (A) (A) (A) (A) (A) (A) (A)
                 (A) (A) (A) (A) (A) (A) (A) (A) (A) (A) (A) (A)
                 (A) (A) (A) (A) (A) (A) (A) (A) (A) (A) (A) (A)
                 (A) (A) (A) (A) (A) (A) (A) (A) (A) (A) (A) (A)
                 (A) (A) (A) (A) (A) (A) (A) (A) (A) (A) (A) (A)
                 (A) (A) (A) (A) (A) (A) (A) (A) (A) (A) (A) (A)
                 (A) (A) (A) (A)
 The electronic state is 1-A.
 Alpha  occ. eigenvalues --  -76.36757 -18.80476 -18.72201  -6.39912  -4.60970
 Alpha  occ. eigenvalues --   -4.60694  -4.60611  -0.98878  -0.87950  -0.58616
 Alpha  occ. eigenvalues --   -0.50141  -0.41883  -0.37022  -0.33228  -0.30359
 Alpha  occ. eigenvalues --   -0.26095  -0.24323
 Alpha virt. eigenvalues --   -0.00819   0.00822   0.03592   0.04850   0.08539
 Alpha virt. eigenvalues --    0.16953   0.20143   0.22318   0.27285   0.28134
 Alpha virt. eigenvalues --    0.29100   0.30965   0.35099   0.39752   0.43177
 Alpha virt. eigenvalues --    0.44787   0.46139   0.48187   0.52563   0.57689
 Alpha virt. eigenvalues --    0.59905   0.63342   0.64550   0.76175   0.77402
 Alpha virt. eigenvalues --    1.01709   1.06450   1.09903   1.09984   1.12015
 Alpha virt. eigenvalues --    1.17329   1.22820   1.25230   1.29310   1.33427
 Alpha virt. eigenvalues --    1.37580   1.38997   1.49908   1.51124   1.55996
 Alpha virt. eigenvalues --    1.57427   1.60030   1.74812   1.81230   1.84426
 Alpha virt. eigenvalues --    1.85156   1.86105   1.89213   1.98855   2.02945
 Alpha virt. eigenvalues --    2.06345   2.12585   2.15720   2.17610   2.21878
 Alpha virt. eigenvalues --    2.24654   2.38347   2.44934   2.46874   2.59067
 Alpha virt. eigenvalues --    2.65990   2.67264   2.75595   2.76781   2.79769
 Alpha virt. eigenvalues --    2.84267   2.86382   3.36002   3.63217   3.75240
 Alpha virt. eigenvalues --    4.96524   4.99428   5.02744   5.04874   5.07571
 Alpha virt. eigenvalues --    5.11042   5.16469   5.18952   5.23831   5.25729
 Alpha virt. eigenvalues --    5.27270   5.34437   5.45724   6.00439   6.17106
 Alpha virt. eigenvalues --    6.20672   6.25255   6.38294   6.42058   6.52379
 Alpha virt. eigenvalues --    6.56645   6.62983   6.73721   6.86613   7.20021
 Alpha virt. eigenvalues --    7.51444   7.88393  15.90542  43.06298  43.16269
          Condensed to atoms (all electrons):
               1          2          3          4          5          6
     1  P   12.582399   0.384294   0.365042   0.728516   0.359777  -0.000370
     2  O    0.384294   7.880325  -0.034730  -0.054117  -0.037119   0.275377
     3  H    0.365042  -0.034730   0.745246  -0.043732  -0.061473   0.000698
     4  O    0.728516  -0.054117  -0.043732   7.988937  -0.037955   0.003241
     5  H    0.359777  -0.037119  -0.061473  -0.037955   0.736505  -0.000089
     6  H   -0.000370   0.275377   0.000698   0.003241  -0.000089   0.371871
 Mulliken charges:
               1
     1  P    0.580343
     2  O   -0.414029
     3  H    0.028948
     4  O   -0.584889
     5  H    0.040354
     6  H    0.349273
 Sum of Mulliken charges =  -0.00000
 Mulliken charges with hydrogens summed into heavy atoms:
               1
     1  P    0.649645
     2  O   -0.064756
     4  O   -0.584889
 Electronic spatial extent (au):  <R**2>=            200.7847
 Charge=             -0.0000 electrons
 Dipole moment (field-independent basis, Debye):
    X=             -4.8709    Y=              3.9337    Z=             -0.2170  Tot=              6.2648
 Quadrupole moment (field-independent basis, Debye-Ang):
   XX=            -24.1757   YY=            -24.9395   ZZ=            -23.9158
   XY=              0.5184   XZ=              0.3290   YZ=             -0.1259
 Traceless Quadrupole moment (field-independent basis, Debye-Ang):
   XX=              0.1680   YY=             -0.5958   ZZ=              0.4278
   XY=              0.5184   XZ=              0.3290   YZ=             -0.1259
 Octapole moment (field-independent basis, Debye-Ang**2):
  XXX=            -25.2123  YYY=              1.3097  ZZZ=             -0.3366  XYY=             -1.2153
  XXY=              4.8961  XXZ=             -0.5625  XZZ=             -1.1448  YZZ=              0.3482
  YYZ=             -0.1903  XYZ=             -0.0358
 Hexadecapole moment (field-independent basis, Debye-Ang**3):
 XXXX=           -119.6490 YYYY=            -65.4986 ZZZZ=            -35.7022 XXXY=              1.1789
 XXXZ=              1.1724 YYYX=              0.9792 YYYZ=             -0.4771 ZZZX=              0.1740
 ZZZY=             -0.3152 XXYY=            -37.1541 XXZZ=            -31.1269 YYZZ=            -16.8078
 XXYZ=             -0.1247 YYXZ=              0.1088 ZZXY=              0.3027
 N-N= 1.250583860773D+02 E-N=-1.422948443774D+03  KE= 4.929266261491D+02
 1\1\GINC-NODE85\SP\ROLYP\def2TZVP\H3O2P1\YANZ\22-Sep-2023\0\\# scrf=(c
 pcm,solvent=water) def2tzvp olyp\\tmpdir/M2_conf_0_30.gjf\\0,1\P,0,0.,
 0.,0.\O,0,1.5672,0.,0.\H,0,-0.43857,0.,-1.31763\O,0,-0.51971,-1.19549,
 0.73662\H,0,-0.35578,1.20136,0.47202\H,0,1.99569,0.77336,-0.40361\\Ver
 sion=ES64L-G16RevA.03\State=1-A\HF=-493.6945058\RMSD=8.648e-09\Dipole=
 0.7460546,2.0428516,-1.1597927\Quadrupole=0.3026224,-0.1676044,-0.1350
 181,0.1707923,0.0731246,0.5197672\PG=C01 [X(H3O2P1)]\\@


 REALITY IS FOR PEOPLE WHO CAN'T FACE SCIENCE FICTION.
 Job cpu time:       0 days  0 hours  0 minutes 40.9 seconds.
 Elapsed time:       0 days  0 hours  0 minutes 10.8 seconds.
 File lengths (MBytes):  RWF=     16 Int=      0 D2E=      0 Chk=      2 Scr=      1
 Normal termination of Gaussian 16 at Fri Sep 22 16:54:20 2023.
