 Entering Gaussian System, Link 0=g16
 Initial command:
 /share/apps/gaussian/g16/l1.exe "/tmp/55608.mgr/Gau-88690.inp" -scrdir="/tmp/55608.mgr/"
 Entering Link 1 = /share/apps/gaussian/g16/l1.exe PID=     88691.
  
 Copyright (c) 1988,1990,1992,1993,1995,1998,2003,2009,2016,
            Gaussian, Inc.  All Rights Reserved.
  
 This is part of the Gaussian(R) 16 program.  It is based on
 the Gaussian(R) 09 system (copyright 2009, Gaussian, Inc.),
 the Gaussian(R) 03 system (copyright 2003, Gaussian, Inc.),
 the Gaussian(R) 98 system (copyright 1998, Gaussian, Inc.),
 the Gaussian(R) 94 system (copyright 1995, Gaussian, Inc.),
 the Gaussian 92(TM) system (copyright 1992, Gaussian, Inc.),
 the Gaussian 90(TM) system (copyright 1990, Gaussian, Inc.),
 the Gaussian 88(TM) system (copyright 1988, Gaussian, Inc.),
 the Gaussian 86(TM) system (copyright 1986, Carnegie Mellon
 University), and the Gaussian 82(TM) system (copyright 1983,
 Carnegie Mellon University). Gaussian is a federally registered
 trademark of Gaussian, Inc.
  
 This software contains proprietary and confidential information,
 including trade secrets, belonging to Gaussian, Inc.
  
 This software is provided under written license and may be
 used, copied, transmitted, or stored only in accord with that
 written license.
  
 The following legend is applicable only to US Government
 contracts under FAR:
  
                    RESTRICTED RIGHTS LEGEND
  
 Use, reproduction and disclosure by the US Government is
 subject to restrictions as set forth in subparagraphs (a)
 and (c) of the Commercial Computer Software - Restricted
 Rights clause in FAR 52.227-19.
  
 Gaussian, Inc.
 340 Quinnipiac St., Bldg. 40, Wallingford CT 06492
  
  
 ---------------------------------------------------------------
 Warning -- This program may not be used in any manner that
 competes with the business of Gaussian, Inc. or will provide
 assistance to any competitor of Gaussian, Inc.  The licensee
 of this program is prohibited from giving any competitor of
 Gaussian, Inc. access to this program.  By using this program,
 the user acknowledges that Gaussian, Inc. is engaged in the
 business of creating and licensing software in the field of
 computational chemistry and represents and warrants to the
 licensee that it is not a competitor of Gaussian, Inc. and that
 it will not use this program in any manner prohibited above.
 ---------------------------------------------------------------
  

 Cite this work as:
 Gaussian 16, Revision A.03,
 M. J. Frisch, G. W. Trucks, H. B. Schlegel, G. E. Scuseria, 
 M. A. Robb, J. R. Cheeseman, G. Scalmani, V. Barone, 
 G. A. Petersson, H. Nakatsuji, X. Li, M. Caricato, A. V. Marenich, 
 J. Bloino, B. G. Janesko, R. Gomperts, B. Mennucci, H. P. Hratchian, 
 J. V. Ortiz, A. F. Izmaylov, J. L. Sonnenberg, D. Williams-Young, 
 F. Ding, F. Lipparini, F. Egidi, J. Goings, B. Peng, A. Petrone, 
 T. Henderson, D. Ranasinghe, V. G. Zakrzewski, J. Gao, N. Rega, 
 G. Zheng, W. Liang, M. Hada, M. Ehara, K. Toyota, R. Fukuda, 
 J. Hasegawa, M. Ishida, T. Nakajima, Y. Honda, O. Kitao, H. Nakai, 
 T. Vreven, K. Throssell, J. A. Montgomery, Jr., J. E. Peralta, 
 F. Ogliaro, M. J. Bearpark, J. J. Heyd, E. N. Brothers, K. N. Kudin, 
 V. N. Staroverov, T. A. Keith, R. Kobayashi, J. Normand, 
 K. Raghavachari, A. P. Rendell, J. C. Burant, S. S. Iyengar, 
 J. Tomasi, M. Cossi, J. M. Millam, M. Klene, C. Adamo, R. Cammi, 
 J. W. Ochterski, R. L. Martin, K. Morokuma, O. Farkas, 
 J. B. Foresman, and D. J. Fox, Gaussian, Inc., Wallingford CT, 2016.
 
 ******************************************
 Gaussian 16:  ES64L-G16RevA.03 25-Dec-2016
                22-Sep-2023 
 ******************************************
 %nprocshared=4
 Will use up to    4 processors via shared memory.
 %mem=4GB
 -----------------------------------------
 # scrf=(cpcm,solvent=water) def2tzvp olyp
 -----------------------------------------
 1/38=1,172=1/1;
 2/12=2,17=6,18=5,40=1/2;
 3/5=44,7=101,11=2,25=1,30=1,70=2101,72=1,74=2002/1,2,3;
 4//1;
 5/5=2,38=5,53=1/2;
 6/7=2,8=2,9=2,10=2,28=1/1;
 99/5=1,9=1/99;
 -----------------------
 tmpdir/M2_conf_0_29.gjf
 -----------------------
 Symbolic Z-matrix:
 Charge =  0 Multiplicity = 1
 P                     0.        0.        0. 
 O                     1.5001    0.        0. 
 H                    -0.49585   0.       -1.29716 
 H                    -0.46459   1.08568   0.63011 
 H                    -0.60368  -1.03922   0.59012 
 
                          Input orientation:                          
 ---------------------------------------------------------------------
 Center     Atomic      Atomic             Coordinates (Angstroms)
 Number     Number       Type             X           Y           Z
 ---------------------------------------------------------------------
      1         15           0        0.000000    0.000000    0.000000
      2          8           0        1.500100    0.000000    0.000000
      3          1           0       -0.495850    0.000000   -1.297160
      4          1           0       -0.464590    1.085680    0.630110
      5          1           0       -0.603680   -1.039220    0.590120
 ---------------------------------------------------------------------
                    Distance matrix (angstroms):
                    1          2          3          4          5
     1  P    0.000000
     2  O    1.500100   0.000000
     3  H    1.388701   2.380429   0.000000
     4  H    1.338500   2.331469   2.212250   0.000000
     5  H    1.338899   2.419527   2.157181   2.129823   0.000000
 Stoichiometry    H3OP
 Framework group  C1[X(H3OP)]
 Deg. of freedom     9
 Full point group                 C1      NOp   1
 Largest Abelian subgroup         C1      NOp   1
 Largest concise Abelian subgroup C1      NOp   1
                         Standard orientation:                         
 ---------------------------------------------------------------------
 Center     Atomic      Atomic             Coordinates (Angstroms)
 Number     Number       Type             X           Y           Z
 ---------------------------------------------------------------------
      1         15           0        0.401404   -0.004121   -0.000210
      2          8           0       -1.098639    0.003153    0.010617
      3          1           0        0.899964    1.213212   -0.445216
      4          1           0        0.855492   -0.968304   -0.809986
      5          1           0        1.012588   -0.208325    1.173419
 ---------------------------------------------------------------------
 Rotational constants (GHZ):         107.0123191          17.4125272          17.2799944
 Standard basis: def2TZVP (5D, 7F)
 There are    96 symmetry adapted cartesian basis functions of A   symmetry.
 There are    86 symmetry adapted basis functions of A   symmetry.
    86 basis functions,   144 primitive gaussians,    96 cartesian basis functions
    13 alpha electrons       13 beta electrons
       nuclear repulsion energy        65.9828621510 Hartrees.
 NAtoms=    5 NActive=    5 NUniq=    5 SFac= 1.00D+00 NAtFMM=   60 NAOKFM=F Big=F
 Integral buffers will be    131072 words long.
 Raffenetti 2 integral format.
 Two-electron integral symmetry is turned on.
 ------------------------------------------------------------------------------
 Polarizable Continuum Model (PCM)
 =================================
 Model                : C-PCM.
 Atomic radii         : UFF (Universal Force Field).
 Polarization charges : Total charges.
 Charge compensation  : None.
 Solution method      : On-the-fly selection.
 Cavity type          : Scaled VdW (van der Waals Surface) (Alpha=1.100).
 Cavity algorithm     : GePol (No added spheres)
                        Default sphere list used, NSphG=    5.
                        Lebedev-Laikov grids with approx.  5.0 points / Ang**2.
                        Smoothing algorithm: York/Karplus (Gamma=1.0000).
                        Polarization charges: spherical gaussians, with
                                              point-specific exponents (IZeta= 3).
                        Self-potential: point-specific (ISelfS= 7).
                        Self-field    : sphere-specific E.n sum rule (ISelfD= 2).
 Solvent              : Water, Eps=  78.355300 Eps(inf)=   1.777849
 ------------------------------------------------------------------------------
 Spheres list:
 ISph  on   Nord     Re0    Alpha      Xe            Ye            Ze
    1   P      1    2.0735  1.100      0.401404     -0.004121     -0.000210
    2   O      2    1.7500  1.100     -1.098639      0.003153      0.010617
    3   H      3    1.4430  1.100      0.899964      1.213212     -0.445216
    4   H      4    1.4430  1.100      0.855492     -0.968304     -0.809986
    5   H      5    1.4430  1.100      1.012588     -0.208325      1.173419
 ------------------------------------------------------------------------------
 One-electron integrals computed using PRISM.
   1 Symmetry operations used in ECPInt.
 ECPInt:  NShTT=     666 NPrTT=    2212 LenC2=     666 LenP2D=    1989.
 LDataN:  DoStor=T MaxTD1= 6 Len=  172
 NBasis=    86 RedAO= T EigKep=  2.80D-03  NBF=    86
 NBsUse=    86 1.00D-06 EigRej= -1.00D+00 NBFU=    86
 ExpMin= 9.04D-02 ExpMax= 5.24D+04 ExpMxC= 1.79D+03 IAcc=3 IRadAn=         5 AccDes= 0.00D+00
 Harris functional with IExCor= 2002 and IRadAn=       5 diagonalized for initial guess.
 HarFok:  IExCor= 2002 AccDes= 0.00D+00 IRadAn=         5 IDoV= 1 UseB2=F ITyADJ=14
 ICtDFT=  3500011 ScaDFX=  1.000000  1.000000  1.000000  1.000000
 FoFCou: FMM=F IPFlag=           0 FMFlag=      100000 FMFlg1=           0
         NFxFlg=           0 DoJE=T BraDBF=F KetDBF=T FulRan=T
         wScrn=  0.000000 ICntrl=       500 IOpCl=  0 I1Cent=   200000004 NGrid=           0
         NMat0=    1 NMatS0=      1 NMatT0=    0 NMatD0=    1 NMtDS0=    0 NMtDT0=    0
 Petite list used in FoFCou.
 Keep J ints in memory in canonical form, NReq=10684354.
 Requested convergence on RMS density matrix=1.00D-08 within 128 cycles.
 Requested convergence on MAX density matrix=1.00D-06.
 Requested convergence on             energy=1.00D-06.
 No special actions if energy rises.
 Inv3:  Mode=1 IEnd=     1279227.
 Iteration    1 A*A^-1 deviation from unit magnitude is 3.55D-15 for    635.
 Iteration    1 A*A^-1 deviation from orthogonality  is 1.87D-15 for    629    234.
 Iteration    1 A^-1*A deviation from unit magnitude is 3.55D-15 for    635.
 Iteration    1 A^-1*A deviation from orthogonality  is 8.75D-16 for    632    541.
 Error on total polarization charges =  0.00850
 SCF Done:  E(RO-LYP) =  -418.408318594     A.U. after   10 cycles
            NFock= 10  Conv=0.76D-08     -V/T= 2.0011

 **********************************************************************

            Population analysis using the SCF density.

 **********************************************************************

 Orbital symmetries:
       Occupied  (A) (A) (A) (A) (A) (A) (A) (A) (A) (A) (A) (A)
                 (A)
       Virtual   (A) (A) (A) (A) (A) (A) (A) (A) (A) (A) (A) (A)
                 (A) (A) (A) (A) (A) (A) (A) (A) (A) (A) (A) (A)
                 (A) (A) (A) (A) (A) (A) (A) (A) (A) (A) (A) (A)
                 (A) (A) (A) (A) (A) (A) (A) (A) (A) (A) (A) (A)
                 (A) (A) (A) (A) (A) (A) (A) (A) (A) (A) (A) (A)
                 (A) (A) (A) (A) (A) (A) (A) (A) (A) (A) (A) (A)
                 (A)
 The electronic state is 1-A.
 Alpha  occ. eigenvalues --  -76.34133 -18.71252  -6.37936  -4.58780  -4.58753
 Alpha  occ. eigenvalues --   -4.58673  -0.87911  -0.58781  -0.40375  -0.39739
 Alpha  occ. eigenvalues --   -0.33531  -0.23981  -0.23666
 Alpha virt. eigenvalues --   -0.02029   0.01946   0.03735   0.04356   0.14533
 Alpha virt. eigenvalues --    0.14706   0.22014   0.25697   0.27519   0.28200
 Alpha virt. eigenvalues --    0.29802   0.30224   0.38657   0.48440   0.50346
 Alpha virt. eigenvalues --    0.50929   0.58277   0.59297   0.68576   0.75489
 Alpha virt. eigenvalues --    1.02203   1.06130   1.07691   1.08871   1.09196
 Alpha virt. eigenvalues --    1.18169   1.20920   1.21902   1.28776   1.36717
 Alpha virt. eigenvalues --    1.38009   1.45556   1.53632   1.54932   1.57839
 Alpha virt. eigenvalues --    1.61092   1.78068   1.81914   1.86583   1.96684
 Alpha virt. eigenvalues --    2.02311   2.02778   2.04881   2.12889   2.15122
 Alpha virt. eigenvalues --    2.19306   2.46313   2.48074   2.50872   2.59312
 Alpha virt. eigenvalues --    2.74596   2.77305   2.79705   2.81326   2.82786
 Alpha virt. eigenvalues --    3.58463   5.05555   5.06204   5.14306   5.14915
 Alpha virt. eigenvalues --    5.22344   5.22669   5.39632   6.20332   6.20856
 Alpha virt. eigenvalues --    6.52346   6.52440   6.73802   7.18947   7.20863
 Alpha virt. eigenvalues --    7.69534  15.42555  43.07307
          Condensed to atoms (all electrons):
               1          2          3          4          5
     1  P   12.795235   0.692069   0.359701   0.366608   0.354468
     2  O    0.692069   8.047237  -0.043845  -0.045768  -0.036972
     3  H    0.359701  -0.043845   0.701639  -0.034391  -0.039453
     4  H    0.366608  -0.045768  -0.034391   0.693108  -0.040935
     5  H    0.354468  -0.036972  -0.039453  -0.040935   0.699815
 Mulliken charges:
               1
     1  P    0.431919
     2  O   -0.612721
     3  H    0.056348
     4  H    0.061378
     5  H    0.063076
 Sum of Mulliken charges =  -0.00000
 Mulliken charges with hydrogens summed into heavy atoms:
               1
     1  P    0.612721
     2  O   -0.612721
 Electronic spatial extent (au):  <R**2>=            113.0999
 Charge=             -0.0000 electrons
 Dipole moment (field-independent basis, Debye):
    X=              4.7439    Y=             -0.0765    Z=              0.0036  Tot=              4.7445
 Quadrupole moment (field-independent basis, Debye-Ang):
   XX=            -22.4072   YY=            -18.4265   ZZ=            -18.4657
   XY=             -0.0380   XZ=              0.1603   YZ=              0.0262
 Traceless Quadrupole moment (field-independent basis, Debye-Ang):
   XX=             -2.6407   YY=              1.3400   ZZ=              1.3007
   XY=             -0.0380   XZ=              0.1603   YZ=              0.0262
 Octapole moment (field-independent basis, Debye-Ang**2):
  XXX=              5.4422  YYY=             -0.0794  ZZZ=              0.3022  XYY=              0.6607
  XXY=             -0.1211  XXZ=              0.0454  XZZ=              0.6824  YZZ=             -0.2085
  YYZ=             -0.2142  XYZ=              0.0023
 Hexadecapole moment (field-independent basis, Debye-Ang**3):
 XXXX=            -90.8105 YYYY=            -31.5121 ZZZZ=            -30.4734 XXXY=             -0.2388
 XXXZ=              0.3738 YYYX=              0.0083 YYYZ=              0.0593 ZZZX=              0.4932
 ZZZY=              0.1631 XXYY=            -20.3094 XXZZ=            -19.9504 YYZZ=            -10.2982
 XXYZ=             -0.0114 YYXZ=             -0.2219 ZZXY=             -0.2194
 N-N= 6.598286215098D+01 E-N=-1.126805295926D+03  KE= 4.179349119751D+02
 1\1\GINC-NODE85\SP\ROLYP\def2TZVP\H3O1P1\YANZ\22-Sep-2023\0\\# scrf=(c
 pcm,solvent=water) def2tzvp olyp\\tmpdir/M2_conf_0_29.gjf\\0,1\P,0,0.,
 0.,0.\O,0,1.5001,0.,0.\H,0,-0.49585,0.,-1.29716\H,0,-0.46459,1.08568,0
 .63011\H,0,-0.60368,-1.03922,0.59012\\Version=ES64L-G16RevA.03\State=1
 -A\HF=-418.4083186\RMSD=7.552e-09\Dipole=-1.8664521,-0.0068572,0.02484
 95\Quadrupole=-1.9645217,0.9844325,0.9800892,0.0775304,-0.0734801,0.02
 39231\PG=C01 [X(H3O1P1)]\\@


 THE HURRIEDER I GO, THE BEHINDER I GET.
 Job cpu time:       0 days  0 hours  0 minutes 23.1 seconds.
 Elapsed time:       0 days  0 hours  0 minutes  6.0 seconds.
 File lengths (MBytes):  RWF=     10 Int=      0 D2E=      0 Chk=      2 Scr=      1
 Normal termination of Gaussian 16 at Fri Sep 22 16:54:22 2023.
