 Entering Gaussian System, Link 0=g16
 Initial command:
 /share/apps/gaussian/g16/l1.exe "/tmp/55608.mgr/Gau-88111.inp" -scrdir="/tmp/55608.mgr/"
 Entering Link 1 = /share/apps/gaussian/g16/l1.exe PID=     88112.
  
 Copyright (c) 1988,1990,1992,1993,1995,1998,2003,2009,2016,
            Gaussian, Inc.  All Rights Reserved.
  
 This is part of the Gaussian(R) 16 program.  It is based on
 the Gaussian(R) 09 system (copyright 2009, Gaussian, Inc.),
 the Gaussian(R) 03 system (copyright 2003, Gaussian, Inc.),
 the Gaussian(R) 98 system (copyright 1998, Gaussian, Inc.),
 the Gaussian(R) 94 system (copyright 1995, Gaussian, Inc.),
 the Gaussian 92(TM) system (copyright 1992, Gaussian, Inc.),
 the Gaussian 90(TM) system (copyright 1990, Gaussian, Inc.),
 the Gaussian 88(TM) system (copyright 1988, Gaussian, Inc.),
 the Gaussian 86(TM) system (copyright 1986, Carnegie Mellon
 University), and the Gaussian 82(TM) system (copyright 1983,
 Carnegie Mellon University). Gaussian is a federally registered
 trademark of Gaussian, Inc.
  
 This software contains proprietary and confidential information,
 including trade secrets, belonging to Gaussian, Inc.
  
 This software is provided under written license and may be
 used, copied, transmitted, or stored only in accord with that
 written license.
  
 The following legend is applicable only to US Government
 contracts under FAR:
  
                    RESTRICTED RIGHTS LEGEND
  
 Use, reproduction and disclosure by the US Government is
 subject to restrictions as set forth in subparagraphs (a)
 and (c) of the Commercial Computer Software - Restricted
 Rights clause in FAR 52.227-19.
  
 Gaussian, Inc.
 340 Quinnipiac St., Bldg. 40, Wallingford CT 06492
  
  
 ---------------------------------------------------------------
 Warning -- This program may not be used in any manner that
 competes with the business of Gaussian, Inc. or will provide
 assistance to any competitor of Gaussian, Inc.  The licensee
 of this program is prohibited from giving any competitor of
 Gaussian, Inc. access to this program.  By using this program,
 the user acknowledges that Gaussian, Inc. is engaged in the
 business of creating and licensing software in the field of
 computational chemistry and represents and warrants to the
 licensee that it is not a competitor of Gaussian, Inc. and that
 it will not use this program in any manner prohibited above.
 ---------------------------------------------------------------
  

 Cite this work as:
 Gaussian 16, Revision A.03,
 M. J. Frisch, G. W. Trucks, H. B. Schlegel, G. E. Scuseria, 
 M. A. Robb, J. R. Cheeseman, G. Scalmani, V. Barone, 
 G. A. Petersson, H. Nakatsuji, X. Li, M. Caricato, A. V. Marenich, 
 J. Bloino, B. G. Janesko, R. Gomperts, B. Mennucci, H. P. Hratchian, 
 J. V. Ortiz, A. F. Izmaylov, J. L. Sonnenberg, D. Williams-Young, 
 F. Ding, F. Lipparini, F. Egidi, J. Goings, B. Peng, A. Petrone, 
 T. Henderson, D. Ranasinghe, V. G. Zakrzewski, J. Gao, N. Rega, 
 G. Zheng, W. Liang, M. Hada, M. Ehara, K. Toyota, R. Fukuda, 
 J. Hasegawa, M. Ishida, T. Nakajima, Y. Honda, O. Kitao, H. Nakai, 
 T. Vreven, K. Throssell, J. A. Montgomery, Jr., J. E. Peralta, 
 F. Ogliaro, M. J. Bearpark, J. J. Heyd, E. N. Brothers, K. N. Kudin, 
 V. N. Staroverov, T. A. Keith, R. Kobayashi, J. Normand, 
 K. Raghavachari, A. P. Rendell, J. C. Burant, S. S. Iyengar, 
 J. Tomasi, M. Cossi, J. M. Millam, M. Klene, C. Adamo, R. Cammi, 
 J. W. Ochterski, R. L. Martin, K. Morokuma, O. Farkas, 
 J. B. Foresman, and D. J. Fox, Gaussian, Inc., Wallingford CT, 2016.
 
 ******************************************
 Gaussian 16:  ES64L-G16RevA.03 25-Dec-2016
                22-Sep-2023 
 ******************************************
 %nprocshared=4
 Will use up to    4 processors via shared memory.
 %mem=4GB
 -----------------------------------------
 # scrf=(cpcm,solvent=water) def2tzvp olyp
 -----------------------------------------
 1/38=1,172=1/1;
 2/12=2,17=6,18=5,40=1/2;
 3/5=44,7=101,11=2,25=1,30=1,70=2101,72=1,74=2002/1,2,3;
 4//1;
 5/5=2,38=5,53=1/2;
 6/7=2,8=2,9=2,10=2,28=1/1;
 99/5=1,9=1/99;
 ----------------------
 tmpdir/M2_conf_0_5.gjf
 ----------------------
 Symbolic Z-matrix:
 Charge =  0 Multiplicity = 1
 O                     0.        0.        0. 
 P                     1.482     0.        0. 
 O                     2.29184   0.        1.36447 
 H                     2.15205  -0.85771  -0.71818 
 H                     1.91985   1.32615  -0.48688 
 H                     1.91005   0.40581   2.19414 
 
                          Input orientation:                          
 ---------------------------------------------------------------------
 Center     Atomic      Atomic             Coordinates (Angstroms)
 Number     Number       Type             X           Y           Z
 ---------------------------------------------------------------------
      1          8           0        0.000000    0.000000    0.000000
      2         15           0        1.482000    0.000000    0.000000
      3          8           0        2.291840    0.000000    1.364470
      4          1           0        2.152050   -0.857710   -0.718180
      5          1           0        1.919850    1.326150   -0.486880
      6          1           0        1.910050    0.405810    2.194140
 ---------------------------------------------------------------------
                    Distance matrix (angstroms):
                    1          2          3          4          5
     1  O    0.000000
     2  P    1.482000   0.000000
     3  O    2.667266   1.586701   0.000000
     4  H    2.425442   1.304000   2.256688   0.000000
     5  H    2.383600   1.478999   2.307498   2.208316   0.000000
     6  H    2.937213   2.272038   0.999399   3.183811   2.834606
                    6
     6  H    0.000000
 Stoichiometry    H3O2P
 Framework group  C1[X(H3O2P)]
 Deg. of freedom    12
 Full point group                 C1      NOp   1
 Largest Abelian subgroup         C1      NOp   1
 Largest concise Abelian subgroup C1      NOp   1
                         Standard orientation:                         
 ---------------------------------------------------------------------
 Center     Atomic      Atomic             Coordinates (Angstroms)
 Number     Number       Type             X           Y           Z
 ---------------------------------------------------------------------
      1          8           0       -1.315023   -0.517310   -0.024075
      2         15           0       -0.113943    0.350701   -0.007170
      3          8           0        1.341267   -0.279088   -0.065043
      4          1           0       -0.008180    1.364211   -0.820820
      5          1           0       -0.018188    0.939410    1.346229
      6          1           0        1.525552   -1.192949    0.295088
 ---------------------------------------------------------------------
 Rotational constants (GHZ):          31.3596056           8.1683487           6.9536881
 Standard basis: def2TZVP (5D, 7F)
 There are   132 symmetry adapted cartesian basis functions of A   symmetry.
 There are   117 symmetry adapted basis functions of A   symmetry.
   117 basis functions,   195 primitive gaussians,   132 cartesian basis functions
    17 alpha electrons       17 beta electrons
       nuclear repulsion energy       124.0162554045 Hartrees.
 NAtoms=    6 NActive=    6 NUniq=    6 SFac= 1.00D+00 NAtFMM=   60 NAOKFM=F Big=F
 Integral buffers will be    131072 words long.
 Raffenetti 2 integral format.
 Two-electron integral symmetry is turned on.
 ------------------------------------------------------------------------------
 Polarizable Continuum Model (PCM)
 =================================
 Model                : C-PCM.
 Atomic radii         : UFF (Universal Force Field).
 Polarization charges : Total charges.
 Charge compensation  : None.
 Solution method      : On-the-fly selection.
 Cavity type          : Scaled VdW (van der Waals Surface) (Alpha=1.100).
 Cavity algorithm     : GePol (No added spheres)
                        Default sphere list used, NSphG=    6.
                        Lebedev-Laikov grids with approx.  5.0 points / Ang**2.
                        Smoothing algorithm: York/Karplus (Gamma=1.0000).
                        Polarization charges: spherical gaussians, with
                                              point-specific exponents (IZeta= 3).
                        Self-potential: point-specific (ISelfS= 7).
                        Self-field    : sphere-specific E.n sum rule (ISelfD= 2).
 Solvent              : Water, Eps=  78.355300 Eps(inf)=   1.777849
 ------------------------------------------------------------------------------
 Spheres list:
 ISph  on   Nord     Re0    Alpha      Xe            Ye            Ze
    1   O      1    1.7500  1.100     -1.315023     -0.517310     -0.024075
    2   P      2    2.0735  1.100     -0.113943      0.350701     -0.007170
    3   O      3    1.7500  1.100      1.341267     -0.279088     -0.065043
    4   H      4    1.4430  1.100     -0.008180      1.364211     -0.820820
    5   H      5    1.4430  1.100     -0.018188      0.939410      1.346229
    6   H      6    1.4430  1.100      1.525552     -1.192949      0.295088
 ------------------------------------------------------------------------------
 One-electron integrals computed using PRISM.
   1 Symmetry operations used in ECPInt.
 ECPInt:  NShTT=    1128 NPrTT=    3744 LenC2=    1123 LenP2D=    3211.
 LDataN:  DoStor=T MaxTD1= 6 Len=  172
 NBasis=   117 RedAO= T EigKep=  1.88D-03  NBF=   117
 NBsUse=   117 1.00D-06 EigRej= -1.00D+00 NBFU=   117
 ExpMin= 9.04D-02 ExpMax= 5.24D+04 ExpMxC= 1.79D+03 IAcc=3 IRadAn=         5 AccDes= 0.00D+00
 Harris functional with IExCor= 2002 and IRadAn=       5 diagonalized for initial guess.
 HarFok:  IExCor= 2002 AccDes= 0.00D+00 IRadAn=         5 IDoV= 1 UseB2=F ITyADJ=14
 ICtDFT=  3500011 ScaDFX=  1.000000  1.000000  1.000000  1.000000
 FoFCou: FMM=F IPFlag=           0 FMFlag=      100000 FMFlg1=           0
         NFxFlg=           0 DoJE=T BraDBF=F KetDBF=T FulRan=T
         wScrn=  0.000000 ICntrl=       500 IOpCl=  0 I1Cent=   200000004 NGrid=           0
         NMat0=    1 NMatS0=      1 NMatT0=    0 NMatD0=    1 NMtDS0=    0 NMtDT0=    0
 Petite list used in FoFCou.
 Keep J ints in memory in canonical form, NReq=27663592.
 Requested convergence on RMS density matrix=1.00D-08 within 128 cycles.
 Requested convergence on MAX density matrix=1.00D-06.
 Requested convergence on             energy=1.00D-06.
 No special actions if energy rises.
 Inv3:  Mode=1 IEnd=     1723692.
 Iteration    1 A*A^-1 deviation from unit magnitude is 2.89D-15 for    361.
 Iteration    1 A*A^-1 deviation from orthogonality  is 1.27D-15 for    646    369.
 Iteration    1 A^-1*A deviation from unit magnitude is 2.89D-15 for    361.
 Iteration    1 A^-1*A deviation from orthogonality  is 8.60D-16 for    753    435.
 Error on total polarization charges =  0.00854
 SCF Done:  E(RO-LYP) =  -493.686701896     A.U. after   11 cycles
            NFock= 11  Conv=0.69D-08     -V/T= 2.0018

 **********************************************************************

            Population analysis using the SCF density.

 **********************************************************************

 Orbital symmetries:
       Occupied  (A) (A) (A) (A) (A) (A) (A) (A) (A) (A) (A) (A)
                 (A) (A) (A) (A) (A)
       Virtual   (A) (A) (A) (A) (A) (A) (A) (A) (A) (A) (A) (A)
                 (A) (A) (A) (A) (A) (A) (A) (A) (A) (A) (A) (A)
                 (A) (A) (A) (A) (A) (A) (A) (A) (A) (A) (A) (A)
                 (A) (A) (A) (A) (A) (A) (A) (A) (A) (A) (A) (A)
                 (A) (A) (A) (A) (A) (A) (A) (A) (A) (A) (A) (A)
                 (A) (A) (A) (A) (A) (A) (A) (A) (A) (A) (A) (A)
                 (A) (A) (A) (A) (A) (A) (A) (A) (A) (A) (A) (A)
                 (A) (A) (A) (A) (A) (A) (A) (A) (A) (A) (A) (A)
                 (A) (A) (A) (A)
 The electronic state is 1-A.
 Alpha  occ. eigenvalues --  -76.37123 -18.80212 -18.72908  -6.40184  -4.61242
 Alpha  occ. eigenvalues --   -4.60988  -4.60881  -0.97424  -0.88925  -0.59829
 Alpha  occ. eigenvalues --   -0.46371  -0.41607  -0.38415  -0.33471  -0.29640
 Alpha  occ. eigenvalues --   -0.26731  -0.24256
 Alpha virt. eigenvalues --   -0.01423   0.00789   0.02927   0.05202   0.08370
 Alpha virt. eigenvalues --    0.16451   0.20618   0.21994   0.23897   0.27094
 Alpha virt. eigenvalues --    0.31172   0.31952   0.35638   0.38762   0.42409
 Alpha virt. eigenvalues --    0.43757   0.46009   0.50039   0.52284   0.56901
 Alpha virt. eigenvalues --    0.62424   0.64412   0.65652   0.75143   0.77649
 Alpha virt. eigenvalues --    1.03286   1.06967   1.07292   1.12252   1.16106
 Alpha virt. eigenvalues --    1.17715   1.20834   1.24595   1.30029   1.31171
 Alpha virt. eigenvalues --    1.34823   1.37418   1.47216   1.49909   1.56151
 Alpha virt. eigenvalues --    1.58655   1.63592   1.71094   1.77152   1.80401
 Alpha virt. eigenvalues --    1.81620   1.88612   1.92710   1.96267   2.01411
 Alpha virt. eigenvalues --    2.04250   2.09625   2.12063   2.15391   2.20284
 Alpha virt. eigenvalues --    2.30823   2.35545   2.43374   2.48805   2.61049
 Alpha virt. eigenvalues --    2.63164   2.67328   2.72910   2.80938   2.83904
 Alpha virt. eigenvalues --    2.87431   2.93954   3.27950   3.65498   3.74704
 Alpha virt. eigenvalues --    4.96972   4.98392   5.02115   5.03746   5.07938
 Alpha virt. eigenvalues --    5.09072   5.14652   5.17087   5.22816   5.23599
 Alpha virt. eigenvalues --    5.29664   5.41211   5.46353   5.95593   6.15624
 Alpha virt. eigenvalues --    6.18542   6.21614   6.34444   6.45499   6.52977
 Alpha virt. eigenvalues --    6.58679   6.61093   6.74714   6.84660   7.18999
 Alpha virt. eigenvalues --    7.45229   7.95581  15.79513  43.10953  43.15697
          Condensed to atoms (all electrons):
               1          2          3          4          5          6
     1  O    7.976464   0.713644  -0.052966  -0.031421  -0.051183   0.000311
     2  P    0.713644  12.584681   0.409669   0.348041   0.368970  -0.015364
     3  O   -0.052966   0.409669   7.880328  -0.026177  -0.045667   0.287001
     4  H   -0.031421   0.348041  -0.026177   0.698112  -0.060496   0.003599
     5  H   -0.051183   0.368970  -0.045667  -0.060496   0.800467   0.001753
     6  H    0.000311  -0.015364   0.287001   0.003599   0.001753   0.360521
 Mulliken charges:
               1
     1  O   -0.554849
     2  P    0.590359
     3  O   -0.452187
     4  H    0.068342
     5  H   -0.013843
     6  H    0.362178
 Sum of Mulliken charges =  -0.00000
 Mulliken charges with hydrogens summed into heavy atoms:
               1
     1  O   -0.554849
     2  P    0.644858
     3  O   -0.090009
 Electronic spatial extent (au):  <R**2>=            206.0001
 Charge=              0.0000 electrons
 Dipole moment (field-independent basis, Debye):
    X=              3.2459    Y=              0.9048    Z=              0.2087  Tot=              3.3761
 Quadrupole moment (field-independent basis, Debye-Ang):
   XX=            -29.3102   YY=            -21.2748   ZZ=            -24.1010
   XY=             -5.1754   XZ=              1.1577   YZ=             -1.7845
 Traceless Quadrupole moment (field-independent basis, Debye-Ang):
   XX=             -4.4149   YY=              3.6205   ZZ=              0.7943
   XY=             -5.1754   XZ=              1.1577   YZ=             -1.7845
 Octapole moment (field-independent basis, Debye-Ang**2):
  XXX=             10.1234  YYY=             -3.9991  ZZZ=             -1.4458  XYY=              6.6338
  XXY=             -2.5732  XXZ=              1.9603  XZZ=              1.1425  YZZ=             -0.6939
  YYZ=             -0.0428  XYZ=             -1.3457
 Hexadecapole moment (field-independent basis, Debye-Ang**3):
 XXXX=           -161.7718 YYYY=            -55.5635 ZZZZ=            -38.9330 XXXY=            -14.0735
 XXXZ=              3.1780 YYYX=             -9.5218 YYYZ=             -4.2553 ZZZX=              0.6859
 ZZZY=             -2.4292 XXYY=            -29.3771 XXZZ=            -32.7246 YYZZ=            -16.6110
 XXYZ=             -3.0417 YYXZ=              1.7991 ZZXY=             -1.2492
 N-N= 1.240162554045D+02 E-N=-1.420698427464D+03  KE= 4.928224736081D+02
 1\1\GINC-NODE85\SP\ROLYP\def2TZVP\H3O2P1\YANZ\22-Sep-2023\0\\# scrf=(c
 pcm,solvent=water) def2tzvp olyp\\tmpdir/M2_conf_0_5.gjf\\0,1\O,0,0.,0
 .,0.\P,0,1.482,0.,0.\O,0,2.29184,0.,1.36447\H,0,2.15205,-0.85771,-0.71
 818\H,0,1.91985,1.32615,-0.48688\H,0,1.91005,0.40581,2.19414\\Version=
 ES64L-G16RevA.03\State=1-A\HF=-493.6867019\RMSD=6.942e-09\Dipole=1.244
 4172,0.0904291,0.4555937\Quadrupole=-4.887203,0.7576356,4.1295674,-0.0
 962093,-1.6077504,1.7722147\PG=C01 [X(H3O2P1)]\\@


 I KNOW YOU BELIEVE YOU UNDERSTAND WHAT YOU THINK I SAID,
 BUT I AM NOT SURE YOU REALIZE THAT WHAT YOU HEARD IS NOT WHAT I MEANT.
 Job cpu time:       0 days  0 hours  0 minutes 42.7 seconds.
 Elapsed time:       0 days  0 hours  0 minutes 11.1 seconds.
 File lengths (MBytes):  RWF=     16 Int=      0 D2E=      0 Chk=      2 Scr=      1
 Normal termination of Gaussian 16 at Fri Sep 22 16:53:51 2023.
