 Entering Gaussian System, Link 0=g16
 Initial command:
 /share/apps/gaussian/g16/l1.exe "/tmp/55608.mgr/Gau-88997.inp" -scrdir="/tmp/55608.mgr/"
 Entering Link 1 = /share/apps/gaussian/g16/l1.exe PID=     88998.
  
 Copyright (c) 1988,1990,1992,1993,1995,1998,2003,2009,2016,
            Gaussian, Inc.  All Rights Reserved.
  
 This is part of the Gaussian(R) 16 program.  It is based on
 the Gaussian(R) 09 system (copyright 2009, Gaussian, Inc.),
 the Gaussian(R) 03 system (copyright 2003, Gaussian, Inc.),
 the Gaussian(R) 98 system (copyright 1998, Gaussian, Inc.),
 the Gaussian(R) 94 system (copyright 1995, Gaussian, Inc.),
 the Gaussian 92(TM) system (copyright 1992, Gaussian, Inc.),
 the Gaussian 90(TM) system (copyright 1990, Gaussian, Inc.),
 the Gaussian 88(TM) system (copyright 1988, Gaussian, Inc.),
 the Gaussian 86(TM) system (copyright 1986, Carnegie Mellon
 University), and the Gaussian 82(TM) system (copyright 1983,
 Carnegie Mellon University). Gaussian is a federally registered
 trademark of Gaussian, Inc.
  
 This software contains proprietary and confidential information,
 including trade secrets, belonging to Gaussian, Inc.
  
 This software is provided under written license and may be
 used, copied, transmitted, or stored only in accord with that
 written license.
  
 The following legend is applicable only to US Government
 contracts under FAR:
  
                    RESTRICTED RIGHTS LEGEND
  
 Use, reproduction and disclosure by the US Government is
 subject to restrictions as set forth in subparagraphs (a)
 and (c) of the Commercial Computer Software - Restricted
 Rights clause in FAR 52.227-19.
  
 Gaussian, Inc.
 340 Quinnipiac St., Bldg. 40, Wallingford CT 06492
  
  
 ---------------------------------------------------------------
 Warning -- This program may not be used in any manner that
 competes with the business of Gaussian, Inc. or will provide
 assistance to any competitor of Gaussian, Inc.  The licensee
 of this program is prohibited from giving any competitor of
 Gaussian, Inc. access to this program.  By using this program,
 the user acknowledges that Gaussian, Inc. is engaged in the
 business of creating and licensing software in the field of
 computational chemistry and represents and warrants to the
 licensee that it is not a competitor of Gaussian, Inc. and that
 it will not use this program in any manner prohibited above.
 ---------------------------------------------------------------
  

 Cite this work as:
 Gaussian 16, Revision A.03,
 M. J. Frisch, G. W. Trucks, H. B. Schlegel, G. E. Scuseria, 
 M. A. Robb, J. R. Cheeseman, G. Scalmani, V. Barone, 
 G. A. Petersson, H. Nakatsuji, X. Li, M. Caricato, A. V. Marenich, 
 J. Bloino, B. G. Janesko, R. Gomperts, B. Mennucci, H. P. Hratchian, 
 J. V. Ortiz, A. F. Izmaylov, J. L. Sonnenberg, D. Williams-Young, 
 F. Ding, F. Lipparini, F. Egidi, J. Goings, B. Peng, A. Petrone, 
 T. Henderson, D. Ranasinghe, V. G. Zakrzewski, J. Gao, N. Rega, 
 G. Zheng, W. Liang, M. Hada, M. Ehara, K. Toyota, R. Fukuda, 
 J. Hasegawa, M. Ishida, T. Nakajima, Y. Honda, O. Kitao, H. Nakai, 
 T. Vreven, K. Throssell, J. A. Montgomery, Jr., J. E. Peralta, 
 F. Ogliaro, M. J. Bearpark, J. J. Heyd, E. N. Brothers, K. N. Kudin, 
 V. N. Staroverov, T. A. Keith, R. Kobayashi, J. Normand, 
 K. Raghavachari, A. P. Rendell, J. C. Burant, S. S. Iyengar, 
 J. Tomasi, M. Cossi, J. M. Millam, M. Klene, C. Adamo, R. Cammi, 
 J. W. Ochterski, R. L. Martin, K. Morokuma, O. Farkas, 
 J. B. Foresman, and D. J. Fox, Gaussian, Inc., Wallingford CT, 2016.
 
 ******************************************
 Gaussian 16:  ES64L-G16RevA.03 25-Dec-2016
                22-Sep-2023 
 ******************************************
 %nprocshared=4
 Will use up to    4 processors via shared memory.
 %mem=4GB
 -----------------------------------------
 # scrf=(cpcm,solvent=water) def2tzvp olyp
 -----------------------------------------
 1/38=1,172=1/1;
 2/12=2,17=6,18=5,40=1/2;
 3/5=44,7=101,11=2,25=1,30=1,70=2101,72=1,74=2002/1,2,3;
 4//1;
 5/5=2,38=5,53=1/2;
 6/7=2,8=2,9=2,10=2,28=1/1;
 99/5=1,9=1/99;
 -----------------------
 tmpdir/M2_conf_0_43.gjf
 -----------------------
 Symbolic Z-matrix:
 Charge =  0 Multiplicity = 1
 C                     0.        0.        0. 
 H                     1.0899    0.        0. 
 H                    -0.32231   0.       -1.15051 
 H                    -0.37194   0.89851   0.49723 
 H                    -0.3768   -0.89374   0.49888 
 
                          Input orientation:                          
 ---------------------------------------------------------------------
 Center     Atomic      Atomic             Coordinates (Angstroms)
 Number     Number       Type             X           Y           Z
 ---------------------------------------------------------------------
      1          6           0        0.000000    0.000000    0.000000
      2          1           0        1.089900    0.000000    0.000000
      3          1           0       -0.322310    0.000000   -1.150510
      4          1           0       -0.371940    0.898510    0.497230
      5          1           0       -0.376800   -0.893740    0.498880
 ---------------------------------------------------------------------
                    Distance matrix (angstroms):
                    1          2          3          4          5
     1  C    0.000000
     2  H    1.089900   0.000000
     3  H    1.194804   1.821541   0.000000
     4  H    1.092198   1.786487   1.877453   0.000000
     5  H    1.090702   1.788536   1.876760   1.792257   0.000000
 Stoichiometry    CH4
 Framework group  C1[X(CH4)]
 Deg. of freedom     9
 Full point group                 C1      NOp   1
 Largest Abelian subgroup         C1      NOp   1
 Largest concise Abelian subgroup C1      NOp   1
                         Standard orientation:                         
 ---------------------------------------------------------------------
 Center     Atomic      Atomic             Coordinates (Angstroms)
 Number     Number       Type             X           Y           Z
 ---------------------------------------------------------------------
      1          6           0        0.015451    0.000678   -0.001726
      2          1           0        0.007482   -0.080847    1.085091
      3          1           0       -1.132660    0.020247   -0.331901
      4          1           0        0.519430   -0.865526   -0.436001
      5          1           0        0.513042    0.922060   -0.306832
 ---------------------------------------------------------------------
 Rotational constants (GHZ):         157.7829648         147.9146411         146.4277164
 Standard basis: def2TZVP (5D, 7F)
 There are    60 symmetry adapted cartesian basis functions of A   symmetry.
 There are    55 symmetry adapted basis functions of A   symmetry.
    55 basis functions,    83 primitive gaussians,    60 cartesian basis functions
     5 alpha electrons        5 beta electrons
       nuclear repulsion energy        13.1303013231 Hartrees.
 NAtoms=    5 NActive=    5 NUniq=    5 SFac= 1.00D+00 NAtFMM=   60 NAOKFM=F Big=F
 Integral buffers will be    131072 words long.
 Raffenetti 2 integral format.
 Two-electron integral symmetry is turned on.
 ------------------------------------------------------------------------------
 Polarizable Continuum Model (PCM)
 =================================
 Model                : C-PCM.
 Atomic radii         : UFF (Universal Force Field).
 Polarization charges : Total charges.
 Charge compensation  : None.
 Solution method      : On-the-fly selection.
 Cavity type          : Scaled VdW (van der Waals Surface) (Alpha=1.100).
 Cavity algorithm     : GePol (No added spheres)
                        Default sphere list used, NSphG=    5.
                        Lebedev-Laikov grids with approx.  5.0 points / Ang**2.
                        Smoothing algorithm: York/Karplus (Gamma=1.0000).
                        Polarization charges: spherical gaussians, with
                                              point-specific exponents (IZeta= 3).
                        Self-potential: point-specific (ISelfS= 7).
                        Self-field    : sphere-specific E.n sum rule (ISelfD= 2).
 Solvent              : Water, Eps=  78.355300 Eps(inf)=   1.777849
 ------------------------------------------------------------------------------
 Spheres list:
 ISph  on   Nord     Re0    Alpha      Xe            Ye            Ze
    1   C      1    1.9255  1.100      0.015451      0.000678     -0.001726
    2   H      2    1.4430  1.100      0.007482     -0.080847      1.085091
    3   H      3    1.4430  1.100     -1.132660      0.020247     -0.331901
    4   H      4    1.4430  1.100      0.519430     -0.865526     -0.436001
    5   H      5    1.4430  1.100      0.513042      0.922060     -0.306832
 ------------------------------------------------------------------------------
 One-electron integrals computed using PRISM.
   1 Symmetry operations used in ECPInt.
 ECPInt:  NShTT=     378 NPrTT=    1024 LenC2=     379 LenP2D=     987.
 LDataN:  DoStor=T MaxTD1= 6 Len=  172
 NBasis=    55 RedAO= T EigKep=  1.62D-03  NBF=    55
 NBsUse=    55 1.00D-06 EigRej= -1.00D+00 NBFU=    55
 ExpMin= 9.52D-02 ExpMax= 1.36D+04 ExpMxC= 4.63D+02 IAcc=3 IRadAn=         5 AccDes= 0.00D+00
 Harris functional with IExCor= 2002 and IRadAn=       5 diagonalized for initial guess.
 HarFok:  IExCor= 2002 AccDes= 0.00D+00 IRadAn=         5 IDoV= 1 UseB2=F ITyADJ=14
 ICtDFT=  3500011 ScaDFX=  1.000000  1.000000  1.000000  1.000000
 FoFCou: FMM=F IPFlag=           0 FMFlag=      100000 FMFlg1=           0
         NFxFlg=           0 DoJE=T BraDBF=F KetDBF=T FulRan=T
         wScrn=  0.000000 ICntrl=       500 IOpCl=  0 I1Cent=   200000004 NGrid=           0
         NMat0=    1 NMatS0=      1 NMatT0=    0 NMatD0=    1 NMtDS0=    0 NMtDT0=    0
 Petite list used in FoFCou.
 Keep J ints in memory in canonical form, NReq=4722199.
 Requested convergence on RMS density matrix=1.00D-08 within 128 cycles.
 Requested convergence on MAX density matrix=1.00D-06.
 Requested convergence on             energy=1.00D-06.
 No special actions if energy rises.
 Inv3:  Mode=1 IEnd=      762048.
 Iteration    1 A*A^-1 deviation from unit magnitude is 3.33D-15 for    500.
 Iteration    1 A*A^-1 deviation from orthogonality  is 9.18D-16 for    500    194.
 Iteration    1 A^-1*A deviation from unit magnitude is 3.33D-15 for    500.
 Iteration    1 A^-1*A deviation from orthogonality  is 8.20D-16 for    418     18.
 Error on total polarization charges =  0.00938
 SCF Done:  E(RO-LYP) =  -40.5045854244     A.U. after    8 cycles
            NFock=  8  Conv=0.65D-08     -V/T= 2.0070

 **********************************************************************

            Population analysis using the SCF density.

 **********************************************************************

 Orbital symmetries:
       Occupied  (A) (A) (A) (A) (A)
       Virtual   (A) (A) (A) (A) (A) (A) (A) (A) (A) (A) (A) (A)
                 (A) (A) (A) (A) (A) (A) (A) (A) (A) (A) (A) (A)
                 (A) (A) (A) (A) (A) (A) (A) (A) (A) (A) (A) (A)
                 (A) (A) (A) (A) (A) (A) (A) (A) (A) (A) (A) (A)
                 (A) (A)
 The electronic state is 1-A.
 Alpha  occ. eigenvalues --   -9.88936  -0.61983  -0.34600  -0.34506  -0.32665
 Alpha virt. eigenvalues --    0.02286   0.08641   0.10180   0.10259   0.17693
 Alpha virt. eigenvalues --    0.17719   0.18331   0.36509   0.39328   0.42881
 Alpha virt. eigenvalues --    0.43004   0.47027   0.55848   0.56044   0.89482
 Alpha virt. eigenvalues --    0.89520   0.89906   1.41067   1.42220   1.43231
 Alpha virt. eigenvalues --    1.44961   1.46278   1.46415   1.48016   1.88693
 Alpha virt. eigenvalues --    1.90337   1.91598   1.94716   2.13871   2.15751
 Alpha virt. eigenvalues --    2.17175   2.30888   2.35014   2.47608   2.49443
 Alpha virt. eigenvalues --    2.50484   2.86548   2.88108   2.91173   3.21228
 Alpha virt. eigenvalues --    3.24932   3.28825   3.37577   3.40117   3.42151
 Alpha virt. eigenvalues --    3.96683   4.09511   4.10454   4.35732  21.86179
          Condensed to atoms (all electrons):
               1          2          3          4          5
     1  C    4.907771   0.401955   0.379911   0.401689   0.402031
     2  H    0.401955   0.542418  -0.024141  -0.023534  -0.023297
     3  H    0.379911  -0.024141   0.570367  -0.019648  -0.019718
     4  H    0.401689  -0.023534  -0.019648   0.538937  -0.024084
     5  H    0.402031  -0.023297  -0.019718  -0.024084   0.538182
 Mulliken charges:
               1
     1  C   -0.493357
     2  H    0.126600
     3  H    0.113231
     4  H    0.126640
     5  H    0.126887
 Sum of Mulliken charges =  -0.00000
 Mulliken charges with hydrogens summed into heavy atoms:
               1
     1  C   -0.000000
 Electronic spatial extent (au):  <R**2>=             36.8070
 Charge=              0.0000 electrons
 Dipole moment (field-independent basis, Debye):
    X=              0.0683    Y=             -0.0040    Z=              0.0521  Tot=              0.0860
 Quadrupole moment (field-independent basis, Debye-Ang):
   XX=             -8.4555   YY=             -8.4806   ZZ=             -8.5760
   XY=              0.0081   XZ=             -0.0975   YZ=              0.0009
 Traceless Quadrupole moment (field-independent basis, Debye-Ang):
   XX=              0.0486   YY=              0.0234   ZZ=             -0.0720
   XY=              0.0081   XZ=             -0.0975   YZ=              0.0009
 Octapole moment (field-independent basis, Debye-Ang**2):
  XXX=             -0.4796  YYY=              0.0986  ZZZ=              1.0151  XYY=              0.7799
  XXY=              0.0223  XXZ=             -0.3924  XZZ=              0.1528  YZZ=             -0.1337
  YYZ=             -0.3980  XYZ=              0.0449
 Hexadecapole moment (field-independent basis, Debye-Ang**3):
 XXXX=            -17.8922 YYYY=            -16.5111 ZZZZ=            -16.4166 XXXY=             -0.0121
 XXXZ=              0.2232 YYYX=              0.1000 YYYZ=              0.0544 ZZZX=             -0.2509
 ZZZY=             -0.0728 XXYY=             -5.8355 XXZZ=             -6.1254 YYZZ=             -5.7702
 XXYZ=              0.0248 YYXZ=             -0.4539 ZZXY=             -0.0475
 N-N= 1.313030132315D+01 E-N=-1.195092102806D+02  KE= 4.022373665485D+01
 1\1\GINC-NODE85\SP\ROLYP\def2TZVP\C1H4\YANZ\22-Sep-2023\0\\# scrf=(cpc
 m,solvent=water) def2tzvp olyp\\tmpdir/M2_conf_0_43.gjf\\0,1\C,0,0.,0.
 ,0.\H,0,1.0899,0.,0.\H,0,-0.32231,0.,-1.15051\H,0,-0.37194,0.89851,0.4
 9723\H,0,-0.3768,-0.89374,0.49888\\Version=ES64L-G16RevA.03\State=1-A\
 HF=-40.5045854\RMSD=6.460e-09\Dipole=0.0203764,0.0001759,0.0270157\Qua
 drupole=-0.0521315,0.017095,0.0350365,0.0043224,-0.073419,-0.0004496\P
 G=C01 [X(C1H4)]\\@


 I SUPPOSE A BABY LLAMA HAS A MMAMA AND A PPOPA.
     -- RICHARD AMOUR
 Job cpu time:       0 days  0 hours  0 minutes 12.4 seconds.
 Elapsed time:       0 days  0 hours  0 minutes  3.2 seconds.
 File lengths (MBytes):  RWF=     10 Int=      0 D2E=      0 Chk=      1 Scr=      1
 Normal termination of Gaussian 16 at Fri Sep 22 16:54:35 2023.
