 Entering Gaussian System, Link 0=g16
 Initial command:
 /share/apps/gaussian/g16/l1.exe "/tmp/55608.mgr/Gau-89325.inp" -scrdir="/tmp/55608.mgr/"
 Entering Link 1 = /share/apps/gaussian/g16/l1.exe PID=     89326.
  
 Copyright (c) 1988,1990,1992,1993,1995,1998,2003,2009,2016,
            Gaussian, Inc.  All Rights Reserved.
  
 This is part of the Gaussian(R) 16 program.  It is based on
 the Gaussian(R) 09 system (copyright 2009, Gaussian, Inc.),
 the Gaussian(R) 03 system (copyright 2003, Gaussian, Inc.),
 the Gaussian(R) 98 system (copyright 1998, Gaussian, Inc.),
 the Gaussian(R) 94 system (copyright 1995, Gaussian, Inc.),
 the Gaussian 92(TM) system (copyright 1992, Gaussian, Inc.),
 the Gaussian 90(TM) system (copyright 1990, Gaussian, Inc.),
 the Gaussian 88(TM) system (copyright 1988, Gaussian, Inc.),
 the Gaussian 86(TM) system (copyright 1986, Carnegie Mellon
 University), and the Gaussian 82(TM) system (copyright 1983,
 Carnegie Mellon University). Gaussian is a federally registered
 trademark of Gaussian, Inc.
  
 This software contains proprietary and confidential information,
 including trade secrets, belonging to Gaussian, Inc.
  
 This software is provided under written license and may be
 used, copied, transmitted, or stored only in accord with that
 written license.
  
 The following legend is applicable only to US Government
 contracts under FAR:
  
                    RESTRICTED RIGHTS LEGEND
  
 Use, reproduction and disclosure by the US Government is
 subject to restrictions as set forth in subparagraphs (a)
 and (c) of the Commercial Computer Software - Restricted
 Rights clause in FAR 52.227-19.
  
 Gaussian, Inc.
 340 Quinnipiac St., Bldg. 40, Wallingford CT 06492
  
  
 ---------------------------------------------------------------
 Warning -- This program may not be used in any manner that
 competes with the business of Gaussian, Inc. or will provide
 assistance to any competitor of Gaussian, Inc.  The licensee
 of this program is prohibited from giving any competitor of
 Gaussian, Inc. access to this program.  By using this program,
 the user acknowledges that Gaussian, Inc. is engaged in the
 business of creating and licensing software in the field of
 computational chemistry and represents and warrants to the
 licensee that it is not a competitor of Gaussian, Inc. and that
 it will not use this program in any manner prohibited above.
 ---------------------------------------------------------------
  

 Cite this work as:
 Gaussian 16, Revision A.03,
 M. J. Frisch, G. W. Trucks, H. B. Schlegel, G. E. Scuseria, 
 M. A. Robb, J. R. Cheeseman, G. Scalmani, V. Barone, 
 G. A. Petersson, H. Nakatsuji, X. Li, M. Caricato, A. V. Marenich, 
 J. Bloino, B. G. Janesko, R. Gomperts, B. Mennucci, H. P. Hratchian, 
 J. V. Ortiz, A. F. Izmaylov, J. L. Sonnenberg, D. Williams-Young, 
 F. Ding, F. Lipparini, F. Egidi, J. Goings, B. Peng, A. Petrone, 
 T. Henderson, D. Ranasinghe, V. G. Zakrzewski, J. Gao, N. Rega, 
 G. Zheng, W. Liang, M. Hada, M. Ehara, K. Toyota, R. Fukuda, 
 J. Hasegawa, M. Ishida, T. Nakajima, Y. Honda, O. Kitao, H. Nakai, 
 T. Vreven, K. Throssell, J. A. Montgomery, Jr., J. E. Peralta, 
 F. Ogliaro, M. J. Bearpark, J. J. Heyd, E. N. Brothers, K. N. Kudin, 
 V. N. Staroverov, T. A. Keith, R. Kobayashi, J. Normand, 
 K. Raghavachari, A. P. Rendell, J. C. Burant, S. S. Iyengar, 
 J. Tomasi, M. Cossi, J. M. Millam, M. Klene, C. Adamo, R. Cammi, 
 J. W. Ochterski, R. L. Martin, K. Morokuma, O. Farkas, 
 J. B. Foresman, and D. J. Fox, Gaussian, Inc., Wallingford CT, 2016.
 
 ******************************************
 Gaussian 16:  ES64L-G16RevA.03 25-Dec-2016
                22-Sep-2023 
 ******************************************
 %nprocshared=4
 Will use up to    4 processors via shared memory.
 %mem=4GB
 -----------------------------------------
 # scrf=(cpcm,solvent=water) def2tzvp olyp
 -----------------------------------------
 1/38=1,172=1/1;
 2/12=2,17=6,18=5,40=1/2;
 3/5=44,7=101,11=2,25=1,30=1,70=2101,72=1,74=2002/1,2,3;
 4//1;
 5/5=2,38=5,53=1/2;
 6/7=2,8=2,9=2,10=2,28=1/1;
 99/5=1,9=1/99;
 -----------------------
 tmpdir/M2_conf_0_35.gjf
 -----------------------
 Symbolic Z-matrix:
 Charge =  0 Multiplicity = 1
 O                     0.        0.        0. 
 P                     1.4973    0.        0. 
 O                     2.02283   0.        1.47179 
 H                     1.99315  -1.1219   -0.65113 
 H                     2.10098   1.03204  -0.60259 
 H                     2.98639   0.06191   1.58272 
 
                          Input orientation:                          
 ---------------------------------------------------------------------
 Center     Atomic      Atomic             Coordinates (Angstroms)
 Number     Number       Type             X           Y           Z
 ---------------------------------------------------------------------
      1          8           0        0.000000    0.000000    0.000000
      2         15           0        1.497300    0.000000    0.000000
      3          8           0        2.022830    0.000000    1.471790
      4          1           0        1.993150   -1.121900   -0.651130
      5          1           0        2.100980    1.032040   -0.602590
      6          1           0        2.986390    0.061910    1.582720
 ---------------------------------------------------------------------
                    Distance matrix (angstroms):
                    1          2          3          4          5
     1  O    0.000000
     2  P    1.497300   0.000000
     3  O    2.501601   1.562801   0.000000
     4  H    2.378083   1.388703   2.401318   0.000000
     5  H    2.417093   1.338899   2.318246   2.157184   0.000000
     6  H    3.380438   2.173988   0.971898   2.716251   2.549644
                    6
     6  H    0.000000
 Stoichiometry    H3O2P
 Framework group  C1[X(H3O2P)]
 Deg. of freedom    12
 Full point group                 C1      NOp   1
 Largest Abelian subgroup         C1      NOp   1
 Largest concise Abelian subgroup C1      NOp   1
                         Standard orientation:                         
 ---------------------------------------------------------------------
 Center     Atomic      Atomic             Coordinates (Angstroms)
 Number     Number       Type             X           Y           Z
 ---------------------------------------------------------------------
      1          8           0        1.291887   -0.515896   -0.006703
      2         15           0        0.089723    0.376689   -0.006197
      3          8           0       -1.209488   -0.491576    0.016416
      4          1           0        0.090221    1.208510    1.105815
      5          1           0       -0.045445    1.207896   -1.047098
      6          1           0       -2.049819   -0.006969   -0.043470
 ---------------------------------------------------------------------
 Rotational constants (GHZ):          28.4844916           8.8869593           7.2277881
 Standard basis: def2TZVP (5D, 7F)
 There are   132 symmetry adapted cartesian basis functions of A   symmetry.
 There are   117 symmetry adapted basis functions of A   symmetry.
   117 basis functions,   195 primitive gaussians,   132 cartesian basis functions
    17 alpha electrons       17 beta electrons
       nuclear repulsion energy       125.2538763316 Hartrees.
 NAtoms=    6 NActive=    6 NUniq=    6 SFac= 1.00D+00 NAtFMM=   60 NAOKFM=F Big=F
 Integral buffers will be    131072 words long.
 Raffenetti 2 integral format.
 Two-electron integral symmetry is turned on.
 ------------------------------------------------------------------------------
 Polarizable Continuum Model (PCM)
 =================================
 Model                : C-PCM.
 Atomic radii         : UFF (Universal Force Field).
 Polarization charges : Total charges.
 Charge compensation  : None.
 Solution method      : On-the-fly selection.
 Cavity type          : Scaled VdW (van der Waals Surface) (Alpha=1.100).
 Cavity algorithm     : GePol (No added spheres)
                        Default sphere list used, NSphG=    6.
                        Lebedev-Laikov grids with approx.  5.0 points / Ang**2.
                        Smoothing algorithm: York/Karplus (Gamma=1.0000).
                        Polarization charges: spherical gaussians, with
                                              point-specific exponents (IZeta= 3).
                        Self-potential: point-specific (ISelfS= 7).
                        Self-field    : sphere-specific E.n sum rule (ISelfD= 2).
 Solvent              : Water, Eps=  78.355300 Eps(inf)=   1.777849
 ------------------------------------------------------------------------------
 Spheres list:
 ISph  on   Nord     Re0    Alpha      Xe            Ye            Ze
    1   O      1    1.7500  1.100      1.291887     -0.515896     -0.006703
    2   P      2    2.0735  1.100      0.089723      0.376689     -0.006197
    3   O      3    1.7500  1.100     -1.209488     -0.491576      0.016416
    4   H      4    1.4430  1.100      0.090221      1.208510      1.105815
    5   H      5    1.4430  1.100     -0.045445      1.207896     -1.047098
    6   H      6    1.4430  1.100     -2.049819     -0.006969     -0.043470
 ------------------------------------------------------------------------------
 One-electron integrals computed using PRISM.
   1 Symmetry operations used in ECPInt.
 ECPInt:  NShTT=    1128 NPrTT=    3744 LenC2=    1124 LenP2D=    3221.
 LDataN:  DoStor=T MaxTD1= 6 Len=  172
 NBasis=   117 RedAO= T EigKep=  2.10D-03  NBF=   117
 NBsUse=   117 1.00D-06 EigRej= -1.00D+00 NBFU=   117
 ExpMin= 9.04D-02 ExpMax= 5.24D+04 ExpMxC= 1.79D+03 IAcc=3 IRadAn=         5 AccDes= 0.00D+00
 Harris functional with IExCor= 2002 and IRadAn=       5 diagonalized for initial guess.
 HarFok:  IExCor= 2002 AccDes= 0.00D+00 IRadAn=         5 IDoV= 1 UseB2=F ITyADJ=14
 ICtDFT=  3500011 ScaDFX=  1.000000  1.000000  1.000000  1.000000
 FoFCou: FMM=F IPFlag=           0 FMFlag=      100000 FMFlg1=           0
         NFxFlg=           0 DoJE=T BraDBF=F KetDBF=T FulRan=T
         wScrn=  0.000000 ICntrl=       500 IOpCl=  0 I1Cent=   200000004 NGrid=           0
         NMat0=    1 NMatS0=      1 NMatT0=    0 NMatD0=    1 NMtDS0=    0 NMtDT0=    0
 Petite list used in FoFCou.
 Keep J ints in memory in canonical form, NReq=27663592.
 Requested convergence on RMS density matrix=1.00D-08 within 128 cycles.
 Requested convergence on MAX density matrix=1.00D-06.
 Requested convergence on             energy=1.00D-06.
 No special actions if energy rises.
 Inv3:  Mode=1 IEnd=     1701027.
 Iteration    1 A*A^-1 deviation from unit magnitude is 3.89D-15 for    718.
 Iteration    1 A*A^-1 deviation from orthogonality  is 1.20D-15 for    677     50.
 Iteration    1 A^-1*A deviation from unit magnitude is 3.66D-15 for    718.
 Iteration    1 A^-1*A deviation from orthogonality  is 8.45D-16 for    740    649.
 Error on total polarization charges =  0.00808
 SCF Done:  E(RO-LYP) =  -493.694081619     A.U. after   11 cycles
            NFock= 11  Conv=0.88D-08     -V/T= 2.0015

 **********************************************************************

            Population analysis using the SCF density.

 **********************************************************************

 Orbital symmetries:
       Occupied  (A) (A) (A) (A) (A) (A) (A) (A) (A) (A) (A) (A)
                 (A) (A) (A) (A) (A)
       Virtual   (A) (A) (A) (A) (A) (A) (A) (A) (A) (A) (A) (A)
                 (A) (A) (A) (A) (A) (A) (A) (A) (A) (A) (A) (A)
                 (A) (A) (A) (A) (A) (A) (A) (A) (A) (A) (A) (A)
                 (A) (A) (A) (A) (A) (A) (A) (A) (A) (A) (A) (A)
                 (A) (A) (A) (A) (A) (A) (A) (A) (A) (A) (A) (A)
                 (A) (A) (A) (A) (A) (A) (A) (A) (A) (A) (A) (A)
                 (A) (A) (A) (A) (A) (A) (A) (A) (A) (A) (A) (A)
                 (A) (A) (A) (A) (A) (A) (A) (A) (A) (A) (A) (A)
                 (A) (A) (A) (A)
 The electronic state is 1-A.
 Alpha  occ. eigenvalues --  -76.36708 -18.80516 -18.72097  -6.39873  -4.60929
 Alpha  occ. eigenvalues --   -4.60655  -4.60572  -0.99025  -0.87868  -0.58627
 Alpha  occ. eigenvalues --   -0.50222  -0.41913  -0.37081  -0.33182  -0.30413
 Alpha  occ. eigenvalues --   -0.25995  -0.24276
 Alpha virt. eigenvalues --   -0.00824   0.00812   0.03621   0.04823   0.08611
 Alpha virt. eigenvalues --    0.16983   0.20127   0.22409   0.27381   0.28140
 Alpha virt. eigenvalues --    0.29157   0.30938   0.35133   0.39759   0.43214
 Alpha virt. eigenvalues --    0.44727   0.46124   0.48193   0.52598   0.57718
 Alpha virt. eigenvalues --    0.59853   0.63362   0.64745   0.76148   0.77523
 Alpha virt. eigenvalues --    1.01764   1.06454   1.09867   1.09929   1.11916
 Alpha virt. eigenvalues --    1.17393   1.22856   1.25391   1.29260   1.33580
 Alpha virt. eigenvalues --    1.37782   1.39072   1.49905   1.51218   1.56051
 Alpha virt. eigenvalues --    1.57522   1.60127   1.74779   1.81130   1.84832
 Alpha virt. eigenvalues --    1.85082   1.86210   1.89395   1.98806   2.02900
 Alpha virt. eigenvalues --    2.06597   2.12526   2.15927   2.17801   2.21879
 Alpha virt. eigenvalues --    2.24678   2.38288   2.44888   2.46983   2.59104
 Alpha virt. eigenvalues --    2.65958   2.67309   2.75325   2.76610   2.80494
 Alpha virt. eigenvalues --    2.84295   2.86387   3.36918   3.62995   3.75436
 Alpha virt. eigenvalues --    4.96437   4.99392   5.02820   5.04959   5.07772
 Alpha virt. eigenvalues --    5.11143   5.16759   5.18774   5.23956   5.25863
 Alpha virt. eigenvalues --    5.27389   5.34469   5.45802   6.00685   6.17139
 Alpha virt. eigenvalues --    6.20827   6.25255   6.38347   6.42213   6.52501
 Alpha virt. eigenvalues --    6.56780   6.63323   6.73792   6.86770   7.20140
 Alpha virt. eigenvalues --    7.52264   7.88129  15.92097  43.06079  43.16764
          Condensed to atoms (all electrons):
               1          2          3          4          5          6
     1  O    7.991399   0.729294  -0.056011  -0.043646  -0.037861   0.003388
     2  P    0.729294  12.581132   0.386428   0.365018   0.359585  -0.000111
     3  O   -0.056011   0.386428   7.876478  -0.034512  -0.036820   0.274871
     4  H   -0.043646   0.365018  -0.034512   0.745226  -0.061675   0.000671
     5  H   -0.037861   0.359585  -0.036820  -0.061675   0.736517  -0.000095
     6  H    0.003388  -0.000111   0.274871   0.000671  -0.000095   0.372200
 Mulliken charges:
               1
     1  O   -0.586563
     2  P    0.578654
     3  O   -0.410433
     4  H    0.028918
     5  H    0.040348
     6  H    0.349076
 Sum of Mulliken charges =  -0.00000
 Mulliken charges with hydrogens summed into heavy atoms:
               1
     1  O   -0.586563
     2  P    0.647919
     3  O   -0.061356
 Electronic spatial extent (au):  <R**2>=            200.0382
 Charge=             -0.0000 electrons
 Dipole moment (field-independent basis, Debye):
    X=             -4.8987    Y=              3.9482    Z=             -0.2160  Tot=              6.2955
 Quadrupole moment (field-independent basis, Debye-Ang):
   XX=            -24.1339   YY=            -24.9396   ZZ=            -23.9084
   XY=              0.5747   XZ=              0.3264   YZ=             -0.1268
 Traceless Quadrupole moment (field-independent basis, Debye-Ang):
   XX=              0.1934   YY=             -0.6123   ZZ=              0.4189
   XY=              0.5747   XZ=              0.3264   YZ=             -0.1268
 Octapole moment (field-independent basis, Debye-Ang**2):
  XXX=            -25.1924  YYY=              1.3142  ZZZ=             -0.3368  XYY=             -1.2380
  XXY=              4.8022  XXZ=             -0.5540  XZZ=             -1.1600  YZZ=              0.3484
  YYZ=             -0.1928  XYZ=             -0.0380
 Hexadecapole moment (field-independent basis, Debye-Ang**3):
 XXXX=           -118.5820 YYYY=            -65.9134 ZZZZ=            -35.6887 XXXY=              1.4045
 XXXZ=              1.1531 YYYX=              1.0323 YYYZ=             -0.4830 ZZZX=              0.1728
 ZZZY=             -0.3181 XXYY=            -37.0019 XXZZ=            -30.9093 YYZZ=            -16.8757
 XXYZ=             -0.1214 YYXZ=              0.1085 ZZXY=              0.3246
 N-N= 1.252538763316D+02 E-N=-1.423353987957D+03  KE= 4.929382919241D+02
 1\1\GINC-NODE85\SP\ROLYP\def2TZVP\H3O2P1\YANZ\22-Sep-2023\0\\# scrf=(c
 pcm,solvent=water) def2tzvp olyp\\tmpdir/M2_conf_0_35.gjf\\0,1\O,0,0.,
 0.,0.\P,0,1.4973,0.,0.\O,0,2.02283,0.,1.47179\H,0,1.99315,-1.1219,-0.6
 5113\H,0,2.10098,1.03204,-0.60259\H,0,2.98639,0.06191,1.58272\\Version
 =ES64L-G16RevA.03\State=1-A\HF=-493.6940816\RMSD=8.765e-09\Dipole=2.47
 33839,0.0843153,-0.0995273\Quadrupole=-0.4782775,0.3136938,0.1645837,0
 .2569785,0.4064259,0.0668289\PG=C01 [X(H3O2P1)]\\@


 BE LIKE A POSTAGE STAMP.  STICK TO ONE THING UNTIL
 YOU GET THERE -- JOSH BILLINGS
 Job cpu time:       0 days  0 hours  0 minutes 37.3 seconds.
 Elapsed time:       0 days  0 hours  0 minutes  9.9 seconds.
 File lengths (MBytes):  RWF=     16 Int=      0 D2E=      0 Chk=      2 Scr=      1
 Normal termination of Gaussian 16 at Fri Sep 22 16:54:58 2023.
