 Entering Gaussian System, Link 0=g16
 Initial command:
 /share/apps/gaussian/g16/l1.exe "/tmp/55608.mgr/Gau-88925.inp" -scrdir="/tmp/55608.mgr/"
 Entering Link 1 = /share/apps/gaussian/g16/l1.exe PID=     88926.
  
 Copyright (c) 1988,1990,1992,1993,1995,1998,2003,2009,2016,
            Gaussian, Inc.  All Rights Reserved.
  
 This is part of the Gaussian(R) 16 program.  It is based on
 the Gaussian(R) 09 system (copyright 2009, Gaussian, Inc.),
 the Gaussian(R) 03 system (copyright 2003, Gaussian, Inc.),
 the Gaussian(R) 98 system (copyright 1998, Gaussian, Inc.),
 the Gaussian(R) 94 system (copyright 1995, Gaussian, Inc.),
 the Gaussian 92(TM) system (copyright 1992, Gaussian, Inc.),
 the Gaussian 90(TM) system (copyright 1990, Gaussian, Inc.),
 the Gaussian 88(TM) system (copyright 1988, Gaussian, Inc.),
 the Gaussian 86(TM) system (copyright 1986, Carnegie Mellon
 University), and the Gaussian 82(TM) system (copyright 1983,
 Carnegie Mellon University). Gaussian is a federally registered
 trademark of Gaussian, Inc.
  
 This software contains proprietary and confidential information,
 including trade secrets, belonging to Gaussian, Inc.
  
 This software is provided under written license and may be
 used, copied, transmitted, or stored only in accord with that
 written license.
  
 The following legend is applicable only to US Government
 contracts under FAR:
  
                    RESTRICTED RIGHTS LEGEND
  
 Use, reproduction and disclosure by the US Government is
 subject to restrictions as set forth in subparagraphs (a)
 and (c) of the Commercial Computer Software - Restricted
 Rights clause in FAR 52.227-19.
  
 Gaussian, Inc.
 340 Quinnipiac St., Bldg. 40, Wallingford CT 06492
  
  
 ---------------------------------------------------------------
 Warning -- This program may not be used in any manner that
 competes with the business of Gaussian, Inc. or will provide
 assistance to any competitor of Gaussian, Inc.  The licensee
 of this program is prohibited from giving any competitor of
 Gaussian, Inc. access to this program.  By using this program,
 the user acknowledges that Gaussian, Inc. is engaged in the
 business of creating and licensing software in the field of
 computational chemistry and represents and warrants to the
 licensee that it is not a competitor of Gaussian, Inc. and that
 it will not use this program in any manner prohibited above.
 ---------------------------------------------------------------
  

 Cite this work as:
 Gaussian 16, Revision A.03,
 M. J. Frisch, G. W. Trucks, H. B. Schlegel, G. E. Scuseria, 
 M. A. Robb, J. R. Cheeseman, G. Scalmani, V. Barone, 
 G. A. Petersson, H. Nakatsuji, X. Li, M. Caricato, A. V. Marenich, 
 J. Bloino, B. G. Janesko, R. Gomperts, B. Mennucci, H. P. Hratchian, 
 J. V. Ortiz, A. F. Izmaylov, J. L. Sonnenberg, D. Williams-Young, 
 F. Ding, F. Lipparini, F. Egidi, J. Goings, B. Peng, A. Petrone, 
 T. Henderson, D. Ranasinghe, V. G. Zakrzewski, J. Gao, N. Rega, 
 G. Zheng, W. Liang, M. Hada, M. Ehara, K. Toyota, R. Fukuda, 
 J. Hasegawa, M. Ishida, T. Nakajima, Y. Honda, O. Kitao, H. Nakai, 
 T. Vreven, K. Throssell, J. A. Montgomery, Jr., J. E. Peralta, 
 F. Ogliaro, M. J. Bearpark, J. J. Heyd, E. N. Brothers, K. N. Kudin, 
 V. N. Staroverov, T. A. Keith, R. Kobayashi, J. Normand, 
 K. Raghavachari, A. P. Rendell, J. C. Burant, S. S. Iyengar, 
 J. Tomasi, M. Cossi, J. M. Millam, M. Klene, C. Adamo, R. Cammi, 
 J. W. Ochterski, R. L. Martin, K. Morokuma, O. Farkas, 
 J. B. Foresman, and D. J. Fox, Gaussian, Inc., Wallingford CT, 2016.
 
 ******************************************
 Gaussian 16:  ES64L-G16RevA.03 25-Dec-2016
                22-Sep-2023 
 ******************************************
 %nprocshared=4
 Will use up to    4 processors via shared memory.
 %mem=4GB
 -----------------------------------------
 # scrf=(cpcm,solvent=water) def2tzvp olyp
 -----------------------------------------
 1/38=1,172=1/1;
 2/12=2,17=6,18=5,40=1/2;
 3/5=44,7=101,11=2,25=1,30=1,70=2101,72=1,74=2002/1,2,3;
 4//1;
 5/5=2,38=5,53=1/2;
 6/7=2,8=2,9=2,10=2,28=1/1;
 99/5=1,9=1/99;
 -----------------------
 tmpdir/M2_conf_0_32.gjf
 -----------------------
 Symbolic Z-matrix:
 Charge =  0 Multiplicity = 1
 O                     0.        0.        0. 
 P                     1.6214    0.        0. 
 O                     2.17793   0.        1.39003 
 H                    -0.53272  -0.41257   0.5903 
 H                     2.04412  -1.08562  -0.65903 
 H                     1.95709   1.03921  -0.7746 
 
                          Input orientation:                          
 ---------------------------------------------------------------------
 Center     Atomic      Atomic             Coordinates (Angstroms)
 Number     Number       Type             X           Y           Z
 ---------------------------------------------------------------------
      1          8           0        0.000000    0.000000    0.000000
      2         15           0        1.621400    0.000000    0.000000
      3          8           0        2.177930    0.000000    1.390030
      4          1           0       -0.532720   -0.412570    0.590300
      5          1           0        2.044120   -1.085620   -0.659030
      6          1           0        1.957090    1.039210   -0.774600
 ---------------------------------------------------------------------
                    Distance matrix (angstroms):
                    1          2          3          4          5
     1  O    0.000000
     2  P    1.621400   0.000000
     3  O    2.583711   1.497301   0.000000
     4  H    0.895801   2.271321   2.856117   0.000000
     5  H    2.406516   1.338500   2.322740   2.941756   0.000000
     6  H    2.347374   1.338899   2.411296   3.189008   2.129750
                    6
     6  H    0.000000
 Stoichiometry    H3O2P
 Framework group  C1[X(H3O2P)]
 Deg. of freedom    12
 Full point group                 C1      NOp   1
 Largest Abelian subgroup         C1      NOp   1
 Largest concise Abelian subgroup C1      NOp   1
                         Standard orientation:                         
 ---------------------------------------------------------------------
 Center     Atomic      Atomic             Coordinates (Angstroms)
 Number     Number       Type             X           Y           Z
 ---------------------------------------------------------------------
      1          8           0        1.329231   -0.299874   -0.055796
      2         15           0       -0.132423    0.398618    0.012144
      3          8           0       -1.235208   -0.613462   -0.026155
      4          1           0        1.561893   -1.084941    0.307517
      5          1           0       -0.208277    1.111179    1.142669
      6          1           0       -0.119451    1.301178   -0.976728
 ---------------------------------------------------------------------
 Rotational constants (GHZ):          26.8320335           8.6799060           6.9986169
 Standard basis: def2TZVP (5D, 7F)
 There are   132 symmetry adapted cartesian basis functions of A   symmetry.
 There are   117 symmetry adapted basis functions of A   symmetry.
   117 basis functions,   195 primitive gaussians,   132 cartesian basis functions
    17 alpha electrons       17 beta electrons
       nuclear repulsion energy       123.9797206053 Hartrees.
 NAtoms=    6 NActive=    6 NUniq=    6 SFac= 1.00D+00 NAtFMM=   60 NAOKFM=F Big=F
 Integral buffers will be    131072 words long.
 Raffenetti 2 integral format.
 Two-electron integral symmetry is turned on.
 ------------------------------------------------------------------------------
 Polarizable Continuum Model (PCM)
 =================================
 Model                : C-PCM.
 Atomic radii         : UFF (Universal Force Field).
 Polarization charges : Total charges.
 Charge compensation  : None.
 Solution method      : On-the-fly selection.
 Cavity type          : Scaled VdW (van der Waals Surface) (Alpha=1.100).
 Cavity algorithm     : GePol (No added spheres)
                        Default sphere list used, NSphG=    6.
                        Lebedev-Laikov grids with approx.  5.0 points / Ang**2.
                        Smoothing algorithm: York/Karplus (Gamma=1.0000).
                        Polarization charges: spherical gaussians, with
                                              point-specific exponents (IZeta= 3).
                        Self-potential: point-specific (ISelfS= 7).
                        Self-field    : sphere-specific E.n sum rule (ISelfD= 2).
 Solvent              : Water, Eps=  78.355300 Eps(inf)=   1.777849
 ------------------------------------------------------------------------------
 Spheres list:
 ISph  on   Nord     Re0    Alpha      Xe            Ye            Ze
    1   O      1    1.7500  1.100      1.329231     -0.299874     -0.055796
    2   P      2    2.0735  1.100     -0.132423      0.398618      0.012144
    3   O      3    1.7500  1.100     -1.235208     -0.613462     -0.026155
    4   H      4    1.4430  1.100      1.561893     -1.084941      0.307517
    5   H      5    1.4430  1.100     -0.208277      1.111179      1.142669
    6   H      6    1.4430  1.100     -0.119451      1.301178     -0.976728
 ------------------------------------------------------------------------------
 One-electron integrals computed using PRISM.
   1 Symmetry operations used in ECPInt.
 ECPInt:  NShTT=    1128 NPrTT=    3744 LenC2=    1123 LenP2D=    3216.
 LDataN:  DoStor=T MaxTD1= 6 Len=  172
 NBasis=   117 RedAO= T EigKep=  2.09D-03  NBF=   117
 NBsUse=   117 1.00D-06 EigRej= -1.00D+00 NBFU=   117
 ExpMin= 9.04D-02 ExpMax= 5.24D+04 ExpMxC= 1.79D+03 IAcc=3 IRadAn=         5 AccDes= 0.00D+00
 Harris functional with IExCor= 2002 and IRadAn=       5 diagonalized for initial guess.
 HarFok:  IExCor= 2002 AccDes= 0.00D+00 IRadAn=         5 IDoV= 1 UseB2=F ITyADJ=14
 ICtDFT=  3500011 ScaDFX=  1.000000  1.000000  1.000000  1.000000
 FoFCou: FMM=F IPFlag=           0 FMFlag=      100000 FMFlg1=           0
         NFxFlg=           0 DoJE=T BraDBF=F KetDBF=T FulRan=T
         wScrn=  0.000000 ICntrl=       500 IOpCl=  0 I1Cent=   200000004 NGrid=           0
         NMat0=    1 NMatS0=      1 NMatT0=    0 NMatD0=    1 NMtDS0=    0 NMtDT0=    0
 Petite list used in FoFCou.
 Keep J ints in memory in canonical form, NReq=27663592.
 Requested convergence on RMS density matrix=1.00D-08 within 128 cycles.
 Requested convergence on MAX density matrix=1.00D-06.
 Requested convergence on             energy=1.00D-06.
 No special actions if energy rises.
 Inv3:  Mode=1 IEnd=     1714608.
 Iteration    1 A*A^-1 deviation from unit magnitude is 2.89D-15 for    744.
 Iteration    1 A*A^-1 deviation from orthogonality  is 1.48D-15 for    632     69.
 Iteration    1 A^-1*A deviation from unit magnitude is 2.89D-15 for    744.
 Iteration    1 A^-1*A deviation from orthogonality  is 1.80D-15 for    602    102.
 Error on total polarization charges =  0.00789
 SCF Done:  E(RO-LYP) =  -493.684004027     A.U. after   11 cycles
            NFock= 11  Conv=0.83D-08     -V/T= 2.0014

 **********************************************************************

            Population analysis using the SCF density.

 **********************************************************************

 Orbital symmetries:
       Occupied  (A) (A) (A) (A) (A) (A) (A) (A) (A) (A) (A) (A)
                 (A) (A) (A) (A) (A)
       Virtual   (A) (A) (A) (A) (A) (A) (A) (A) (A) (A) (A) (A)
                 (A) (A) (A) (A) (A) (A) (A) (A) (A) (A) (A) (A)
                 (A) (A) (A) (A) (A) (A) (A) (A) (A) (A) (A) (A)
                 (A) (A) (A) (A) (A) (A) (A) (A) (A) (A) (A) (A)
                 (A) (A) (A) (A) (A) (A) (A) (A) (A) (A) (A) (A)
                 (A) (A) (A) (A) (A) (A) (A) (A) (A) (A) (A) (A)
                 (A) (A) (A) (A) (A) (A) (A) (A) (A) (A) (A) (A)
                 (A) (A) (A) (A) (A) (A) (A) (A) (A) (A) (A) (A)
                 (A) (A) (A) (A)
 The electronic state is 1-A.
 Alpha  occ. eigenvalues --  -76.37321 -18.78936 -18.71982  -6.40414  -4.61507
 Alpha  occ. eigenvalues --   -4.61172  -4.61105  -0.97915  -0.87907  -0.61301
 Alpha  occ. eigenvalues --   -0.48559  -0.42021  -0.37600  -0.32607  -0.30113
 Alpha  occ. eigenvalues --   -0.25362  -0.24312
 Alpha virt. eigenvalues --   -0.00965   0.00930   0.03509   0.05700   0.08176
 Alpha virt. eigenvalues --    0.16534   0.20484   0.22152   0.24026   0.27317
 Alpha virt. eigenvalues --    0.30198   0.32181   0.37237   0.40446   0.43287
 Alpha virt. eigenvalues --    0.45660   0.47703   0.50650   0.52984   0.56461
 Alpha virt. eigenvalues --    0.61852   0.64025   0.66921   0.71381   0.76616
 Alpha virt. eigenvalues --    1.04008   1.06083   1.08947   1.11487   1.14695
 Alpha virt. eigenvalues --    1.15612   1.21468   1.27865   1.28742   1.32657
 Alpha virt. eigenvalues --    1.36948   1.38404   1.46618   1.49225   1.54429
 Alpha virt. eigenvalues --    1.57231   1.62702   1.70037   1.76617   1.78560
 Alpha virt. eigenvalues --    1.85413   1.89939   1.95483   2.01613   2.02913
 Alpha virt. eigenvalues --    2.05131   2.09866   2.16091   2.18215   2.23948
 Alpha virt. eigenvalues --    2.28263   2.39398   2.48958   2.54562   2.60796
 Alpha virt. eigenvalues --    2.65174   2.72822   2.77468   2.79678   2.82417
 Alpha virt. eigenvalues --    2.85360   2.88054   3.31493   3.63527   3.83212
 Alpha virt. eigenvalues --    4.96805   4.97393   5.02321   5.03537   5.07819
 Alpha virt. eigenvalues --    5.09182   5.14277   5.17958   5.22890   5.24954
 Alpha virt. eigenvalues --    5.37074   5.39427   5.46123   6.15508   6.18270
 Alpha virt. eigenvalues --    6.20633   6.25989   6.40334   6.44687   6.52393
 Alpha virt. eigenvalues --    6.57491   6.59855   6.73703   6.92793   7.21188
 Alpha virt. eigenvalues --    7.49465   7.83538  15.82169  43.08450  43.09853
          Condensed to atoms (all electrons):
               1          2          3          4          5          6
     1  O    7.848893   0.407319  -0.068374   0.315480  -0.032208  -0.021721
     2  P    0.407319  12.568043   0.713677  -0.017647   0.371832   0.354041
     3  O   -0.068374   0.713677   8.014680   0.002403  -0.045830  -0.034800
     4  H    0.315480  -0.017647   0.002403   0.372307   0.000201   0.003730
     5  H   -0.032208   0.371832  -0.045830   0.000201   0.727993  -0.064363
     6  H   -0.021721   0.354041  -0.034800   0.003730  -0.064363   0.700605
 Mulliken charges:
               1
     1  O   -0.449389
     2  P    0.602734
     3  O   -0.581757
     4  H    0.323526
     5  H    0.042375
     6  H    0.062509
 Sum of Mulliken charges =  -0.00000
 Mulliken charges with hydrogens summed into heavy atoms:
               1
     1  O   -0.125862
     2  P    0.707619
     3  O   -0.581757
 Electronic spatial extent (au):  <R**2>=            203.9426
 Charge=             -0.0000 electrons
 Dipole moment (field-independent basis, Debye):
    X=              3.0042    Y=              2.0145    Z=              0.8067  Tot=              3.7059
 Quadrupole moment (field-independent basis, Debye-Ang):
   XX=            -28.8557   YY=            -21.7076   ZZ=            -23.4231
   XY=             -5.3716   XZ=              1.2127   YZ=             -1.2115
 Traceless Quadrupole moment (field-independent basis, Debye-Ang):
   XX=             -4.1936   YY=              2.9545   ZZ=              1.2390
   XY=             -5.3716   XZ=              1.2127   YZ=             -1.2115
 Octapole moment (field-independent basis, Debye-Ang**2):
  XXX=              9.9754  YYY=             -1.8395  ZZZ=              0.3066  XYY=              6.1778
  XXY=             -1.8031  XXZ=              2.3206  XZZ=              1.1399  YZZ=              0.1826
  YYZ=              0.7588  XYZ=             -1.3558
 Hexadecapole moment (field-independent basis, Debye-Ang**3):
 XXXX=           -153.0046 YYYY=            -62.8359 ZZZZ=            -34.5751 XXXY=            -14.6656
 XXXZ=              3.7653 YYYX=             -8.9033 YYYZ=             -2.2429 ZZZX=              0.7471
 ZZZY=             -0.9902 XXYY=            -30.2309 XXZZ=            -30.7703 YYZZ=            -16.3267
 XXYZ=             -2.5473 YYXZ=              1.6524 ZZXY=             -1.6537
 N-N= 1.239797206053D+02 E-N=-1.420775540869D+03  KE= 4.929912944967D+02
 1\1\GINC-NODE85\SP\ROLYP\def2TZVP\H3O2P1\YANZ\22-Sep-2023\0\\# scrf=(c
 pcm,solvent=water) def2tzvp olyp\\tmpdir/M2_conf_0_32.gjf\\0,1\O,0,0.,
 0.,0.\P,0,1.6214,0.,0.\O,0,2.17793,0.,1.39003\H,0,-0.53272,-0.41257,0.
 5903\H,0,2.04412,-1.08562,-0.65903\H,0,1.95709,1.03921,-0.7746\\Versio
 n=ES64L-G16RevA.03\State=1-A\HF=-493.684004\RMSD=8.289e-09\Dipole=-0.7
 107559,-0.2927677,-1.2389338\Quadrupole=0.8768372,1.0707094,-1.9475466
 ,1.4008846,-4.4967244,-0.4834352\PG=C01 [X(H3O2P1)]\\@


 The most important thing in communication is to hear what isn't being said.
 -- Peter F. Drucker
 Job cpu time:       0 days  0 hours  0 minutes 42.3 seconds.
 Elapsed time:       0 days  0 hours  0 minutes 11.3 seconds.
 File lengths (MBytes):  RWF=     16 Int=      0 D2E=      0 Chk=      2 Scr=      1
 Normal termination of Gaussian 16 at Fri Sep 22 16:54:42 2023.
