 Entering Gaussian System, Link 0=g16
 Initial command:
 /share/apps/gaussian/g16/l1.exe "/tmp/55608.mgr/Gau-88594.inp" -scrdir="/tmp/55608.mgr/"
 Entering Link 1 = /share/apps/gaussian/g16/l1.exe PID=     88595.
  
 Copyright (c) 1988,1990,1992,1993,1995,1998,2003,2009,2016,
            Gaussian, Inc.  All Rights Reserved.
  
 This is part of the Gaussian(R) 16 program.  It is based on
 the Gaussian(R) 09 system (copyright 2009, Gaussian, Inc.),
 the Gaussian(R) 03 system (copyright 2003, Gaussian, Inc.),
 the Gaussian(R) 98 system (copyright 1998, Gaussian, Inc.),
 the Gaussian(R) 94 system (copyright 1995, Gaussian, Inc.),
 the Gaussian 92(TM) system (copyright 1992, Gaussian, Inc.),
 the Gaussian 90(TM) system (copyright 1990, Gaussian, Inc.),
 the Gaussian 88(TM) system (copyright 1988, Gaussian, Inc.),
 the Gaussian 86(TM) system (copyright 1986, Carnegie Mellon
 University), and the Gaussian 82(TM) system (copyright 1983,
 Carnegie Mellon University). Gaussian is a federally registered
 trademark of Gaussian, Inc.
  
 This software contains proprietary and confidential information,
 including trade secrets, belonging to Gaussian, Inc.
  
 This software is provided under written license and may be
 used, copied, transmitted, or stored only in accord with that
 written license.
  
 The following legend is applicable only to US Government
 contracts under FAR:
  
                    RESTRICTED RIGHTS LEGEND
  
 Use, reproduction and disclosure by the US Government is
 subject to restrictions as set forth in subparagraphs (a)
 and (c) of the Commercial Computer Software - Restricted
 Rights clause in FAR 52.227-19.
  
 Gaussian, Inc.
 340 Quinnipiac St., Bldg. 40, Wallingford CT 06492
  
  
 ---------------------------------------------------------------
 Warning -- This program may not be used in any manner that
 competes with the business of Gaussian, Inc. or will provide
 assistance to any competitor of Gaussian, Inc.  The licensee
 of this program is prohibited from giving any competitor of
 Gaussian, Inc. access to this program.  By using this program,
 the user acknowledges that Gaussian, Inc. is engaged in the
 business of creating and licensing software in the field of
 computational chemistry and represents and warrants to the
 licensee that it is not a competitor of Gaussian, Inc. and that
 it will not use this program in any manner prohibited above.
 ---------------------------------------------------------------
  

 Cite this work as:
 Gaussian 16, Revision A.03,
 M. J. Frisch, G. W. Trucks, H. B. Schlegel, G. E. Scuseria, 
 M. A. Robb, J. R. Cheeseman, G. Scalmani, V. Barone, 
 G. A. Petersson, H. Nakatsuji, X. Li, M. Caricato, A. V. Marenich, 
 J. Bloino, B. G. Janesko, R. Gomperts, B. Mennucci, H. P. Hratchian, 
 J. V. Ortiz, A. F. Izmaylov, J. L. Sonnenberg, D. Williams-Young, 
 F. Ding, F. Lipparini, F. Egidi, J. Goings, B. Peng, A. Petrone, 
 T. Henderson, D. Ranasinghe, V. G. Zakrzewski, J. Gao, N. Rega, 
 G. Zheng, W. Liang, M. Hada, M. Ehara, K. Toyota, R. Fukuda, 
 J. Hasegawa, M. Ishida, T. Nakajima, Y. Honda, O. Kitao, H. Nakai, 
 T. Vreven, K. Throssell, J. A. Montgomery, Jr., J. E. Peralta, 
 F. Ogliaro, M. J. Bearpark, J. J. Heyd, E. N. Brothers, K. N. Kudin, 
 V. N. Staroverov, T. A. Keith, R. Kobayashi, J. Normand, 
 K. Raghavachari, A. P. Rendell, J. C. Burant, S. S. Iyengar, 
 J. Tomasi, M. Cossi, J. M. Millam, M. Klene, C. Adamo, R. Cammi, 
 J. W. Ochterski, R. L. Martin, K. Morokuma, O. Farkas, 
 J. B. Foresman, and D. J. Fox, Gaussian, Inc., Wallingford CT, 2016.
 
 ******************************************
 Gaussian 16:  ES64L-G16RevA.03 25-Dec-2016
                22-Sep-2023 
 ******************************************
 %nprocshared=4
 Will use up to    4 processors via shared memory.
 %mem=4GB
 -----------------------------------------
 # scrf=(cpcm,solvent=water) def2tzvp olyp
 -----------------------------------------
 1/38=1,172=1/1;
 2/12=2,17=6,18=5,40=1/2;
 3/5=44,7=101,11=2,25=1,30=1,70=2101,72=1,74=2002/1,2,3;
 4//1;
 5/5=2,38=5,53=1/2;
 6/7=2,8=2,9=2,10=2,28=1/1;
 99/5=1,9=1/99;
 -----------------------
 tmpdir/M2_conf_0_25.gjf
 -----------------------
 Symbolic Z-matrix:
 Charge =  0 Multiplicity = 1
 O                     0.        0.        0. 
 P                     1.6105    0.        0. 
 H                    -0.53272   0.       -0.72019 
 O                     2.14513  -0.8012   -1.14636 
 H                     2.03322   1.26735  -0.08196 
 H                     1.94619  -0.40805   1.23023 
 
                          Input orientation:                          
 ---------------------------------------------------------------------
 Center     Atomic      Atomic             Coordinates (Angstroms)
 Number     Number       Type             X           Y           Z
 ---------------------------------------------------------------------
      1          8           0        0.000000    0.000000    0.000000
      2         15           0        1.610500    0.000000    0.000000
      3          1           0       -0.532720    0.000000   -0.720190
      4          8           0        2.145130   -0.801200   -1.146360
      5          1           0        2.033220    1.267350   -0.081960
      6          1           0        1.946190   -0.408050    1.230230
 ---------------------------------------------------------------------
                    Distance matrix (angstroms):
                    1          2          3          4          5
     1  O    0.000000
     2  P    1.610500   0.000000
     3  H    0.895804   2.260988   0.000000
     4  O    2.560790   1.497295   2.827441   0.000000
     5  H    2.397264   1.338501   2.932160   2.329028   0.000000
     6  H    2.338296   1.338902   3.180509   2.417090   2.129878
                    6
     6  H    0.000000
 Stoichiometry    H3O2P
 Framework group  C1[X(H3O2P)]
 Deg. of freedom    12
 Full point group                 C1      NOp   1
 Largest Abelian subgroup         C1      NOp   1
 Largest concise Abelian subgroup C1      NOp   1
                         Standard orientation:                         
 ---------------------------------------------------------------------
 Center     Atomic      Atomic             Coordinates (Angstroms)
 Number     Number       Type             X           Y           Z
 ---------------------------------------------------------------------
      1          8           0        1.315248   -0.305438   -0.055677
      2         15           0       -0.129615    0.402726    0.012018
      3          1           0        1.540369   -1.092421    0.308250
      4          8           0       -1.226496   -0.615756   -0.025923
      5          1           0       -0.197815    1.116906    1.142011
      6          1           0       -0.108340    1.304170   -0.977732
 ---------------------------------------------------------------------
 Rotational constants (GHZ):          26.4959772           8.8363901           7.0763493
 Standard basis: def2TZVP (5D, 7F)
 There are   132 symmetry adapted cartesian basis functions of A   symmetry.
 There are   117 symmetry adapted basis functions of A   symmetry.
   117 basis functions,   195 primitive gaussians,   132 cartesian basis functions
    17 alpha electrons       17 beta electrons
       nuclear repulsion energy       124.3989288733 Hartrees.
 NAtoms=    6 NActive=    6 NUniq=    6 SFac= 1.00D+00 NAtFMM=   60 NAOKFM=F Big=F
 Integral buffers will be    131072 words long.
 Raffenetti 2 integral format.
 Two-electron integral symmetry is turned on.
 ------------------------------------------------------------------------------
 Polarizable Continuum Model (PCM)
 =================================
 Model                : C-PCM.
 Atomic radii         : UFF (Universal Force Field).
 Polarization charges : Total charges.
 Charge compensation  : None.
 Solution method      : On-the-fly selection.
 Cavity type          : Scaled VdW (van der Waals Surface) (Alpha=1.100).
 Cavity algorithm     : GePol (No added spheres)
                        Default sphere list used, NSphG=    6.
                        Lebedev-Laikov grids with approx.  5.0 points / Ang**2.
                        Smoothing algorithm: York/Karplus (Gamma=1.0000).
                        Polarization charges: spherical gaussians, with
                                              point-specific exponents (IZeta= 3).
                        Self-potential: point-specific (ISelfS= 7).
                        Self-field    : sphere-specific E.n sum rule (ISelfD= 2).
 Solvent              : Water, Eps=  78.355300 Eps(inf)=   1.777849
 ------------------------------------------------------------------------------
 Spheres list:
 ISph  on   Nord     Re0    Alpha      Xe            Ye            Ze
    1   O      1    1.7500  1.100      1.315248     -0.305438     -0.055677
    2   P      2    2.0735  1.100     -0.129615      0.402726      0.012018
    3   H      3    1.4430  1.100      1.540369     -1.092421      0.308250
    4   O      4    1.7500  1.100     -1.226496     -0.615756     -0.025923
    5   H      5    1.4430  1.100     -0.197815      1.116906      1.142011
    6   H      6    1.4430  1.100     -0.108340      1.304170     -0.977732
 ------------------------------------------------------------------------------
 One-electron integrals computed using PRISM.
   1 Symmetry operations used in ECPInt.
 ECPInt:  NShTT=    1128 NPrTT=    3744 LenC2=    1123 LenP2D=    3219.
 LDataN:  DoStor=T MaxTD1= 6 Len=  172
 NBasis=   117 RedAO= T EigKep=  2.07D-03  NBF=   117
 NBsUse=   117 1.00D-06 EigRej= -1.00D+00 NBFU=   117
 ExpMin= 9.04D-02 ExpMax= 5.24D+04 ExpMxC= 1.79D+03 IAcc=3 IRadAn=         5 AccDes= 0.00D+00
 Harris functional with IExCor= 2002 and IRadAn=       5 diagonalized for initial guess.
 HarFok:  IExCor= 2002 AccDes= 0.00D+00 IRadAn=         5 IDoV= 1 UseB2=F ITyADJ=14
 ICtDFT=  3500011 ScaDFX=  1.000000  1.000000  1.000000  1.000000
 FoFCou: FMM=F IPFlag=           0 FMFlag=      100000 FMFlg1=           0
         NFxFlg=           0 DoJE=T BraDBF=F KetDBF=T FulRan=T
         wScrn=  0.000000 ICntrl=       500 IOpCl=  0 I1Cent=   200000004 NGrid=           0
         NMat0=    1 NMatS0=      1 NMatT0=    0 NMatD0=    1 NMtDS0=    0 NMtDT0=    0
 Petite list used in FoFCou.
 Keep J ints in memory in canonical form, NReq=27663592.
 Requested convergence on RMS density matrix=1.00D-08 within 128 cycles.
 Requested convergence on MAX density matrix=1.00D-06.
 Requested convergence on             energy=1.00D-06.
 No special actions if energy rises.
 Inv3:  Mode=1 IEnd=     1714608.
 Iteration    1 A*A^-1 deviation from unit magnitude is 2.55D-15 for    113.
 Iteration    1 A*A^-1 deviation from orthogonality  is 1.45D-15 for    670    189.
 Iteration    1 A^-1*A deviation from unit magnitude is 2.78D-15 for    113.
 Iteration    1 A^-1*A deviation from orthogonality  is 1.08D-15 for    670    189.
 Error on total polarization charges =  0.00790
 SCF Done:  E(RO-LYP) =  -493.683950368     A.U. after   11 cycles
            NFock= 11  Conv=0.83D-08     -V/T= 2.0014

 **********************************************************************

            Population analysis using the SCF density.

 **********************************************************************

 Orbital symmetries:
       Occupied  (A) (A) (A) (A) (A) (A) (A) (A) (A) (A) (A) (A)
                 (A) (A) (A) (A) (A)
       Virtual   (A) (A) (A) (A) (A) (A) (A) (A) (A) (A) (A) (A)
                 (A) (A) (A) (A) (A) (A) (A) (A) (A) (A) (A) (A)
                 (A) (A) (A) (A) (A) (A) (A) (A) (A) (A) (A) (A)
                 (A) (A) (A) (A) (A) (A) (A) (A) (A) (A) (A) (A)
                 (A) (A) (A) (A) (A) (A) (A) (A) (A) (A) (A) (A)
                 (A) (A) (A) (A) (A) (A) (A) (A) (A) (A) (A) (A)
                 (A) (A) (A) (A) (A) (A) (A) (A) (A) (A) (A) (A)
                 (A) (A) (A) (A) (A) (A) (A) (A) (A) (A) (A) (A)
                 (A) (A) (A) (A)
 The electronic state is 1-A.
 Alpha  occ. eigenvalues --  -76.37222 -18.78925 -18.71888  -6.40331  -4.61425
 Alpha  occ. eigenvalues --   -4.61090  -4.61018  -0.98161  -0.87810  -0.61410
 Alpha  occ. eigenvalues --   -0.48630  -0.42068  -0.37676  -0.32588  -0.30171
 Alpha  occ. eigenvalues --   -0.25238  -0.24295
 Alpha virt. eigenvalues --   -0.00928   0.01011   0.03485   0.05730   0.08336
 Alpha virt. eigenvalues --    0.16589   0.20534   0.22500   0.24017   0.27265
 Alpha virt. eigenvalues --    0.30165   0.32354   0.37388   0.40456   0.43264
 Alpha virt. eigenvalues --    0.45662   0.47636   0.50741   0.53053   0.56397
 Alpha virt. eigenvalues --    0.62048   0.64005   0.67066   0.71315   0.76581
 Alpha virt. eigenvalues --    1.04034   1.06168   1.08977   1.11620   1.14793
 Alpha virt. eigenvalues --    1.15520   1.21548   1.28189   1.28985   1.32873
 Alpha virt. eigenvalues --    1.36965   1.38861   1.46614   1.49411   1.54295
 Alpha virt. eigenvalues --    1.57087   1.63146   1.70421   1.77223   1.78614
 Alpha virt. eigenvalues --    1.85010   1.89873   1.95414   2.01498   2.03236
 Alpha virt. eigenvalues --    2.05441   2.10036   2.16448   2.18517   2.24304
 Alpha virt. eigenvalues --    2.28399   2.39484   2.49072   2.54693   2.60967
 Alpha virt. eigenvalues --    2.65528   2.72806   2.77547   2.80488   2.82242
 Alpha virt. eigenvalues --    2.85431   2.88273   3.32662   3.63322   3.83554
 Alpha virt. eigenvalues --    4.96781   4.97346   5.02372   5.03814   5.07881
 Alpha virt. eigenvalues --    5.09730   5.14532   5.18147   5.22849   5.25183
 Alpha virt. eigenvalues --    5.37463   5.39449   5.46188   6.15555   6.18889
 Alpha virt. eigenvalues --    6.20691   6.26183   6.40740   6.44831   6.52501
 Alpha virt. eigenvalues --    6.57822   6.60604   6.73777   6.92949   7.21421
 Alpha virt. eigenvalues --    7.50768   7.83832  15.85432  43.09044  43.09744
          Condensed to atoms (all electrons):
               1          2          3          4          5          6
     1  O    7.840635   0.413749   0.316233  -0.071697  -0.032343  -0.021704
     2  P    0.413749  12.562446  -0.017976   0.715209   0.371532   0.353317
     3  H    0.316233  -0.017976   0.371603   0.002622   0.000189   0.003828
     4  O   -0.071697   0.715209   0.002622   8.017346  -0.045337  -0.034500
     5  H   -0.032343   0.371532   0.000189  -0.045337   0.729143  -0.064706
     6  H   -0.021704   0.353317   0.003828  -0.034500  -0.064706   0.701991
 Mulliken charges:
               1
     1  O   -0.444873
     2  P    0.601722
     3  H    0.323500
     4  O   -0.583643
     5  H    0.041520
     6  H    0.061773
 Sum of Mulliken charges =  -0.00000
 Mulliken charges with hydrogens summed into heavy atoms:
               1
     1  O   -0.121373
     2  P    0.705016
     4  O   -0.583643
 Electronic spatial extent (au):  <R**2>=            202.4113
 Charge=             -0.0000 electrons
 Dipole moment (field-independent basis, Debye):
    X=              3.0235    Y=              2.0288    Z=              0.8055  Tot=              3.7291
 Quadrupole moment (field-independent basis, Debye-Ang):
   XX=            -28.8456   YY=            -21.6635   ZZ=            -23.4138
   XY=             -5.3327   XZ=              1.2007   YZ=             -1.2178
 Traceless Quadrupole moment (field-independent basis, Debye-Ang):
   XX=             -4.2046   YY=              2.9775   ZZ=              1.2272
   XY=             -5.3327   XZ=              1.2007   YZ=             -1.2178
 Octapole moment (field-independent basis, Debye-Ang**2):
  XXX=              9.8491  YYY=             -1.9290  ZZZ=              0.3006  XYY=              6.1996
  XXY=             -1.6998  XXZ=              2.2618  XZZ=              1.1768  YZZ=              0.1664
  YYZ=              0.7748  XYZ=             -1.3522
 Hexadecapole moment (field-independent basis, Debye-Ang**3):
 XXXX=           -151.0448 YYYY=            -63.2695 ZZZZ=            -34.5774 XXXY=            -14.3182
 XXXZ=              3.6441 YYYX=             -8.9395 YYYZ=             -2.2670 ZZZX=              0.7409
 ZZZY=             -0.9947 XXYY=            -30.0115 XXZZ=            -30.3896 YYZZ=            -16.4198
 XXYZ=             -2.5081 YYXZ=              1.6526 ZZXY=             -1.6397
 N-N= 1.243989288733D+02 E-N=-1.421636510595D+03  KE= 4.930126776801D+02
 1\1\GINC-NODE85\SP\ROLYP\def2TZVP\H3O2P1\YANZ\22-Sep-2023\0\\# scrf=(c
 pcm,solvent=water) def2tzvp olyp\\tmpdir/M2_conf_0_25.gjf\\0,1\O,0,0.,
 0.,0.\P,0,1.6105,0.,0.\H,0,-0.53272,0.,-0.72019\O,0,2.14513,-0.8012,-1
 .14636\H,0,2.03322,1.26735,-0.08196\H,0,1.94619,-0.40805,1.23023\\Vers
 ion=ES64L-G16RevA.03\State=1-A\HF=-493.6839504\RMSD=8.279e-09\Dipole=-
 0.7029002,0.9584079,0.8601693\Quadrupole=0.9408584,-0.395102,-0.545756
 4,1.4118793,4.4560651,-1.6027618\PG=C01 [X(H3O2P1)]\\@


 THE BEST WAY TO CONVINCE A FOOL THAT HE IS WRONG 
 IS TO LET HIM HAVE HIS OWN WAY.

                                         JOSH BILLINGS
 Job cpu time:       0 days  0 hours  0 minutes 39.9 seconds.
 Elapsed time:       0 days  0 hours  0 minutes 10.4 seconds.
 File lengths (MBytes):  RWF=     16 Int=      0 D2E=      0 Chk=      2 Scr=      1
 Normal termination of Gaussian 16 at Fri Sep 22 16:54:17 2023.
