 Entering Gaussian System, Link 0=g16
 Initial command:
 /share/apps/gaussian/g16/l1.exe "/tmp/55608.mgr/Gau-87759.inp" -scrdir="/tmp/55608.mgr/"
 Entering Link 1 = /share/apps/gaussian/g16/l1.exe PID=     87764.
  
 Copyright (c) 1988,1990,1992,1993,1995,1998,2003,2009,2016,
            Gaussian, Inc.  All Rights Reserved.
  
 This is part of the Gaussian(R) 16 program.  It is based on
 the Gaussian(R) 09 system (copyright 2009, Gaussian, Inc.),
 the Gaussian(R) 03 system (copyright 2003, Gaussian, Inc.),
 the Gaussian(R) 98 system (copyright 1998, Gaussian, Inc.),
 the Gaussian(R) 94 system (copyright 1995, Gaussian, Inc.),
 the Gaussian 92(TM) system (copyright 1992, Gaussian, Inc.),
 the Gaussian 90(TM) system (copyright 1990, Gaussian, Inc.),
 the Gaussian 88(TM) system (copyright 1988, Gaussian, Inc.),
 the Gaussian 86(TM) system (copyright 1986, Carnegie Mellon
 University), and the Gaussian 82(TM) system (copyright 1983,
 Carnegie Mellon University). Gaussian is a federally registered
 trademark of Gaussian, Inc.
  
 This software contains proprietary and confidential information,
 including trade secrets, belonging to Gaussian, Inc.
  
 This software is provided under written license and may be
 used, copied, transmitted, or stored only in accord with that
 written license.
  
 The following legend is applicable only to US Government
 contracts under FAR:
  
                    RESTRICTED RIGHTS LEGEND
  
 Use, reproduction and disclosure by the US Government is
 subject to restrictions as set forth in subparagraphs (a)
 and (c) of the Commercial Computer Software - Restricted
 Rights clause in FAR 52.227-19.
  
 Gaussian, Inc.
 340 Quinnipiac St., Bldg. 40, Wallingford CT 06492
  
  
 ---------------------------------------------------------------
 Warning -- This program may not be used in any manner that
 competes with the business of Gaussian, Inc. or will provide
 assistance to any competitor of Gaussian, Inc.  The licensee
 of this program is prohibited from giving any competitor of
 Gaussian, Inc. access to this program.  By using this program,
 the user acknowledges that Gaussian, Inc. is engaged in the
 business of creating and licensing software in the field of
 computational chemistry and represents and warrants to the
 licensee that it is not a competitor of Gaussian, Inc. and that
 it will not use this program in any manner prohibited above.
 ---------------------------------------------------------------
  

 Cite this work as:
 Gaussian 16, Revision A.03,
 M. J. Frisch, G. W. Trucks, H. B. Schlegel, G. E. Scuseria, 
 M. A. Robb, J. R. Cheeseman, G. Scalmani, V. Barone, 
 G. A. Petersson, H. Nakatsuji, X. Li, M. Caricato, A. V. Marenich, 
 J. Bloino, B. G. Janesko, R. Gomperts, B. Mennucci, H. P. Hratchian, 
 J. V. Ortiz, A. F. Izmaylov, J. L. Sonnenberg, D. Williams-Young, 
 F. Ding, F. Lipparini, F. Egidi, J. Goings, B. Peng, A. Petrone, 
 T. Henderson, D. Ranasinghe, V. G. Zakrzewski, J. Gao, N. Rega, 
 G. Zheng, W. Liang, M. Hada, M. Ehara, K. Toyota, R. Fukuda, 
 J. Hasegawa, M. Ishida, T. Nakajima, Y. Honda, O. Kitao, H. Nakai, 
 T. Vreven, K. Throssell, J. A. Montgomery, Jr., J. E. Peralta, 
 F. Ogliaro, M. J. Bearpark, J. J. Heyd, E. N. Brothers, K. N. Kudin, 
 V. N. Staroverov, T. A. Keith, R. Kobayashi, J. Normand, 
 K. Raghavachari, A. P. Rendell, J. C. Burant, S. S. Iyengar, 
 J. Tomasi, M. Cossi, J. M. Millam, M. Klene, C. Adamo, R. Cammi, 
 J. W. Ochterski, R. L. Martin, K. Morokuma, O. Farkas, 
 J. B. Foresman, and D. J. Fox, Gaussian, Inc., Wallingford CT, 2016.
 
 ******************************************
 Gaussian 16:  ES64L-G16RevA.03 25-Dec-2016
                22-Sep-2023 
 ******************************************
 %nprocshared=4
 Will use up to    4 processors via shared memory.
 %mem=4GB
 -----------------------------------------
 # scrf=(cpcm,solvent=water) def2tzvp olyp
 -----------------------------------------
 1/38=1,172=1/1;
 2/12=2,17=6,18=5,40=1/2;
 3/5=44,7=101,11=2,25=1,30=1,70=2101,72=1,74=2002/1,2,3;
 4//1;
 5/5=2,38=5,53=1/2;
 6/7=2,8=2,9=2,10=2,28=1/1;
 99/5=1,9=1/99;
 -----------------------
 tmpdir/M2_conf_0_12.gjf
 -----------------------
 Symbolic Z-matrix:
 Charge =  0 Multiplicity = 1
 P                     0.        0.        0. 
 O                     1.5867    0.        0. 
 C                     2.3327    0.        1.24944 
 O                    -0.64897  -0.63288   1.17244 
 H                    -0.35242  -0.31922  -1.21421 
 H                    -0.24614   1.45522   0.09589 
 H                     2.19842   0.95056   1.77031 
 H                     3.37766  -0.12457   0.9678 
 H                     2.01179  -0.82842   1.88218 
 
                          Input orientation:                          
 ---------------------------------------------------------------------
 Center     Atomic      Atomic             Coordinates (Angstroms)
 Number     Number       Type             X           Y           Z
 ---------------------------------------------------------------------
      1         15           0        0.000000    0.000000    0.000000
      2          8           0        1.586700    0.000000    0.000000
      3          6           0        2.332700    0.000000    1.249440
      4          8           0       -0.648970   -0.632880    1.172440
      5          1           0       -0.352420   -0.319220   -1.214210
      6          1           0       -0.246140    1.455220    0.095890
      7          1           0        2.198420    0.950560    1.770310
      8          1           0        3.377660   -0.124570    0.967800
      9          1           0        2.011790   -0.828420    1.882180
 ---------------------------------------------------------------------
                    Distance matrix (angstroms):
                    1          2          3          4          5
     1  P    0.000000
     2  O    1.586700   0.000000
     3  C    2.646241   1.455203   0.000000
     4  O    1.481997   2.602570   3.049069   0.000000
     5  H    1.303997   2.310064   3.658052   2.425371   0.000000
     6  H    1.479001   2.342256   3.177854   2.383567   2.208233
     7  H    2.978357   2.100420   1.092200   3.312455   4.126316
     8  H    3.515785   2.039532   1.089394   4.063743   4.325801
     9  H    2.876835   2.099901   1.090698   2.760726   3.928919
                    6          7          8          9
     6  H    0.000000
     7  H    3.005701   0.000000
     8  H    4.048196   1.786207   0.000000
     9  H    3.674791   1.792238   1.788043   0.000000
 Stoichiometry    CH5O2P
 Framework group  C1[X(CH5O2P)]
 Deg. of freedom    21
 Full point group                 C1      NOp   1
 Largest Abelian subgroup         C1      NOp   1
 Largest concise Abelian subgroup C1      NOp   1
                         Standard orientation:                         
 ---------------------------------------------------------------------
 Center     Atomic      Atomic             Coordinates (Angstroms)
 Number     Number       Type             X           Y           Z
 ---------------------------------------------------------------------
      1         15           0        0.753141   -0.367778    0.041646
      2          8           0       -0.791966   -0.633300   -0.202808
      3          6           0       -1.778910    0.400661    0.070109
      4          8           0        1.198210    1.039844   -0.088087
      5          1           0        1.378507   -1.328179   -0.580411
      6          1           0        0.840497   -0.724283    1.474376
      7          1           0       -1.843192    0.588345    1.144140
      8          1           0       -2.726429    0.006243   -0.295159
      9          1           0       -1.522995    1.318226   -0.461121
 ---------------------------------------------------------------------
 Rotational constants (GHZ):          13.0023338           4.6121849           3.6517880
 Standard basis: def2TZVP (5D, 7F)
 There are   180 symmetry adapted cartesian basis functions of A   symmetry.
 There are   160 symmetry adapted basis functions of A   symmetry.
   160 basis functions,   262 primitive gaussians,   180 cartesian basis functions
    21 alpha electrons       21 beta electrons
       nuclear repulsion energy       188.4864697032 Hartrees.
 NAtoms=    9 NActive=    9 NUniq=    9 SFac= 1.00D+00 NAtFMM=   60 NAOKFM=F Big=F
 Integral buffers will be    131072 words long.
 Raffenetti 2 integral format.
 Two-electron integral symmetry is turned on.
 ------------------------------------------------------------------------------
 Polarizable Continuum Model (PCM)
 =================================
 Model                : C-PCM.
 Atomic radii         : UFF (Universal Force Field).
 Polarization charges : Total charges.
 Charge compensation  : None.
 Solution method      : On-the-fly selection.
 Cavity type          : Scaled VdW (van der Waals Surface) (Alpha=1.100).
 Cavity algorithm     : GePol (No added spheres)
                        Default sphere list used, NSphG=    9.
                        Lebedev-Laikov grids with approx.  5.0 points / Ang**2.
                        Smoothing algorithm: York/Karplus (Gamma=1.0000).
                        Polarization charges: spherical gaussians, with
                                              point-specific exponents (IZeta= 3).
                        Self-potential: point-specific (ISelfS= 7).
                        Self-field    : sphere-specific E.n sum rule (ISelfD= 2).
 Solvent              : Water, Eps=  78.355300 Eps(inf)=   1.777849
 ------------------------------------------------------------------------------
 Spheres list:
 ISph  on   Nord     Re0    Alpha      Xe            Ye            Ze
    1   P      1    2.0735  1.100      0.753141     -0.367778      0.041646
    2   O      2    1.7500  1.100     -0.791966     -0.633300     -0.202808
    3   C      3    1.9255  1.100     -1.778910      0.400661      0.070109
    4   O      4    1.7500  1.100      1.198210      1.039844     -0.088087
    5   H      5    1.4430  1.100      1.378507     -1.328179     -0.580411
    6   H      6    1.4430  1.100      0.840497     -0.724283      1.474376
    7   H      7    1.4430  1.100     -1.843192      0.588345      1.144140
    8   H      8    1.4430  1.100     -2.726429      0.006243     -0.295159
    9   H      9    1.4430  1.100     -1.522995      1.318226     -0.461121
 ------------------------------------------------------------------------------
 One-electron integrals computed using PRISM.
   1 Symmetry operations used in ECPInt.
 ECPInt:  NShTT=    2211 NPrTT=    7020 LenC2=    2196 LenP2D=    5852.
 LDataN:  DoStor=T MaxTD1= 6 Len=  172
 NBasis=   160 RedAO= T EigKep=  1.47D-03  NBF=   160
 NBsUse=   160 1.00D-06 EigRej= -1.00D+00 NBFU=   160
 ExpMin= 9.04D-02 ExpMax= 5.24D+04 ExpMxC= 1.79D+03 IAcc=3 IRadAn=         5 AccDes= 0.00D+00
 Harris functional with IExCor= 2002 and IRadAn=       5 diagonalized for initial guess.
 HarFok:  IExCor= 2002 AccDes= 0.00D+00 IRadAn=         5 IDoV= 1 UseB2=F ITyADJ=14
 ICtDFT=  3500011 ScaDFX=  1.000000  1.000000  1.000000  1.000000
 FoFCou: FMM=F IPFlag=           0 FMFlag=      100000 FMFlg1=           0
         NFxFlg=           0 DoJE=T BraDBF=F KetDBF=T FulRan=T
         wScrn=  0.000000 ICntrl=       500 IOpCl=  0 I1Cent=   200000004 NGrid=           0
         NMat0=    1 NMatS0=      1 NMatT0=    0 NMatD0=    1 NMtDS0=    0 NMtDT0=    0
 Petite list used in FoFCou.
 Keep J ints in memory in canonical form, NReq=86987775.
 Requested convergence on RMS density matrix=1.00D-08 within 128 cycles.
 Requested convergence on MAX density matrix=1.00D-06.
 Requested convergence on             energy=1.00D-06.
 No special actions if energy rises.
 Inv3:  Mode=1 IEnd=     2753292.
 Iteration    1 A*A^-1 deviation from unit magnitude is 3.11D-15 for    637.
 Iteration    1 A*A^-1 deviation from orthogonality  is 1.93D-15 for    930     62.
 Iteration    1 A^-1*A deviation from unit magnitude is 2.89D-15 for    637.
 Iteration    1 A^-1*A deviation from orthogonality  is 1.06D-15 for    784    637.
 Error on total polarization charges =  0.01011
 SCF Done:  E(RO-LYP) =  -532.976176764     A.U. after   11 cycles
            NFock= 11  Conv=0.59D-08     -V/T= 2.0018

 **********************************************************************

            Population analysis using the SCF density.

 **********************************************************************

 Orbital symmetries:
       Occupied  (A) (A) (A) (A) (A) (A) (A) (A) (A) (A) (A) (A)
                 (A) (A) (A) (A) (A) (A) (A) (A) (A)
       Virtual   (A) (A) (A) (A) (A) (A) (A) (A) (A) (A) (A) (A)
                 (A) (A) (A) (A) (A) (A) (A) (A) (A) (A) (A) (A)
                 (A) (A) (A) (A) (A) (A) (A) (A) (A) (A) (A) (A)
                 (A) (A) (A) (A) (A) (A) (A) (A) (A) (A) (A) (A)
                 (A) (A) (A) (A) (A) (A) (A) (A) (A) (A) (A) (A)
                 (A) (A) (A) (A) (A) (A) (A) (A) (A) (A) (A) (A)
                 (A) (A) (A) (A) (A) (A) (A) (A) (A) (A) (A) (A)
                 (A) (A) (A) (A) (A) (A) (A) (A) (A) (A) (A) (A)
                 (A) (A) (A) (A) (A) (A) (A) (A) (A) (A) (A) (A)
                 (A) (A) (A) (A) (A) (A) (A) (A) (A) (A) (A) (A)
                 (A) (A) (A) (A) (A) (A) (A) (A) (A) (A) (A) (A)
                 (A) (A) (A) (A) (A) (A) (A)
 The electronic state is 1-A.
 Alpha  occ. eigenvalues --  -76.36719 -18.79831 -18.72417  -9.95757  -6.39846
 Alpha  occ. eigenvalues --   -4.60885  -4.60652  -4.60547  -0.97731  -0.88576
 Alpha  occ. eigenvalues --   -0.66037  -0.54970  -0.45204  -0.42943  -0.41197
 Alpha  occ. eigenvalues --   -0.37602  -0.35101  -0.30883  -0.27111  -0.26074
 Alpha  occ. eigenvalues --   -0.24030
 Alpha virt. eigenvalues --   -0.00107   0.00131   0.03017   0.04491   0.07464
 Alpha virt. eigenvalues --    0.08343   0.09651   0.10414   0.16679   0.18345
 Alpha virt. eigenvalues --    0.20228   0.21376   0.23506   0.25446   0.28620
 Alpha virt. eigenvalues --    0.29982   0.32144   0.34165   0.35671   0.37679
 Alpha virt. eigenvalues --    0.40699   0.41579   0.44071   0.46970   0.49648
 Alpha virt. eigenvalues --    0.50930   0.52359   0.56168   0.60051   0.60503
 Alpha virt. eigenvalues --    0.64928   0.65439   0.74780   0.77117   0.79918
 Alpha virt. eigenvalues --    0.86080   0.88881   0.91140   0.96510   1.07955
 Alpha virt. eigenvalues --    1.11593   1.12996   1.14653   1.17526   1.22701
 Alpha virt. eigenvalues --    1.25498   1.30287   1.34424   1.36681   1.38348
 Alpha virt. eigenvalues --    1.42032   1.44600   1.46151   1.48558   1.50623
 Alpha virt. eigenvalues --    1.53134   1.54094   1.56530   1.64687   1.70512
 Alpha virt. eigenvalues --    1.74362   1.77358   1.82370   1.84327   1.88815
 Alpha virt. eigenvalues --    1.91786   1.92725   1.96486   2.01573   2.04730
 Alpha virt. eigenvalues --    2.05798   2.08182   2.12682   2.14843   2.17738
 Alpha virt. eigenvalues --    2.19650   2.23885   2.26504   2.29805   2.34910
 Alpha virt. eigenvalues --    2.45429   2.46591   2.52351   2.55186   2.57574
 Alpha virt. eigenvalues --    2.62551   2.68833   2.75229   2.77993   2.82801
 Alpha virt. eigenvalues --    2.86292   2.87978   2.95465   3.00176   3.04229
 Alpha virt. eigenvalues --    3.11257   3.25318   3.27837   3.30420   3.37184
 Alpha virt. eigenvalues --    3.39995   3.45266   3.52270   3.72097   4.05963
 Alpha virt. eigenvalues --    4.11778   4.27279   4.38322   5.01232   5.02595
 Alpha virt. eigenvalues --    5.06002   5.06434   5.12447   5.15397   5.19077
 Alpha virt. eigenvalues --    5.22786   5.26714   5.32055   5.43820   5.54885
 Alpha virt. eigenvalues --    5.68834   5.80491   6.19227   6.21539   6.39217
 Alpha virt. eigenvalues --    6.42110   6.53865   6.57621   6.64060   6.74586
 Alpha virt. eigenvalues --    6.82001   6.92465   7.21686   7.53329   7.95720
 Alpha virt. eigenvalues --   15.84492  22.01777  43.15447  43.44078
          Condensed to atoms (all electrons):
               1          2          3          4          5          6
     1  P   12.641589   0.420313  -0.050462   0.711807   0.353818   0.348910
     2  O    0.420313   7.811352   0.287552  -0.057501  -0.023082  -0.037621
     3  C   -0.050462   0.287552   4.744475  -0.012270  -0.000056   0.002839
     4  O    0.711807  -0.057501  -0.012270   7.981681  -0.029411  -0.046763
     5  H    0.353818  -0.023082  -0.000056  -0.029411   0.688305  -0.061069
     6  H    0.348910  -0.037621   0.002839  -0.046763  -0.061069   0.800092
     7  H   -0.003073  -0.042317   0.404398   0.000238  -0.000742   0.009268
     8  H    0.008540  -0.035107   0.386083   0.000756   0.000293  -0.000565
     9  H   -0.002468  -0.040868   0.399598   0.016342   0.000530   0.000057
               7          8          9
     1  P   -0.003073   0.008540  -0.002468
     2  O   -0.042317  -0.035107  -0.040868
     3  C    0.404398   0.386083   0.399598
     4  O    0.000238   0.000756   0.016342
     5  H   -0.000742   0.000293   0.000530
     6  H    0.009268  -0.000565   0.000057
     7  H    0.576720  -0.029930  -0.035129
     8  H   -0.029930   0.558256  -0.025340
     9  H   -0.035129  -0.025340   0.562391
 Mulliken charges:
               1
     1  P    0.571026
     2  O   -0.282722
     3  C   -0.162155
     4  O   -0.564880
     5  H    0.071414
     6  H   -0.015148
     7  H    0.120566
     8  H    0.137013
     9  H    0.124886
 Sum of Mulliken charges =  -0.00000
 Mulliken charges with hydrogens summed into heavy atoms:
               1
     1  P    0.627292
     2  O   -0.282722
     3  C    0.220310
     4  O   -0.564880
 Electronic spatial extent (au):  <R**2>=            367.7110
 Charge=             -0.0000 electrons
 Dipole moment (field-independent basis, Debye):
    X=             -2.1811    Y=             -2.5700    Z=              0.2385  Tot=              3.3792
 Quadrupole moment (field-independent basis, Debye-Ang):
   XX=            -28.9209   YY=            -33.7129   ZZ=            -30.6650
   XY=             -6.9813   XZ=             -0.6323   YZ=              0.5725
 Traceless Quadrupole moment (field-independent basis, Debye-Ang):
   XX=              2.1787   YY=             -2.6133   ZZ=              0.4346
   XY=             -6.9813   XZ=             -0.6323   YZ=              0.5725
 Octapole moment (field-independent basis, Debye-Ang**2):
  XXX=            -10.8374  YYY=             -4.7704  ZZZ=             -1.5148  XYY=             -2.1613
  XXY=             -5.1131  XXZ=             -0.7777  XZZ=             -0.2269  YZZ=             -0.1000
  YYZ=             -0.9618  XYZ=              1.1164
 Hexadecapole moment (field-independent basis, Debye-Ang**3):
 XXXX=           -282.6623 YYYY=           -118.7619 ZZZZ=            -54.8435 XXXY=             -7.5566
 XXXZ=              1.3683 YYYX=             -5.6563 YYYZ=              1.2037 ZZZX=             -2.7750
 ZZZY=              2.2558 XXYY=            -73.5563 XXZZ=            -59.3069 YYZZ=            -29.1620
 XXYZ=              2.3306 YYXZ=             -0.2959 ZZXY=             -0.4384
 N-N= 1.884864697032D+02 E-N=-1.640596435662D+03  KE= 5.320238783742D+02
 1\1\GINC-NODE85\SP\ROLYP\def2TZVP\C1H5O2P1\YANZ\22-Sep-2023\0\\# scrf=
 (cpcm,solvent=water) def2tzvp olyp\\tmpdir/M2_conf_0_12.gjf\\0,1\P,0,0
 .,0.,0.\O,0,1.5867,0.,0.\C,0,2.3327,0.,1.24944\O,0,-0.64897,-0.63288,1
 .17244\H,0,-0.35242,-0.31922,-1.21421\H,0,-0.24614,1.45522,0.09589\H,0
 ,2.19842,0.95056,1.77031\H,0,3.37766,-0.12457,0.9678\H,0,2.01179,-0.82
 842,1.88218\\Version=ES64L-G16RevA.03\State=1-A\HF=-532.9761768\RMSD=5
 .864e-09\Dipole=0.9903642,0.5041906,-0.7297376\Quadrupole=-0.3214454,-
 0.4220921,0.7435375,-1.4032011,5.1656143,1.2346404\PG=C01 [X(C1H5O2P1)
 ]\\@


 QUANTUM MECHANICS IS BOHRING -- M.S. GORDON
 Job cpu time:       0 days  0 hours  1 minutes 32.0 seconds.
 Elapsed time:       0 days  0 hours  0 minutes 24.9 seconds.
 File lengths (MBytes):  RWF=     24 Int=      0 D2E=      0 Chk=      3 Scr=      1
 Normal termination of Gaussian 16 at Fri Sep 22 16:53:43 2023.
