 Entering Gaussian System, Link 0=g16
 Initial command:
 /share/apps/gaussian/g16/l1.exe "/tmp/55608.mgr/Gau-88054.inp" -scrdir="/tmp/55608.mgr/"
 Entering Link 1 = /share/apps/gaussian/g16/l1.exe PID=     88055.
  
 Copyright (c) 1988,1990,1992,1993,1995,1998,2003,2009,2016,
            Gaussian, Inc.  All Rights Reserved.
  
 This is part of the Gaussian(R) 16 program.  It is based on
 the Gaussian(R) 09 system (copyright 2009, Gaussian, Inc.),
 the Gaussian(R) 03 system (copyright 2003, Gaussian, Inc.),
 the Gaussian(R) 98 system (copyright 1998, Gaussian, Inc.),
 the Gaussian(R) 94 system (copyright 1995, Gaussian, Inc.),
 the Gaussian 92(TM) system (copyright 1992, Gaussian, Inc.),
 the Gaussian 90(TM) system (copyright 1990, Gaussian, Inc.),
 the Gaussian 88(TM) system (copyright 1988, Gaussian, Inc.),
 the Gaussian 86(TM) system (copyright 1986, Carnegie Mellon
 University), and the Gaussian 82(TM) system (copyright 1983,
 Carnegie Mellon University). Gaussian is a federally registered
 trademark of Gaussian, Inc.
  
 This software contains proprietary and confidential information,
 including trade secrets, belonging to Gaussian, Inc.
  
 This software is provided under written license and may be
 used, copied, transmitted, or stored only in accord with that
 written license.
  
 The following legend is applicable only to US Government
 contracts under FAR:
  
                    RESTRICTED RIGHTS LEGEND
  
 Use, reproduction and disclosure by the US Government is
 subject to restrictions as set forth in subparagraphs (a)
 and (c) of the Commercial Computer Software - Restricted
 Rights clause in FAR 52.227-19.
  
 Gaussian, Inc.
 340 Quinnipiac St., Bldg. 40, Wallingford CT 06492
  
  
 ---------------------------------------------------------------
 Warning -- This program may not be used in any manner that
 competes with the business of Gaussian, Inc. or will provide
 assistance to any competitor of Gaussian, Inc.  The licensee
 of this program is prohibited from giving any competitor of
 Gaussian, Inc. access to this program.  By using this program,
 the user acknowledges that Gaussian, Inc. is engaged in the
 business of creating and licensing software in the field of
 computational chemistry and represents and warrants to the
 licensee that it is not a competitor of Gaussian, Inc. and that
 it will not use this program in any manner prohibited above.
 ---------------------------------------------------------------
  

 Cite this work as:
 Gaussian 16, Revision A.03,
 M. J. Frisch, G. W. Trucks, H. B. Schlegel, G. E. Scuseria, 
 M. A. Robb, J. R. Cheeseman, G. Scalmani, V. Barone, 
 G. A. Petersson, H. Nakatsuji, X. Li, M. Caricato, A. V. Marenich, 
 J. Bloino, B. G. Janesko, R. Gomperts, B. Mennucci, H. P. Hratchian, 
 J. V. Ortiz, A. F. Izmaylov, J. L. Sonnenberg, D. Williams-Young, 
 F. Ding, F. Lipparini, F. Egidi, J. Goings, B. Peng, A. Petrone, 
 T. Henderson, D. Ranasinghe, V. G. Zakrzewski, J. Gao, N. Rega, 
 G. Zheng, W. Liang, M. Hada, M. Ehara, K. Toyota, R. Fukuda, 
 J. Hasegawa, M. Ishida, T. Nakajima, Y. Honda, O. Kitao, H. Nakai, 
 T. Vreven, K. Throssell, J. A. Montgomery, Jr., J. E. Peralta, 
 F. Ogliaro, M. J. Bearpark, J. J. Heyd, E. N. Brothers, K. N. Kudin, 
 V. N. Staroverov, T. A. Keith, R. Kobayashi, J. Normand, 
 K. Raghavachari, A. P. Rendell, J. C. Burant, S. S. Iyengar, 
 J. Tomasi, M. Cossi, J. M. Millam, M. Klene, C. Adamo, R. Cammi, 
 J. W. Ochterski, R. L. Martin, K. Morokuma, O. Farkas, 
 J. B. Foresman, and D. J. Fox, Gaussian, Inc., Wallingford CT, 2016.
 
 ******************************************
 Gaussian 16:  ES64L-G16RevA.03 25-Dec-2016
                22-Sep-2023 
 ******************************************
 %nprocshared=4
 Will use up to    4 processors via shared memory.
 %mem=4GB
 -----------------------------------------
 # scrf=(cpcm,solvent=water) def2tzvp olyp
 -----------------------------------------
 1/38=1,172=1/1;
 2/12=2,17=6,18=5,40=1/2;
 3/5=44,7=101,11=2,25=1,30=1,70=2101,72=1,74=2002/1,2,3;
 4//1;
 5/5=2,38=5,53=1/2;
 6/7=2,8=2,9=2,10=2,28=1/1;
 99/5=1,9=1/99;
 -----------------------
 tmpdir/M2_conf_0_10.gjf
 -----------------------
 Symbolic Z-matrix:
 Charge =  0 Multiplicity = 1
 O                     0.        0.        0. 
 P                     1.5225    0.        0. 
 O                     1.76581   0.        1.70957 
 H                    -0.56863  -0.41047   0.56726 
 O                     2.28401  -1.08922  -0.65576 
 H                     1.88979   1.26577  -0.33136 
 H                     1.30854  -0.45167   2.28457 
 
                          Input orientation:                          
 ---------------------------------------------------------------------
 Center     Atomic      Atomic             Coordinates (Angstroms)
 Number     Number       Type             X           Y           Z
 ---------------------------------------------------------------------
      1          8           0        0.000000    0.000000    0.000000
      2         15           0        1.522500    0.000000    0.000000
      3          8           0        1.765810    0.000000    1.709570
      4          1           0       -0.568630   -0.410470    0.567260
      5          8           0        2.284010   -1.089220   -0.655760
      6          1           0        1.889790    1.265770   -0.331360
      7          1           0        1.308540   -0.451670    2.284570
 ---------------------------------------------------------------------
                    Distance matrix (angstroms):
                    1          2          3          4          5
     1  O    0.000000
     2  P    1.522500   0.000000
     3  O    2.457787   1.726797   0.000000
     4  H    0.902003   2.205242   2.631153   0.000000
     5  O    2.614024   1.481998   2.655130   3.177111   0.000000
     6  H    2.298539   1.358998   2.404774   3.108235   2.409693
     7  H    2.671244   2.338599   0.862396   2.544527   3.162839
                    6          7
     6  H    0.000000
     7  H    3.182851   0.000000
 Stoichiometry    H3O3P
 Framework group  C1[X(H3O3P)]
 Deg. of freedom    15
 Full point group                 C1      NOp   1
 Largest Abelian subgroup         C1      NOp   1
 Largest concise Abelian subgroup C1      NOp   1
                         Standard orientation:                         
 ---------------------------------------------------------------------
 Center     Atomic      Atomic             Coordinates (Angstroms)
 Number     Number       Type             X           Y           Z
 ---------------------------------------------------------------------
      1          8           0       -0.581589    1.284337   -0.132575
      2         15           0        0.208589    0.052132    0.286105
      3          8           0       -0.996814   -1.136824   -0.053331
      4          1           0       -1.174117    1.378084   -0.806172
      5          8           0        1.497967   -0.282609   -0.363336
      6          1           0        0.211848    0.062150    1.645062
      7          1           0       -1.523075   -1.141439   -0.736525
 ---------------------------------------------------------------------
 Rotational constants (GHZ):           8.3609358           7.1049483           4.4339918
 Standard basis: def2TZVP (5D, 7F)
 There are   168 symmetry adapted cartesian basis functions of A   symmetry.
 There are   148 symmetry adapted basis functions of A   symmetry.
   148 basis functions,   246 primitive gaussians,   168 cartesian basis functions
    21 alpha electrons       21 beta electrons
       nuclear repulsion energy       195.0269857485 Hartrees.
 NAtoms=    7 NActive=    7 NUniq=    7 SFac= 1.00D+00 NAtFMM=   60 NAOKFM=F Big=F
 Integral buffers will be    131072 words long.
 Raffenetti 2 integral format.
 Two-electron integral symmetry is turned on.
 ------------------------------------------------------------------------------
 Polarizable Continuum Model (PCM)
 =================================
 Model                : C-PCM.
 Atomic radii         : UFF (Universal Force Field).
 Polarization charges : Total charges.
 Charge compensation  : None.
 Solution method      : On-the-fly selection.
 Cavity type          : Scaled VdW (van der Waals Surface) (Alpha=1.100).
 Cavity algorithm     : GePol (No added spheres)
                        Default sphere list used, NSphG=    7.
                        Lebedev-Laikov grids with approx.  5.0 points / Ang**2.
                        Smoothing algorithm: York/Karplus (Gamma=1.0000).
                        Polarization charges: spherical gaussians, with
                                              point-specific exponents (IZeta= 3).
                        Self-potential: point-specific (ISelfS= 7).
                        Self-field    : sphere-specific E.n sum rule (ISelfD= 2).
 Solvent              : Water, Eps=  78.355300 Eps(inf)=   1.777849
 ------------------------------------------------------------------------------
 Spheres list:
 ISph  on   Nord     Re0    Alpha      Xe            Ye            Ze
    1   O      1    1.7500  1.100     -0.581589      1.284337     -0.132575
    2   P      2    2.0735  1.100      0.208589      0.052132      0.286105
    3   O      3    1.7500  1.100     -0.996814     -1.136824     -0.053331
    4   H      4    1.4430  1.100     -1.174117      1.378084     -0.806172
    5   O      5    1.7500  1.100      1.497967     -0.282609     -0.363336
    6   H      6    1.4430  1.100      0.211848      0.062150      1.645062
    7   H      7    1.4430  1.100     -1.523075     -1.141439     -0.736525
 ------------------------------------------------------------------------------
 One-electron integrals computed using PRISM.
   1 Symmetry operations used in ECPInt.
 ECPInt:  NShTT=    1711 NPrTT=    5676 LenC2=    1698 LenP2D=    4713.
 LDataN:  DoStor=T MaxTD1= 6 Len=  172
 NBasis=   148 RedAO= T EigKep=  1.53D-03  NBF=   148
 NBsUse=   148 1.00D-06 EigRej= -1.00D+00 NBFU=   148
 ExpMin= 9.04D-02 ExpMax= 5.24D+04 ExpMxC= 1.79D+03 IAcc=3 IRadAn=         5 AccDes= 0.00D+00
 Harris functional with IExCor= 2002 and IRadAn=       5 diagonalized for initial guess.
 HarFok:  IExCor= 2002 AccDes= 0.00D+00 IRadAn=         5 IDoV= 1 UseB2=F ITyADJ=14
 ICtDFT=  3500011 ScaDFX=  1.000000  1.000000  1.000000  1.000000
 FoFCou: FMM=F IPFlag=           0 FMFlag=      100000 FMFlg1=           0
         NFxFlg=           0 DoJE=T BraDBF=F KetDBF=T FulRan=T
         wScrn=  0.000000 ICntrl=       500 IOpCl=  0 I1Cent=   200000004 NGrid=           0
         NMat0=    1 NMatS0=      1 NMatT0=    0 NMatD0=    1 NMtDS0=    0 NMtDT0=    0
 Petite list used in FoFCou.
 Keep J ints in memory in canonical form, NReq=64775784.
 Requested convergence on RMS density matrix=1.00D-08 within 128 cycles.
 Requested convergence on MAX density matrix=1.00D-06.
 Requested convergence on             energy=1.00D-06.
 No special actions if energy rises.
 Inv3:  Mode=1 IEnd=     2142075.
 Iteration    1 A*A^-1 deviation from unit magnitude is 3.33D-15 for    840.
 Iteration    1 A*A^-1 deviation from orthogonality  is 2.60D-15 for    842    664.
 Iteration    1 A^-1*A deviation from unit magnitude is 3.33D-15 for    840.
 Iteration    1 A^-1*A deviation from orthogonality  is 1.50D-15 for    837    183.
 Error on total polarization charges =  0.00765
 SCF Done:  E(RO-LYP) =  -568.946373778     A.U. after   12 cycles
            NFock= 12  Conv=0.38D-08     -V/T= 2.0014

 **********************************************************************

            Population analysis using the SCF density.

 **********************************************************************

 Orbital symmetries:
       Occupied  (A) (A) (A) (A) (A) (A) (A) (A) (A) (A) (A) (A)
                 (A) (A) (A) (A) (A) (A) (A) (A) (A)
       Virtual   (A) (A) (A) (A) (A) (A) (A) (A) (A) (A) (A) (A)
                 (A) (A) (A) (A) (A) (A) (A) (A) (A) (A) (A) (A)
                 (A) (A) (A) (A) (A) (A) (A) (A) (A) (A) (A) (A)
                 (A) (A) (A) (A) (A) (A) (A) (A) (A) (A) (A) (A)
                 (A) (A) (A) (A) (A) (A) (A) (A) (A) (A) (A) (A)
                 (A) (A) (A) (A) (A) (A) (A) (A) (A) (A) (A) (A)
                 (A) (A) (A) (A) (A) (A) (A) (A) (A) (A) (A) (A)
                 (A) (A) (A) (A) (A) (A) (A) (A) (A) (A) (A) (A)
                 (A) (A) (A) (A) (A) (A) (A) (A) (A) (A) (A) (A)
                 (A) (A) (A) (A) (A) (A) (A) (A) (A) (A) (A) (A)
                 (A) (A) (A) (A) (A) (A) (A)
 The electronic state is 1-A.
 Alpha  occ. eigenvalues --  -76.40567 -18.80474 -18.75961 -18.73670  -6.43005
 Alpha  occ. eigenvalues --   -4.64270  -4.63819  -4.63624  -1.01966  -0.94171
 Alpha  occ. eigenvalues --   -0.89435  -0.63170  -0.53359  -0.44655  -0.40044
 Alpha  occ. eigenvalues --   -0.38056  -0.33316  -0.30463  -0.28933  -0.26690
 Alpha  occ. eigenvalues --   -0.25656
 Alpha virt. eigenvalues --   -0.00656   0.00686   0.04223   0.05677   0.09069
 Alpha virt. eigenvalues --    0.10913   0.19107   0.20140   0.21967   0.24431
 Alpha virt. eigenvalues --    0.30684   0.32215   0.34977   0.37309   0.39419
 Alpha virt. eigenvalues --    0.41331   0.45603   0.47700   0.49118   0.51046
 Alpha virt. eigenvalues --    0.51545   0.54556   0.55118   0.61104   0.62328
 Alpha virt. eigenvalues --    0.65404   0.67835   0.70352   0.77680   0.79987
 Alpha virt. eigenvalues --    1.06413   1.08348   1.10698   1.11703   1.13987
 Alpha virt. eigenvalues --    1.17564   1.23798   1.26014   1.28034   1.31679
 Alpha virt. eigenvalues --    1.33558   1.38037   1.40129   1.48275   1.50981
 Alpha virt. eigenvalues --    1.53650   1.55680   1.62563   1.64485   1.68241
 Alpha virt. eigenvalues --    1.75534   1.78308   1.81089   1.85903   1.91381
 Alpha virt. eigenvalues --    1.92134   1.96765   1.99545   2.07566   2.10343
 Alpha virt. eigenvalues --    2.11605   2.19199   2.21760   2.26364   2.27261
 Alpha virt. eigenvalues --    2.35549   2.37506   2.43335   2.54080   2.61810
 Alpha virt. eigenvalues --    2.65354   2.67611   2.74407   2.79453   2.80157
 Alpha virt. eigenvalues --    2.85101   2.88356   2.91084   2.93482   3.29047
 Alpha virt. eigenvalues --    3.40057   3.73859   3.86713   3.88296   4.94085
 Alpha virt. eigenvalues --    4.94806   4.98463   4.99446   5.01183   5.02309
 Alpha virt. eigenvalues --    5.04387   5.05047   5.08029   5.12529   5.15142
 Alpha virt. eigenvalues --    5.23097   5.27236   5.33696   5.36639   5.41939
 Alpha virt. eigenvalues --    5.44842   5.48563   5.50855   6.13526   6.15899
 Alpha virt. eigenvalues --    6.18218   6.22463   6.27126   6.30025   6.39343
 Alpha virt. eigenvalues --    6.44264   6.47165   6.54966   6.55660   6.58003
 Alpha virt. eigenvalues --    6.59562   6.66297   6.74691   6.93608   7.03123
 Alpha virt. eigenvalues --    7.35854   7.57842   8.03596  16.10598  43.06515
 Alpha virt. eigenvalues --   43.15358  43.19600
          Condensed to atoms (all electrons):
               1          2          3          4          5          6
     1  O    7.759571   0.443104  -0.058479   0.321956  -0.057237  -0.031376
     2  P    0.443104  12.400386   0.372047  -0.020966   0.738198   0.371902
     3  O   -0.058479   0.372047   7.955364   0.002269  -0.056398  -0.028215
     4  H    0.321956  -0.020966   0.002269   0.355049   0.000060   0.003232
     5  O   -0.057237   0.738198  -0.056398   0.000060   7.940363  -0.046078
     6  H   -0.031376   0.371902  -0.028215   0.003232  -0.046078   0.663004
     7  H    0.002005  -0.022585   0.321938   0.002088   0.001232   0.003065
               7
     1  O    0.002005
     2  P   -0.022585
     3  O    0.321938
     4  H    0.002088
     5  O    0.001232
     6  H    0.003065
     7  H    0.402745
 Mulliken charges:
               1
     1  O   -0.379543
     2  P    0.717914
     3  O   -0.508526
     4  H    0.336314
     5  O   -0.520140
     6  H    0.064467
     7  H    0.289514
 Sum of Mulliken charges =  -0.00000
 Mulliken charges with hydrogens summed into heavy atoms:
               1
     1  O   -0.043229
     2  P    0.782382
     3  O   -0.219012
     5  O   -0.520140
 Electronic spatial extent (au):  <R**2>=            304.1648
 Charge=             -0.0000 electrons
 Dipole moment (field-independent basis, Debye):
    X=             -4.4812    Y=              2.1828    Z=             -0.2243  Tot=              4.9896
 Quadrupole moment (field-independent basis, Debye-Ang):
   XX=            -31.7779   YY=            -31.2187   ZZ=            -25.4114
   XY=             -0.4639   XZ=              6.5166   YZ=             -0.6303
 Traceless Quadrupole moment (field-independent basis, Debye-Ang):
   XX=             -2.3086   YY=             -1.7493   ZZ=              4.0579
   XY=             -0.4639   XZ=              6.5166   YZ=             -0.6303
 Octapole moment (field-independent basis, Debye-Ang**2):
  XXX=            -21.1560  YYY=              4.5627  ZZZ=             -1.2626  XYY=             -3.6557
  XXY=              3.9377  XXZ=             -5.0059  XZZ=             -5.2753  YZZ=              1.6194
  YYZ=             -4.9673  XYZ=             -0.1496
 Hexadecapole moment (field-independent basis, Debye-Ang**3):
 XXXX=           -168.3123 YYYY=           -144.3199 ZZZZ=            -47.4675 XXXY=              2.2381
 XXXZ=             15.9910 YYYX=             -4.7727 YYYZ=             -2.5541 ZZZX=              7.1607
 ZZZY=             -1.1921 XXYY=            -44.2009 XXZZ=            -32.1470 YYZZ=            -27.4858
 XXYZ=              0.4365 YYXZ=              9.2318 ZZXY=             -0.5808
 N-N= 1.950269857485D+02 E-N=-1.740877623405D+03  KE= 5.681430929456D+02
 1\1\GINC-NODE85\SP\ROLYP\def2TZVP\H3O3P1\YANZ\22-Sep-2023\0\\# scrf=(c
 pcm,solvent=water) def2tzvp olyp\\tmpdir/M2_conf_0_10.gjf\\0,1\O,0,0.,
 0.,0.\P,0,1.5225,0.,0.\O,0,1.76581,0.,1.70957\H,0,-0.56863,-0.41047,0.
 56726\O,0,2.28401,-1.08922,-0.65576\H,0,1.88979,1.26577,-0.33136\H,0,1
 .30854,-0.45167,2.28457\\Version=ES64L-G16RevA.03\State=1-A\HF=-568.94
 63738\RMSD=3.825e-09\Dipole=-1.6343376,0.6162949,0.8959571\Quadrupole=
 0.7951998,-0.8392635,0.0440637,3.2827632,-1.8785356,-3.9631802\PG=C01 
 [X(H3O3P1)]\\@


 IT IS A SIMPLE TASK TO MAKE THINGS COMPLEX,
 BUT A COMPLEX TASK TO MAKE THEM SIMPLE.
 Job cpu time:       0 days  0 hours  1 minutes  9.7 seconds.
 Elapsed time:       0 days  0 hours  0 minutes 18.9 seconds.
 File lengths (MBytes):  RWF=     17 Int=      0 D2E=      0 Chk=      3 Scr=      1
 Normal termination of Gaussian 16 at Fri Sep 22 16:53:56 2023.
