 Entering Gaussian System, Link 0=g16
 Initial command:
 /share/apps/gaussian/g16/l1.exe "/tmp/55608.mgr/Gau-88396.inp" -scrdir="/tmp/55608.mgr/"
 Entering Link 1 = /share/apps/gaussian/g16/l1.exe PID=     88397.
  
 Copyright (c) 1988,1990,1992,1993,1995,1998,2003,2009,2016,
            Gaussian, Inc.  All Rights Reserved.
  
 This is part of the Gaussian(R) 16 program.  It is based on
 the Gaussian(R) 09 system (copyright 2009, Gaussian, Inc.),
 the Gaussian(R) 03 system (copyright 2003, Gaussian, Inc.),
 the Gaussian(R) 98 system (copyright 1998, Gaussian, Inc.),
 the Gaussian(R) 94 system (copyright 1995, Gaussian, Inc.),
 the Gaussian 92(TM) system (copyright 1992, Gaussian, Inc.),
 the Gaussian 90(TM) system (copyright 1990, Gaussian, Inc.),
 the Gaussian 88(TM) system (copyright 1988, Gaussian, Inc.),
 the Gaussian 86(TM) system (copyright 1986, Carnegie Mellon
 University), and the Gaussian 82(TM) system (copyright 1983,
 Carnegie Mellon University). Gaussian is a federally registered
 trademark of Gaussian, Inc.
  
 This software contains proprietary and confidential information,
 including trade secrets, belonging to Gaussian, Inc.
  
 This software is provided under written license and may be
 used, copied, transmitted, or stored only in accord with that
 written license.
  
 The following legend is applicable only to US Government
 contracts under FAR:
  
                    RESTRICTED RIGHTS LEGEND
  
 Use, reproduction and disclosure by the US Government is
 subject to restrictions as set forth in subparagraphs (a)
 and (c) of the Commercial Computer Software - Restricted
 Rights clause in FAR 52.227-19.
  
 Gaussian, Inc.
 340 Quinnipiac St., Bldg. 40, Wallingford CT 06492
  
  
 ---------------------------------------------------------------
 Warning -- This program may not be used in any manner that
 competes with the business of Gaussian, Inc. or will provide
 assistance to any competitor of Gaussian, Inc.  The licensee
 of this program is prohibited from giving any competitor of
 Gaussian, Inc. access to this program.  By using this program,
 the user acknowledges that Gaussian, Inc. is engaged in the
 business of creating and licensing software in the field of
 computational chemistry and represents and warrants to the
 licensee that it is not a competitor of Gaussian, Inc. and that
 it will not use this program in any manner prohibited above.
 ---------------------------------------------------------------
  

 Cite this work as:
 Gaussian 16, Revision A.03,
 M. J. Frisch, G. W. Trucks, H. B. Schlegel, G. E. Scuseria, 
 M. A. Robb, J. R. Cheeseman, G. Scalmani, V. Barone, 
 G. A. Petersson, H. Nakatsuji, X. Li, M. Caricato, A. V. Marenich, 
 J. Bloino, B. G. Janesko, R. Gomperts, B. Mennucci, H. P. Hratchian, 
 J. V. Ortiz, A. F. Izmaylov, J. L. Sonnenberg, D. Williams-Young, 
 F. Ding, F. Lipparini, F. Egidi, J. Goings, B. Peng, A. Petrone, 
 T. Henderson, D. Ranasinghe, V. G. Zakrzewski, J. Gao, N. Rega, 
 G. Zheng, W. Liang, M. Hada, M. Ehara, K. Toyota, R. Fukuda, 
 J. Hasegawa, M. Ishida, T. Nakajima, Y. Honda, O. Kitao, H. Nakai, 
 T. Vreven, K. Throssell, J. A. Montgomery, Jr., J. E. Peralta, 
 F. Ogliaro, M. J. Bearpark, J. J. Heyd, E. N. Brothers, K. N. Kudin, 
 V. N. Staroverov, T. A. Keith, R. Kobayashi, J. Normand, 
 K. Raghavachari, A. P. Rendell, J. C. Burant, S. S. Iyengar, 
 J. Tomasi, M. Cossi, J. M. Millam, M. Klene, C. Adamo, R. Cammi, 
 J. W. Ochterski, R. L. Martin, K. Morokuma, O. Farkas, 
 J. B. Foresman, and D. J. Fox, Gaussian, Inc., Wallingford CT, 2016.
 
 ******************************************
 Gaussian 16:  ES64L-G16RevA.03 25-Dec-2016
                22-Sep-2023 
 ******************************************
 %nprocshared=4
 Will use up to    4 processors via shared memory.
 %mem=4GB
 -----------------------------------------
 # scrf=(cpcm,solvent=water) def2tzvp olyp
 -----------------------------------------
 1/38=1,172=1/1;
 2/12=2,17=6,18=5,40=1/2;
 3/5=44,7=101,11=2,25=1,30=1,70=2101,72=1,74=2002/1,2,3;
 4//1;
 5/5=2,38=5,53=1/2;
 6/7=2,8=2,9=2,10=2,28=1/1;
 99/5=1,9=1/99;
 -----------------------
 tmpdir/M2_conf_0_14.gjf
 -----------------------
 Symbolic Z-matrix:
 Charge =  0 Multiplicity = 1
 O                     0.        0.        0. 
 P                     1.5377    0.        0. 
 H                    -0.55699   0.       -0.77144 
 H                     1.8915   -1.23189   0.5441 
 H                     1.99206   0.91741   0.8576 
 O                     2.16238   0.16156  -1.35291 
 
                          Input orientation:                          
 ---------------------------------------------------------------------
 Center     Atomic      Atomic             Coordinates (Angstroms)
 Number     Number       Type             X           Y           Z
 ---------------------------------------------------------------------
      1          8           0        0.000000    0.000000    0.000000
      2         15           0        1.537700    0.000000    0.000000
      3          1           0       -0.556990    0.000000   -0.771440
      4          1           0        1.891500   -1.231890    0.544100
      5          1           0        1.992060    0.917410    0.857600
      6          8           0        2.162380    0.161560   -1.352910
 ---------------------------------------------------------------------
                    Distance matrix (angstroms):
                    1          2          3          4          5
     1  O    0.000000
     2  P    1.537700   0.000000
     3  H    0.951503   2.232229   0.000000
     4  H    2.321932   1.392398   3.040280   0.000000
     5  H    2.354872   1.335501   3.161181   2.174370   0.000000
     6  O    2.555847   1.498897   2.785531   2.369330   2.342365
                    6
     6  O    0.000000
 Stoichiometry    H3O2P
 Framework group  C1[X(H3O2P)]
 Deg. of freedom    12
 Full point group                 C1      NOp   1
 Largest Abelian subgroup         C1      NOp   1
 Largest concise Abelian subgroup C1      NOp   1
                         Standard orientation:                         
 ---------------------------------------------------------------------
 Center     Atomic      Atomic             Coordinates (Angstroms)
 Number     Number       Type             X           Y           Z
 ---------------------------------------------------------------------
      1          8           0       -1.286513   -0.294250   -0.017693
      2         15           0        0.094668    0.381529   -0.004280
      3          1           0       -1.450800   -1.227570    0.067640
      4          1           0        0.102581    1.147327    1.158589
      5          1           0        0.183523    1.253792   -1.011664
      6          8           0        1.254597   -0.567811   -0.001103
 ---------------------------------------------------------------------
 Rotational constants (GHZ):          28.4650944           8.9332329           7.2673703
 Standard basis: def2TZVP (5D, 7F)
 There are   132 symmetry adapted cartesian basis functions of A   symmetry.
 There are   117 symmetry adapted basis functions of A   symmetry.
   117 basis functions,   195 primitive gaussians,   132 cartesian basis functions
    17 alpha electrons       17 beta electrons
       nuclear repulsion energy       125.8815922295 Hartrees.
 NAtoms=    6 NActive=    6 NUniq=    6 SFac= 1.00D+00 NAtFMM=   60 NAOKFM=F Big=F
 Integral buffers will be    131072 words long.
 Raffenetti 2 integral format.
 Two-electron integral symmetry is turned on.
 ------------------------------------------------------------------------------
 Polarizable Continuum Model (PCM)
 =================================
 Model                : C-PCM.
 Atomic radii         : UFF (Universal Force Field).
 Polarization charges : Total charges.
 Charge compensation  : None.
 Solution method      : On-the-fly selection.
 Cavity type          : Scaled VdW (van der Waals Surface) (Alpha=1.100).
 Cavity algorithm     : GePol (No added spheres)
                        Default sphere list used, NSphG=    6.
                        Lebedev-Laikov grids with approx.  5.0 points / Ang**2.
                        Smoothing algorithm: York/Karplus (Gamma=1.0000).
                        Polarization charges: spherical gaussians, with
                                              point-specific exponents (IZeta= 3).
                        Self-potential: point-specific (ISelfS= 7).
                        Self-field    : sphere-specific E.n sum rule (ISelfD= 2).
 Solvent              : Water, Eps=  78.355300 Eps(inf)=   1.777849
 ------------------------------------------------------------------------------
 Spheres list:
 ISph  on   Nord     Re0    Alpha      Xe            Ye            Ze
    1   O      1    1.7500  1.100     -1.286513     -0.294250     -0.017693
    2   P      2    2.0735  1.100      0.094668      0.381529     -0.004280
    3   H      3    1.4430  1.100     -1.450800     -1.227570      0.067640
    4   H      4    1.4430  1.100      0.102581      1.147327      1.158589
    5   H      5    1.4430  1.100      0.183523      1.253792     -1.011664
    6   O      6    1.7500  1.100      1.254597     -0.567811     -0.001103
 ------------------------------------------------------------------------------
 One-electron integrals computed using PRISM.
   1 Symmetry operations used in ECPInt.
 ECPInt:  NShTT=    1128 NPrTT=    3744 LenC2=    1123 LenP2D=    3220.
 LDataN:  DoStor=T MaxTD1= 6 Len=  172
 NBasis=   117 RedAO= T EigKep=  1.88D-03  NBF=   117
 NBsUse=   117 1.00D-06 EigRej= -1.00D+00 NBFU=   117
 ExpMin= 9.04D-02 ExpMax= 5.24D+04 ExpMxC= 1.79D+03 IAcc=3 IRadAn=         5 AccDes= 0.00D+00
 Harris functional with IExCor= 2002 and IRadAn=       5 diagonalized for initial guess.
 HarFok:  IExCor= 2002 AccDes= 0.00D+00 IRadAn=         5 IDoV= 1 UseB2=F ITyADJ=14
 ICtDFT=  3500011 ScaDFX=  1.000000  1.000000  1.000000  1.000000
 FoFCou: FMM=F IPFlag=           0 FMFlag=      100000 FMFlg1=           0
         NFxFlg=           0 DoJE=T BraDBF=F KetDBF=T FulRan=T
         wScrn=  0.000000 ICntrl=       500 IOpCl=  0 I1Cent=   200000004 NGrid=           0
         NMat0=    1 NMatS0=      1 NMatT0=    0 NMatD0=    1 NMtDS0=    0 NMtDT0=    0
 Petite list used in FoFCou.
 Keep J ints in memory in canonical form, NReq=27663592.
 Requested convergence on RMS density matrix=1.00D-08 within 128 cycles.
 Requested convergence on MAX density matrix=1.00D-06.
 Requested convergence on             energy=1.00D-06.
 No special actions if energy rises.
 Inv3:  Mode=1 IEnd=     1710075.
 Iteration    1 A*A^-1 deviation from unit magnitude is 3.55D-15 for    755.
 Iteration    1 A*A^-1 deviation from orthogonality  is 2.14D-15 for    726    331.
 Iteration    1 A^-1*A deviation from unit magnitude is 3.77D-15 for    755.
 Iteration    1 A^-1*A deviation from orthogonality  is 1.64D-15 for    753    124.
 Error on total polarization charges =  0.00828
 SCF Done:  E(RO-LYP) =  -493.688512114     A.U. after   11 cycles
            NFock= 11  Conv=0.85D-08     -V/T= 2.0014

 **********************************************************************

            Population analysis using the SCF density.

 **********************************************************************

 Orbital symmetries:
       Occupied  (A) (A) (A) (A) (A) (A) (A) (A) (A) (A) (A) (A)
                 (A) (A) (A) (A) (A)
       Virtual   (A) (A) (A) (A) (A) (A) (A) (A) (A) (A) (A) (A)
                 (A) (A) (A) (A) (A) (A) (A) (A) (A) (A) (A) (A)
                 (A) (A) (A) (A) (A) (A) (A) (A) (A) (A) (A) (A)
                 (A) (A) (A) (A) (A) (A) (A) (A) (A) (A) (A) (A)
                 (A) (A) (A) (A) (A) (A) (A) (A) (A) (A) (A) (A)
                 (A) (A) (A) (A) (A) (A) (A) (A) (A) (A) (A) (A)
                 (A) (A) (A) (A) (A) (A) (A) (A) (A) (A) (A) (A)
                 (A) (A) (A) (A) (A) (A) (A) (A) (A) (A) (A) (A)
                 (A) (A) (A) (A)
 The electronic state is 1-A.
 Alpha  occ. eigenvalues --  -76.36707 -18.80272 -18.71378  -6.39836  -4.60887
 Alpha  occ. eigenvalues --   -4.60596  -4.60563  -0.99595  -0.87282  -0.61363
 Alpha  occ. eigenvalues --   -0.47915  -0.42160  -0.39281  -0.32049  -0.30738
 Alpha  occ. eigenvalues --   -0.25075  -0.23656
 Alpha virt. eigenvalues --   -0.00833   0.01142   0.03813   0.05523   0.08689
 Alpha virt. eigenvalues --    0.16804   0.20482   0.23360   0.24614   0.28164
 Alpha virt. eigenvalues --    0.31036   0.32152   0.36518   0.40179   0.42934
 Alpha virt. eigenvalues --    0.44351   0.45287   0.51127   0.52800   0.57712
 Alpha virt. eigenvalues --    0.60298   0.63947   0.66103   0.74767   0.77778
 Alpha virt. eigenvalues --    1.03211   1.06091   1.08854   1.13416   1.14330
 Alpha virt. eigenvalues --    1.18979   1.23436   1.25763   1.29476   1.32667
 Alpha virt. eigenvalues --    1.35158   1.39043   1.47960   1.52669   1.56622
 Alpha virt. eigenvalues --    1.59437   1.59693   1.72612   1.77882   1.80498
 Alpha virt. eigenvalues --    1.81570   1.89880   1.96287   1.99284   2.06305
 Alpha virt. eigenvalues --    2.07036   2.11896   2.12651   2.17015   2.20539
 Alpha virt. eigenvalues --    2.27742   2.42278   2.47901   2.50935   2.61187
 Alpha virt. eigenvalues --    2.65464   2.66552   2.77312   2.78041   2.84717
 Alpha virt. eigenvalues --    2.86096   2.87899   3.35957   3.67221   3.77443
 Alpha virt. eigenvalues --    4.95320   4.96507   5.03090   5.05042   5.10267
 Alpha virt. eigenvalues --    5.13614   5.14957   5.15815   5.23581   5.27892
 Alpha virt. eigenvalues --    5.33844   5.36770   5.45804   6.11145   6.15136
 Alpha virt. eigenvalues --    6.19959   6.25904   6.36153   6.44618   6.52889
 Alpha virt. eigenvalues --    6.60690   6.64450   6.73679   6.88045   7.20661
 Alpha virt. eigenvalues --    7.50450   7.93643  16.01369  43.11497  43.15303
          Condensed to atoms (all electrons):
               1          2          3          4          5          6
     1  O    7.810764   0.442518   0.301045  -0.034684  -0.027241  -0.069405
     2  P    0.442518  12.538462  -0.016223   0.363520   0.359331   0.720538
     3  H    0.301045  -0.016223   0.349992   0.003281   0.002665   0.002120
     4  H   -0.034684   0.363520   0.003281   0.752996  -0.066539  -0.043128
     5  H   -0.027241   0.359331   0.002665  -0.066539   0.721308  -0.040359
     6  O   -0.069405   0.720538   0.002120  -0.043128  -0.040359   8.031599
 Mulliken charges:
               1
     1  O   -0.422999
     2  P    0.591854
     3  H    0.357121
     4  H    0.024554
     5  H    0.050835
     6  O   -0.601365
 Sum of Mulliken charges =  -0.00000
 Mulliken charges with hydrogens summed into heavy atoms:
               1
     1  O   -0.065878
     2  P    0.667243
     6  O   -0.601365
 Electronic spatial extent (au):  <R**2>=            199.1203
 Charge=             -0.0000 electrons
 Dipole moment (field-independent basis, Debye):
    X=             -3.5992    Y=              1.2114    Z=             -0.0102  Tot=              3.7977
 Quadrupole moment (field-independent basis, Debye-Ang):
   XX=            -29.0977   YY=            -21.1206   ZZ=            -23.8423
   XY=              5.5254   XZ=             -0.3143   YZ=             -0.4960
 Traceless Quadrupole moment (field-independent basis, Debye-Ang):
   XX=             -4.4108   YY=              3.5663   ZZ=              0.8446
   XY=              5.5254   XZ=             -0.3143   YZ=             -0.4960
 Octapole moment (field-independent basis, Debye-Ang**2):
  XXX=            -10.6161  YYY=             -4.5010  ZZZ=             -0.3969  XYY=             -7.3550
  XXY=             -2.0932  XXZ=              0.3680  XZZ=             -1.0243  YZZ=             -0.0673
  YYZ=             -0.1279  XYZ=              0.2875
 Hexadecapole moment (field-independent basis, Debye-Ang**3):
 XXXX=           -151.1095 YYYY=            -59.9574 ZZZZ=            -35.7923 XXXY=             13.8174
 XXXZ=             -0.7268 YYYX=             10.7022 YYYZ=             -1.3103 ZZZX=             -0.1900
 ZZZY=             -0.6798 XXYY=            -28.3489 XXZZ=            -30.8045 YYZZ=            -16.8744
 XXYZ=             -0.7618 YYXZ=             -0.5291 ZZXY=              1.3142
 N-N= 1.258815922295D+02 E-N=-1.424589844601D+03  KE= 4.929838299647D+02
 1\1\GINC-NODE85\SP\ROLYP\def2TZVP\H3O2P1\YANZ\22-Sep-2023\0\\# scrf=(c
 pcm,solvent=water) def2tzvp olyp\\tmpdir/M2_conf_0_14.gjf\\0,1\O,0,0.,
 0.,0.\P,0,1.5377,0.,0.\H,0,-0.55699,0.,-0.77144\H,0,1.8915,-1.23189,0.
 5441\H,0,1.99206,0.91741,0.8576\O,0,2.16238,0.16156,-1.35291\\Version=
 ES64L-G16RevA.03\State=1-A\HF=-493.6885121\RMSD=8.545e-09\Dipole=-1.06
 24902,-0.1280465,1.0426405\Quadrupole=1.1031435,0.5390804,-1.6422239,-
 0.1946987,4.8708271,0.5389804\PG=C01 [X(H3O2P1)]\\@


 IT IS A CAPITAL MISTAKE TO THEORIZE BEFORE ONE HAS
 DATA.  INSENSIBLY ONE BEGINS TO TWIST FACTS TO SUIT
 THEORIES RATHER THAN THEORIES TO SUIT FACTS.

                                         -- SHERLOCK HOLMES
 Job cpu time:       0 days  0 hours  0 minutes 39.4 seconds.
 Elapsed time:       0 days  0 hours  0 minutes 10.5 seconds.
 File lengths (MBytes):  RWF=     16 Int=      0 D2E=      0 Chk=      2 Scr=      1
 Normal termination of Gaussian 16 at Fri Sep 22 16:54:09 2023.
