 Entering Gaussian System, Link 0=g16
 Initial command:
 /share/apps/gaussian/g16/l1.exe "/tmp/55608.mgr/Gau-87760.inp" -scrdir="/tmp/55608.mgr/"
 Entering Link 1 = /share/apps/gaussian/g16/l1.exe PID=     87767.
  
 Copyright (c) 1988,1990,1992,1993,1995,1998,2003,2009,2016,
            Gaussian, Inc.  All Rights Reserved.
  
 This is part of the Gaussian(R) 16 program.  It is based on
 the Gaussian(R) 09 system (copyright 2009, Gaussian, Inc.),
 the Gaussian(R) 03 system (copyright 2003, Gaussian, Inc.),
 the Gaussian(R) 98 system (copyright 1998, Gaussian, Inc.),
 the Gaussian(R) 94 system (copyright 1995, Gaussian, Inc.),
 the Gaussian 92(TM) system (copyright 1992, Gaussian, Inc.),
 the Gaussian 90(TM) system (copyright 1990, Gaussian, Inc.),
 the Gaussian 88(TM) system (copyright 1988, Gaussian, Inc.),
 the Gaussian 86(TM) system (copyright 1986, Carnegie Mellon
 University), and the Gaussian 82(TM) system (copyright 1983,
 Carnegie Mellon University). Gaussian is a federally registered
 trademark of Gaussian, Inc.
  
 This software contains proprietary and confidential information,
 including trade secrets, belonging to Gaussian, Inc.
  
 This software is provided under written license and may be
 used, copied, transmitted, or stored only in accord with that
 written license.
  
 The following legend is applicable only to US Government
 contracts under FAR:
  
                    RESTRICTED RIGHTS LEGEND
  
 Use, reproduction and disclosure by the US Government is
 subject to restrictions as set forth in subparagraphs (a)
 and (c) of the Commercial Computer Software - Restricted
 Rights clause in FAR 52.227-19.
  
 Gaussian, Inc.
 340 Quinnipiac St., Bldg. 40, Wallingford CT 06492
  
  
 ---------------------------------------------------------------
 Warning -- This program may not be used in any manner that
 competes with the business of Gaussian, Inc. or will provide
 assistance to any competitor of Gaussian, Inc.  The licensee
 of this program is prohibited from giving any competitor of
 Gaussian, Inc. access to this program.  By using this program,
 the user acknowledges that Gaussian, Inc. is engaged in the
 business of creating and licensing software in the field of
 computational chemistry and represents and warrants to the
 licensee that it is not a competitor of Gaussian, Inc. and that
 it will not use this program in any manner prohibited above.
 ---------------------------------------------------------------
  

 Cite this work as:
 Gaussian 16, Revision A.03,
 M. J. Frisch, G. W. Trucks, H. B. Schlegel, G. E. Scuseria, 
 M. A. Robb, J. R. Cheeseman, G. Scalmani, V. Barone, 
 G. A. Petersson, H. Nakatsuji, X. Li, M. Caricato, A. V. Marenich, 
 J. Bloino, B. G. Janesko, R. Gomperts, B. Mennucci, H. P. Hratchian, 
 J. V. Ortiz, A. F. Izmaylov, J. L. Sonnenberg, D. Williams-Young, 
 F. Ding, F. Lipparini, F. Egidi, J. Goings, B. Peng, A. Petrone, 
 T. Henderson, D. Ranasinghe, V. G. Zakrzewski, J. Gao, N. Rega, 
 G. Zheng, W. Liang, M. Hada, M. Ehara, K. Toyota, R. Fukuda, 
 J. Hasegawa, M. Ishida, T. Nakajima, Y. Honda, O. Kitao, H. Nakai, 
 T. Vreven, K. Throssell, J. A. Montgomery, Jr., J. E. Peralta, 
 F. Ogliaro, M. J. Bearpark, J. J. Heyd, E. N. Brothers, K. N. Kudin, 
 V. N. Staroverov, T. A. Keith, R. Kobayashi, J. Normand, 
 K. Raghavachari, A. P. Rendell, J. C. Burant, S. S. Iyengar, 
 J. Tomasi, M. Cossi, J. M. Millam, M. Klene, C. Adamo, R. Cammi, 
 J. W. Ochterski, R. L. Martin, K. Morokuma, O. Farkas, 
 J. B. Foresman, and D. J. Fox, Gaussian, Inc., Wallingford CT, 2016.
 
 ******************************************
 Gaussian 16:  ES64L-G16RevA.03 25-Dec-2016
                22-Sep-2023 
 ******************************************
 %nprocshared=4
 Will use up to    4 processors via shared memory.
 %mem=4GB
 -----------------------------------------
 # scrf=(cpcm,solvent=water) def2tzvp olyp
 -----------------------------------------
 1/38=1,172=1/1;
 2/12=2,17=6,18=5,40=1/2;
 3/5=44,7=101,11=2,25=1,30=1,70=2101,72=1,74=2002/1,2,3;
 4//1;
 5/5=2,38=5,53=1/2;
 6/7=2,8=2,9=2,10=2,28=1/1;
 99/5=1,9=1/99;
 -----------------------
 tmpdir/M2_conf_0_15.gjf
 -----------------------
 Symbolic Z-matrix:
 Charge =  0 Multiplicity = 1
 P                     0.        0.        0. 
 O                     1.7268    0.        0. 
 P                     2.58419   0.        1.30924 
 O                    -0.43873  -1.4155    0.01359 
 H                    -0.22617   0.68214  -1.15344 
 H                    -0.3342    0.81424   0.96216 
 H                     3.23321   1.23189   1.30713 
 H                     3.55056  -0.91741   1.2195 
 O                     1.79461  -0.16156   2.57303 
 
                          Input orientation:                          
 ---------------------------------------------------------------------
 Center     Atomic      Atomic             Coordinates (Angstroms)
 Number     Number       Type             X           Y           Z
 ---------------------------------------------------------------------
      1         15           0        0.000000    0.000000    0.000000
      2          8           0        1.726800    0.000000    0.000000
      3         15           0        2.584190    0.000000    1.309240
      4          8           0       -0.438730   -1.415500    0.013590
      5          1           0       -0.226170    0.682140   -1.153440
      6          1           0       -0.334200    0.814240    0.962160
      7          1           0        3.233210    1.231890    1.307130
      8          1           0        3.550560   -0.917410    1.219500
      9          8           0        1.794610   -0.161560    2.573030
 ---------------------------------------------------------------------
                    Distance matrix (angstroms):
                    1          2          3          4          5
     1  P    0.000000
     2  O    1.726800   0.000000
     3  P    2.896920   1.565001   0.000000
     4  O    1.481995   2.587150   3.580558   0.000000
     5  H    1.359004   2.368508   3.798451   2.409820   0.000000
     6  H    1.304005   2.415877   3.049664   2.425377   2.122471
     7  H    3.698620   2.344230   1.392402   4.707979   4.280647
     8  H    3.864621   2.378008   1.335502   4.197231   4.738470
     9  O    3.141212   2.578989   1.498901   3.620899   4.322263
                    6          7          8          9
     6  H    0.000000
     7  H    3.608303   0.000000
     8  H    4.261009   2.174369   0.000000
     9  O    2.842344   2.369341   2.342373   0.000000
 Stoichiometry    H4O3P2
 Framework group  C1[X(H4O3P2)]
 Deg. of freedom    21
 Full point group                 C1      NOp   1
 Largest Abelian subgroup         C1      NOp   1
 Largest concise Abelian subgroup C1      NOp   1
                         Standard orientation:                         
 ---------------------------------------------------------------------
 Center     Atomic      Atomic             Coordinates (Angstroms)
 Number     Number       Type             X           Y           Z
 ---------------------------------------------------------------------
      1         15           0       -1.363586   -0.131204   -0.375848
      2          8           0        0.066832   -0.894688    0.218151
      3         15           0        1.483487   -0.233179    0.149435
      4          8           0       -1.932854    0.661982    0.739096
      5          1           0       -2.070568   -1.231525   -0.745122
      6          1           0       -0.998651    0.442821   -1.488388
      7          1           0        2.205493   -1.033893   -0.731671
      8          1           0        2.097411   -0.350419    1.329654
      9          8           0        1.486998    1.187552   -0.328283
 ---------------------------------------------------------------------
 Rotational constants (GHZ):           7.3441405           1.9666087           1.7848170
 Standard basis: def2TZVP (5D, 7F)
 There are   216 symmetry adapted cartesian basis functions of A   symmetry.
 There are   191 symmetry adapted basis functions of A   symmetry.
   191 basis functions,   323 primitive gaussians,   216 cartesian basis functions
    29 alpha electrons       29 beta electrons
       nuclear repulsion energy       329.2528969235 Hartrees.
 NAtoms=    9 NActive=    9 NUniq=    9 SFac= 1.00D+00 NAtFMM=   60 NAOKFM=F Big=F
 Integral buffers will be    131072 words long.
 Raffenetti 2 integral format.
 Two-electron integral symmetry is turned on.
 ------------------------------------------------------------------------------
 Polarizable Continuum Model (PCM)
 =================================
 Model                : C-PCM.
 Atomic radii         : UFF (Universal Force Field).
 Polarization charges : Total charges.
 Charge compensation  : None.
 Solution method      : On-the-fly selection.
 Cavity type          : Scaled VdW (van der Waals Surface) (Alpha=1.100).
 Cavity algorithm     : GePol (No added spheres)
                        Default sphere list used, NSphG=    9.
                        Lebedev-Laikov grids with approx.  5.0 points / Ang**2.
                        Smoothing algorithm: York/Karplus (Gamma=1.0000).
                        Polarization charges: spherical gaussians, with
                                              point-specific exponents (IZeta= 3).
                        Self-potential: point-specific (ISelfS= 7).
                        Self-field    : sphere-specific E.n sum rule (ISelfD= 2).
 Solvent              : Water, Eps=  78.355300 Eps(inf)=   1.777849
 ------------------------------------------------------------------------------
 Spheres list:
 ISph  on   Nord     Re0    Alpha      Xe            Ye            Ze
    1   P      1    2.0735  1.100     -1.363586     -0.131204     -0.375848
    2   O      2    1.7500  1.100      0.066832     -0.894688      0.218151
    3   P      3    2.0735  1.100      1.483487     -0.233179      0.149435
    4   O      4    1.7500  1.100     -1.932854      0.661982      0.739096
    5   H      5    1.4430  1.100     -2.070568     -1.231525     -0.745122
    6   H      6    1.4430  1.100     -0.998651      0.442821     -1.488388
    7   H      7    1.4430  1.100      2.205493     -1.033893     -0.731671
    8   H      8    1.4430  1.100      2.097411     -0.350419      1.329654
    9   O      9    1.7500  1.100      1.486998      1.187552     -0.328283
 ------------------------------------------------------------------------------
 One-electron integrals computed using PRISM.
   1 Symmetry operations used in ECPInt.
 ECPInt:  NShTT=    2850 NPrTT=    9741 LenC2=    2788 LenP2D=    7518.
 LDataN:  DoStor=T MaxTD1= 6 Len=  172
 NBasis=   191 RedAO= T EigKep=  1.70D-03  NBF=   191
 NBsUse=   191 1.00D-06 EigRej= -1.00D+00 NBFU=   191
 ExpMin= 9.04D-02 ExpMax= 5.24D+04 ExpMxC= 1.79D+03 IAcc=3 IRadAn=         5 AccDes= 0.00D+00
 Harris functional with IExCor= 2002 and IRadAn=       5 diagonalized for initial guess.
 HarFok:  IExCor= 2002 AccDes= 0.00D+00 IRadAn=         5 IDoV= 1 UseB2=F ITyADJ=14
 ICtDFT=  3500011 ScaDFX=  1.000000  1.000000  1.000000  1.000000
 FoFCou: FMM=F IPFlag=           0 FMFlag=      100000 FMFlg1=           0
         NFxFlg=           0 DoJE=T BraDBF=F KetDBF=T FulRan=T
         wScrn=  0.000000 ICntrl=       500 IOpCl=  0 I1Cent=   200000004 NGrid=           0
         NMat0=    1 NMatS0=      1 NMatT0=    0 NMatD0=    1 NMtDS0=    0 NMtDT0=    0
 Petite list used in FoFCou.
 Keep J ints in memory in canonical form, NReq=173223722.
 Requested convergence on RMS density matrix=1.00D-08 within 128 cycles.
 Requested convergence on MAX density matrix=1.00D-06.
 Requested convergence on             energy=1.00D-06.
 No special actions if energy rises.
 Inv3:  Mode=1 IEnd=     3603648.
 Iteration    1 A*A^-1 deviation from unit magnitude is 4.88D-15 for    656.
 Iteration    1 A*A^-1 deviation from orthogonality  is 1.63D-15 for   1083    261.
 Iteration    1 A^-1*A deviation from unit magnitude is 4.88D-15 for    656.
 Iteration    1 A^-1*A deviation from orthogonality  is 8.85D-16 for   1026    247.
 Error on total polarization charges =  0.00990
 SCF Done:  E(RO-LYP) =  -910.927590831     A.U. after   13 cycles
            NFock= 13  Conv=0.20D-08     -V/T= 2.0015

 **********************************************************************

            Population analysis using the SCF density.

 **********************************************************************

 Orbital symmetries:
       Occupied  (A) (A) (A) (A) (A) (A) (A) (A) (A) (A) (A) (A)
                 (A) (A) (A) (A) (A) (A) (A) (A) (A) (A) (A) (A)
                 (A) (A) (A) (A) (A)
       Virtual   (A) (A) (A) (A) (A) (A) (A) (A) (A) (A) (A) (A)
                 (A) (A) (A) (A) (A) (A) (A) (A) (A) (A) (A) (A)
                 (A) (A) (A) (A) (A) (A) (A) (A) (A) (A) (A) (A)
                 (A) (A) (A) (A) (A) (A) (A) (A) (A) (A) (A) (A)
                 (A) (A) (A) (A) (A) (A) (A) (A) (A) (A) (A) (A)
                 (A) (A) (A) (A) (A) (A) (A) (A) (A) (A) (A) (A)
                 (A) (A) (A) (A) (A) (A) (A) (A) (A) (A) (A) (A)
                 (A) (A) (A) (A) (A) (A) (A) (A) (A) (A) (A) (A)
                 (A) (A) (A) (A) (A) (A) (A) (A) (A) (A) (A) (A)
                 (A) (A) (A) (A) (A) (A) (A) (A) (A) (A) (A) (A)
                 (A) (A) (A) (A) (A) (A) (A) (A) (A) (A) (A) (A)
                 (A) (A) (A) (A) (A) (A) (A) (A) (A) (A) (A) (A)
                 (A) (A) (A) (A) (A) (A) (A) (A) (A) (A) (A) (A)
                 (A) (A) (A) (A) (A) (A)
 The electronic state is 1-A.
 Alpha  occ. eigenvalues --  -76.39315 -76.37538 -18.81951 -18.74445 -18.72376
 Alpha  occ. eigenvalues --   -6.42517  -6.40687  -4.63750  -4.63211  -4.63106
 Alpha  occ. eigenvalues --   -4.61754  -4.61435  -4.61404  -0.99588  -0.90799
 Alpha  occ. eigenvalues --   -0.88060  -0.63427  -0.55393  -0.47007  -0.43662
 Alpha  occ. eigenvalues --   -0.42923  -0.38871  -0.36769  -0.32919  -0.32154
 Alpha  occ. eigenvalues --   -0.27833  -0.26751  -0.26070  -0.24389
 Alpha virt. eigenvalues --   -0.03978  -0.00979   0.00476   0.01862   0.03514
 Alpha virt. eigenvalues --    0.03785   0.07003   0.08488   0.15549   0.16466
 Alpha virt. eigenvalues --    0.18622   0.19414   0.20504   0.23167   0.23696
 Alpha virt. eigenvalues --    0.25226   0.27478   0.29187   0.31137   0.32200
 Alpha virt. eigenvalues --    0.34440   0.36373   0.36953   0.39654   0.41096
 Alpha virt. eigenvalues --    0.45389   0.48131   0.50011   0.51474   0.53243
 Alpha virt. eigenvalues --    0.53682   0.56594   0.57704   0.63839   0.65302
 Alpha virt. eigenvalues --    0.66000   0.66608   0.68919   0.73927   0.76776
 Alpha virt. eigenvalues --    0.79658   0.83120   1.01009   1.03582   1.05902
 Alpha virt. eigenvalues --    1.07736   1.09373   1.09593   1.12880   1.13150
 Alpha virt. eigenvalues --    1.14931   1.16416   1.20846   1.22515   1.25067
 Alpha virt. eigenvalues --    1.27110   1.29046   1.30543   1.31859   1.34754
 Alpha virt. eigenvalues --    1.40291   1.41277   1.42217   1.48202   1.50473
 Alpha virt. eigenvalues --    1.52888   1.56239   1.59514   1.60207   1.61019
 Alpha virt. eigenvalues --    1.63387   1.70838   1.74918   1.79092   1.81229
 Alpha virt. eigenvalues --    1.83989   1.87708   1.88729   1.93211   1.94551
 Alpha virt. eigenvalues --    1.95729   1.99111   2.02963   2.05558   2.08118
 Alpha virt. eigenvalues --    2.09740   2.11316   2.13808   2.17053   2.17953
 Alpha virt. eigenvalues --    2.19242   2.20711   2.24146   2.26955   2.34992
 Alpha virt. eigenvalues --    2.46452   2.50485   2.54120   2.57301   2.61822
 Alpha virt. eigenvalues --    2.64628   2.70793   2.76961   2.78122   2.79264
 Alpha virt. eigenvalues --    2.80492   2.85462   2.86031   2.88516   2.93171
 Alpha virt. eigenvalues --    2.96448   3.29762   3.43109   3.65704   3.66976
 Alpha virt. eigenvalues --    4.95539   4.96592   5.00847   5.01235   5.02678
 Alpha virt. eigenvalues --    5.03767   5.04336   5.06179   5.09085   5.10661
 Alpha virt. eigenvalues --    5.13436   5.14081   5.18609   5.21327   5.24263
 Alpha virt. eigenvalues --    5.25574   5.29921   5.30605   5.37671   5.42438
 Alpha virt. eigenvalues --    5.45464   6.16648   6.18007   6.19751   6.20323
 Alpha virt. eigenvalues --    6.31781   6.32926   6.46949   6.51382   6.52624
 Alpha virt. eigenvalues --    6.58166   6.60452   6.66210   6.67893   6.73940
 Alpha virt. eigenvalues --    6.75096   7.21809   7.23817   7.44395   7.53246
 Alpha virt. eigenvalues --    7.76844   7.93584  15.60170  15.94319  43.09063
 Alpha virt. eigenvalues --   43.18138  43.28635
          Condensed to atoms (all electrons):
               1          2          3          4          5          6
     1  P   12.675751   0.301685  -0.017214   0.731752   0.356923   0.362296
     2  O    0.301685   7.816897   0.395417  -0.050912  -0.015954  -0.023130
     3  P   -0.017214   0.395417  12.617898   0.001737   0.003687  -0.001343
     4  O    0.731752  -0.050912   0.001737   7.903734  -0.034892  -0.032483
     5  H    0.356923  -0.015954   0.003687  -0.034892   0.668576  -0.053147
     6  H    0.362296  -0.023130  -0.001343  -0.032483  -0.053147   0.656540
     7  H   -0.000020  -0.025283   0.367598  -0.000214   0.000218   0.000130
     8  H    0.001323  -0.019945   0.363272  -0.000360  -0.000094   0.000250
     9  O    0.005544  -0.059063   0.688403  -0.001641   0.000259   0.006440
               7          8          9
     1  P   -0.000020   0.001323   0.005544
     2  O   -0.025283  -0.019945  -0.059063
     3  P    0.367598   0.363272   0.688403
     4  O   -0.000214  -0.000360  -0.001641
     5  H    0.000218  -0.000094   0.000259
     6  H    0.000130   0.000250   0.006440
     7  H    0.715781  -0.058052  -0.038505
     8  H   -0.058052   0.687441  -0.035476
     9  O   -0.038505  -0.035476   8.018971
 Mulliken charges:
               1
     1  P    0.581961
     2  O   -0.319712
     3  P    0.580546
     4  O   -0.516720
     5  H    0.074424
     6  H    0.084446
     7  H    0.038347
     8  H    0.061641
     9  O   -0.584933
 Sum of Mulliken charges =  -0.00000
 Mulliken charges with hydrogens summed into heavy atoms:
               1
     1  P    0.740831
     2  O   -0.319712
     3  P    0.680534
     4  O   -0.516720
     9  O   -0.584933
 Electronic spatial extent (au):  <R**2>=            673.2551
 Charge=             -0.0000 electrons
 Dipole moment (field-independent basis, Debye):
    X=              0.5169    Y=             -5.3452    Z=             -2.4831  Tot=              5.9164
 Quadrupole moment (field-independent basis, Debye-Ang):
   XX=            -42.3164   YY=            -47.3900   ZZ=            -40.7396
   XY=             -1.9022   XZ=              9.2687   YZ=              0.1721
 Traceless Quadrupole moment (field-independent basis, Debye-Ang):
   XX=              1.1656   YY=             -3.9080   ZZ=              2.7424
   XY=             -1.9022   XZ=              9.2687   YZ=              0.1721
 Octapole moment (field-independent basis, Debye-Ang**2):
  XXX=              9.8945  YYY=             -7.8385  ZZZ=             -2.1359  XYY=             -5.6191
  XXY=            -20.2075  XXZ=             -7.2889  XZZ=              1.1724  YZZ=             -2.0841
  YYZ=             -0.3630  XYZ=              3.9273
 Hexadecapole moment (field-independent basis, Debye-Ang**3):
 XXXX=           -588.7243 YYYY=           -161.5286 ZZZZ=            -97.2587 XXXY=              1.8347
 XXXZ=             32.1223 YYYX=             -5.1407 YYYZ=              0.6764 ZZZX=              7.9615
 ZZZY=             -0.8931 XXYY=           -133.1032 XXZZ=           -113.2521 YYZZ=            -42.8060
 XXYZ=             -1.6655 YYXZ=              5.3482 ZZXY=              0.1274
 N-N= 3.292528969235D+02 E-N=-2.822664393880D+03  KE= 9.095800986502D+02
 1\1\GINC-NODE85\SP\ROLYP\def2TZVP\H4O3P2\YANZ\22-Sep-2023\0\\# scrf=(c
 pcm,solvent=water) def2tzvp olyp\\tmpdir/M2_conf_0_15.gjf\\0,1\P,0,0.,
 0.,0.\O,0,1.7268,0.,0.\P,0,2.58419,0.,1.30924\O,0,-0.43873,-1.4155,0.0
 1359\H,0,-0.22617,0.68214,-1.15344\H,0,-0.3342,0.81424,0.96216\H,0,3.2
 3321,1.23189,1.30713\H,0,3.55056,-0.91741,1.2195\O,0,1.79461,-0.16156,
 2.57303\\Version=ES64L-G16RevA.03\State=1-A\HF=-910.9275908\RMSD=1.979
 e-09\Dipole=0.7622095,1.7810566,-1.2903605\Quadrupole=5.1921181,-0.431
 2821,-4.760836,-5.204459,0.3640324,-2.013448\PG=C01 [X(H4O3P2)]\\@


 WHEN YOU REACH FOR THE STARS, YOU MAY NOT QUITE GET ONE,
 BUT YOU WON'T COME UP WITH A HANDFUL OF MUD, EITHER.

                                         -- LEO BURNETT (AD AGENCY HEAD)
 Job cpu time:       0 days  0 hours  2 minutes  5.7 seconds.
 Elapsed time:       0 days  0 hours  0 minutes 35.5 seconds.
 File lengths (MBytes):  RWF=     27 Int=      0 D2E=      0 Chk=      4 Scr=      1
 Normal termination of Gaussian 16 at Fri Sep 22 16:53:53 2023.
