 Entering Gaussian System, Link 0=g16
 Initial command:
 /share/apps/gaussian/g16/l1.exe "/tmp/55608.mgr/Gau-89193.inp" -scrdir="/tmp/55608.mgr/"
 Entering Link 1 = /share/apps/gaussian/g16/l1.exe PID=     89194.
  
 Copyright (c) 1988,1990,1992,1993,1995,1998,2003,2009,2016,
            Gaussian, Inc.  All Rights Reserved.
  
 This is part of the Gaussian(R) 16 program.  It is based on
 the Gaussian(R) 09 system (copyright 2009, Gaussian, Inc.),
 the Gaussian(R) 03 system (copyright 2003, Gaussian, Inc.),
 the Gaussian(R) 98 system (copyright 1998, Gaussian, Inc.),
 the Gaussian(R) 94 system (copyright 1995, Gaussian, Inc.),
 the Gaussian 92(TM) system (copyright 1992, Gaussian, Inc.),
 the Gaussian 90(TM) system (copyright 1990, Gaussian, Inc.),
 the Gaussian 88(TM) system (copyright 1988, Gaussian, Inc.),
 the Gaussian 86(TM) system (copyright 1986, Carnegie Mellon
 University), and the Gaussian 82(TM) system (copyright 1983,
 Carnegie Mellon University). Gaussian is a federally registered
 trademark of Gaussian, Inc.
  
 This software contains proprietary and confidential information,
 including trade secrets, belonging to Gaussian, Inc.
  
 This software is provided under written license and may be
 used, copied, transmitted, or stored only in accord with that
 written license.
  
 The following legend is applicable only to US Government
 contracts under FAR:
  
                    RESTRICTED RIGHTS LEGEND
  
 Use, reproduction and disclosure by the US Government is
 subject to restrictions as set forth in subparagraphs (a)
 and (c) of the Commercial Computer Software - Restricted
 Rights clause in FAR 52.227-19.
  
 Gaussian, Inc.
 340 Quinnipiac St., Bldg. 40, Wallingford CT 06492
  
  
 ---------------------------------------------------------------
 Warning -- This program may not be used in any manner that
 competes with the business of Gaussian, Inc. or will provide
 assistance to any competitor of Gaussian, Inc.  The licensee
 of this program is prohibited from giving any competitor of
 Gaussian, Inc. access to this program.  By using this program,
 the user acknowledges that Gaussian, Inc. is engaged in the
 business of creating and licensing software in the field of
 computational chemistry and represents and warrants to the
 licensee that it is not a competitor of Gaussian, Inc. and that
 it will not use this program in any manner prohibited above.
 ---------------------------------------------------------------
  

 Cite this work as:
 Gaussian 16, Revision A.03,
 M. J. Frisch, G. W. Trucks, H. B. Schlegel, G. E. Scuseria, 
 M. A. Robb, J. R. Cheeseman, G. Scalmani, V. Barone, 
 G. A. Petersson, H. Nakatsuji, X. Li, M. Caricato, A. V. Marenich, 
 J. Bloino, B. G. Janesko, R. Gomperts, B. Mennucci, H. P. Hratchian, 
 J. V. Ortiz, A. F. Izmaylov, J. L. Sonnenberg, D. Williams-Young, 
 F. Ding, F. Lipparini, F. Egidi, J. Goings, B. Peng, A. Petrone, 
 T. Henderson, D. Ranasinghe, V. G. Zakrzewski, J. Gao, N. Rega, 
 G. Zheng, W. Liang, M. Hada, M. Ehara, K. Toyota, R. Fukuda, 
 J. Hasegawa, M. Ishida, T. Nakajima, Y. Honda, O. Kitao, H. Nakai, 
 T. Vreven, K. Throssell, J. A. Montgomery, Jr., J. E. Peralta, 
 F. Ogliaro, M. J. Bearpark, J. J. Heyd, E. N. Brothers, K. N. Kudin, 
 V. N. Staroverov, T. A. Keith, R. Kobayashi, J. Normand, 
 K. Raghavachari, A. P. Rendell, J. C. Burant, S. S. Iyengar, 
 J. Tomasi, M. Cossi, J. M. Millam, M. Klene, C. Adamo, R. Cammi, 
 J. W. Ochterski, R. L. Martin, K. Morokuma, O. Farkas, 
 J. B. Foresman, and D. J. Fox, Gaussian, Inc., Wallingford CT, 2016.
 
 ******************************************
 Gaussian 16:  ES64L-G16RevA.03 25-Dec-2016
                22-Sep-2023 
 ******************************************
 %nprocshared=4
 Will use up to    4 processors via shared memory.
 %mem=4GB
 -----------------------------------------
 # scrf=(cpcm,solvent=water) def2tzvp olyp
 -----------------------------------------
 1/38=1,172=1/1;
 2/12=2,17=6,18=5,40=1/2;
 3/5=44,7=101,11=2,25=1,30=1,70=2101,72=1,74=2002/1,2,3;
 4//1;
 5/5=2,38=5,53=1/2;
 6/7=2,8=2,9=2,10=2,28=1/1;
 99/5=1,9=1/99;
 -----------------------
 tmpdir/M2_conf_0_48.gjf
 -----------------------
 Symbolic Z-matrix:
 Charge =  0 Multiplicity = 1
 H                     0.        0.        0. 
 C                     1.0922    0.        0. 
 H                     1.46086   0.        1.02512 
 H                     1.50613   1.0066   -0.49291 
 H                     1.47203  -0.86923  -0.53832 
 
                          Input orientation:                          
 ---------------------------------------------------------------------
 Center     Atomic      Atomic             Coordinates (Angstroms)
 Number     Number       Type             X           Y           Z
 ---------------------------------------------------------------------
      1          1           0        0.000000    0.000000    0.000000
      2          6           0        1.092200    0.000000    0.000000
      3          1           0        1.460860    0.000000    1.025120
      4          1           0        1.506130    1.006600   -0.492910
      5          1           0        1.472030   -0.869230   -0.538320
 ---------------------------------------------------------------------
                    Distance matrix (angstroms):
                    1          2          3          4          5
     1  H    0.000000
     2  C    1.092200   0.000000
     3  H    1.784652   1.089395   0.000000
     4  H    1.877400   1.194798   1.822007   0.000000
     5  H    1.792267   1.090697   1.788863   1.876689   0.000000
 Stoichiometry    CH4
 Framework group  C1[X(CH4)]
 Deg. of freedom     9
 Full point group                 C1      NOp   1
 Largest Abelian subgroup         C1      NOp   1
 Largest concise Abelian subgroup C1      NOp   1
                         Standard orientation:                         
 ---------------------------------------------------------------------
 Center     Atomic      Atomic             Coordinates (Angstroms)
 Number     Number       Type             X           Y           Z
 ---------------------------------------------------------------------
      1          1           0        0.517311   -0.836155   -0.491642
      2          6           0        0.015316    0.001004   -0.001677
      3          1           0        0.015219   -0.149554    1.077264
      4          1           0       -1.134738    0.039640   -0.323276
      5          1           0        0.510314    0.940043   -0.252281
 ---------------------------------------------------------------------
 Rotational constants (GHZ):         157.8305981         147.9846330         146.4121430
 Standard basis: def2TZVP (5D, 7F)
 There are    60 symmetry adapted cartesian basis functions of A   symmetry.
 There are    55 symmetry adapted basis functions of A   symmetry.
    55 basis functions,    83 primitive gaussians,    60 cartesian basis functions
     5 alpha electrons        5 beta electrons
       nuclear repulsion energy        13.1318678758 Hartrees.
 NAtoms=    5 NActive=    5 NUniq=    5 SFac= 1.00D+00 NAtFMM=   60 NAOKFM=F Big=F
 Integral buffers will be    131072 words long.
 Raffenetti 2 integral format.
 Two-electron integral symmetry is turned on.
 ------------------------------------------------------------------------------
 Polarizable Continuum Model (PCM)
 =================================
 Model                : C-PCM.
 Atomic radii         : UFF (Universal Force Field).
 Polarization charges : Total charges.
 Charge compensation  : None.
 Solution method      : On-the-fly selection.
 Cavity type          : Scaled VdW (van der Waals Surface) (Alpha=1.100).
 Cavity algorithm     : GePol (No added spheres)
                        Default sphere list used, NSphG=    5.
                        Lebedev-Laikov grids with approx.  5.0 points / Ang**2.
                        Smoothing algorithm: York/Karplus (Gamma=1.0000).
                        Polarization charges: spherical gaussians, with
                                              point-specific exponents (IZeta= 3).
                        Self-potential: point-specific (ISelfS= 7).
                        Self-field    : sphere-specific E.n sum rule (ISelfD= 2).
 Solvent              : Water, Eps=  78.355300 Eps(inf)=   1.777849
 ------------------------------------------------------------------------------
 Spheres list:
 ISph  on   Nord     Re0    Alpha      Xe            Ye            Ze
    1   H      1    1.4430  1.100      0.517311     -0.836155     -0.491642
    2   C      2    1.9255  1.100      0.015316      0.001004     -0.001677
    3   H      3    1.4430  1.100      0.015219     -0.149554      1.077264
    4   H      4    1.4430  1.100     -1.134738      0.039640     -0.323276
    5   H      5    1.4430  1.100      0.510314      0.940043     -0.252281
 ------------------------------------------------------------------------------
 One-electron integrals computed using PRISM.
   1 Symmetry operations used in ECPInt.
 ECPInt:  NShTT=     378 NPrTT=    1024 LenC2=     379 LenP2D=     987.
 LDataN:  DoStor=T MaxTD1= 6 Len=  172
 NBasis=    55 RedAO= T EigKep=  1.62D-03  NBF=    55
 NBsUse=    55 1.00D-06 EigRej= -1.00D+00 NBFU=    55
 ExpMin= 9.52D-02 ExpMax= 1.36D+04 ExpMxC= 4.63D+02 IAcc=3 IRadAn=         5 AccDes= 0.00D+00
 Harris functional with IExCor= 2002 and IRadAn=       5 diagonalized for initial guess.
 HarFok:  IExCor= 2002 AccDes= 0.00D+00 IRadAn=         5 IDoV= 1 UseB2=F ITyADJ=14
 ICtDFT=  3500011 ScaDFX=  1.000000  1.000000  1.000000  1.000000
 FoFCou: FMM=F IPFlag=           0 FMFlag=      100000 FMFlg1=           0
         NFxFlg=           0 DoJE=T BraDBF=F KetDBF=T FulRan=T
         wScrn=  0.000000 ICntrl=       500 IOpCl=  0 I1Cent=   200000004 NGrid=           0
         NMat0=    1 NMatS0=      1 NMatT0=    0 NMatD0=    1 NMtDS0=    0 NMtDT0=    0
 Petite list used in FoFCou.
 Keep J ints in memory in canonical form, NReq=4722199.
 Requested convergence on RMS density matrix=1.00D-08 within 128 cycles.
 Requested convergence on MAX density matrix=1.00D-06.
 Requested convergence on             energy=1.00D-06.
 No special actions if energy rises.
 Inv3:  Mode=1 IEnd=      744012.
 Iteration    1 A*A^-1 deviation from unit magnitude is 2.33D-15 for    350.
 Iteration    1 A*A^-1 deviation from orthogonality  is 1.65D-15 for    423    227.
 Iteration    1 A^-1*A deviation from unit magnitude is 2.33D-15 for    350.
 Iteration    1 A^-1*A deviation from orthogonality  is 1.35D-15 for    414     96.
 Error on total polarization charges =  0.00939
 SCF Done:  E(RO-LYP) =  -40.5045891175     A.U. after    8 cycles
            NFock=  8  Conv=0.65D-08     -V/T= 2.0070

 **********************************************************************

            Population analysis using the SCF density.

 **********************************************************************

 Orbital symmetries:
       Occupied  (A) (A) (A) (A) (A)
       Virtual   (A) (A) (A) (A) (A) (A) (A) (A) (A) (A) (A) (A)
                 (A) (A) (A) (A) (A) (A) (A) (A) (A) (A) (A) (A)
                 (A) (A) (A) (A) (A) (A) (A) (A) (A) (A) (A) (A)
                 (A) (A) (A) (A) (A) (A) (A) (A) (A) (A) (A) (A)
                 (A) (A)
 The electronic state is 1-A.
 Alpha  occ. eigenvalues --   -9.88930  -0.61986  -0.34607  -0.34492  -0.32675
 Alpha virt. eigenvalues --    0.02287   0.08644   0.10181   0.10265   0.17694
 Alpha virt. eigenvalues --    0.17717   0.18332   0.36512   0.39333   0.42873
 Alpha virt. eigenvalues --    0.43019   0.47048   0.55842   0.56044   0.89482
 Alpha virt. eigenvalues --    0.89521   0.89910   1.41068   1.42218   1.43241
 Alpha virt. eigenvalues --    1.44962   1.46301   1.46398   1.48016   1.88726
 Alpha virt. eigenvalues --    1.90337   1.91616   1.94685   2.13893   2.15756
 Alpha virt. eigenvalues --    2.17161   2.30947   2.34969   2.47655   2.49467
 Alpha virt. eigenvalues --    2.50469   2.86600   2.88111   2.91148   3.21281
 Alpha virt. eigenvalues --    3.24925   3.28809   3.37556   3.40141   3.42189
 Alpha virt. eigenvalues --    3.96707   4.09486   4.10572   4.35742  21.86245
          Condensed to atoms (all electrons):
               1          2          3          4          5
     1  H    0.539122   0.401667  -0.023673  -0.019624  -0.024061
     2  C    0.401667   4.907607   0.402051   0.379919   0.402040
     3  H   -0.023673   0.402051   0.542320  -0.024071  -0.023240
     4  H   -0.019624   0.379919  -0.024071   0.570303  -0.019753
     5  H   -0.024061   0.402040  -0.023240  -0.019753   0.538138
 Mulliken charges:
               1
     1  H    0.126569
     2  C   -0.493284
     3  H    0.126613
     4  H    0.113226
     5  H    0.126877
 Sum of Mulliken charges =  -0.00000
 Mulliken charges with hydrogens summed into heavy atoms:
               1
     2  C   -0.000000
 Electronic spatial extent (au):  <R**2>=             36.8023
 Charge=             -0.0000 electrons
 Dipole moment (field-independent basis, Debye):
    X=              0.0690    Y=             -0.0081    Z=              0.0515  Tot=              0.0865
 Quadrupole moment (field-independent basis, Debye-Ang):
   XX=             -8.4562   YY=             -8.4796   ZZ=             -8.5751
   XY=              0.0140   XZ=             -0.0949   YZ=              0.0026
 Traceless Quadrupole moment (field-independent basis, Debye-Ang):
   XX=              0.0474   YY=              0.0240   ZZ=             -0.0714
   XY=              0.0140   XZ=             -0.0949   YZ=              0.0026
 Octapole moment (field-independent basis, Debye-Ang**2):
  XXX=             -0.4868  YYY=              0.1719  ZZZ=              0.9768  XYY=              0.7696
  XXY=              0.0451  XXZ=             -0.3853  XZZ=              0.1725  YZZ=             -0.2456
  YYZ=             -0.3691  XYZ=              0.0807
 Hexadecapole moment (field-independent basis, Debye-Ang**3):
 XXXX=            -17.8851 YYYY=            -16.5304 ZZZZ=            -16.4288 XXXY=             -0.0251
 XXXZ=              0.2184 YYYX=              0.1834 YYYZ=              0.0996 ZZZX=             -0.2506
 ZZZY=             -0.1258 XXYY=             -5.8456 XXZZ=             -6.1246 YYZZ=             -5.7409
 XXYZ=              0.0431 YYXZ=             -0.4364 ZZXY=             -0.0883
 N-N= 1.313186787578D+01 E-N=-1.195128266720D+02  KE= 4.022441137138D+01
 1\1\GINC-NODE85\SP\ROLYP\def2TZVP\C1H4\YANZ\22-Sep-2023\0\\# scrf=(cpc
 m,solvent=water) def2tzvp olyp\\tmpdir/M2_conf_0_48.gjf\\0,1\H,0,0.,0.
 ,0.\C,0,1.0922,0.,0.\H,0,1.46086,0.,1.02512\H,0,1.50613,1.0066,-0.4929
 1\H,0,1.47203,-0.86923,-0.53832\\Version=ES64L-G16RevA.03\State=1-A\HF
 =-40.5045891\RMSD=6.468e-09\Dipole=-0.0058324,-0.0235321,0.0238901\Qua
 drupole=0.0303581,0.0313738,-0.0617319,0.0293795,-0.0017083,0.0596306\
 PG=C01 [X(C1H4)]\\@


 A COMPLEXITY IS MERELY A DISARRANGEMENT OF SIMPLICITIES.

                                    -- G. O. ABELL IN "EXPLORATION OF THE UNIVERSE"
 Job cpu time:       0 days  0 hours  0 minutes 12.5 seconds.
 Elapsed time:       0 days  0 hours  0 minutes  3.3 seconds.
 File lengths (MBytes):  RWF=     10 Int=      0 D2E=      0 Chk=      1 Scr=      1
 Normal termination of Gaussian 16 at Fri Sep 22 16:54:46 2023.
