 Entering Gaussian System, Link 0=g16
 Initial command:
 /share/apps/gaussian/g16/l1.exe "/tmp/55608.mgr/Gau-88495.inp" -scrdir="/tmp/55608.mgr/"
 Entering Link 1 = /share/apps/gaussian/g16/l1.exe PID=     88496.
  
 Copyright (c) 1988,1990,1992,1993,1995,1998,2003,2009,2016,
            Gaussian, Inc.  All Rights Reserved.
  
 This is part of the Gaussian(R) 16 program.  It is based on
 the Gaussian(R) 09 system (copyright 2009, Gaussian, Inc.),
 the Gaussian(R) 03 system (copyright 2003, Gaussian, Inc.),
 the Gaussian(R) 98 system (copyright 1998, Gaussian, Inc.),
 the Gaussian(R) 94 system (copyright 1995, Gaussian, Inc.),
 the Gaussian 92(TM) system (copyright 1992, Gaussian, Inc.),
 the Gaussian 90(TM) system (copyright 1990, Gaussian, Inc.),
 the Gaussian 88(TM) system (copyright 1988, Gaussian, Inc.),
 the Gaussian 86(TM) system (copyright 1986, Carnegie Mellon
 University), and the Gaussian 82(TM) system (copyright 1983,
 Carnegie Mellon University). Gaussian is a federally registered
 trademark of Gaussian, Inc.
  
 This software contains proprietary and confidential information,
 including trade secrets, belonging to Gaussian, Inc.
  
 This software is provided under written license and may be
 used, copied, transmitted, or stored only in accord with that
 written license.
  
 The following legend is applicable only to US Government
 contracts under FAR:
  
                    RESTRICTED RIGHTS LEGEND
  
 Use, reproduction and disclosure by the US Government is
 subject to restrictions as set forth in subparagraphs (a)
 and (c) of the Commercial Computer Software - Restricted
 Rights clause in FAR 52.227-19.
  
 Gaussian, Inc.
 340 Quinnipiac St., Bldg. 40, Wallingford CT 06492
  
  
 ---------------------------------------------------------------
 Warning -- This program may not be used in any manner that
 competes with the business of Gaussian, Inc. or will provide
 assistance to any competitor of Gaussian, Inc.  The licensee
 of this program is prohibited from giving any competitor of
 Gaussian, Inc. access to this program.  By using this program,
 the user acknowledges that Gaussian, Inc. is engaged in the
 business of creating and licensing software in the field of
 computational chemistry and represents and warrants to the
 licensee that it is not a competitor of Gaussian, Inc. and that
 it will not use this program in any manner prohibited above.
 ---------------------------------------------------------------
  

 Cite this work as:
 Gaussian 16, Revision A.03,
 M. J. Frisch, G. W. Trucks, H. B. Schlegel, G. E. Scuseria, 
 M. A. Robb, J. R. Cheeseman, G. Scalmani, V. Barone, 
 G. A. Petersson, H. Nakatsuji, X. Li, M. Caricato, A. V. Marenich, 
 J. Bloino, B. G. Janesko, R. Gomperts, B. Mennucci, H. P. Hratchian, 
 J. V. Ortiz, A. F. Izmaylov, J. L. Sonnenberg, D. Williams-Young, 
 F. Ding, F. Lipparini, F. Egidi, J. Goings, B. Peng, A. Petrone, 
 T. Henderson, D. Ranasinghe, V. G. Zakrzewski, J. Gao, N. Rega, 
 G. Zheng, W. Liang, M. Hada, M. Ehara, K. Toyota, R. Fukuda, 
 J. Hasegawa, M. Ishida, T. Nakajima, Y. Honda, O. Kitao, H. Nakai, 
 T. Vreven, K. Throssell, J. A. Montgomery, Jr., J. E. Peralta, 
 F. Ogliaro, M. J. Bearpark, J. J. Heyd, E. N. Brothers, K. N. Kudin, 
 V. N. Staroverov, T. A. Keith, R. Kobayashi, J. Normand, 
 K. Raghavachari, A. P. Rendell, J. C. Burant, S. S. Iyengar, 
 J. Tomasi, M. Cossi, J. M. Millam, M. Klene, C. Adamo, R. Cammi, 
 J. W. Ochterski, R. L. Martin, K. Morokuma, O. Farkas, 
 J. B. Foresman, and D. J. Fox, Gaussian, Inc., Wallingford CT, 2016.
 
 ******************************************
 Gaussian 16:  ES64L-G16RevA.03 25-Dec-2016
                22-Sep-2023 
 ******************************************
 %nprocshared=4
 Will use up to    4 processors via shared memory.
 %mem=4GB
 -----------------------------------------
 # scrf=(cpcm,solvent=water) def2tzvp olyp
 -----------------------------------------
 1/38=1,172=1/1;
 2/12=2,17=6,18=5,40=1/2;
 3/5=44,7=101,11=2,25=1,30=1,70=2101,72=1,74=2002/1,2,3;
 4//1;
 5/5=2,38=5,53=1/2;
 6/7=2,8=2,9=2,10=2,28=1/1;
 99/5=1,9=1/99;
 -----------------------
 tmpdir/M2_conf_0_17.gjf
 -----------------------
 Symbolic Z-matrix:
 Charge =  0 Multiplicity = 1
 P                     0.        0.        0. 
 O                     1.5705    0.        0. 
 H                    -0.45602   0.       -1.26044 
 H                    -0.37655   1.23866   0.51256 
 O                    -0.54521  -1.09874   0.86152 
 H                     1.99999   0.56868  -0.66115 
 
                          Input orientation:                          
 ---------------------------------------------------------------------
 Center     Atomic      Atomic             Coordinates (Angstroms)
 Number     Number       Type             X           Y           Z
 ---------------------------------------------------------------------
      1         15           0        0.000000    0.000000    0.000000
      2          8           0        1.570500    0.000000    0.000000
      3          1           0       -0.456020    0.000000   -1.260440
      4          1           0       -0.376550    1.238660    0.512560
      5          8           0       -0.545210   -1.098740    0.861520
      6          1           0        1.999990    0.568680   -0.661150
 ---------------------------------------------------------------------
                    Distance matrix (angstroms):
                    1          2          3          4          5
     1  P    0.000000
     2  O    1.570500   0.000000
     3  H    1.340397   2.386523   0.000000
     4  H    1.392403   2.363895   2.164284   0.000000
     5  O    1.498900   2.534892   2.391213   2.369316   0.000000
     6  H    2.181852   0.972100   2.591241   2.733937   3.402478
                    6
     6  H    0.000000
 Stoichiometry    H3O2P
 Framework group  C1[X(H3O2P)]
 Deg. of freedom    12
 Full point group                 C1      NOp   1
 Largest Abelian subgroup         C1      NOp   1
 Largest concise Abelian subgroup C1      NOp   1
                         Standard orientation:                         
 ---------------------------------------------------------------------
 Center     Atomic      Atomic             Coordinates (Angstroms)
 Number     Number       Type             X           Y           Z
 ---------------------------------------------------------------------
      1         15           0       -0.090824    0.368592   -0.004446
      2          8           0        1.230656   -0.479689    0.019600
      3          1           0       -0.041705    1.261068   -1.003314
      4          1           0       -0.066910    1.135919    1.157201
      5          8           0       -1.303826   -0.511897   -0.012585
      6          1           0        2.056338    0.006814   -0.143319
 ---------------------------------------------------------------------
 Rotational constants (GHZ):          29.1903727           8.6729497           7.1381073
 Standard basis: def2TZVP (5D, 7F)
 There are   132 symmetry adapted cartesian basis functions of A   symmetry.
 There are   117 symmetry adapted basis functions of A   symmetry.
   117 basis functions,   195 primitive gaussians,   132 cartesian basis functions
    17 alpha electrons       17 beta electrons
       nuclear repulsion energy       124.7834548822 Hartrees.
 NAtoms=    6 NActive=    6 NUniq=    6 SFac= 1.00D+00 NAtFMM=   60 NAOKFM=F Big=F
 Integral buffers will be    131072 words long.
 Raffenetti 2 integral format.
 Two-electron integral symmetry is turned on.
 ------------------------------------------------------------------------------
 Polarizable Continuum Model (PCM)
 =================================
 Model                : C-PCM.
 Atomic radii         : UFF (Universal Force Field).
 Polarization charges : Total charges.
 Charge compensation  : None.
 Solution method      : On-the-fly selection.
 Cavity type          : Scaled VdW (van der Waals Surface) (Alpha=1.100).
 Cavity algorithm     : GePol (No added spheres)
                        Default sphere list used, NSphG=    6.
                        Lebedev-Laikov grids with approx.  5.0 points / Ang**2.
                        Smoothing algorithm: York/Karplus (Gamma=1.0000).
                        Polarization charges: spherical gaussians, with
                                              point-specific exponents (IZeta= 3).
                        Self-potential: point-specific (ISelfS= 7).
                        Self-field    : sphere-specific E.n sum rule (ISelfD= 2).
 Solvent              : Water, Eps=  78.355300 Eps(inf)=   1.777849
 ------------------------------------------------------------------------------
 Spheres list:
 ISph  on   Nord     Re0    Alpha      Xe            Ye            Ze
    1   P      1    2.0735  1.100     -0.090824      0.368592     -0.004446
    2   O      2    1.7500  1.100      1.230656     -0.479689      0.019600
    3   H      3    1.4430  1.100     -0.041705      1.261068     -1.003314
    4   H      4    1.4430  1.100     -0.066910      1.135919      1.157201
    5   O      5    1.7500  1.100     -1.303826     -0.511897     -0.012585
    6   H      6    1.4430  1.100      2.056338      0.006814     -0.143319
 ------------------------------------------------------------------------------
 One-electron integrals computed using PRISM.
   1 Symmetry operations used in ECPInt.
 ECPInt:  NShTT=    1128 NPrTT=    3744 LenC2=    1124 LenP2D=    3217.
 LDataN:  DoStor=T MaxTD1= 6 Len=  172
 NBasis=   117 RedAO= T EigKep=  2.11D-03  NBF=   117
 NBsUse=   117 1.00D-06 EigRej= -1.00D+00 NBFU=   117
 ExpMin= 9.04D-02 ExpMax= 5.24D+04 ExpMxC= 1.79D+03 IAcc=3 IRadAn=         5 AccDes= 0.00D+00
 Harris functional with IExCor= 2002 and IRadAn=       5 diagonalized for initial guess.
 HarFok:  IExCor= 2002 AccDes= 0.00D+00 IRadAn=         5 IDoV= 1 UseB2=F ITyADJ=14
 ICtDFT=  3500011 ScaDFX=  1.000000  1.000000  1.000000  1.000000
 FoFCou: FMM=F IPFlag=           0 FMFlag=      100000 FMFlg1=           0
         NFxFlg=           0 DoJE=T BraDBF=F KetDBF=T FulRan=T
         wScrn=  0.000000 ICntrl=       500 IOpCl=  0 I1Cent=   200000004 NGrid=           0
         NMat0=    1 NMatS0=      1 NMatT0=    0 NMatD0=    1 NMtDS0=    0 NMtDT0=    0
 Petite list used in FoFCou.
 Keep J ints in memory in canonical form, NReq=27663592.
 Requested convergence on RMS density matrix=1.00D-08 within 128 cycles.
 Requested convergence on MAX density matrix=1.00D-06.
 Requested convergence on             energy=1.00D-06.
 No special actions if energy rises.
 Inv3:  Mode=1 IEnd=     1710075.
 Iteration    1 A*A^-1 deviation from unit magnitude is 3.77D-15 for    717.
 Iteration    1 A*A^-1 deviation from orthogonality  is 2.19D-15 for    743    124.
 Iteration    1 A^-1*A deviation from unit magnitude is 3.77D-15 for    717.
 Iteration    1 A^-1*A deviation from orthogonality  is 8.77D-16 for    734    196.
 Error on total polarization charges =  0.00811
 SCF Done:  E(RO-LYP) =  -493.694251073     A.U. after   11 cycles
            NFock= 11  Conv=0.86D-08     -V/T= 2.0016

 **********************************************************************

            Population analysis using the SCF density.

 **********************************************************************

 Orbital symmetries:
       Occupied  (A) (A) (A) (A) (A) (A) (A) (A) (A) (A) (A) (A)
                 (A) (A) (A) (A) (A)
       Virtual   (A) (A) (A) (A) (A) (A) (A) (A) (A) (A) (A) (A)
                 (A) (A) (A) (A) (A) (A) (A) (A) (A) (A) (A) (A)
                 (A) (A) (A) (A) (A) (A) (A) (A) (A) (A) (A) (A)
                 (A) (A) (A) (A) (A) (A) (A) (A) (A) (A) (A) (A)
                 (A) (A) (A) (A) (A) (A) (A) (A) (A) (A) (A) (A)
                 (A) (A) (A) (A) (A) (A) (A) (A) (A) (A) (A) (A)
                 (A) (A) (A) (A) (A) (A) (A) (A) (A) (A) (A) (A)
                 (A) (A) (A) (A) (A) (A) (A) (A) (A) (A) (A) (A)
                 (A) (A) (A) (A)
 The electronic state is 1-A.
 Alpha  occ. eigenvalues --  -76.36857 -18.80696 -18.72084  -6.39987  -4.61036
 Alpha  occ. eigenvalues --   -4.60765  -4.60700  -0.98918  -0.87849  -0.58645
 Alpha  occ. eigenvalues --   -0.50178  -0.41746  -0.37114  -0.33345  -0.30422
 Alpha  occ. eigenvalues --   -0.25982  -0.24114
 Alpha virt. eigenvalues --   -0.00856   0.00782   0.03497   0.04810   0.08592
 Alpha virt. eigenvalues --    0.16844   0.20011   0.22096   0.27254   0.28044
 Alpha virt. eigenvalues --    0.29826   0.30631   0.34928   0.39529   0.43288
 Alpha virt. eigenvalues --    0.44708   0.45843   0.48359   0.52679   0.57781
 Alpha virt. eigenvalues --    0.60221   0.63239   0.64373   0.76282   0.76746
 Alpha virt. eigenvalues --    1.02740   1.06035   1.09380   1.10218   1.12176
 Alpha virt. eigenvalues --    1.16901   1.22732   1.24563   1.29308   1.34240
 Alpha virt. eigenvalues --    1.37312   1.38822   1.49563   1.50644   1.56403
 Alpha virt. eigenvalues --    1.57646   1.59559   1.74096   1.81123   1.83206
 Alpha virt. eigenvalues --    1.83994   1.87842   1.90559   2.00151   2.02439
 Alpha virt. eigenvalues --    2.06615   2.12124   2.13989   2.17005   2.20724
 Alpha virt. eigenvalues --    2.24504   2.38527   2.45370   2.47281   2.59739
 Alpha virt. eigenvalues --    2.64801   2.66242   2.75116   2.77292   2.79195
 Alpha virt. eigenvalues --    2.84320   2.87204   3.35364   3.62755   3.74693
 Alpha virt. eigenvalues --    4.96343   4.99263   5.02805   5.04906   5.07589
 Alpha virt. eigenvalues --    5.10364   5.16253   5.19278   5.22956   5.24781
 Alpha virt. eigenvalues --    5.28371   5.34303   5.45580   5.99981   6.17199
 Alpha virt. eigenvalues --    6.20547   6.24613   6.38017   6.42052   6.52264
 Alpha virt. eigenvalues --    6.56767   6.62563   6.73639   6.86055   7.19629
 Alpha virt. eigenvalues --    7.50480   7.88744  15.88689  43.06668  43.15660
          Condensed to atoms (all electrons):
               1          2          3          4          5          6
     1  P   12.586435   0.381318   0.358023   0.367333   0.727033  -0.000511
     2  O    0.381318   7.879002  -0.033817  -0.037093  -0.052348   0.275804
     3  H    0.358023  -0.033817   0.730433  -0.060674  -0.038956  -0.000563
     4  H    0.367333  -0.037093  -0.060674   0.751175  -0.045763   0.001285
     5  O    0.727033  -0.052348  -0.038956  -0.045763   7.994597   0.002998
     6  H   -0.000511   0.275804  -0.000563   0.001285   0.002998   0.370219
 Mulliken charges:
               1
     1  P    0.580368
     2  O   -0.412865
     3  H    0.045554
     4  H    0.023737
     5  O   -0.587562
     6  H    0.350768
 Sum of Mulliken charges =  -0.00000
 Mulliken charges with hydrogens summed into heavy atoms:
               1
     1  P    0.649659
     2  O   -0.062098
     5  O   -0.587562
 Electronic spatial extent (au):  <R**2>=            201.8448
 Charge=             -0.0000 electrons
 Dipole moment (field-independent basis, Debye):
    X=              4.9126    Y=              3.9105    Z=             -0.4847  Tot=              6.2977
 Quadrupole moment (field-independent basis, Debye-Ang):
   XX=            -24.2728   YY=            -24.9440   ZZ=            -23.8948
   XY=             -0.5620   XZ=             -0.7942   YZ=             -0.2878
 Traceless Quadrupole moment (field-independent basis, Debye-Ang):
   XX=              0.0977   YY=             -0.5734   ZZ=              0.4757
   XY=             -0.5620   XZ=             -0.7942   YZ=             -0.2878
 Octapole moment (field-independent basis, Debye-Ang**2):
  XXX=             25.3372  YYY=              1.3445  ZZZ=             -0.6148  XYY=              1.2917
  XXY=              4.9803  XXZ=             -1.5771  XZZ=              1.2405  YZZ=              0.3312
  YYZ=             -0.3836  XYZ=              0.0638
 Hexadecapole moment (field-independent basis, Debye-Ang**3):
 XXXX=           -121.3840 YYYY=            -64.8256 ZZZZ=            -35.9964 XXXY=             -1.1040
 XXXZ=             -3.6187 YYYX=             -1.0642 YYYZ=             -0.8864 ZZZX=             -0.3991
 ZZZY=             -0.5310 XXYY=            -37.3514 XXZZ=            -31.2724 YYZZ=            -16.7648
 XXYZ=             -0.2179 YYXZ=             -0.0800 ZZXY=             -0.3604
 N-N= 1.247834548822D+02 E-N=-1.422371357713D+03  KE= 4.929053154858D+02
 1\1\GINC-NODE85\SP\ROLYP\def2TZVP\H3O2P1\YANZ\22-Sep-2023\0\\# scrf=(c
 pcm,solvent=water) def2tzvp olyp\\tmpdir/M2_conf_0_17.gjf\\0,1\P,0,0.,
 0.,0.\O,0,1.5705,0.,0.\H,0,-0.45602,0.,-1.26044\H,0,-0.37655,1.23866,0
 .51256\O,0,-0.54521,-1.09874,0.86152\H,0,1.99999,0.56868,-0.66115\\Ver
 sion=ES64L-G16RevA.03\State=1-A\HF=-493.6942511\RMSD=8.630e-09\Dipole=
 0.7923882,1.7155558,-1.6024896\Quadrupole=0.2952969,-0.7554848,0.46018
 79,-0.1991201,-0.3273029,0.3788013\PG=C01 [X(H3O2P1)]\\@


 EVERY WORD THAT YOU WRITE IS A BLOW THAT SMITES THE DEVIL.
     -- ST. BERNARD OF CLAIRVAUX
 Job cpu time:       0 days  0 hours  0 minutes 41.0 seconds.
 Elapsed time:       0 days  0 hours  0 minutes 10.8 seconds.
 File lengths (MBytes):  RWF=     16 Int=      0 D2E=      0 Chk=      2 Scr=      1
 Normal termination of Gaussian 16 at Fri Sep 22 16:54:14 2023.
