 Entering Gaussian System, Link 0=g16
 Initial command:
 /share/apps/gaussian/g16/l1.exe "/tmp/55608.mgr/Gau-88528.inp" -scrdir="/tmp/55608.mgr/"
 Entering Link 1 = /share/apps/gaussian/g16/l1.exe PID=     88529.
  
 Copyright (c) 1988,1990,1992,1993,1995,1998,2003,2009,2016,
            Gaussian, Inc.  All Rights Reserved.
  
 This is part of the Gaussian(R) 16 program.  It is based on
 the Gaussian(R) 09 system (copyright 2009, Gaussian, Inc.),
 the Gaussian(R) 03 system (copyright 2003, Gaussian, Inc.),
 the Gaussian(R) 98 system (copyright 1998, Gaussian, Inc.),
 the Gaussian(R) 94 system (copyright 1995, Gaussian, Inc.),
 the Gaussian 92(TM) system (copyright 1992, Gaussian, Inc.),
 the Gaussian 90(TM) system (copyright 1990, Gaussian, Inc.),
 the Gaussian 88(TM) system (copyright 1988, Gaussian, Inc.),
 the Gaussian 86(TM) system (copyright 1986, Carnegie Mellon
 University), and the Gaussian 82(TM) system (copyright 1983,
 Carnegie Mellon University). Gaussian is a federally registered
 trademark of Gaussian, Inc.
  
 This software contains proprietary and confidential information,
 including trade secrets, belonging to Gaussian, Inc.
  
 This software is provided under written license and may be
 used, copied, transmitted, or stored only in accord with that
 written license.
  
 The following legend is applicable only to US Government
 contracts under FAR:
  
                    RESTRICTED RIGHTS LEGEND
  
 Use, reproduction and disclosure by the US Government is
 subject to restrictions as set forth in subparagraphs (a)
 and (c) of the Commercial Computer Software - Restricted
 Rights clause in FAR 52.227-19.
  
 Gaussian, Inc.
 340 Quinnipiac St., Bldg. 40, Wallingford CT 06492
  
  
 ---------------------------------------------------------------
 Warning -- This program may not be used in any manner that
 competes with the business of Gaussian, Inc. or will provide
 assistance to any competitor of Gaussian, Inc.  The licensee
 of this program is prohibited from giving any competitor of
 Gaussian, Inc. access to this program.  By using this program,
 the user acknowledges that Gaussian, Inc. is engaged in the
 business of creating and licensing software in the field of
 computational chemistry and represents and warrants to the
 licensee that it is not a competitor of Gaussian, Inc. and that
 it will not use this program in any manner prohibited above.
 ---------------------------------------------------------------
  

 Cite this work as:
 Gaussian 16, Revision A.03,
 M. J. Frisch, G. W. Trucks, H. B. Schlegel, G. E. Scuseria, 
 M. A. Robb, J. R. Cheeseman, G. Scalmani, V. Barone, 
 G. A. Petersson, H. Nakatsuji, X. Li, M. Caricato, A. V. Marenich, 
 J. Bloino, B. G. Janesko, R. Gomperts, B. Mennucci, H. P. Hratchian, 
 J. V. Ortiz, A. F. Izmaylov, J. L. Sonnenberg, D. Williams-Young, 
 F. Ding, F. Lipparini, F. Egidi, J. Goings, B. Peng, A. Petrone, 
 T. Henderson, D. Ranasinghe, V. G. Zakrzewski, J. Gao, N. Rega, 
 G. Zheng, W. Liang, M. Hada, M. Ehara, K. Toyota, R. Fukuda, 
 J. Hasegawa, M. Ishida, T. Nakajima, Y. Honda, O. Kitao, H. Nakai, 
 T. Vreven, K. Throssell, J. A. Montgomery, Jr., J. E. Peralta, 
 F. Ogliaro, M. J. Bearpark, J. J. Heyd, E. N. Brothers, K. N. Kudin, 
 V. N. Staroverov, T. A. Keith, R. Kobayashi, J. Normand, 
 K. Raghavachari, A. P. Rendell, J. C. Burant, S. S. Iyengar, 
 J. Tomasi, M. Cossi, J. M. Millam, M. Klene, C. Adamo, R. Cammi, 
 J. W. Ochterski, R. L. Martin, K. Morokuma, O. Farkas, 
 J. B. Foresman, and D. J. Fox, Gaussian, Inc., Wallingford CT, 2016.
 
 ******************************************
 Gaussian 16:  ES64L-G16RevA.03 25-Dec-2016
                22-Sep-2023 
 ******************************************
 %nprocshared=4
 Will use up to    4 processors via shared memory.
 %mem=4GB
 -----------------------------------------
 # scrf=(cpcm,solvent=water) def2tzvp olyp
 -----------------------------------------
 1/38=1,172=1/1;
 2/12=2,17=6,18=5,40=1/2;
 3/5=44,7=101,11=2,25=1,30=1,70=2101,72=1,74=2002/1,2,3;
 4//1;
 5/5=2,38=5,53=1/2;
 6/7=2,8=2,9=2,10=2,28=1/1;
 99/5=1,9=1/99;
 -----------------------
 tmpdir/M2_conf_0_20.gjf
 -----------------------
 Symbolic Z-matrix:
 Charge =  0 Multiplicity = 1
 O                     0.        0.        0. 
 P                     1.565     0.        0. 
 O                     2.16298   0.        1.44008 
 H                    -0.55699   0.56355  -0.52681 
 H                     1.9188   -1.23872  -0.52836 
 O                     2.18968   1.09866  -0.80587 
 H                     1.71708  -0.56868   2.09028 
 
                          Input orientation:                          
 ---------------------------------------------------------------------
 Center     Atomic      Atomic             Coordinates (Angstroms)
 Number     Number       Type             X           Y           Z
 ---------------------------------------------------------------------
      1          8           0        0.000000    0.000000    0.000000
      2         15           0        1.565000    0.000000    0.000000
      3          8           0        2.162980    0.000000    1.440080
      4          1           0       -0.556990    0.563550   -0.526810
      5          1           0        1.918800   -1.238720   -0.528360
      6          8           0        2.189680    1.098660   -0.805870
      7          1           0        1.717080   -0.568680    2.090280
 ---------------------------------------------------------------------
                    Distance matrix (angstroms):
                    1          2          3          4          5
     1  O    0.000000
     2  P    1.565000   0.000000
     3  O    2.598521   1.559298   0.000000
     4  H    0.951502   2.257866   3.403598   0.000000
     5  H    2.344224   1.392396   2.338548   3.062306   0.000000
     6  O    2.578988   1.498901   2.500412   2.812190   2.369332
     7  H    2.764242   2.171588   0.972103   3.647259   2.710520
                    6          7
     6  O    0.000000
     7  H    3.375064   0.000000
 Stoichiometry    H3O3P
 Framework group  C1[X(H3O3P)]
 Deg. of freedom    15
 Full point group                 C1      NOp   1
 Largest Abelian subgroup         C1      NOp   1
 Largest concise Abelian subgroup C1      NOp   1
                         Standard orientation:                         
 ---------------------------------------------------------------------
 Center     Atomic      Atomic             Coordinates (Angstroms)
 Number     Number       Type             X           Y           Z
 ---------------------------------------------------------------------
      1          8           0        1.207033   -0.845282   -0.132052
      2         15           0       -0.006231    0.069079    0.243660
      3          8           0       -1.369524   -0.522285   -0.228710
      4          1           0        2.020415   -0.555180   -0.531560
      5          1           0       -0.065691    0.024417    1.634069
      6          8           0        0.115207    1.489565   -0.219131
      7          1           0       -1.482983   -1.481407   -0.118272
 ---------------------------------------------------------------------
 Rotational constants (GHZ):           8.3666475           7.5730467           4.4420420
 Standard basis: def2TZVP (5D, 7F)
 There are   168 symmetry adapted cartesian basis functions of A   symmetry.
 There are   148 symmetry adapted basis functions of A   symmetry.
   148 basis functions,   246 primitive gaussians,   168 cartesian basis functions
    21 alpha electrons       21 beta electrons
       nuclear repulsion energy       196.5020700558 Hartrees.
 NAtoms=    7 NActive=    7 NUniq=    7 SFac= 1.00D+00 NAtFMM=   60 NAOKFM=F Big=F
 Integral buffers will be    131072 words long.
 Raffenetti 2 integral format.
 Two-electron integral symmetry is turned on.
 ------------------------------------------------------------------------------
 Polarizable Continuum Model (PCM)
 =================================
 Model                : C-PCM.
 Atomic radii         : UFF (Universal Force Field).
 Polarization charges : Total charges.
 Charge compensation  : None.
 Solution method      : On-the-fly selection.
 Cavity type          : Scaled VdW (van der Waals Surface) (Alpha=1.100).
 Cavity algorithm     : GePol (No added spheres)
                        Default sphere list used, NSphG=    7.
                        Lebedev-Laikov grids with approx.  5.0 points / Ang**2.
                        Smoothing algorithm: York/Karplus (Gamma=1.0000).
                        Polarization charges: spherical gaussians, with
                                              point-specific exponents (IZeta= 3).
                        Self-potential: point-specific (ISelfS= 7).
                        Self-field    : sphere-specific E.n sum rule (ISelfD= 2).
 Solvent              : Water, Eps=  78.355300 Eps(inf)=   1.777849
 ------------------------------------------------------------------------------
 Spheres list:
 ISph  on   Nord     Re0    Alpha      Xe            Ye            Ze
    1   O      1    1.7500  1.100      1.207033     -0.845282     -0.132052
    2   P      2    2.0735  1.100     -0.006231      0.069079      0.243660
    3   O      3    1.7500  1.100     -1.369524     -0.522285     -0.228710
    4   H      4    1.4430  1.100      2.020415     -0.555180     -0.531560
    5   H      5    1.4430  1.100     -0.065691      0.024417      1.634069
    6   O      6    1.7500  1.100      0.115207      1.489565     -0.219131
    7   H      7    1.4430  1.100     -1.482983     -1.481407     -0.118272
 ------------------------------------------------------------------------------
 One-electron integrals computed using PRISM.
   1 Symmetry operations used in ECPInt.
 ECPInt:  NShTT=    1711 NPrTT=    5676 LenC2=    1698 LenP2D=    4720.
 LDataN:  DoStor=T MaxTD1= 6 Len=  172
 NBasis=   148 RedAO= T EigKep=  1.47D-03  NBF=   148
 NBsUse=   148 1.00D-06 EigRej= -1.00D+00 NBFU=   148
 ExpMin= 9.04D-02 ExpMax= 5.24D+04 ExpMxC= 1.79D+03 IAcc=3 IRadAn=         5 AccDes= 0.00D+00
 Harris functional with IExCor= 2002 and IRadAn=       5 diagonalized for initial guess.
 HarFok:  IExCor= 2002 AccDes= 0.00D+00 IRadAn=         5 IDoV= 1 UseB2=F ITyADJ=14
 ICtDFT=  3500011 ScaDFX=  1.000000  1.000000  1.000000  1.000000
 FoFCou: FMM=F IPFlag=           0 FMFlag=      100000 FMFlg1=           0
         NFxFlg=           0 DoJE=T BraDBF=F KetDBF=T FulRan=T
         wScrn=  0.000000 ICntrl=       500 IOpCl=  0 I1Cent=   200000004 NGrid=           0
         NMat0=    1 NMatS0=      1 NMatT0=    0 NMatD0=    1 NMtDS0=    0 NMtDT0=    0
 Petite list used in FoFCou.
 Keep J ints in memory in canonical form, NReq=64775784.
 Requested convergence on RMS density matrix=1.00D-08 within 128 cycles.
 Requested convergence on MAX density matrix=1.00D-06.
 Requested convergence on             energy=1.00D-06.
 No special actions if energy rises.
 Inv3:  Mode=1 IEnd=     2213643.
 Iteration    1 A*A^-1 deviation from unit magnitude is 4.11D-15 for    845.
 Iteration    1 A*A^-1 deviation from orthogonality  is 2.32D-15 for    845    539.
 Iteration    1 A^-1*A deviation from unit magnitude is 4.11D-15 for    845.
 Iteration    1 A^-1*A deviation from orthogonality  is 1.77D-15 for    802    442.
 Error on total polarization charges =  0.00774
 SCF Done:  E(RO-LYP) =  -568.979353250     A.U. after   12 cycles
            NFock= 12  Conv=0.19D-08     -V/T= 2.0019

 **********************************************************************

            Population analysis using the SCF density.

 **********************************************************************

 Orbital symmetries:
       Occupied  (A) (A) (A) (A) (A) (A) (A) (A) (A) (A) (A) (A)
                 (A) (A) (A) (A) (A) (A) (A) (A) (A)
       Virtual   (A) (A) (A) (A) (A) (A) (A) (A) (A) (A) (A) (A)
                 (A) (A) (A) (A) (A) (A) (A) (A) (A) (A) (A) (A)
                 (A) (A) (A) (A) (A) (A) (A) (A) (A) (A) (A) (A)
                 (A) (A) (A) (A) (A) (A) (A) (A) (A) (A) (A) (A)
                 (A) (A) (A) (A) (A) (A) (A) (A) (A) (A) (A) (A)
                 (A) (A) (A) (A) (A) (A) (A) (A) (A) (A) (A) (A)
                 (A) (A) (A) (A) (A) (A) (A) (A) (A) (A) (A) (A)
                 (A) (A) (A) (A) (A) (A) (A) (A) (A) (A) (A) (A)
                 (A) (A) (A) (A) (A) (A) (A) (A) (A) (A) (A) (A)
                 (A) (A) (A) (A) (A) (A) (A) (A) (A) (A) (A) (A)
                 (A) (A) (A) (A) (A) (A) (A)
 The electronic state is 1-A.
 Alpha  occ. eigenvalues --  -76.39410 -18.81126 -18.80377 -18.71568  -6.41901
 Alpha  occ. eigenvalues --   -4.62971  -4.62827  -4.62577  -1.01066  -0.97160
 Alpha  occ. eigenvalues --   -0.87078  -0.60647  -0.53944  -0.45369  -0.39463
 Alpha  occ. eigenvalues --   -0.38392  -0.33529  -0.32066  -0.30109  -0.25168
 Alpha  occ. eigenvalues --   -0.24701
 Alpha virt. eigenvalues --   -0.00625   0.01483   0.04483   0.06176   0.08238
 Alpha virt. eigenvalues --    0.10741   0.19434   0.21039   0.22955   0.26457
 Alpha virt. eigenvalues --    0.30439   0.32331   0.35277   0.36209   0.38962
 Alpha virt. eigenvalues --    0.41198   0.42024   0.43448   0.46793   0.47744
 Alpha virt. eigenvalues --    0.51315   0.53302   0.59462   0.59623   0.63597
 Alpha virt. eigenvalues --    0.65209   0.67663   0.70026   0.78148   0.80869
 Alpha virt. eigenvalues --    1.06627   1.08078   1.10256   1.11523   1.13182
 Alpha virt. eigenvalues --    1.22117   1.22671   1.24785   1.28346   1.32397
 Alpha virt. eigenvalues --    1.35082   1.36052   1.39007   1.50771   1.52334
 Alpha virt. eigenvalues --    1.54261   1.58908   1.61618   1.71796   1.74060
 Alpha virt. eigenvalues --    1.79114   1.82016   1.82437   1.85914   1.88320
 Alpha virt. eigenvalues --    1.91564   1.94638   2.03501   2.06407   2.10082
 Alpha virt. eigenvalues --    2.12316   2.16260   2.19825   2.19952   2.24660
 Alpha virt. eigenvalues --    2.26079   2.37132   2.43493   2.49074   2.62558
 Alpha virt. eigenvalues --    2.65140   2.67469   2.69237   2.70333   2.78425
 Alpha virt. eigenvalues --    2.81325   2.85543   2.88290   2.89592   3.23994
 Alpha virt. eigenvalues --    3.50673   3.67648   3.75811   3.76916   4.93966
 Alpha virt. eigenvalues --    4.94662   4.96987   4.99558   5.01417   5.03070
 Alpha virt. eigenvalues --    5.06012   5.09987   5.10838   5.13482   5.18368
 Alpha virt. eigenvalues --    5.20778   5.22895   5.25585   5.30549   5.33098
 Alpha virt. eigenvalues --    5.35737   5.47692   5.49519   6.00606   6.10923
 Alpha virt. eigenvalues --    6.15806   6.17230   6.22983   6.27889   6.36422
 Alpha virt. eigenvalues --    6.39885   6.44381   6.48056   6.55783   6.60543
 Alpha virt. eigenvalues --    6.62891   6.65399   6.73875   6.88299   6.89410
 Alpha virt. eigenvalues --    7.31600   7.87585   7.92641  16.38872  43.09988
 Alpha virt. eigenvalues --   43.16616  43.20832
          Condensed to atoms (all electrons):
               1          2          3          4          5          6
     1  O    7.848806   0.420473  -0.036862   0.298616  -0.040085  -0.061083
     2  P    0.420473  12.369489   0.411383  -0.013866   0.377111   0.743895
     3  O   -0.036862   0.411383   7.844663   0.001163  -0.048456  -0.054784
     4  H    0.298616  -0.013866   0.001163   0.350399   0.004718   0.000572
     5  H   -0.040085   0.377111  -0.048456   0.004718   0.741788  -0.047213
     6  O   -0.061083   0.743895  -0.054784   0.000572  -0.047213   8.007480
     7  H   -0.000776  -0.002506   0.276968  -0.000019   0.001409   0.003081
               7
     1  O   -0.000776
     2  P   -0.002506
     3  O    0.276968
     4  H   -0.000019
     5  H    0.001409
     6  O    0.003081
     7  H    0.369896
 Mulliken charges:
               1
     1  O   -0.429089
     2  P    0.694020
     3  O   -0.394075
     4  H    0.358417
     5  H    0.010728
     6  O   -0.591948
     7  H    0.351947
 Sum of Mulliken charges =  -0.00000
 Mulliken charges with hydrogens summed into heavy atoms:
               1
     1  O   -0.070672
     2  P    0.704748
     3  O   -0.042128
     6  O   -0.591948
 Electronic spatial extent (au):  <R**2>=            300.2881
 Charge=             -0.0000 electrons
 Dipole moment (field-independent basis, Debye):
    X=              1.0574    Y=             -5.3287    Z=              0.9686  Tot=              5.5183
 Quadrupole moment (field-independent basis, Debye-Ang):
   XX=            -24.0842   YY=            -33.5786   ZZ=            -28.8602
   XY=              2.6696   XZ=             -2.4066   YZ=              1.4704
 Traceless Quadrupole moment (field-independent basis, Debye-Ang):
   XX=              4.7568   YY=             -4.7376   ZZ=             -0.0192
   XY=              2.6696   XZ=             -2.4066   YZ=              1.4704
 Octapole moment (field-independent basis, Debye-Ang**2):
  XXX=             14.6453  YYY=            -20.5772  ZZZ=             -0.5843  XYY=             -8.5197
  XXY=             -7.6650  XXZ=             -4.5740  XZZ=              1.6341  YZZ=             -1.7346
  YYZ=              0.7472  XYZ=              1.0324
 Hexadecapole moment (field-independent basis, Debye-Ang**3):
 XXXX=           -119.2069 YYYY=           -155.6716 ZZZZ=            -50.3366 XXXY=              1.6999
 XXXZ=            -11.8127 YYYX=             12.6037 YYYZ=              3.3211 ZZZX=             -1.8556
 ZZZY=              1.4823 XXYY=            -41.6763 XXZZ=            -32.2642 YYZZ=            -34.1155
 XXYZ=              3.4659 YYXZ=             -0.0235 ZZXY=             -0.4506
 N-N= 1.965020700558D+02 E-N=-1.743860545775D+03  KE= 5.679068582593D+02
 1\1\GINC-NODE85\SP\ROLYP\def2TZVP\H3O3P1\YANZ\22-Sep-2023\0\\# scrf=(c
 pcm,solvent=water) def2tzvp olyp\\tmpdir/M2_conf_0_20.gjf\\0,1\O,0,0.,
 0.,0.\P,0,1.565,0.,0.\O,0,2.16298,0.,1.44008\H,0,-0.55699,0.56355,-0.5
 2681\H,0,1.9188,-1.23872,-0.52836\O,0,2.18968,1.09866,-0.80587\H,0,1.7
 1708,-0.56868,2.09028\\Version=ES64L-G16RevA.03\State=1-A\HF=-568.9793
 533\RMSD=1.899e-09\Dipole=-1.4559053,-1.3029544,0.9466424\Quadrupole=0
 .0970367,-1.2464845,1.1494477,-3.555225,2.5698693,-0.3264605\PG=C01 [X
 (H3O3P1)]\\@


 THE HURRIEDER I GO, THE BEHINDER I GET.
 Job cpu time:       0 days  0 hours  1 minutes  4.4 seconds.
 Elapsed time:       0 days  0 hours  0 minutes 17.2 seconds.
 File lengths (MBytes):  RWF=     17 Int=      0 D2E=      0 Chk=      3 Scr=      1
 Normal termination of Gaussian 16 at Fri Sep 22 16:54:22 2023.
