 Entering Gaussian System, Link 0=g16
 Initial command:
 /share/apps/gaussian/g16/l1.exe "/tmp/55608.mgr/Gau-89160.inp" -scrdir="/tmp/55608.mgr/"
 Entering Link 1 = /share/apps/gaussian/g16/l1.exe PID=     89161.
  
 Copyright (c) 1988,1990,1992,1993,1995,1998,2003,2009,2016,
            Gaussian, Inc.  All Rights Reserved.
  
 This is part of the Gaussian(R) 16 program.  It is based on
 the Gaussian(R) 09 system (copyright 2009, Gaussian, Inc.),
 the Gaussian(R) 03 system (copyright 2003, Gaussian, Inc.),
 the Gaussian(R) 98 system (copyright 1998, Gaussian, Inc.),
 the Gaussian(R) 94 system (copyright 1995, Gaussian, Inc.),
 the Gaussian 92(TM) system (copyright 1992, Gaussian, Inc.),
 the Gaussian 90(TM) system (copyright 1990, Gaussian, Inc.),
 the Gaussian 88(TM) system (copyright 1988, Gaussian, Inc.),
 the Gaussian 86(TM) system (copyright 1986, Carnegie Mellon
 University), and the Gaussian 82(TM) system (copyright 1983,
 Carnegie Mellon University). Gaussian is a federally registered
 trademark of Gaussian, Inc.
  
 This software contains proprietary and confidential information,
 including trade secrets, belonging to Gaussian, Inc.
  
 This software is provided under written license and may be
 used, copied, transmitted, or stored only in accord with that
 written license.
  
 The following legend is applicable only to US Government
 contracts under FAR:
  
                    RESTRICTED RIGHTS LEGEND
  
 Use, reproduction and disclosure by the US Government is
 subject to restrictions as set forth in subparagraphs (a)
 and (c) of the Commercial Computer Software - Restricted
 Rights clause in FAR 52.227-19.
  
 Gaussian, Inc.
 340 Quinnipiac St., Bldg. 40, Wallingford CT 06492
  
  
 ---------------------------------------------------------------
 Warning -- This program may not be used in any manner that
 competes with the business of Gaussian, Inc. or will provide
 assistance to any competitor of Gaussian, Inc.  The licensee
 of this program is prohibited from giving any competitor of
 Gaussian, Inc. access to this program.  By using this program,
 the user acknowledges that Gaussian, Inc. is engaged in the
 business of creating and licensing software in the field of
 computational chemistry and represents and warrants to the
 licensee that it is not a competitor of Gaussian, Inc. and that
 it will not use this program in any manner prohibited above.
 ---------------------------------------------------------------
  

 Cite this work as:
 Gaussian 16, Revision A.03,
 M. J. Frisch, G. W. Trucks, H. B. Schlegel, G. E. Scuseria, 
 M. A. Robb, J. R. Cheeseman, G. Scalmani, V. Barone, 
 G. A. Petersson, H. Nakatsuji, X. Li, M. Caricato, A. V. Marenich, 
 J. Bloino, B. G. Janesko, R. Gomperts, B. Mennucci, H. P. Hratchian, 
 J. V. Ortiz, A. F. Izmaylov, J. L. Sonnenberg, D. Williams-Young, 
 F. Ding, F. Lipparini, F. Egidi, J. Goings, B. Peng, A. Petrone, 
 T. Henderson, D. Ranasinghe, V. G. Zakrzewski, J. Gao, N. Rega, 
 G. Zheng, W. Liang, M. Hada, M. Ehara, K. Toyota, R. Fukuda, 
 J. Hasegawa, M. Ishida, T. Nakajima, Y. Honda, O. Kitao, H. Nakai, 
 T. Vreven, K. Throssell, J. A. Montgomery, Jr., J. E. Peralta, 
 F. Ogliaro, M. J. Bearpark, J. J. Heyd, E. N. Brothers, K. N. Kudin, 
 V. N. Staroverov, T. A. Keith, R. Kobayashi, J. Normand, 
 K. Raghavachari, A. P. Rendell, J. C. Burant, S. S. Iyengar, 
 J. Tomasi, M. Cossi, J. M. Millam, M. Klene, C. Adamo, R. Cammi, 
 J. W. Ochterski, R. L. Martin, K. Morokuma, O. Farkas, 
 J. B. Foresman, and D. J. Fox, Gaussian, Inc., Wallingford CT, 2016.
 
 ******************************************
 Gaussian 16:  ES64L-G16RevA.03 25-Dec-2016
                22-Sep-2023 
 ******************************************
 %nprocshared=4
 Will use up to    4 processors via shared memory.
 %mem=4GB
 -----------------------------------------
 # scrf=(cpcm,solvent=water) def2tzvp olyp
 -----------------------------------------
 1/38=1,172=1/1;
 2/12=2,17=6,18=5,40=1/2;
 3/5=44,7=101,11=2,25=1,30=1,70=2101,72=1,74=2002/1,2,3;
 4//1;
 5/5=2,38=5,53=1/2;
 6/7=2,8=2,9=2,10=2,28=1/1;
 99/5=1,9=1/99;
 -----------------------
 tmpdir/M2_conf_0_45.gjf
 -----------------------
 Symbolic Z-matrix:
 Charge =  0 Multiplicity = 1
 O                     0.        0.        0. 
 C                     1.4552    0.        0. 
 H                     1.84109   0.        1.02176 
 H                    -0.45369  -0.69339   0.27888 
 H                     1.74908   0.91996  -0.50408 
 H                     1.83396  -0.8657   -0.54474 
 
                          Input orientation:                          
 ---------------------------------------------------------------------
 Center     Atomic      Atomic             Coordinates (Angstroms)
 Number     Number       Type             X           Y           Z
 ---------------------------------------------------------------------
      1          8           0        0.000000    0.000000    0.000000
      2          6           0        1.455200    0.000000    0.000000
      3          1           0        1.841090    0.000000    1.021760
      4          1           0       -0.453690   -0.693390    0.278880
      5          1           0        1.749080    0.919960   -0.504080
      6          1           0        1.833960   -0.865700   -0.544740
 ---------------------------------------------------------------------
                    Distance matrix (angstroms):
                    1          2          3          4          5
     1  O    0.000000
     2  C    1.455200   0.000000
     3  H    2.105613   1.092202   0.000000
     4  H    0.874299   2.049982   2.509716   0.000000
     5  H    2.039535   1.089398   1.784091   2.840444   0.000000
     6  H    2.099902   1.090705   1.789807   2.437495   1.788139
                    6
     6  H    0.000000
 Stoichiometry    CH4O
 Framework group  C1[X(CH4O)]
 Deg. of freedom    12
 Full point group                 C1      NOp   1
 Largest Abelian subgroup         C1      NOp   1
 Largest concise Abelian subgroup C1      NOp   1
                         Standard orientation:                         
 ---------------------------------------------------------------------
 Center     Atomic      Atomic             Coordinates (Angstroms)
 Number     Number       Type             X           Y           Z
 ---------------------------------------------------------------------
      1          8           0       -0.755128    0.103282    0.000054
      2          6           0        0.694714   -0.021474   -0.000312
      3          1           0        1.047605   -0.424332    0.951569
      4          1           0       -1.271215   -0.602400    0.008150
      5          1           0        1.076658    0.989726   -0.135894
      6          1           0        1.019688   -0.660404   -0.822381
 ---------------------------------------------------------------------
 Rotational constants (GHZ):         135.7525959          23.6227630          23.0863442
 Standard basis: def2TZVP (5D, 7F)
 There are    96 symmetry adapted cartesian basis functions of A   symmetry.
 There are    86 symmetry adapted basis functions of A   symmetry.
    86 basis functions,   134 primitive gaussians,    96 cartesian basis functions
     9 alpha electrons        9 beta electrons
       nuclear repulsion energy        40.1831346109 Hartrees.
 NAtoms=    6 NActive=    6 NUniq=    6 SFac= 1.00D+00 NAtFMM=   60 NAOKFM=F Big=F
 Integral buffers will be    131072 words long.
 Raffenetti 2 integral format.
 Two-electron integral symmetry is turned on.
 ------------------------------------------------------------------------------
 Polarizable Continuum Model (PCM)
 =================================
 Model                : C-PCM.
 Atomic radii         : UFF (Universal Force Field).
 Polarization charges : Total charges.
 Charge compensation  : None.
 Solution method      : On-the-fly selection.
 Cavity type          : Scaled VdW (van der Waals Surface) (Alpha=1.100).
 Cavity algorithm     : GePol (No added spheres)
                        Default sphere list used, NSphG=    6.
                        Lebedev-Laikov grids with approx.  5.0 points / Ang**2.
                        Smoothing algorithm: York/Karplus (Gamma=1.0000).
                        Polarization charges: spherical gaussians, with
                                              point-specific exponents (IZeta= 3).
                        Self-potential: point-specific (ISelfS= 7).
                        Self-field    : sphere-specific E.n sum rule (ISelfD= 2).
 Solvent              : Water, Eps=  78.355300 Eps(inf)=   1.777849
 ------------------------------------------------------------------------------
 Spheres list:
 ISph  on   Nord     Re0    Alpha      Xe            Ye            Ze
    1   O      1    1.7500  1.100     -0.755128      0.103282      0.000054
    2   C      2    1.9255  1.100      0.694714     -0.021474     -0.000312
    3   H      3    1.4430  1.100      1.047605     -0.424332      0.951569
    4   H      4    1.4430  1.100     -1.271215     -0.602400      0.008150
    5   H      5    1.4430  1.100      1.076658      0.989726     -0.135894
    6   H      6    1.4430  1.100      1.019688     -0.660404     -0.822381
 ------------------------------------------------------------------------------
 One-electron integrals computed using PRISM.
   1 Symmetry operations used in ECPInt.
 ECPInt:  NShTT=     741 NPrTT=    2136 LenC2=     741 LenP2D=    1961.
 LDataN:  DoStor=T MaxTD1= 6 Len=  172
 NBasis=    86 RedAO= T EigKep=  1.65D-03  NBF=    86
 NBsUse=    86 1.00D-06 EigRej= -1.00D+00 NBFU=    86
 ExpMin= 9.52D-02 ExpMax= 2.70D+04 ExpMxC= 9.22D+02 IAcc=3 IRadAn=         5 AccDes= 0.00D+00
 Harris functional with IExCor= 2002 and IRadAn=       5 diagonalized for initial guess.
 HarFok:  IExCor= 2002 AccDes= 0.00D+00 IRadAn=         5 IDoV= 1 UseB2=F ITyADJ=14
 ICtDFT=  3500011 ScaDFX=  1.000000  1.000000  1.000000  1.000000
 FoFCou: FMM=F IPFlag=           0 FMFlag=      100000 FMFlg1=           0
         NFxFlg=           0 DoJE=T BraDBF=F KetDBF=T FulRan=T
         wScrn=  0.000000 ICntrl=       500 IOpCl=  0 I1Cent=   200000004 NGrid=           0
         NMat0=    1 NMatS0=      1 NMatT0=    0 NMatD0=    1 NMtDS0=    0 NMtDT0=    0
 Petite list used in FoFCou.
 Keep J ints in memory in canonical form, NReq=10684533.
 Requested convergence on RMS density matrix=1.00D-08 within 128 cycles.
 Requested convergence on MAX density matrix=1.00D-06.
 Requested convergence on             energy=1.00D-06.
 No special actions if energy rises.
 Inv3:  Mode=1 IEnd=     1153200.
 Iteration    1 A*A^-1 deviation from unit magnitude is 2.66D-15 for    594.
 Iteration    1 A*A^-1 deviation from orthogonality  is 1.22D-15 for    579    148.
 Iteration    1 A^-1*A deviation from unit magnitude is 2.66D-15 for    594.
 Iteration    1 A^-1*A deviation from orthogonality  is 9.38D-16 for    496    332.
 Error on total polarization charges =  0.00730
 SCF Done:  E(RO-LYP) =  -115.719062675     A.U. after    9 cycles
            NFock=  9  Conv=0.73D-08     -V/T= 2.0019

 **********************************************************************

            Population analysis using the SCF density.

 **********************************************************************

 Orbital symmetries:
       Occupied  (A) (A) (A) (A) (A) (A) (A) (A) (A)
       Virtual   (A) (A) (A) (A) (A) (A) (A) (A) (A) (A) (A) (A)
                 (A) (A) (A) (A) (A) (A) (A) (A) (A) (A) (A) (A)
                 (A) (A) (A) (A) (A) (A) (A) (A) (A) (A) (A) (A)
                 (A) (A) (A) (A) (A) (A) (A) (A) (A) (A) (A) (A)
                 (A) (A) (A) (A) (A) (A) (A) (A) (A) (A) (A) (A)
                 (A) (A) (A) (A) (A) (A) (A) (A) (A) (A) (A) (A)
                 (A) (A) (A) (A) (A)
 The electronic state is 1-A.
 Alpha  occ. eigenvalues --  -18.74407  -9.93917  -0.93619  -0.63206  -0.45862
 Alpha  occ. eigenvalues --   -0.38296  -0.37737  -0.27648  -0.22697
 Alpha virt. eigenvalues --    0.01690   0.04589   0.09308   0.09966   0.11498
 Alpha virt. eigenvalues --    0.19236   0.19902   0.24937   0.34084   0.37352
 Alpha virt. eigenvalues --    0.40850   0.42466   0.45602   0.46052   0.46684
 Alpha virt. eigenvalues --    0.56388   0.64966   0.71990   0.76356   0.86994
 Alpha virt. eigenvalues --    0.88194   0.96566   1.25698   1.37361   1.39639
 Alpha virt. eigenvalues --    1.43168   1.44988   1.45417   1.49036   1.53333
 Alpha virt. eigenvalues --    1.55734   1.79010   1.84776   1.87850   1.90681
 Alpha virt. eigenvalues --    1.96600   2.14722   2.16493   2.19772   2.22206
 Alpha virt. eigenvalues --    2.26567   2.31775   2.45732   2.48157   2.57883
 Alpha virt. eigenvalues --    2.66860   2.70701   2.76551   2.85076   2.91078
 Alpha virt. eigenvalues --    2.98242   3.10465   3.25990   3.28858   3.33093
 Alpha virt. eigenvalues --    3.39191   3.44756   3.49502   3.90154   4.03767
 Alpha virt. eigenvalues --    4.10380   4.30149   4.38875   5.07252   5.11111
 Alpha virt. eigenvalues --    5.39623   5.55689   5.58362   5.78838   6.27529
 Alpha virt. eigenvalues --    6.30931   6.56084   6.58405   6.78827   7.10113
 Alpha virt. eigenvalues --   22.00397  43.25862
          Condensed to atoms (all electrons):
               1          2          3          4          5          6
     1  O    7.973948   0.328657  -0.050087   0.318336  -0.042429  -0.047769
     2  C    0.328657   4.653096   0.406579  -0.040344   0.387998   0.413273
     3  H   -0.050087   0.406579   0.619075  -0.002366  -0.037255  -0.044127
     4  H    0.318336  -0.040344  -0.002366   0.432049   0.009773  -0.004948
     5  H   -0.042429   0.387998  -0.037255   0.009773   0.591093  -0.032676
     6  H   -0.047769   0.413273  -0.044127  -0.004948  -0.032676   0.605509
 Mulliken charges:
               1
     1  O   -0.480656
     2  C   -0.149258
     3  H    0.108181
     4  H    0.287500
     5  H    0.123496
     6  H    0.110736
 Sum of Mulliken charges =  -0.00000
 Mulliken charges with hydrogens summed into heavy atoms:
               1
     1  O   -0.193156
     2  C    0.193156
 Electronic spatial extent (au):  <R**2>=             85.5489
 Charge=             -0.0000 electrons
 Dipole moment (field-independent basis, Debye):
    X=              0.8201    Y=             -1.5443    Z=             -0.0005  Tot=              1.7486
 Quadrupole moment (field-independent basis, Debye-Ang):
   XX=            -11.9793   YY=            -12.5035   ZZ=            -13.6505
   XY=              2.2582   XZ=             -0.0419   YZ=             -0.0132
 Traceless Quadrupole moment (field-independent basis, Debye-Ang):
   XX=              0.7318   YY=              0.2076   ZZ=             -0.9394
   XY=              2.2582   XZ=             -0.0419   YZ=             -0.0132
 Octapole moment (field-independent basis, Debye-Ang**2):
  XXX=             -5.8039  YYY=             -0.5074  ZZZ=              0.1890  XYY=             -1.3282
  XXY=             -2.6999  XXZ=              0.0143  XZZ=             -0.3202  YZZ=             -0.8162
  YYZ=             -0.2461  XYZ=              0.0035
 Hexadecapole moment (field-independent basis, Debye-Ang**3):
 XXXX=            -61.2252 YYYY=            -20.1928 ZZZZ=            -20.2352 XXXY=              4.6924
 XXXZ=             -0.0905 YYYX=              2.7317 YYYZ=             -0.0074 ZZZX=              0.1766
 ZZZY=              0.0027 XXYY=            -13.0440 XXZZ=            -14.6025 YYZZ=             -6.7732
 XXYZ=             -0.0559 YYXZ=             -0.2919 ZZXY=             -0.0806
 N-N= 4.018313461094D+01 E-N=-3.523122342836D+02  KE= 1.155003645754D+02
 1\1\GINC-NODE85\SP\ROLYP\def2TZVP\C1H4O1\YANZ\22-Sep-2023\0\\# scrf=(c
 pcm,solvent=water) def2tzvp olyp\\tmpdir/M2_conf_0_45.gjf\\0,1\O,0,0.,
 0.,0.\C,0,1.4552,0.,0.\H,0,1.84109,0.,1.02176\H,0,-0.45369,-0.69339,0.
 27888\H,0,1.74908,0.91996,-0.50408\H,0,1.83396,-0.8657,-0.54474\\Versi
 on=ES64L-G16RevA.03\State=1-A\HF=-115.7190627\RMSD=7.299e-09\Dipole=0.
 3735706,-0.538264,0.2097262\Quadrupole=0.2544192,0.2851655,-0.5395847,
 1.5614277,-0.6408336,-0.3954731\PG=C01 [X(C1H4O1)]\\@


 A COMPLEXITY IS MERELY A DISARRANGEMENT OF SIMPLICITIES.

                                    -- G. O. ABELL IN "EXPLORATION OF THE UNIVERSE"
 Job cpu time:       0 days  0 hours  0 minutes 24.9 seconds.
 Elapsed time:       0 days  0 hours  0 minutes  6.4 seconds.
 File lengths (MBytes):  RWF=     10 Int=      0 D2E=      0 Chk=      2 Scr=      1
 Normal termination of Gaussian 16 at Fri Sep 22 16:54:46 2023.
