 Entering Gaussian System, Link 0=g16
 Initial command:
 /share/apps/gaussian/g16/l1.exe "/tmp/55608.mgr/Gau-89494.inp" -scrdir="/tmp/55608.mgr/"
 Entering Link 1 = /share/apps/gaussian/g16/l1.exe PID=     89495.
  
 Copyright (c) 1988,1990,1992,1993,1995,1998,2003,2009,2016,
            Gaussian, Inc.  All Rights Reserved.
  
 This is part of the Gaussian(R) 16 program.  It is based on
 the Gaussian(R) 09 system (copyright 2009, Gaussian, Inc.),
 the Gaussian(R) 03 system (copyright 2003, Gaussian, Inc.),
 the Gaussian(R) 98 system (copyright 1998, Gaussian, Inc.),
 the Gaussian(R) 94 system (copyright 1995, Gaussian, Inc.),
 the Gaussian 92(TM) system (copyright 1992, Gaussian, Inc.),
 the Gaussian 90(TM) system (copyright 1990, Gaussian, Inc.),
 the Gaussian 88(TM) system (copyright 1988, Gaussian, Inc.),
 the Gaussian 86(TM) system (copyright 1986, Carnegie Mellon
 University), and the Gaussian 82(TM) system (copyright 1983,
 Carnegie Mellon University). Gaussian is a federally registered
 trademark of Gaussian, Inc.
  
 This software contains proprietary and confidential information,
 including trade secrets, belonging to Gaussian, Inc.
  
 This software is provided under written license and may be
 used, copied, transmitted, or stored only in accord with that
 written license.
  
 The following legend is applicable only to US Government
 contracts under FAR:
  
                    RESTRICTED RIGHTS LEGEND
  
 Use, reproduction and disclosure by the US Government is
 subject to restrictions as set forth in subparagraphs (a)
 and (c) of the Commercial Computer Software - Restricted
 Rights clause in FAR 52.227-19.
  
 Gaussian, Inc.
 340 Quinnipiac St., Bldg. 40, Wallingford CT 06492
  
  
 ---------------------------------------------------------------
 Warning -- This program may not be used in any manner that
 competes with the business of Gaussian, Inc. or will provide
 assistance to any competitor of Gaussian, Inc.  The licensee
 of this program is prohibited from giving any competitor of
 Gaussian, Inc. access to this program.  By using this program,
 the user acknowledges that Gaussian, Inc. is engaged in the
 business of creating and licensing software in the field of
 computational chemistry and represents and warrants to the
 licensee that it is not a competitor of Gaussian, Inc. and that
 it will not use this program in any manner prohibited above.
 ---------------------------------------------------------------
  

 Cite this work as:
 Gaussian 16, Revision A.03,
 M. J. Frisch, G. W. Trucks, H. B. Schlegel, G. E. Scuseria, 
 M. A. Robb, J. R. Cheeseman, G. Scalmani, V. Barone, 
 G. A. Petersson, H. Nakatsuji, X. Li, M. Caricato, A. V. Marenich, 
 J. Bloino, B. G. Janesko, R. Gomperts, B. Mennucci, H. P. Hratchian, 
 J. V. Ortiz, A. F. Izmaylov, J. L. Sonnenberg, D. Williams-Young, 
 F. Ding, F. Lipparini, F. Egidi, J. Goings, B. Peng, A. Petrone, 
 T. Henderson, D. Ranasinghe, V. G. Zakrzewski, J. Gao, N. Rega, 
 G. Zheng, W. Liang, M. Hada, M. Ehara, K. Toyota, R. Fukuda, 
 J. Hasegawa, M. Ishida, T. Nakajima, Y. Honda, O. Kitao, H. Nakai, 
 T. Vreven, K. Throssell, J. A. Montgomery, Jr., J. E. Peralta, 
 F. Ogliaro, M. J. Bearpark, J. J. Heyd, E. N. Brothers, K. N. Kudin, 
 V. N. Staroverov, T. A. Keith, R. Kobayashi, J. Normand, 
 K. Raghavachari, A. P. Rendell, J. C. Burant, S. S. Iyengar, 
 J. Tomasi, M. Cossi, J. M. Millam, M. Klene, C. Adamo, R. Cammi, 
 J. W. Ochterski, R. L. Martin, K. Morokuma, O. Farkas, 
 J. B. Foresman, and D. J. Fox, Gaussian, Inc., Wallingford CT, 2016.
 
 ******************************************
 Gaussian 16:  ES64L-G16RevA.03 25-Dec-2016
                22-Sep-2023 
 ******************************************
 %nprocshared=4
 Will use up to    4 processors via shared memory.
 %mem=4GB
 -----------------------------------------
 # scrf=(cpcm,solvent=water) def2tzvp olyp
 -----------------------------------------
 1/38=1,172=1/1;
 2/12=2,17=6,18=5,40=1/2;
 3/5=44,7=101,11=2,25=1,30=1,70=2101,72=1,74=2002/1,2,3;
 4//1;
 5/5=2,38=5,53=1/2;
 6/7=2,8=2,9=2,10=2,28=1/1;
 99/5=1,9=1/99;
 -----------------------
 tmpdir/M2_conf_0_54.gjf
 -----------------------
 Symbolic Z-matrix:
 Charge =  0 Multiplicity = 1
 C                     0.        0.        0. 
 H                     1.1201    0.        0. 
 H                    -0.27507   0.       -1.08467 
 H                    -0.27469   1.02542   0.35388 
 H                    -0.46552  -0.84066   0.59853 
 
                          Input orientation:                          
 ---------------------------------------------------------------------
 Center     Atomic      Atomic             Coordinates (Angstroms)
 Number     Number       Type             X           Y           Z
 ---------------------------------------------------------------------
      1          6           0        0.000000    0.000000    0.000000
      2          1           0        1.120100    0.000000    0.000000
      3          1           0       -0.275070    0.000000   -1.084670
      4          1           0       -0.274690    1.025420    0.353880
      5          1           0       -0.465520   -0.840660    0.598530
 ---------------------------------------------------------------------
                    Distance matrix (angstroms):
                    1          2          3          4          5
     1  C    0.000000
     2  H    1.120100   0.000000
     3  H    1.119005   1.767204   0.000000
     4  H    1.119005   1.766962   1.766610   0.000000
     5  H    1.132103   1.891861   1.891069   1.891699   0.000000
 Stoichiometry    CH4
 Framework group  C1[X(CH4)]
 Deg. of freedom     9
 Full point group                 C1      NOp   1
 Largest Abelian subgroup         C1      NOp   1
 Largest concise Abelian subgroup C1      NOp   1
                         Standard orientation:                         
 ---------------------------------------------------------------------
 Center     Atomic      Atomic             Coordinates (Angstroms)
 Number     Number       Type             X           Y           Z
 ---------------------------------------------------------------------
      1          6           0        0.025022   -0.000141    0.000138
      2          1           0       -0.437396    0.998118   -0.210267
      3          1           0       -0.432707   -0.681176   -0.760682
      4          1           0       -0.437152   -0.318393    0.968272
      5          1           0        1.157121    0.002298    0.001848
 ---------------------------------------------------------------------
 Rotational constants (GHZ):         160.6185968         144.3008265         144.2502866
 Standard basis: def2TZVP (5D, 7F)
 There are    60 symmetry adapted cartesian basis functions of A   symmetry.
 There are    55 symmetry adapted basis functions of A   symmetry.
    55 basis functions,    83 primitive gaussians,    60 cartesian basis functions
     5 alpha electrons        5 beta electrons
       nuclear repulsion energy        13.0517440612 Hartrees.
 NAtoms=    5 NActive=    5 NUniq=    5 SFac= 1.00D+00 NAtFMM=   60 NAOKFM=F Big=F
 Integral buffers will be    131072 words long.
 Raffenetti 2 integral format.
 Two-electron integral symmetry is turned on.
 ------------------------------------------------------------------------------
 Polarizable Continuum Model (PCM)
 =================================
 Model                : C-PCM.
 Atomic radii         : UFF (Universal Force Field).
 Polarization charges : Total charges.
 Charge compensation  : None.
 Solution method      : On-the-fly selection.
 Cavity type          : Scaled VdW (van der Waals Surface) (Alpha=1.100).
 Cavity algorithm     : GePol (No added spheres)
                        Default sphere list used, NSphG=    5.
                        Lebedev-Laikov grids with approx.  5.0 points / Ang**2.
                        Smoothing algorithm: York/Karplus (Gamma=1.0000).
                        Polarization charges: spherical gaussians, with
                                              point-specific exponents (IZeta= 3).
                        Self-potential: point-specific (ISelfS= 7).
                        Self-field    : sphere-specific E.n sum rule (ISelfD= 2).
 Solvent              : Water, Eps=  78.355300 Eps(inf)=   1.777849
 ------------------------------------------------------------------------------
 Spheres list:
 ISph  on   Nord     Re0    Alpha      Xe            Ye            Ze
    1   C      1    1.9255  1.100      0.025022     -0.000141      0.000138
    2   H      2    1.4430  1.100     -0.437396      0.998118     -0.210267
    3   H      3    1.4430  1.100     -0.432707     -0.681176     -0.760682
    4   H      4    1.4430  1.100     -0.437152     -0.318393      0.968272
    5   H      5    1.4430  1.100      1.157121      0.002298      0.001848
 ------------------------------------------------------------------------------
 One-electron integrals computed using PRISM.
   1 Symmetry operations used in ECPInt.
 ECPInt:  NShTT=     378 NPrTT=    1024 LenC2=     379 LenP2D=     988.
 LDataN:  DoStor=T MaxTD1= 6 Len=  172
 NBasis=    55 RedAO= T EigKep=  1.65D-03  NBF=    55
 NBsUse=    55 1.00D-06 EigRej= -1.00D+00 NBFU=    55
 ExpMin= 9.52D-02 ExpMax= 1.36D+04 ExpMxC= 4.63D+02 IAcc=3 IRadAn=         5 AccDes= 0.00D+00
 Harris functional with IExCor= 2002 and IRadAn=       5 diagonalized for initial guess.
 HarFok:  IExCor= 2002 AccDes= 0.00D+00 IRadAn=         5 IDoV= 1 UseB2=F ITyADJ=14
 ICtDFT=  3500011 ScaDFX=  1.000000  1.000000  1.000000  1.000000
 FoFCou: FMM=F IPFlag=           0 FMFlag=      100000 FMFlg1=           0
         NFxFlg=           0 DoJE=T BraDBF=F KetDBF=T FulRan=T
         wScrn=  0.000000 ICntrl=       500 IOpCl=  0 I1Cent=   200000004 NGrid=           0
         NMat0=    1 NMatS0=      1 NMatT0=    0 NMatD0=    1 NMtDS0=    0 NMtDT0=    0
 Petite list used in FoFCou.
 Keep J ints in memory in canonical form, NReq=4722199.
 Requested convergence on RMS density matrix=1.00D-08 within 128 cycles.
 Requested convergence on MAX density matrix=1.00D-06.
 Requested convergence on             energy=1.00D-06.
 No special actions if energy rises.
 Inv3:  Mode=1 IEnd=      732108.
 Iteration    1 A*A^-1 deviation from unit magnitude is 3.77D-15 for    242.
 Iteration    1 A*A^-1 deviation from orthogonality  is 1.65D-15 for    470     53.
 Iteration    1 A^-1*A deviation from unit magnitude is 3.55D-15 for    242.
 Iteration    1 A^-1*A deviation from orthogonality  is 1.53D-15 for    345     89.
 Error on total polarization charges =  0.00947
 SCF Done:  E(RO-LYP) =  -40.5053017612     A.U. after    8 cycles
            NFock=  8  Conv=0.40D-08     -V/T= 2.0080

 **********************************************************************

            Population analysis using the SCF density.

 **********************************************************************

 Orbital symmetries:
       Occupied  (A) (A) (A) (A) (A)
       Virtual   (A) (A) (A) (A) (A) (A) (A) (A) (A) (A) (A) (A)
                 (A) (A) (A) (A) (A) (A) (A) (A) (A) (A) (A) (A)
                 (A) (A) (A) (A) (A) (A) (A) (A) (A) (A) (A) (A)
                 (A) (A) (A) (A) (A) (A) (A) (A) (A) (A) (A) (A)
                 (A) (A)
 The electronic state is 1-A.
 Alpha  occ. eigenvalues --   -9.89218  -0.61809  -0.35170  -0.33106  -0.33087
 Alpha virt. eigenvalues --    0.02238   0.09461   0.09589   0.09605   0.17852
 Alpha virt. eigenvalues --    0.17858   0.18197   0.36737   0.41088   0.41121
 Alpha virt. eigenvalues --    0.41673   0.47052   0.55916   0.55921   0.88231
 Alpha virt. eigenvalues --    0.89865   0.89871   1.41177   1.41194   1.44747
 Alpha virt. eigenvalues --    1.45567   1.45586   1.47855   1.48189   1.88855
 Alpha virt. eigenvalues --    1.88903   1.90227   1.99653   2.12756   2.12807
 Alpha virt. eigenvalues --    2.14779   2.35684   2.35732   2.46950   2.46969
 Alpha virt. eigenvalues --    2.49444   2.87882   2.87885   2.89735   3.15870
 Alpha virt. eigenvalues --    3.27752   3.27860   3.31969   3.42920   3.42938
 Alpha virt. eigenvalues --    3.93840   4.08533   4.08618   4.31978  21.81329
          Condensed to atoms (all electrons):
               1          2          3          4          5
     1  C    4.917375   0.395292   0.395541   0.395540   0.394731
     2  H    0.395292   0.553967  -0.026616  -0.026654  -0.018871
     3  H    0.395541  -0.026616   0.553587  -0.026648  -0.018903
     4  H    0.395540  -0.026654  -0.026648   0.553553  -0.018851
     5  H    0.394731  -0.018871  -0.018903  -0.018851   0.532399
 Mulliken charges:
               1
     1  C   -0.498478
     2  H    0.122882
     3  H    0.123040
     4  H    0.123060
     5  H    0.129495
 Sum of Mulliken charges =  -0.00000
 Mulliken charges with hydrogens summed into heavy atoms:
               1
     1  C   -0.000000
 Electronic spatial extent (au):  <R**2>=             36.9859
 Charge=             -0.0000 electrons
 Dipole moment (field-independent basis, Debye):
    X=             -0.0943    Y=             -0.0007    Z=             -0.0003  Tot=              0.0943
 Quadrupole moment (field-independent basis, Debye-Ang):
   XX=             -8.1207   YY=             -8.7232   ZZ=             -8.7223
   XY=              0.0014   XZ=             -0.0002   YZ=              0.0006
 Traceless Quadrupole moment (field-independent basis, Debye-Ang):
   XX=              0.4014   YY=             -0.2012   ZZ=             -0.2002
   XY=              0.0014   XZ=             -0.0002   YZ=              0.0006
 Octapole moment (field-independent basis, Debye-Ang**2):
  XXX=              0.9616  YYY=              0.4335  ZZZ=              0.3107  XYY=             -0.5884
  XXY=              0.0034  XXZ=              0.0040  XZZ=             -0.5881  YZZ=             -0.4414
  YYZ=             -0.3149  XYZ=              0.0016
 Hexadecapole moment (field-independent basis, Debye-Ang**3):
 XXXX=            -17.0303 YYYY=            -17.2325 ZZZZ=            -17.2186 XXXY=              0.0054
 XXXZ=              0.0006 YYYX=             -0.3540 YYYZ=              0.0016 ZZZX=             -0.2549
 ZZZY=              0.0034 XXYY=             -5.9716 XXZZ=             -5.9698 YYZZ=             -5.7394
 XXYZ=             -0.0021 YYXZ=              0.2532 ZZXY=              0.3554
 N-N= 1.305174406124D+01 E-N=-1.193251425011D+02  KE= 4.018191274928D+01
 1\1\GINC-NODE85\SP\ROLYP\def2TZVP\C1H4\YANZ\22-Sep-2023\0\\# scrf=(cpc
 m,solvent=water) def2tzvp olyp\\tmpdir/M2_conf_0_54.gjf\\0,1\C,0,0.,0.
 ,0.\H,0,1.1201,0.,0.\H,0,-0.27507,0.,-1.08467\H,0,-0.27469,1.02542,0.3
 5388\H,0,-0.46552,-0.84066,0.59853\\Version=ES64L-G16RevA.03\State=1-A
 \HF=-40.5053018\RMSD=4.044e-09\Dipole=0.0150872,0.0275586,-0.0197268\Q
 uadrupole=-0.074098,0.098447,-0.024349,0.1370354,-0.0968679,-0.1753074
 \PG=C01 [X(C1H4)]\\@


  DISAPPOINTMENT IS THE NURSE OF WISDOM.               
                              SIR BOYLE ROCHE                 
 Job cpu time:       0 days  0 hours  0 minutes 12.4 seconds.
 Elapsed time:       0 days  0 hours  0 minutes  3.3 seconds.
 File lengths (MBytes):  RWF=     10 Int=      0 D2E=      0 Chk=      1 Scr=      1
 Normal termination of Gaussian 16 at Fri Sep 22 16:54:56 2023.
