 Entering Gaussian System, Link 0=g16
 Initial command:
 /share/apps/gaussian/g16/l1.exe "/tmp/55608.mgr/Gau-89349.inp" -scrdir="/tmp/55608.mgr/"
 Entering Link 1 = /share/apps/gaussian/g16/l1.exe PID=     89350.
  
 Copyright (c) 1988,1990,1992,1993,1995,1998,2003,2009,2016,
            Gaussian, Inc.  All Rights Reserved.
  
 This is part of the Gaussian(R) 16 program.  It is based on
 the Gaussian(R) 09 system (copyright 2009, Gaussian, Inc.),
 the Gaussian(R) 03 system (copyright 2003, Gaussian, Inc.),
 the Gaussian(R) 98 system (copyright 1998, Gaussian, Inc.),
 the Gaussian(R) 94 system (copyright 1995, Gaussian, Inc.),
 the Gaussian 92(TM) system (copyright 1992, Gaussian, Inc.),
 the Gaussian 90(TM) system (copyright 1990, Gaussian, Inc.),
 the Gaussian 88(TM) system (copyright 1988, Gaussian, Inc.),
 the Gaussian 86(TM) system (copyright 1986, Carnegie Mellon
 University), and the Gaussian 82(TM) system (copyright 1983,
 Carnegie Mellon University). Gaussian is a federally registered
 trademark of Gaussian, Inc.
  
 This software contains proprietary and confidential information,
 including trade secrets, belonging to Gaussian, Inc.
  
 This software is provided under written license and may be
 used, copied, transmitted, or stored only in accord with that
 written license.
  
 The following legend is applicable only to US Government
 contracts under FAR:
  
                    RESTRICTED RIGHTS LEGEND
  
 Use, reproduction and disclosure by the US Government is
 subject to restrictions as set forth in subparagraphs (a)
 and (c) of the Commercial Computer Software - Restricted
 Rights clause in FAR 52.227-19.
  
 Gaussian, Inc.
 340 Quinnipiac St., Bldg. 40, Wallingford CT 06492
  
  
 ---------------------------------------------------------------
 Warning -- This program may not be used in any manner that
 competes with the business of Gaussian, Inc. or will provide
 assistance to any competitor of Gaussian, Inc.  The licensee
 of this program is prohibited from giving any competitor of
 Gaussian, Inc. access to this program.  By using this program,
 the user acknowledges that Gaussian, Inc. is engaged in the
 business of creating and licensing software in the field of
 computational chemistry and represents and warrants to the
 licensee that it is not a competitor of Gaussian, Inc. and that
 it will not use this program in any manner prohibited above.
 ---------------------------------------------------------------
  

 Cite this work as:
 Gaussian 16, Revision A.03,
 M. J. Frisch, G. W. Trucks, H. B. Schlegel, G. E. Scuseria, 
 M. A. Robb, J. R. Cheeseman, G. Scalmani, V. Barone, 
 G. A. Petersson, H. Nakatsuji, X. Li, M. Caricato, A. V. Marenich, 
 J. Bloino, B. G. Janesko, R. Gomperts, B. Mennucci, H. P. Hratchian, 
 J. V. Ortiz, A. F. Izmaylov, J. L. Sonnenberg, D. Williams-Young, 
 F. Ding, F. Lipparini, F. Egidi, J. Goings, B. Peng, A. Petrone, 
 T. Henderson, D. Ranasinghe, V. G. Zakrzewski, J. Gao, N. Rega, 
 G. Zheng, W. Liang, M. Hada, M. Ehara, K. Toyota, R. Fukuda, 
 J. Hasegawa, M. Ishida, T. Nakajima, Y. Honda, O. Kitao, H. Nakai, 
 T. Vreven, K. Throssell, J. A. Montgomery, Jr., J. E. Peralta, 
 F. Ogliaro, M. J. Bearpark, J. J. Heyd, E. N. Brothers, K. N. Kudin, 
 V. N. Staroverov, T. A. Keith, R. Kobayashi, J. Normand, 
 K. Raghavachari, A. P. Rendell, J. C. Burant, S. S. Iyengar, 
 J. Tomasi, M. Cossi, J. M. Millam, M. Klene, C. Adamo, R. Cammi, 
 J. W. Ochterski, R. L. Martin, K. Morokuma, O. Farkas, 
 J. B. Foresman, and D. J. Fox, Gaussian, Inc., Wallingford CT, 2016.
 
 ******************************************
 Gaussian 16:  ES64L-G16RevA.03 25-Dec-2016
                22-Sep-2023 
 ******************************************
 %nprocshared=4
 Will use up to    4 processors via shared memory.
 %mem=4GB
 -----------------------------------------
 # scrf=(cpcm,solvent=water) def2tzvp olyp
 -----------------------------------------
 1/38=1,172=1/1;
 2/12=2,17=6,18=5,40=1/2;
 3/5=44,7=101,11=2,25=1,30=1,70=2101,72=1,74=2002/1,2,3;
 4//1;
 5/5=2,38=5,53=1/2;
 6/7=2,8=2,9=2,10=2,28=1/1;
 99/5=1,9=1/99;
 -----------------------
 tmpdir/M2_conf_0_52.gjf
 -----------------------
 Symbolic Z-matrix:
 Charge =  0 Multiplicity = 1
 C                     0.        0.        0. 
 H                     1.1154    0.        0. 
 H                    -0.27563   0.       -1.08452 
 H                    -0.4666    0.83963   0.59913 
 H                    -0.27471  -1.02557   0.35373 
 
                          Input orientation:                          
 ---------------------------------------------------------------------
 Center     Atomic      Atomic             Coordinates (Angstroms)
 Number     Number       Type             X           Y           Z
 ---------------------------------------------------------------------
      1          6           0        0.000000    0.000000    0.000000
      2          1           0        1.115400    0.000000    0.000000
      3          1           0       -0.275630    0.000000   -1.084520
      4          1           0       -0.466600    0.839630    0.599130
      5          1           0       -0.274710   -1.025570    0.353730
 ---------------------------------------------------------------------
                    Distance matrix (angstroms):
                    1          2          3          4          5
     1  C    0.000000
     2  H    1.115400   0.000000
     3  H    1.118998   1.763845   0.000000
     4  H    1.132100   1.888560   1.891065   0.000000
     5  H    1.119100   1.763328   1.766453   1.891035   0.000000
 Stoichiometry    CH4
 Framework group  C1[X(CH4)]
 Deg. of freedom     9
 Full point group                 C1      NOp   1
 Largest Abelian subgroup         C1      NOp   1
 Largest concise Abelian subgroup C1      NOp   1
                         Standard orientation:                         
 ---------------------------------------------------------------------
 Center     Atomic      Atomic             Coordinates (Angstroms)
 Number     Number       Type             X           Y           Z
 ---------------------------------------------------------------------
      1          6           0       -0.024818    0.000047    0.000258
      2          1           0        0.428086   -0.078874    1.016509
      3          1           0        0.438370    0.919938   -0.437251
      4          1           0       -1.156893   -0.000090   -0.007353
      5          1           0        0.439348   -0.841257   -0.573451
 ---------------------------------------------------------------------
 Rotational constants (GHZ):         161.0532445         144.6693417         144.3843738
 Standard basis: def2TZVP (5D, 7F)
 There are    60 symmetry adapted cartesian basis functions of A   symmetry.
 There are    55 symmetry adapted basis functions of A   symmetry.
    55 basis functions,    83 primitive gaussians,    60 cartesian basis functions
     5 alpha electrons        5 beta electrons
       nuclear repulsion energy        13.0652747809 Hartrees.
 NAtoms=    5 NActive=    5 NUniq=    5 SFac= 1.00D+00 NAtFMM=   60 NAOKFM=F Big=F
 Integral buffers will be    131072 words long.
 Raffenetti 2 integral format.
 Two-electron integral symmetry is turned on.
 ------------------------------------------------------------------------------
 Polarizable Continuum Model (PCM)
 =================================
 Model                : C-PCM.
 Atomic radii         : UFF (Universal Force Field).
 Polarization charges : Total charges.
 Charge compensation  : None.
 Solution method      : On-the-fly selection.
 Cavity type          : Scaled VdW (van der Waals Surface) (Alpha=1.100).
 Cavity algorithm     : GePol (No added spheres)
                        Default sphere list used, NSphG=    5.
                        Lebedev-Laikov grids with approx.  5.0 points / Ang**2.
                        Smoothing algorithm: York/Karplus (Gamma=1.0000).
                        Polarization charges: spherical gaussians, with
                                              point-specific exponents (IZeta= 3).
                        Self-potential: point-specific (ISelfS= 7).
                        Self-field    : sphere-specific E.n sum rule (ISelfD= 2).
 Solvent              : Water, Eps=  78.355300 Eps(inf)=   1.777849
 ------------------------------------------------------------------------------
 Spheres list:
 ISph  on   Nord     Re0    Alpha      Xe            Ye            Ze
    1   C      1    1.9255  1.100     -0.024818      0.000047      0.000258
    2   H      2    1.4430  1.100      0.428086     -0.078874      1.016509
    3   H      3    1.4430  1.100      0.438370      0.919938     -0.437251
    4   H      4    1.4430  1.100     -1.156893     -0.000090     -0.007353
    5   H      5    1.4430  1.100      0.439348     -0.841257     -0.573451
 ------------------------------------------------------------------------------
 One-electron integrals computed using PRISM.
   1 Symmetry operations used in ECPInt.
 ECPInt:  NShTT=     378 NPrTT=    1024 LenC2=     379 LenP2D=     988.
 LDataN:  DoStor=T MaxTD1= 6 Len=  172
 NBasis=    55 RedAO= T EigKep=  1.65D-03  NBF=    55
 NBsUse=    55 1.00D-06 EigRej= -1.00D+00 NBFU=    55
 ExpMin= 9.52D-02 ExpMax= 1.36D+04 ExpMxC= 4.63D+02 IAcc=3 IRadAn=         5 AccDes= 0.00D+00
 Harris functional with IExCor= 2002 and IRadAn=       5 diagonalized for initial guess.
 HarFok:  IExCor= 2002 AccDes= 0.00D+00 IRadAn=         5 IDoV= 1 UseB2=F ITyADJ=14
 ICtDFT=  3500011 ScaDFX=  1.000000  1.000000  1.000000  1.000000
 FoFCou: FMM=F IPFlag=           0 FMFlag=      100000 FMFlg1=           0
         NFxFlg=           0 DoJE=T BraDBF=F KetDBF=T FulRan=T
         wScrn=  0.000000 ICntrl=       500 IOpCl=  0 I1Cent=   200000004 NGrid=           0
         NMat0=    1 NMatS0=      1 NMatT0=    0 NMatD0=    1 NMtDS0=    0 NMtDT0=    0
 Petite list used in FoFCou.
 Keep J ints in memory in canonical form, NReq=4722199.
 Requested convergence on RMS density matrix=1.00D-08 within 128 cycles.
 Requested convergence on MAX density matrix=1.00D-06.
 Requested convergence on             energy=1.00D-06.
 No special actions if energy rises.
 Inv3:  Mode=1 IEnd=      711507.
 Iteration    1 A*A^-1 deviation from unit magnitude is 2.66D-15 for    119.
 Iteration    1 A*A^-1 deviation from orthogonality  is 2.23D-15 for    381    124.
 Iteration    1 A^-1*A deviation from unit magnitude is 2.44D-15 for    119.
 Iteration    1 A^-1*A deviation from orthogonality  is 1.67D-15 for    357    224.
 Error on total polarization charges =  0.00945
 SCF Done:  E(RO-LYP) =  -40.5054183639     A.U. after    8 cycles
            NFock=  8  Conv=0.41D-08     -V/T= 2.0079

 **********************************************************************

            Population analysis using the SCF density.

 **********************************************************************

 Orbital symmetries:
       Occupied  (A) (A) (A) (A) (A)
       Virtual   (A) (A) (A) (A) (A) (A) (A) (A) (A) (A) (A) (A)
                 (A) (A) (A) (A) (A) (A) (A) (A) (A) (A) (A) (A)
                 (A) (A) (A) (A) (A) (A) (A) (A) (A) (A) (A) (A)
                 (A) (A) (A) (A) (A) (A) (A) (A) (A) (A) (A) (A)
                 (A) (A)
 The electronic state is 1-A.
 Alpha  occ. eigenvalues --   -9.89167  -0.61842  -0.35172  -0.33139  -0.33098
 Alpha virt. eigenvalues --    0.02252   0.09465   0.09604   0.09655   0.17836
 Alpha virt. eigenvalues --    0.17856   0.18198   0.36749   0.41118   0.41213
 Alpha virt. eigenvalues --    0.41676   0.47159   0.55917   0.55922   0.88232
 Alpha virt. eigenvalues --    0.89872   0.89878   1.41174   1.41242   1.44730
 Alpha virt. eigenvalues --    1.45577   1.45612   1.47973   1.48183   1.88917
 Alpha virt. eigenvalues --    1.89003   1.90209   1.99678   2.12823   2.12840
 Alpha virt. eigenvalues --    2.14856   2.35797   2.35846   2.47049   2.47105
 Alpha virt. eigenvalues --    2.49529   2.87900   2.87911   2.89908   3.16014
 Alpha virt. eigenvalues --    3.27799   3.28013   3.31975   3.43000   3.43126
 Alpha virt. eigenvalues --    3.93984   4.08695   4.09112   4.32130  21.81866
          Condensed to atoms (all electrons):
               1          2          3          4          5
     1  C    4.916422   0.396249   0.395488   0.394695   0.395449
     2  H    0.396249   0.552778  -0.026699  -0.018884  -0.026749
     3  H    0.395488  -0.026699   0.553804  -0.018844  -0.026581
     4  H    0.394695  -0.018884  -0.018844   0.532513  -0.018834
     5  H    0.395449  -0.026749  -0.026581  -0.018834   0.553904
 Mulliken charges:
               1
     1  C   -0.498302
     2  H    0.123305
     3  H    0.122832
     4  H    0.129354
     5  H    0.122811
 Sum of Mulliken charges =   0.00000
 Mulliken charges with hydrogens summed into heavy atoms:
               1
     1  C    0.000000
 Electronic spatial extent (au):  <R**2>=             36.9426
 Charge=              0.0000 electrons
 Dipole moment (field-independent basis, Debye):
    X=              0.0955    Y=             -0.0005    Z=              0.0034  Tot=              0.0956
 Quadrupole moment (field-independent basis, Debye-Ang):
   XX=             -8.1179   YY=             -8.7189   ZZ=             -8.7202
   XY=             -0.0001   XZ=              0.0043   YZ=             -0.0010
 Traceless Quadrupole moment (field-independent basis, Debye-Ang):
   XX=              0.4011   YY=             -0.1999   ZZ=             -0.2012
   XY=             -0.0001   XZ=              0.0043   YZ=             -0.0010
 Octapole moment (field-independent basis, Debye-Ang**2):
  XXX=             -0.9540  YYY=              0.1228  ZZZ=              0.5439  XYY=              0.5927
  XXY=             -0.0006  XXZ=             -0.0101  XZZ=              0.5832  YZZ=             -0.1238
  YYZ=             -0.5158  XYZ=              0.0006
 Hexadecapole moment (field-independent basis, Debye-Ang**3):
 XXXX=            -17.0161 YYYY=            -17.2135 ZZZZ=            -17.1566 XXXY=             -0.0002
 XXXZ=              0.0168 YYYX=              0.0996 YYYZ=             -0.0016 ZZZX=              0.4258
 ZZZY=             -0.0038 XXYY=             -5.9612 XXZZ=             -5.9642 YYZZ=             -5.7335
 XXYZ=              0.0006 YYXZ=             -0.4214 ZZXY=             -0.0999
 N-N= 1.306527478086D+01 E-N=-1.193563738514D+02  KE= 4.018752457484D+01
 1\1\GINC-NODE85\SP\ROLYP\def2TZVP\C1H4\YANZ\22-Sep-2023\0\\# scrf=(cpc
 m,solvent=water) def2tzvp olyp\\tmpdir/M2_conf_0_52.gjf\\0,1\C,0,0.,0.
 ,0.\H,0,1.1154,0.,0.\H,0,-0.27563,0.,-1.08452\H,0,-0.4666,0.83963,0.59
 913\H,0,-0.27471,-1.02557,0.35373\\Version=ES64L-G16RevA.03\State=1-A\
 HF=-40.5054184\RMSD=4.060e-09\Dipole=0.0165026,-0.0275588,-0.0195366\Q
 uadrupole=-0.0733088,0.096769,-0.0234602,-0.1373954,-0.0970912,0.17533
 92\PG=C01 [X(C1H4)]\\@


 AN AIRPLANE IS A COLLECTION OF SPARE PARTS
 FLYING IN CLOSE FORMATION.
 Job cpu time:       0 days  0 hours  0 minutes 12.6 seconds.
 Elapsed time:       0 days  0 hours  0 minutes  3.3 seconds.
 File lengths (MBytes):  RWF=     10 Int=      0 D2E=      0 Chk=      1 Scr=      1
 Normal termination of Gaussian 16 at Fri Sep 22 16:54:52 2023.
