 Entering Gaussian System, Link 0=g16
 Initial command:
 /share/apps/gaussian/g16/l1.exe "/tmp/55608.mgr/Gau-85710.inp" -scrdir="/tmp/55608.mgr/"
 Entering Link 1 = /share/apps/gaussian/g16/l1.exe PID=     85716.
  
 Copyright (c) 1988,1990,1992,1993,1995,1998,2003,2009,2016,
            Gaussian, Inc.  All Rights Reserved.
  
 This is part of the Gaussian(R) 16 program.  It is based on
 the Gaussian(R) 09 system (copyright 2009, Gaussian, Inc.),
 the Gaussian(R) 03 system (copyright 2003, Gaussian, Inc.),
 the Gaussian(R) 98 system (copyright 1998, Gaussian, Inc.),
 the Gaussian(R) 94 system (copyright 1995, Gaussian, Inc.),
 the Gaussian 92(TM) system (copyright 1992, Gaussian, Inc.),
 the Gaussian 90(TM) system (copyright 1990, Gaussian, Inc.),
 the Gaussian 88(TM) system (copyright 1988, Gaussian, Inc.),
 the Gaussian 86(TM) system (copyright 1986, Carnegie Mellon
 University), and the Gaussian 82(TM) system (copyright 1983,
 Carnegie Mellon University). Gaussian is a federally registered
 trademark of Gaussian, Inc.
  
 This software contains proprietary and confidential information,
 including trade secrets, belonging to Gaussian, Inc.
  
 This software is provided under written license and may be
 used, copied, transmitted, or stored only in accord with that
 written license.
  
 The following legend is applicable only to US Government
 contracts under FAR:
  
                    RESTRICTED RIGHTS LEGEND
  
 Use, reproduction and disclosure by the US Government is
 subject to restrictions as set forth in subparagraphs (a)
 and (c) of the Commercial Computer Software - Restricted
 Rights clause in FAR 52.227-19.
  
 Gaussian, Inc.
 340 Quinnipiac St., Bldg. 40, Wallingford CT 06492
  
  
 ---------------------------------------------------------------
 Warning -- This program may not be used in any manner that
 competes with the business of Gaussian, Inc. or will provide
 assistance to any competitor of Gaussian, Inc.  The licensee
 of this program is prohibited from giving any competitor of
 Gaussian, Inc. access to this program.  By using this program,
 the user acknowledges that Gaussian, Inc. is engaged in the
 business of creating and licensing software in the field of
 computational chemistry and represents and warrants to the
 licensee that it is not a competitor of Gaussian, Inc. and that
 it will not use this program in any manner prohibited above.
 ---------------------------------------------------------------
  

 Cite this work as:
 Gaussian 16, Revision A.03,
 M. J. Frisch, G. W. Trucks, H. B. Schlegel, G. E. Scuseria, 
 M. A. Robb, J. R. Cheeseman, G. Scalmani, V. Barone, 
 G. A. Petersson, H. Nakatsuji, X. Li, M. Caricato, A. V. Marenich, 
 J. Bloino, B. G. Janesko, R. Gomperts, B. Mennucci, H. P. Hratchian, 
 J. V. Ortiz, A. F. Izmaylov, J. L. Sonnenberg, D. Williams-Young, 
 F. Ding, F. Lipparini, F. Egidi, J. Goings, B. Peng, A. Petrone, 
 T. Henderson, D. Ranasinghe, V. G. Zakrzewski, J. Gao, N. Rega, 
 G. Zheng, W. Liang, M. Hada, M. Ehara, K. Toyota, R. Fukuda, 
 J. Hasegawa, M. Ishida, T. Nakajima, Y. Honda, O. Kitao, H. Nakai, 
 T. Vreven, K. Throssell, J. A. Montgomery, Jr., J. E. Peralta, 
 F. Ogliaro, M. J. Bearpark, J. J. Heyd, E. N. Brothers, K. N. Kudin, 
 V. N. Staroverov, T. A. Keith, R. Kobayashi, J. Normand, 
 K. Raghavachari, A. P. Rendell, J. C. Burant, S. S. Iyengar, 
 J. Tomasi, M. Cossi, J. M. Millam, M. Klene, C. Adamo, R. Cammi, 
 J. W. Ochterski, R. L. Martin, K. Morokuma, O. Farkas, 
 J. B. Foresman, and D. J. Fox, Gaussian, Inc., Wallingford CT, 2016.
 
 ******************************************
 Gaussian 16:  ES64L-G16RevA.03 25-Dec-2016
                22-Sep-2023 
 ******************************************
 %nprocshared=4
 Will use up to    4 processors via shared memory.
 %mem=4GB
 -----------------------------------------
 # scrf=(cpcm,solvent=water) def2tzvp olyp
 -----------------------------------------
 1/38=1,172=1/1;
 2/12=2,17=6,18=5,40=1/2;
 3/5=44,7=101,11=2,25=1,30=1,70=2101,72=1,74=2002/1,2,3;
 4//1;
 5/5=2,38=5,53=1/2;
 6/7=2,8=2,9=2,10=2,28=1/1;
 99/5=1,9=1/99;
 -------------------
 tmpdir/M2_ref_6.gjf
 -------------------
 Symbolic Z-matrix:
 Charge =  0 Multiplicity = 1
 O                    -1.30131   0.7179    0.46229 
 P                    -0.15562  -0.22182   0.43648 
 O                     1.27644   0.29201   0.38032 
 H                    -0.22438  -1.2188   -0.48445 
 H                    -0.22137  -1.02654   1.67562 
 H                     1.81519   0.54939   1.05645 
 
                          Input orientation:                          
 ---------------------------------------------------------------------
 Center     Atomic      Atomic             Coordinates (Angstroms)
 Number     Number       Type             X           Y           Z
 ---------------------------------------------------------------------
      1          8           0       -1.301306    0.717898    0.462292
      2         15           0       -0.155615   -0.221822    0.436475
      3          8           0        1.276440    0.292011    0.380324
      4          1           0       -0.224381   -1.218802   -0.484453
      5          1           0       -0.221372   -1.026544    1.675623
      6          1           0        1.815186    0.549389    1.056448
 ---------------------------------------------------------------------
                    Distance matrix (angstroms):
                    1          2          3          4          5
     1  O    0.000000
     2  P    1.482008   0.000000
     3  O    2.613976   1.522484   0.000000
     4  H    2.409751   1.358973   2.298447   0.000000
     5  H    2.383591   1.478982   2.379039   2.168617   0.000000
     6  H    3.177096   2.205265   0.902017   3.108169   2.648493
                    6
     6  H    0.000000
 Stoichiometry    H3O2P
 Framework group  C1[X(H3O2P)]
 Deg. of freedom    12
 Full point group                 C1      NOp   1
 Largest Abelian subgroup         C1      NOp   1
 Largest concise Abelian subgroup C1      NOp   1
                         Standard orientation:                         
 ---------------------------------------------------------------------
 Center     Atomic      Atomic             Coordinates (Angstroms)
 Number     Number       Type             X           Y           Z
 ---------------------------------------------------------------------
      1          8           0        1.325947   -0.491718   -0.000434
      2         15           0        0.088139    0.323209   -0.008955
      3          8           0       -1.281532   -0.335581   -0.098158
      4          1           0        0.059198    1.352121   -0.896260
      5          1           0        0.059071    1.088537    1.256279
      6          1           0       -1.795672   -0.670402    0.563045
 ---------------------------------------------------------------------
 Rotational constants (GHZ):          33.3092699           8.3211290           7.1963544
 Standard basis: def2TZVP (5D, 7F)
 There are   132 symmetry adapted cartesian basis functions of A   symmetry.
 There are   117 symmetry adapted basis functions of A   symmetry.
   117 basis functions,   195 primitive gaussians,   132 cartesian basis functions
    17 alpha electrons       17 beta electrons
       nuclear repulsion energy       126.1146725627 Hartrees.
 NAtoms=    6 NActive=    6 NUniq=    6 SFac= 1.00D+00 NAtFMM=   60 NAOKFM=F Big=F
 Integral buffers will be    131072 words long.
 Raffenetti 2 integral format.
 Two-electron integral symmetry is turned on.
 ------------------------------------------------------------------------------
 Polarizable Continuum Model (PCM)
 =================================
 Model                : C-PCM.
 Atomic radii         : UFF (Universal Force Field).
 Polarization charges : Total charges.
 Charge compensation  : None.
 Solution method      : On-the-fly selection.
 Cavity type          : Scaled VdW (van der Waals Surface) (Alpha=1.100).
 Cavity algorithm     : GePol (No added spheres)
                        Default sphere list used, NSphG=    6.
                        Lebedev-Laikov grids with approx.  5.0 points / Ang**2.
                        Smoothing algorithm: York/Karplus (Gamma=1.0000).
                        Polarization charges: spherical gaussians, with
                                              point-specific exponents (IZeta= 3).
                        Self-potential: point-specific (ISelfS= 7).
                        Self-field    : sphere-specific E.n sum rule (ISelfD= 2).
 Solvent              : Water, Eps=  78.355300 Eps(inf)=   1.777849
 ------------------------------------------------------------------------------
 Spheres list:
 ISph  on   Nord     Re0    Alpha      Xe            Ye            Ze
    1   O      1    1.7500  1.100      1.325947     -0.491718     -0.000434
    2   P      2    2.0735  1.100      0.088139      0.323209     -0.008955
    3   O      3    1.7500  1.100     -1.281532     -0.335581     -0.098158
    4   H      4    1.4430  1.100      0.059198      1.352121     -0.896260
    5   H      5    1.4430  1.100      0.059071      1.088537      1.256279
    6   H      6    1.4430  1.100     -1.795672     -0.670402      0.563045
 ------------------------------------------------------------------------------
 One-electron integrals computed using PRISM.
   1 Symmetry operations used in ECPInt.
 ECPInt:  NShTT=    1128 NPrTT=    3744 LenC2=    1123 LenP2D=    3216.
 LDataN:  DoStor=T MaxTD1= 6 Len=  172
 NBasis=   117 RedAO= T EigKep=  1.82D-03  NBF=   117
 NBsUse=   117 1.00D-06 EigRej= -1.00D+00 NBFU=   117
 ExpMin= 9.04D-02 ExpMax= 5.24D+04 ExpMxC= 1.79D+03 IAcc=3 IRadAn=         5 AccDes= 0.00D+00
 Harris functional with IExCor= 2002 and IRadAn=       5 diagonalized for initial guess.
 HarFok:  IExCor= 2002 AccDes= 0.00D+00 IRadAn=         5 IDoV= 1 UseB2=F ITyADJ=14
 ICtDFT=  3500011 ScaDFX=  1.000000  1.000000  1.000000  1.000000
 FoFCou: FMM=F IPFlag=           0 FMFlag=      100000 FMFlg1=           0
         NFxFlg=           0 DoJE=T BraDBF=F KetDBF=T FulRan=T
         wScrn=  0.000000 ICntrl=       500 IOpCl=  0 I1Cent=   200000004 NGrid=           0
         NMat0=    1 NMatS0=      1 NMatT0=    0 NMatD0=    1 NMtDS0=    0 NMtDT0=    0
 Petite list used in FoFCou.
 Keep J ints in memory in canonical form, NReq=27663592.
 Requested convergence on RMS density matrix=1.00D-08 within 128 cycles.
 Requested convergence on MAX density matrix=1.00D-06.
 Requested convergence on             energy=1.00D-06.
 No special actions if energy rises.
 Inv3:  Mode=1 IEnd=     1801875.
 Iteration    1 A*A^-1 deviation from unit magnitude is 3.33D-15 for    749.
 Iteration    1 A*A^-1 deviation from orthogonality  is 2.19D-15 for    753    242.
 Iteration    1 A^-1*A deviation from unit magnitude is 3.55D-15 for    760.
 Iteration    1 A^-1*A deviation from orthogonality  is 1.82D-15 for    758    217.
 Error on total polarization charges =  0.00863
 SCF Done:  E(RO-LYP) =  -493.683585520     A.U. after   11 cycles
            NFock= 11  Conv=0.80D-08     -V/T= 2.0013

 **********************************************************************

            Population analysis using the SCF density.

 **********************************************************************

 Orbital symmetries:
       Occupied  (A) (A) (A) (A) (A) (A) (A) (A) (A) (A) (A) (A)
                 (A) (A) (A) (A) (A)
       Virtual   (A) (A) (A) (A) (A) (A) (A) (A) (A) (A) (A) (A)
                 (A) (A) (A) (A) (A) (A) (A) (A) (A) (A) (A) (A)
                 (A) (A) (A) (A) (A) (A) (A) (A) (A) (A) (A) (A)
                 (A) (A) (A) (A) (A) (A) (A) (A) (A) (A) (A) (A)
                 (A) (A) (A) (A) (A) (A) (A) (A) (A) (A) (A) (A)
                 (A) (A) (A) (A) (A) (A) (A) (A) (A) (A) (A) (A)
                 (A) (A) (A) (A) (A) (A) (A) (A) (A) (A) (A) (A)
                 (A) (A) (A) (A) (A) (A) (A) (A) (A) (A) (A) (A)
                 (A) (A) (A) (A)
 The electronic state is 1-A.
 Alpha  occ. eigenvalues --  -76.37058 -18.80695 -18.72243  -6.40060  -4.61125
 Alpha  occ. eigenvalues --   -4.60887  -4.60731  -1.01327  -0.88660  -0.62446
 Alpha  occ. eigenvalues --   -0.48650  -0.41928  -0.37715  -0.33336  -0.31237
 Alpha  occ. eigenvalues --   -0.26336  -0.23918
 Alpha virt. eigenvalues --   -0.00962   0.02829   0.03164   0.06654   0.07219
 Alpha virt. eigenvalues --    0.16765   0.21104   0.22847   0.24196   0.27222
 Alpha virt. eigenvalues --    0.30985   0.32632   0.36850   0.38439   0.43898
 Alpha virt. eigenvalues --    0.46943   0.47680   0.49539   0.52161   0.56350
 Alpha virt. eigenvalues --    0.60142   0.65091   0.67828   0.73865   0.78301
 Alpha virt. eigenvalues --    1.02649   1.04916   1.12828   1.13746   1.14387
 Alpha virt. eigenvalues --    1.18698   1.20037   1.24935   1.28374   1.34826
 Alpha virt. eigenvalues --    1.38137   1.39798   1.48679   1.52670   1.55320
 Alpha virt. eigenvalues --    1.57497   1.63464   1.67092   1.77292   1.77712
 Alpha virt. eigenvalues --    1.79036   1.88135   1.91870   1.99368   2.00211
 Alpha virt. eigenvalues --    2.08075   2.09020   2.14094   2.23861   2.25823
 Alpha virt. eigenvalues --    2.31103   2.38718   2.43707   2.51646   2.61231
 Alpha virt. eigenvalues --    2.66862   2.70036   2.73079   2.78090   2.85160
 Alpha virt. eigenvalues --    2.88770   2.90741   3.35097   3.70861   3.87612
 Alpha virt. eigenvalues --    4.95124   4.96054   5.03998   5.04726   5.07049
 Alpha virt. eigenvalues --    5.09668   5.15311   5.19756   5.22853   5.33156
 Alpha virt. eigenvalues --    5.40452   5.44027   5.46726   6.14844   6.17361
 Alpha virt. eigenvalues --    6.21016   6.25361   6.39999   6.51377   6.53051
 Alpha virt. eigenvalues --    6.58217   6.65808   6.75475   6.90921   7.20400
 Alpha virt. eigenvalues --    7.44757   8.01664  15.91253  43.11604  43.16769
          Condensed to atoms (all electrons):
               1          2          3          4          5          6
     1  O    7.992948   0.719210  -0.058078  -0.041065  -0.050069   0.000323
     2  P    0.719210  12.583229   0.424768   0.360159   0.365764  -0.018715
     3  O   -0.058078   0.424768   7.760428  -0.027497  -0.035768   0.320011
     4  H   -0.041065   0.360159  -0.027497   0.711390  -0.059899   0.003554
     5  H   -0.050069   0.365764  -0.035768  -0.059899   0.795031  -0.002172
     6  H    0.000323  -0.018715   0.320011   0.003554  -0.002172   0.355921
 Mulliken charges:
               1
     1  O   -0.563269
     2  P    0.565585
     3  O   -0.383864
     4  H    0.053357
     5  H   -0.012887
     6  H    0.341078
 Sum of Mulliken charges =  -0.00000
 Mulliken charges with hydrogens summed into heavy atoms:
               1
     1  O   -0.563269
     2  P    0.606054
     3  O   -0.042786
 Electronic spatial extent (au):  <R**2>=            201.9855
 Charge=             -0.0000 electrons
 Dipole moment (field-independent basis, Debye):
    X=             -4.5140    Y=              1.6206    Z=              0.9552  Tot=              4.8903
 Quadrupole moment (field-independent basis, Debye-Ang):
   XX=            -26.5832   YY=            -23.8924   ZZ=            -23.3424
   XY=              3.8646   XZ=             -2.7073   YZ=             -1.6078
 Traceless Quadrupole moment (field-independent basis, Debye-Ang):
   XX=             -1.9772   YY=              0.7136   ZZ=              1.2636
   XY=              3.8646   XZ=             -2.7073   YZ=             -1.6078
 Octapole moment (field-independent basis, Debye-Ang**2):
  XXX=            -18.8518  YYY=             -1.0782  ZZZ=             -0.3846  XYY=             -3.7142
  XXY=             -1.5769  XXZ=              5.1178  XZZ=             -2.8354  YZZ=             -1.2028
  YYZ=              0.0267  XYZ=              1.8458
 Hexadecapole moment (field-independent basis, Debye-Ang**3):
 XXXX=           -142.1133 YYYY=            -59.9376 ZZZZ=            -38.7212 XXXY=             13.4529
 XXXZ=            -10.2173 YYYX=              4.2328 YYYZ=             -2.9415 ZZZX=             -2.0818
 ZZZY=             -2.2251 XXYY=            -33.1972 XXZZ=            -29.4987 YYZZ=            -16.3645
 XXYZ=             -3.9467 YYXZ=             -1.6995 ZZXY=              1.9252
 N-N= 1.261146725627D+02 E-N=-1.424916320427D+03  KE= 4.930327626807D+02
 1\1\GINC-NODE85\SP\ROLYP\def2TZVP\H3O2P1\YANZ\22-Sep-2023\0\\# scrf=(c
 pcm,solvent=water) def2tzvp olyp\\tmpdir/M2_ref_6.gjf\\0,1\O,0,-1.3013
 06,0.717898,0.462292\P,0,-0.155615,-0.221822,0.436475\O,0,1.27644,0.29
 2011,0.380324\H,0,-0.22438135,-1.21880177,-0.48445333\H,0,-0.22137174,
 -1.02654444,1.67562253\H,0,1.8151864,0.54938918,1.05644822\\Version=ES
 64L-G16RevA.03\State=1-A\HF=-493.6835855\RMSD=8.002e-09\Dipole=1.69499
 75,-0.8324131,0.3685154\Quadrupole=-0.8982453,-0.1542831,1.0525284,2.9
 373701,2.2021064,0.975624\PG=C01 [X(H3O2P1)]\\@


 WE THE UNWILLING
 LED BY THE UNQUALIFIED
 HAVE BEEN DOING THE UNBELIEVABLE SO LONG WITH SO LITTLE
 THAT WE NOW ATTEMPT THE IMPOSSIBLE WITH NOTHING.

                                    -- ANONYMOUS
 Job cpu time:       0 days  0 hours  0 minutes 38.9 seconds.
 Elapsed time:       0 days  0 hours  0 minutes 10.3 seconds.
 File lengths (MBytes):  RWF=     17 Int=      0 D2E=      0 Chk=      2 Scr=      1
 Normal termination of Gaussian 16 at Fri Sep 22 16:51:41 2023.
