 Entering Gaussian System, Link 0=g16
 Initial command:
 /share/apps/gaussian/g16/l1.exe "/tmp/55608.mgr/Gau-85969.inp" -scrdir="/tmp/55608.mgr/"
 Entering Link 1 = /share/apps/gaussian/g16/l1.exe PID=     85970.
  
 Copyright (c) 1988,1990,1992,1993,1995,1998,2003,2009,2016,
            Gaussian, Inc.  All Rights Reserved.
  
 This is part of the Gaussian(R) 16 program.  It is based on
 the Gaussian(R) 09 system (copyright 2009, Gaussian, Inc.),
 the Gaussian(R) 03 system (copyright 2003, Gaussian, Inc.),
 the Gaussian(R) 98 system (copyright 1998, Gaussian, Inc.),
 the Gaussian(R) 94 system (copyright 1995, Gaussian, Inc.),
 the Gaussian 92(TM) system (copyright 1992, Gaussian, Inc.),
 the Gaussian 90(TM) system (copyright 1990, Gaussian, Inc.),
 the Gaussian 88(TM) system (copyright 1988, Gaussian, Inc.),
 the Gaussian 86(TM) system (copyright 1986, Carnegie Mellon
 University), and the Gaussian 82(TM) system (copyright 1983,
 Carnegie Mellon University). Gaussian is a federally registered
 trademark of Gaussian, Inc.
  
 This software contains proprietary and confidential information,
 including trade secrets, belonging to Gaussian, Inc.
  
 This software is provided under written license and may be
 used, copied, transmitted, or stored only in accord with that
 written license.
  
 The following legend is applicable only to US Government
 contracts under FAR:
  
                    RESTRICTED RIGHTS LEGEND
  
 Use, reproduction and disclosure by the US Government is
 subject to restrictions as set forth in subparagraphs (a)
 and (c) of the Commercial Computer Software - Restricted
 Rights clause in FAR 52.227-19.
  
 Gaussian, Inc.
 340 Quinnipiac St., Bldg. 40, Wallingford CT 06492
  
  
 ---------------------------------------------------------------
 Warning -- This program may not be used in any manner that
 competes with the business of Gaussian, Inc. or will provide
 assistance to any competitor of Gaussian, Inc.  The licensee
 of this program is prohibited from giving any competitor of
 Gaussian, Inc. access to this program.  By using this program,
 the user acknowledges that Gaussian, Inc. is engaged in the
 business of creating and licensing software in the field of
 computational chemistry and represents and warrants to the
 licensee that it is not a competitor of Gaussian, Inc. and that
 it will not use this program in any manner prohibited above.
 ---------------------------------------------------------------
  

 Cite this work as:
 Gaussian 16, Revision A.03,
 M. J. Frisch, G. W. Trucks, H. B. Schlegel, G. E. Scuseria, 
 M. A. Robb, J. R. Cheeseman, G. Scalmani, V. Barone, 
 G. A. Petersson, H. Nakatsuji, X. Li, M. Caricato, A. V. Marenich, 
 J. Bloino, B. G. Janesko, R. Gomperts, B. Mennucci, H. P. Hratchian, 
 J. V. Ortiz, A. F. Izmaylov, J. L. Sonnenberg, D. Williams-Young, 
 F. Ding, F. Lipparini, F. Egidi, J. Goings, B. Peng, A. Petrone, 
 T. Henderson, D. Ranasinghe, V. G. Zakrzewski, J. Gao, N. Rega, 
 G. Zheng, W. Liang, M. Hada, M. Ehara, K. Toyota, R. Fukuda, 
 J. Hasegawa, M. Ishida, T. Nakajima, Y. Honda, O. Kitao, H. Nakai, 
 T. Vreven, K. Throssell, J. A. Montgomery, Jr., J. E. Peralta, 
 F. Ogliaro, M. J. Bearpark, J. J. Heyd, E. N. Brothers, K. N. Kudin, 
 V. N. Staroverov, T. A. Keith, R. Kobayashi, J. Normand, 
 K. Raghavachari, A. P. Rendell, J. C. Burant, S. S. Iyengar, 
 J. Tomasi, M. Cossi, J. M. Millam, M. Klene, C. Adamo, R. Cammi, 
 J. W. Ochterski, R. L. Martin, K. Morokuma, O. Farkas, 
 J. B. Foresman, and D. J. Fox, Gaussian, Inc., Wallingford CT, 2016.
 
 ******************************************
 Gaussian 16:  ES64L-G16RevA.03 25-Dec-2016
                22-Sep-2023 
 ******************************************
 %nprocshared=4
 Will use up to    4 processors via shared memory.
 %mem=4GB
 -----------------------------------------
 # scrf=(cpcm,solvent=water) def2tzvp olyp
 -----------------------------------------
 1/38=1,172=1/1;
 2/12=2,17=6,18=5,40=1/2;
 3/5=44,7=101,11=2,25=1,30=1,70=2101,72=1,74=2002/1,2,3;
 4//1;
 5/5=2,38=5,53=1/2;
 6/7=2,8=2,9=2,10=2,28=1/1;
 99/5=1,9=1/99;
 -------------------
 tmpdir/M2_ref_4.gjf
 -------------------
 Symbolic Z-matrix:
 Charge =  0 Multiplicity = 1
 P                    -0.15562  -0.22182   0.43648 
 O                    -0.23239  -1.16141   1.88329 
 O                    -1.30131   0.7179    0.46229 
 H                    -0.22438  -1.2188   -0.48445 
 H                     1.07089   0.21826   0.38838 
 H                     0.13548  -0.95922   2.63658 
 
                          Input orientation:                          
 ---------------------------------------------------------------------
 Center     Atomic      Atomic             Coordinates (Angstroms)
 Number     Number       Type             X           Y           Z
 ---------------------------------------------------------------------
      1         15           0       -0.155615   -0.221822    0.436475
      2          8           0       -0.232392   -1.161409    1.883293
      3          8           0       -1.301306    0.717898    0.462292
      4          1           0       -0.224381   -1.218802   -0.484453
      5          1           0        1.070889    0.218257    0.388384
      6          1           0        0.135480   -0.959225    2.636583
 ---------------------------------------------------------------------
                    Distance matrix (angstroms):
                    1          2          3          4          5
     1  P    0.000000
     2  O    1.726847   0.000000
     3  O    1.482008   2.587202   0.000000
     4  H    1.358973   2.368455   2.409751   0.000000
     5  H    1.303953   2.415942   2.425368   2.122430   0.000000
     6  H    2.338584   0.862354   3.099135   3.152419   2.704783
                    6
     6  H    0.000000
 Stoichiometry    H3O2P
 Framework group  C1[X(H3O2P)]
 Deg. of freedom    12
 Full point group                 C1      NOp   1
 Largest Abelian subgroup         C1      NOp   1
 Largest concise Abelian subgroup C1      NOp   1
                         Standard orientation:                         
 ---------------------------------------------------------------------
 Center     Atomic      Atomic             Coordinates (Angstroms)
 Number     Number       Type             X           Y           Z
 ---------------------------------------------------------------------
      1         15           0       -0.186793    0.415605    0.018258
      2          8           0        1.357287   -0.348896   -0.097311
      3          8           0       -1.209765   -0.656540   -0.001302
      4          1           0       -0.131288    1.205328   -1.086307
      5          1           0       -0.083817    1.224866    1.035502
      6          1           0        1.836824   -0.620781    0.565846
 ---------------------------------------------------------------------
 Rotational constants (GHZ):          24.9998075           8.4073230           6.7480136
 Standard basis: def2TZVP (5D, 7F)
 There are   132 symmetry adapted cartesian basis functions of A   symmetry.
 There are   117 symmetry adapted basis functions of A   symmetry.
   117 basis functions,   195 primitive gaussians,   132 cartesian basis functions
    17 alpha electrons       17 beta electrons
       nuclear repulsion energy       121.9638724898 Hartrees.
 NAtoms=    6 NActive=    6 NUniq=    6 SFac= 1.00D+00 NAtFMM=   60 NAOKFM=F Big=F
 Integral buffers will be    131072 words long.
 Raffenetti 2 integral format.
 Two-electron integral symmetry is turned on.
 ------------------------------------------------------------------------------
 Polarizable Continuum Model (PCM)
 =================================
 Model                : C-PCM.
 Atomic radii         : UFF (Universal Force Field).
 Polarization charges : Total charges.
 Charge compensation  : None.
 Solution method      : On-the-fly selection.
 Cavity type          : Scaled VdW (van der Waals Surface) (Alpha=1.100).
 Cavity algorithm     : GePol (No added spheres)
                        Default sphere list used, NSphG=    6.
                        Lebedev-Laikov grids with approx.  5.0 points / Ang**2.
                        Smoothing algorithm: York/Karplus (Gamma=1.0000).
                        Polarization charges: spherical gaussians, with
                                              point-specific exponents (IZeta= 3).
                        Self-potential: point-specific (ISelfS= 7).
                        Self-field    : sphere-specific E.n sum rule (ISelfD= 2).
 Solvent              : Water, Eps=  78.355300 Eps(inf)=   1.777849
 ------------------------------------------------------------------------------
 Spheres list:
 ISph  on   Nord     Re0    Alpha      Xe            Ye            Ze
    1   P      1    2.0735  1.100     -0.186793      0.415605      0.018258
    2   O      2    1.7500  1.100      1.357287     -0.348896     -0.097311
    3   O      3    1.7500  1.100     -1.209765     -0.656540     -0.001302
    4   H      4    1.4430  1.100     -0.131288      1.205328     -1.086307
    5   H      5    1.4430  1.100     -0.083817      1.224866      1.035502
    6   H      6    1.4430  1.100      1.836824     -0.620781      0.565846
 ------------------------------------------------------------------------------
 One-electron integrals computed using PRISM.
   1 Symmetry operations used in ECPInt.
 ECPInt:  NShTT=    1128 NPrTT=    3744 LenC2=    1123 LenP2D=    3211.
 LDataN:  DoStor=T MaxTD1= 6 Len=  172
 NBasis=   117 RedAO= T EigKep=  2.29D-03  NBF=   117
 NBsUse=   117 1.00D-06 EigRej= -1.00D+00 NBFU=   117
 ExpMin= 9.04D-02 ExpMax= 5.24D+04 ExpMxC= 1.79D+03 IAcc=3 IRadAn=         5 AccDes= 0.00D+00
 Harris functional with IExCor= 2002 and IRadAn=       5 diagonalized for initial guess.
 HarFok:  IExCor= 2002 AccDes= 0.00D+00 IRadAn=         5 IDoV= 1 UseB2=F ITyADJ=14
 ICtDFT=  3500011 ScaDFX=  1.000000  1.000000  1.000000  1.000000
 FoFCou: FMM=F IPFlag=           0 FMFlag=      100000 FMFlg1=           0
         NFxFlg=           0 DoJE=T BraDBF=F KetDBF=T FulRan=T
         wScrn=  0.000000 ICntrl=       500 IOpCl=  0 I1Cent=   200000004 NGrid=           0
         NMat0=    1 NMatS0=      1 NMatT0=    0 NMatD0=    1 NMtDS0=    0 NMtDT0=    0
 Petite list used in FoFCou.
 Keep J ints in memory in canonical form, NReq=27663592.
 Requested convergence on RMS density matrix=1.00D-08 within 128 cycles.
 Requested convergence on MAX density matrix=1.00D-06.
 Requested convergence on             energy=1.00D-06.
 No special actions if energy rises.
 Inv3:  Mode=1 IEnd=     1801875.
 Iteration    1 A*A^-1 deviation from unit magnitude is 3.33D-15 for    754.
 Iteration    1 A*A^-1 deviation from orthogonality  is 1.83D-15 for    768    282.
 Iteration    1 A^-1*A deviation from unit magnitude is 3.11D-15 for    754.
 Iteration    1 A^-1*A deviation from orthogonality  is 2.64D-15 for    772    124.
 Error on total polarization charges =  0.00766
 SCF Done:  E(RO-LYP) =  -493.668199233     A.U. after   11 cycles
            NFock= 11  Conv=0.92D-08     -V/T= 2.0013

 **********************************************************************

            Population analysis using the SCF density.

 **********************************************************************

 Orbital symmetries:
       Occupied  (A) (A) (A) (A) (A) (A) (A) (A) (A) (A) (A) (A)
                 (A) (A) (A) (A) (A)
       Virtual   (A) (A) (A) (A) (A) (A) (A) (A) (A) (A) (A) (A)
                 (A) (A) (A) (A) (A) (A) (A) (A) (A) (A) (A) (A)
                 (A) (A) (A) (A) (A) (A) (A) (A) (A) (A) (A) (A)
                 (A) (A) (A) (A) (A) (A) (A) (A) (A) (A) (A) (A)
                 (A) (A) (A) (A) (A) (A) (A) (A) (A) (A) (A) (A)
                 (A) (A) (A) (A) (A) (A) (A) (A) (A) (A) (A) (A)
                 (A) (A) (A) (A) (A) (A) (A) (A) (A) (A) (A) (A)
                 (A) (A) (A) (A) (A) (A) (A) (A) (A) (A) (A) (A)
                 (A) (A) (A) (A)
 The electronic state is 1-A.
 Alpha  occ. eigenvalues --  -76.37794 -18.76981 -18.73235  -6.40924  -4.62080
 Alpha  occ. eigenvalues --   -4.61675  -4.61559  -0.95645  -0.89350  -0.60318
 Alpha  occ. eigenvalues --   -0.48481  -0.41614  -0.36246  -0.32349  -0.29312
 Alpha  occ. eigenvalues --   -0.25834  -0.25737
 Alpha virt. eigenvalues --   -0.02275   0.00439   0.02780   0.05718   0.08287
 Alpha virt. eigenvalues --    0.16450   0.19680   0.21596   0.23366   0.25475
 Alpha virt. eigenvalues --    0.29718   0.33601   0.37898   0.39690   0.43453
 Alpha virt. eigenvalues --    0.45917   0.50075   0.52395   0.53040   0.55912
 Alpha virt. eigenvalues --    0.59067   0.61896   0.66864   0.71859   0.76566
 Alpha virt. eigenvalues --    1.02599   1.07097   1.08834   1.09788   1.14128
 Alpha virt. eigenvalues --    1.16518   1.23701   1.24904   1.26702   1.30745
 Alpha virt. eigenvalues --    1.35746   1.39840   1.47021   1.50176   1.55318
 Alpha virt. eigenvalues --    1.56082   1.60411   1.64319   1.73695   1.77106
 Alpha virt. eigenvalues --    1.89005   1.89726   1.92105   1.97349   2.00088
 Alpha virt. eigenvalues --    2.05998   2.13892   2.16889   2.19836   2.21925
 Alpha virt. eigenvalues --    2.32117   2.37475   2.48542   2.52691   2.61856
 Alpha virt. eigenvalues --    2.65300   2.72687   2.78457   2.79864   2.83369
 Alpha virt. eigenvalues --    2.85611   2.86949   3.29871   3.63730   3.86376
 Alpha virt. eigenvalues --    4.97636   4.98418   5.01207   5.02197   5.04284
 Alpha virt. eigenvalues --    5.05515   5.14506   5.21438   5.23276   5.26715
 Alpha virt. eigenvalues --    5.38275   5.44377   5.45850   6.15645   6.18891
 Alpha virt. eigenvalues --    6.22854   6.23944   6.41650   6.42656   6.52539
 Alpha virt. eigenvalues --    6.56452   6.59370   6.74406   7.00728   7.22150
 Alpha virt. eigenvalues --    7.43801   7.74941  15.57546  43.02811  43.09398
          Condensed to atoms (all electrons):
               1          2          3          4          5          6
     1  P   12.625913   0.363438   0.714498   0.366849   0.355693  -0.018080
     2  O    0.363438   7.920322  -0.067990  -0.022305  -0.028058   0.318601
     3  O    0.714498  -0.067990   7.960782  -0.040457  -0.034816   0.002274
     4  H    0.366849  -0.022305  -0.040457   0.686712  -0.057949   0.003301
     5  H    0.355693  -0.028058  -0.034816  -0.057949   0.699861  -0.002205
     6  H   -0.018080   0.318601   0.002274   0.003301  -0.002205   0.400820
 Mulliken charges:
               1
     1  P    0.591689
     2  O   -0.484008
     3  O   -0.534292
     4  H    0.063849
     5  H    0.067474
     6  H    0.295288
 Sum of Mulliken charges =  -0.00000
 Mulliken charges with hydrogens summed into heavy atoms:
               1
     1  P    0.723012
     2  O   -0.188720
     3  O   -0.534292
 Electronic spatial extent (au):  <R**2>=            209.4597
 Charge=             -0.0000 electrons
 Dipole moment (field-independent basis, Debye):
    X=              2.4675    Y=              3.4530    Z=              1.6017  Tot=              4.5362
 Quadrupole moment (field-independent basis, Debye-Ang):
   XX=            -27.1555   YY=            -23.6641   ZZ=            -22.5840
   XY=             -3.8355   XZ=              2.8671   YZ=             -0.8928
 Traceless Quadrupole moment (field-independent basis, Debye-Ang):
   XX=             -2.6876   YY=              0.8037   ZZ=              1.8839
   XY=             -3.8355   XZ=              2.8671   YZ=             -0.8928
 Octapole moment (field-independent basis, Debye-Ang**2):
  XXX=             12.6180  YYY=              2.0185  ZZZ=              1.3381  XYY=              2.6940
  XXY=              0.1301  XXZ=              5.5507  XZZ=              2.0254  YZZ=              0.4554
  YYZ=              0.9847  XYZ=             -1.7687
 Hexadecapole moment (field-independent basis, Debye-Ang**3):
 XXXX=           -144.8209 YYYY=            -67.7038 ZZZZ=            -33.9066 XXXY=            -12.4931
 XXXZ=             11.1261 YYYX=             -3.7909 YYYZ=             -0.6054 ZZZX=              2.3890
 ZZZY=             -0.7185 XXYY=            -35.6411 XXZZ=            -29.3292 YYZZ=            -16.2788
 XXYZ=             -3.1774 YYXZ=              1.6415 ZZXY=             -1.6744
 N-N= 1.219638724898D+02 E-N=-1.416793415095D+03  KE= 4.930141899654D+02
 1\1\GINC-NODE85\SP\ROLYP\def2TZVP\H3O2P1\YANZ\22-Sep-2023\0\\# scrf=(c
 pcm,solvent=water) def2tzvp olyp\\tmpdir/M2_ref_4.gjf\\0,1\P,0,-0.1556
 15,-0.221822,0.436475\O,0,-0.232392,-1.161409,1.883293\O,0,-1.301306,0
 .717898,0.462292\H,0,-0.22438135,-1.21880177,-0.48445333\H,0,1.0708885
 5,0.21825747,0.38838369\H,0,0.13548037,-0.95922488,2.63658259\\Version
 =ES64L-G16RevA.03\State=1-A\HF=-493.6681992\RMSD=9.224e-09\Dipole=1.69
 78367,-0.549916,0.0008786\Quadrupole=-0.5649888,-2.9241019,3.4890906,2
 .0138235,0.1096121,1.2971671\PG=C01 [X(H3O2P1)]\\@


 POCKETA-POCKETA
 BARON VON RICHTOFEN
 SLAUGHTERED THE ALLIES WITH
 HARDLY A CARE.
 KILLED EIGHTY-ONE WITH HIS
 BLOOD-COLORED TRIPLANE, THEN
 UN-AEROBATICALLY
 PLUNGED FROM THE AIR.
   -- TONY HOFFMAN
 Job cpu time:       0 days  0 hours  0 minutes 40.6 seconds.
 Elapsed time:       0 days  0 hours  0 minutes 10.9 seconds.
 File lengths (MBytes):  RWF=     17 Int=      0 D2E=      0 Chk=      2 Scr=      1
 Normal termination of Gaussian 16 at Fri Sep 22 16:51:53 2023.
