 Entering Gaussian System, Link 0=g16
 Initial command:
 /share/apps/gaussian/g16/l1.exe "/tmp/55608.mgr/Gau-86648.inp" -scrdir="/tmp/55608.mgr/"
 Entering Link 1 = /share/apps/gaussian/g16/l1.exe PID=     86649.
  
 Copyright (c) 1988,1990,1992,1993,1995,1998,2003,2009,2016,
            Gaussian, Inc.  All Rights Reserved.
  
 This is part of the Gaussian(R) 16 program.  It is based on
 the Gaussian(R) 09 system (copyright 2009, Gaussian, Inc.),
 the Gaussian(R) 03 system (copyright 2003, Gaussian, Inc.),
 the Gaussian(R) 98 system (copyright 1998, Gaussian, Inc.),
 the Gaussian(R) 94 system (copyright 1995, Gaussian, Inc.),
 the Gaussian 92(TM) system (copyright 1992, Gaussian, Inc.),
 the Gaussian 90(TM) system (copyright 1990, Gaussian, Inc.),
 the Gaussian 88(TM) system (copyright 1988, Gaussian, Inc.),
 the Gaussian 86(TM) system (copyright 1986, Carnegie Mellon
 University), and the Gaussian 82(TM) system (copyright 1983,
 Carnegie Mellon University). Gaussian is a federally registered
 trademark of Gaussian, Inc.
  
 This software contains proprietary and confidential information,
 including trade secrets, belonging to Gaussian, Inc.
  
 This software is provided under written license and may be
 used, copied, transmitted, or stored only in accord with that
 written license.
  
 The following legend is applicable only to US Government
 contracts under FAR:
  
                    RESTRICTED RIGHTS LEGEND
  
 Use, reproduction and disclosure by the US Government is
 subject to restrictions as set forth in subparagraphs (a)
 and (c) of the Commercial Computer Software - Restricted
 Rights clause in FAR 52.227-19.
  
 Gaussian, Inc.
 340 Quinnipiac St., Bldg. 40, Wallingford CT 06492
  
  
 ---------------------------------------------------------------
 Warning -- This program may not be used in any manner that
 competes with the business of Gaussian, Inc. or will provide
 assistance to any competitor of Gaussian, Inc.  The licensee
 of this program is prohibited from giving any competitor of
 Gaussian, Inc. access to this program.  By using this program,
 the user acknowledges that Gaussian, Inc. is engaged in the
 business of creating and licensing software in the field of
 computational chemistry and represents and warrants to the
 licensee that it is not a competitor of Gaussian, Inc. and that
 it will not use this program in any manner prohibited above.
 ---------------------------------------------------------------
  

 Cite this work as:
 Gaussian 16, Revision A.03,
 M. J. Frisch, G. W. Trucks, H. B. Schlegel, G. E. Scuseria, 
 M. A. Robb, J. R. Cheeseman, G. Scalmani, V. Barone, 
 G. A. Petersson, H. Nakatsuji, X. Li, M. Caricato, A. V. Marenich, 
 J. Bloino, B. G. Janesko, R. Gomperts, B. Mennucci, H. P. Hratchian, 
 J. V. Ortiz, A. F. Izmaylov, J. L. Sonnenberg, D. Williams-Young, 
 F. Ding, F. Lipparini, F. Egidi, J. Goings, B. Peng, A. Petrone, 
 T. Henderson, D. Ranasinghe, V. G. Zakrzewski, J. Gao, N. Rega, 
 G. Zheng, W. Liang, M. Hada, M. Ehara, K. Toyota, R. Fukuda, 
 J. Hasegawa, M. Ishida, T. Nakajima, Y. Honda, O. Kitao, H. Nakai, 
 T. Vreven, K. Throssell, J. A. Montgomery, Jr., J. E. Peralta, 
 F. Ogliaro, M. J. Bearpark, J. J. Heyd, E. N. Brothers, K. N. Kudin, 
 V. N. Staroverov, T. A. Keith, R. Kobayashi, J. Normand, 
 K. Raghavachari, A. P. Rendell, J. C. Burant, S. S. Iyengar, 
 J. Tomasi, M. Cossi, J. M. Millam, M. Klene, C. Adamo, R. Cammi, 
 J. W. Ochterski, R. L. Martin, K. Morokuma, O. Farkas, 
 J. B. Foresman, and D. J. Fox, Gaussian, Inc., Wallingford CT, 2016.
 
 ******************************************
 Gaussian 16:  ES64L-G16RevA.03 25-Dec-2016
                22-Sep-2023 
 ******************************************
 %nprocshared=4
 Will use up to    4 processors via shared memory.
 %mem=4GB
 -----------------------------------------
 # scrf=(cpcm,solvent=water) def2tzvp olyp
 -----------------------------------------
 1/38=1,172=1/1;
 2/12=2,17=6,18=5,40=1/2;
 3/5=44,7=101,11=2,25=1,30=1,70=2101,72=1,74=2002/1,2,3;
 4//1;
 5/5=2,38=5,53=1/2;
 6/7=2,8=2,9=2,10=2,28=1/1;
 99/5=1,9=1/99;
 --------------------
 tmpdir/M2_ref_33.gjf
 --------------------
 Symbolic Z-matrix:
 Charge =  0 Multiplicity = 1
 O                     1.57267  -1.93445   3.47379 
 P                     3.17836  -1.70913   3.46554 
 O                     3.6254   -1.29028   4.90324 
 H                     0.94593  -1.30631   3.35069 
 O                     3.56554  -0.65644   2.47366 
 H                     3.68797  -2.93278   3.27695 
 H                     3.47039  -1.94227   5.60713 
 
                          Input orientation:                          
 ---------------------------------------------------------------------
 Center     Atomic      Atomic             Coordinates (Angstroms)
 Number     Number       Type             X           Y           Z
 ---------------------------------------------------------------------
      1          8           0        1.572668   -1.934448    3.473787
      2         15           0        3.178357   -1.709130    3.465540
      3          8           0        3.625404   -1.290275    4.903236
      4          1           0        0.945927   -1.306309    3.350692
      5          8           0        3.565538   -0.656436    2.473662
      6          1           0        3.687966   -2.932777    3.276953
      7          1           0        3.470387   -1.942269    5.607129
 ---------------------------------------------------------------------
                    Distance matrix (angstroms):
                    1          2          3          4          5
     1  O    0.000000
     2  P    1.621442   0.000000
     3  O    2.583023   1.562773   0.000000
     4  H    0.895832   2.271387   3.096812   0.000000
     5  O    2.570038   1.497296   2.511606   2.837935   0.000000
     6  H    2.347316   1.338872   2.312255   3.188983   2.417022
     7  H    2.855266   2.173945   0.971901   3.445120   3.388368
                    6          7
     6  H    0.000000
     7  H    2.541292   0.000000
 Stoichiometry    H3O3P
 Framework group  C1[X(H3O3P)]
 Deg. of freedom    15
 Full point group                 C1      NOp   1
 Largest Abelian subgroup         C1      NOp   1
 Largest concise Abelian subgroup C1      NOp   1
                         Standard orientation:                         
 ---------------------------------------------------------------------
 Center     Atomic      Atomic             Coordinates (Angstroms)
 Number     Number       Type             X           Y           Z
 ---------------------------------------------------------------------
      1          8           0        1.208784   -0.874964   -0.096768
      2         15           0       -0.027481    0.100389    0.289762
      3          8           0       -1.340632   -0.511014   -0.296822
      4          1           0        1.685995   -0.855379   -0.854661
      5          8           0        0.190240    1.479586   -0.250895
      6          1           0       -0.143718   -0.015657    1.618521
      7          1           0       -1.597192   -1.383668    0.045586
 ---------------------------------------------------------------------
 Rotational constants (GHZ):           8.0630236           7.5581160           4.4884734
 Standard basis: def2TZVP (5D, 7F)
 There are   168 symmetry adapted cartesian basis functions of A   symmetry.
 There are   148 symmetry adapted basis functions of A   symmetry.
   148 basis functions,   246 primitive gaussians,   168 cartesian basis functions
    21 alpha electrons       21 beta electrons
       nuclear repulsion energy       195.6418649804 Hartrees.
 NAtoms=    7 NActive=    7 NUniq=    7 SFac= 1.00D+00 NAtFMM=   60 NAOKFM=F Big=F
 Integral buffers will be    131072 words long.
 Raffenetti 2 integral format.
 Two-electron integral symmetry is turned on.
 ------------------------------------------------------------------------------
 Polarizable Continuum Model (PCM)
 =================================
 Model                : C-PCM.
 Atomic radii         : UFF (Universal Force Field).
 Polarization charges : Total charges.
 Charge compensation  : None.
 Solution method      : On-the-fly selection.
 Cavity type          : Scaled VdW (van der Waals Surface) (Alpha=1.100).
 Cavity algorithm     : GePol (No added spheres)
                        Default sphere list used, NSphG=    7.
                        Lebedev-Laikov grids with approx.  5.0 points / Ang**2.
                        Smoothing algorithm: York/Karplus (Gamma=1.0000).
                        Polarization charges: spherical gaussians, with
                                              point-specific exponents (IZeta= 3).
                        Self-potential: point-specific (ISelfS= 7).
                        Self-field    : sphere-specific E.n sum rule (ISelfD= 2).
 Solvent              : Water, Eps=  78.355300 Eps(inf)=   1.777849
 ------------------------------------------------------------------------------
 Spheres list:
 ISph  on   Nord     Re0    Alpha      Xe            Ye            Ze
    1   O      1    1.7500  1.100      1.208784     -0.874964     -0.096768
    2   P      2    2.0735  1.100     -0.027481      0.100389      0.289762
    3   O      3    1.7500  1.100     -1.340632     -0.511014     -0.296822
    4   H      4    1.4430  1.100      1.685995     -0.855379     -0.854661
    5   O      5    1.7500  1.100      0.190240      1.479586     -0.250895
    6   H      6    1.4430  1.100     -0.143718     -0.015657      1.618521
    7   H      7    1.4430  1.100     -1.597192     -1.383668      0.045586
 ------------------------------------------------------------------------------
 One-electron integrals computed using PRISM.
   1 Symmetry operations used in ECPInt.
 ECPInt:  NShTT=    1711 NPrTT=    5676 LenC2=    1698 LenP2D=    4719.
 LDataN:  DoStor=T MaxTD1= 6 Len=  172
 NBasis=   148 RedAO= T EigKep=  1.54D-03  NBF=   148
 NBsUse=   148 1.00D-06 EigRej= -1.00D+00 NBFU=   148
 ExpMin= 9.04D-02 ExpMax= 5.24D+04 ExpMxC= 1.79D+03 IAcc=3 IRadAn=         5 AccDes= 0.00D+00
 Harris functional with IExCor= 2002 and IRadAn=       5 diagonalized for initial guess.
 HarFok:  IExCor= 2002 AccDes= 0.00D+00 IRadAn=         5 IDoV= 1 UseB2=F ITyADJ=14
 ICtDFT=  3500011 ScaDFX=  1.000000  1.000000  1.000000  1.000000
 FoFCou: FMM=F IPFlag=           0 FMFlag=      100000 FMFlg1=           0
         NFxFlg=           0 DoJE=T BraDBF=F KetDBF=T FulRan=T
         wScrn=  0.000000 ICntrl=       500 IOpCl=  0 I1Cent=   200000004 NGrid=           0
         NMat0=    1 NMatS0=      1 NMatT0=    0 NMatD0=    1 NMtDS0=    0 NMtDT0=    0
 Petite list used in FoFCou.
 Keep J ints in memory in canonical form, NReq=64775784.
 Requested convergence on RMS density matrix=1.00D-08 within 128 cycles.
 Requested convergence on MAX density matrix=1.00D-06.
 Requested convergence on             energy=1.00D-06.
 No special actions if energy rises.
 Inv3:  Mode=1 IEnd=     2218800.
 Iteration    1 A*A^-1 deviation from unit magnitude is 3.33D-15 for    115.
 Iteration    1 A*A^-1 deviation from orthogonality  is 1.63D-15 for    350    147.
 Iteration    1 A^-1*A deviation from unit magnitude is 3.33D-15 for    858.
 Iteration    1 A^-1*A deviation from orthogonality  is 1.56D-15 for    814    466.
 Error on total polarization charges =  0.00742
 SCF Done:  E(RO-LYP) =  -568.973989268     A.U. after   11 cycles
            NFock= 11  Conv=0.10D-07     -V/T= 2.0017

 **********************************************************************

            Population analysis using the SCF density.

 **********************************************************************

 Orbital symmetries:
       Occupied  (A) (A) (A) (A) (A) (A) (A) (A) (A) (A) (A) (A)
                 (A) (A) (A) (A) (A) (A) (A) (A) (A)
       Virtual   (A) (A) (A) (A) (A) (A) (A) (A) (A) (A) (A) (A)
                 (A) (A) (A) (A) (A) (A) (A) (A) (A) (A) (A) (A)
                 (A) (A) (A) (A) (A) (A) (A) (A) (A) (A) (A) (A)
                 (A) (A) (A) (A) (A) (A) (A) (A) (A) (A) (A) (A)
                 (A) (A) (A) (A) (A) (A) (A) (A) (A) (A) (A) (A)
                 (A) (A) (A) (A) (A) (A) (A) (A) (A) (A) (A) (A)
                 (A) (A) (A) (A) (A) (A) (A) (A) (A) (A) (A) (A)
                 (A) (A) (A) (A) (A) (A) (A) (A) (A) (A) (A) (A)
                 (A) (A) (A) (A) (A) (A) (A) (A) (A) (A) (A) (A)
                 (A) (A) (A) (A) (A) (A) (A) (A) (A) (A) (A) (A)
                 (A) (A) (A) (A) (A) (A) (A)
 The electronic state is 1-A.
 Alpha  occ. eigenvalues --  -76.39742 -18.80711 -18.78658 -18.72188  -6.42273
 Alpha  occ. eigenvalues --   -4.63388  -4.63183  -4.62921  -1.00403  -0.96302
 Alpha  occ. eigenvalues --   -0.87639  -0.60769  -0.53601  -0.46388  -0.38394
 Alpha  occ. eigenvalues --   -0.38105  -0.32572  -0.32053  -0.30468  -0.25725
 Alpha  occ. eigenvalues --   -0.24863
 Alpha virt. eigenvalues --    0.00227   0.01381   0.03752   0.05549   0.07141
 Alpha virt. eigenvalues --    0.12802   0.19219   0.21095   0.22362   0.25569
 Alpha virt. eigenvalues --    0.28542   0.32883   0.36286   0.36419   0.39115
 Alpha virt. eigenvalues --    0.41313   0.42075   0.46926   0.47656   0.49980
 Alpha virt. eigenvalues --    0.51376   0.53548   0.55974   0.58558   0.62606
 Alpha virt. eigenvalues --    0.66240   0.69164   0.71385   0.77130   0.79987
 Alpha virt. eigenvalues --    1.04926   1.07164   1.09938   1.12881   1.14111
 Alpha virt. eigenvalues --    1.15247   1.22038   1.24817   1.31601   1.33293
 Alpha virt. eigenvalues --    1.36425   1.38436   1.39645   1.47292   1.50583
 Alpha virt. eigenvalues --    1.54600   1.57016   1.62052   1.69336   1.75086
 Alpha virt. eigenvalues --    1.77468   1.80309   1.83943   1.84963   1.87058
 Alpha virt. eigenvalues --    1.95293   1.98635   2.01899   2.04182   2.11822
 Alpha virt. eigenvalues --    2.14476   2.16970   2.18379   2.22393   2.27579
 Alpha virt. eigenvalues --    2.29970   2.37830   2.41652   2.51954   2.61598
 Alpha virt. eigenvalues --    2.66915   2.67905   2.73346   2.73413   2.77636
 Alpha virt. eigenvalues --    2.80976   2.82274   2.86851   2.92859   3.24579
 Alpha virt. eigenvalues --    3.47283   3.65648   3.76032   3.85189   4.93596
 Alpha virt. eigenvalues --    4.96212   4.97671   4.99211   5.00440   5.02424
 Alpha virt. eigenvalues --    5.04886   5.06172   5.10994   5.12340   5.21199
 Alpha virt. eigenvalues --    5.22926   5.25468   5.26722   5.27612   5.34428
 Alpha virt. eigenvalues --    5.40398   5.45893   5.48891   6.00490   6.15373
 Alpha virt. eigenvalues --    6.16647   6.19491   6.23754   6.29869   6.39653
 Alpha virt. eigenvalues --    6.41124   6.43601   6.50313   6.56086   6.59278
 Alpha virt. eigenvalues --    6.60824   6.64800   6.73761   6.88563   6.94116
 Alpha virt. eigenvalues --    7.37439   7.78658   7.89676  16.28710  43.08721
 Alpha virt. eigenvalues --   43.11098  43.21322
          Condensed to atoms (all electrons):
               1          2          3          4          5          6
     1  O    7.864545   0.413749  -0.050096   0.313677  -0.067261  -0.028408
     2  P    0.413749  12.387504   0.406747  -0.017175   0.748209   0.367351
     3  O   -0.050096   0.406747   7.862514   0.000921  -0.055507  -0.045151
     4  H    0.313677  -0.017175   0.000921   0.373942   0.001573   0.004116
     5  O   -0.067261   0.748209  -0.055507   0.001573   7.984415  -0.040477
     6  H   -0.028408   0.367351  -0.045151   0.004116  -0.040477   0.695876
     7  H   -0.000126  -0.003024   0.277804   0.000028   0.003132   0.000158
               7
     1  O   -0.000126
     2  P   -0.003024
     3  O    0.277804
     4  H    0.000028
     5  O    0.003132
     6  H    0.000158
     7  H    0.370723
 Mulliken charges:
               1
     1  O   -0.446080
     2  P    0.696640
     3  O   -0.397233
     4  H    0.322917
     5  O   -0.574085
     6  H    0.046536
     7  H    0.351305
 Sum of Mulliken charges =  -0.00000
 Mulliken charges with hydrogens summed into heavy atoms:
               1
     1  O   -0.123163
     2  P    0.743175
     3  O   -0.045928
     5  O   -0.574085
 Electronic spatial extent (au):  <R**2>=            301.1142
 Charge=             -0.0000 electrons
 Dipole moment (field-independent basis, Debye):
    X=             -0.5334    Y=             -5.1448    Z=              1.3631  Tot=              5.3489
 Quadrupole moment (field-independent basis, Debye-Ang):
   XX=            -26.7131   YY=            -33.4008   ZZ=            -26.9122
   XY=              2.0712   XZ=             -4.1664   YZ=              1.9688
 Traceless Quadrupole moment (field-independent basis, Debye-Ang):
   XX=              2.2956   YY=             -4.3921   ZZ=              2.0965
   XY=              2.0712   XZ=             -4.1664   YZ=              1.9688
 Octapole moment (field-independent basis, Debye-Ang**2):
  XXX=              2.6716  YYY=            -18.8752  ZZZ=             -0.2781  XYY=             -7.7496
  XXY=             -8.4629  XXZ=             -3.9176  XZZ=              3.0168  YZZ=             -2.8310
  YYZ=              0.6804  XYZ=              3.6918
 Hexadecapole moment (field-independent basis, Debye-Ang**3):
 XXXX=           -136.1322 YYYY=           -158.6550 ZZZZ=            -48.7018 XXXY=              5.4951
 XXXZ=            -13.9010 YYYX=              9.2683 YYYZ=              3.5966 ZZZX=             -4.9151
 ZZZY=              2.7640 XXYY=            -39.6218 XXZZ=            -29.6568 YYZZ=            -33.1744
 XXYZ=              4.4362 YYXZ=             -3.5094 ZZXY=             -2.6173
 N-N= 1.956418649804D+02 E-N=-1.742199078724D+03  KE= 5.679860923279D+02
 1\1\GINC-NODE85\SP\ROLYP\def2TZVP\H3O3P1\YANZ\22-Sep-2023\0\\# scrf=(c
 pcm,solvent=water) def2tzvp olyp\\tmpdir/M2_ref_33.gjf\\0,1\O,0,1.5726
 68,-1.934448,3.473787\P,0,3.178357,-1.70913,3.46554\O,0,3.625404,-1.29
 0275,4.903236\H,0,0.94592704,-1.30630857,3.35069213\O,0,3.565538,-0.65
 6436,2.473662\H,0,3.68796593,-2.93277725,3.27695348\H,0,3.470387,-1.94
 2269,5.607129\\Version=ES64L-G16RevA.03\State=1-A\HF=-568.9739893\RMSD
 =9.972e-09\Dipole=-0.7449763,-1.3283302,1.4523065\Quadrupole=1.2445415
 ,-1.29976,0.0552186,-4.1594749,1.7822132,0.1172161\PG=C01 [X(H3O3P1)]\
 \@


 ALL THINGS ARE POSSIBLE EXCEPT SKIING THROUGH A REVOLVING DOOR.
 Job cpu time:       0 days  0 hours  1 minutes  4.1 seconds.
 Elapsed time:       0 days  0 hours  0 minutes 17.7 seconds.
 File lengths (MBytes):  RWF=     17 Int=      0 D2E=      0 Chk=      3 Scr=      1
 Normal termination of Gaussian 16 at Fri Sep 22 16:52:47 2023.
