 Entering Gaussian System, Link 0=g16
 Initial command:
 /share/apps/gaussian/g16/l1.exe "/tmp/55608.mgr/Gau-86289.inp" -scrdir="/tmp/55608.mgr/"
 Entering Link 1 = /share/apps/gaussian/g16/l1.exe PID=     86290.
  
 Copyright (c) 1988,1990,1992,1993,1995,1998,2003,2009,2016,
            Gaussian, Inc.  All Rights Reserved.
  
 This is part of the Gaussian(R) 16 program.  It is based on
 the Gaussian(R) 09 system (copyright 2009, Gaussian, Inc.),
 the Gaussian(R) 03 system (copyright 2003, Gaussian, Inc.),
 the Gaussian(R) 98 system (copyright 1998, Gaussian, Inc.),
 the Gaussian(R) 94 system (copyright 1995, Gaussian, Inc.),
 the Gaussian 92(TM) system (copyright 1992, Gaussian, Inc.),
 the Gaussian 90(TM) system (copyright 1990, Gaussian, Inc.),
 the Gaussian 88(TM) system (copyright 1988, Gaussian, Inc.),
 the Gaussian 86(TM) system (copyright 1986, Carnegie Mellon
 University), and the Gaussian 82(TM) system (copyright 1983,
 Carnegie Mellon University). Gaussian is a federally registered
 trademark of Gaussian, Inc.
  
 This software contains proprietary and confidential information,
 including trade secrets, belonging to Gaussian, Inc.
  
 This software is provided under written license and may be
 used, copied, transmitted, or stored only in accord with that
 written license.
  
 The following legend is applicable only to US Government
 contracts under FAR:
  
                    RESTRICTED RIGHTS LEGEND
  
 Use, reproduction and disclosure by the US Government is
 subject to restrictions as set forth in subparagraphs (a)
 and (c) of the Commercial Computer Software - Restricted
 Rights clause in FAR 52.227-19.
  
 Gaussian, Inc.
 340 Quinnipiac St., Bldg. 40, Wallingford CT 06492
  
  
 ---------------------------------------------------------------
 Warning -- This program may not be used in any manner that
 competes with the business of Gaussian, Inc. or will provide
 assistance to any competitor of Gaussian, Inc.  The licensee
 of this program is prohibited from giving any competitor of
 Gaussian, Inc. access to this program.  By using this program,
 the user acknowledges that Gaussian, Inc. is engaged in the
 business of creating and licensing software in the field of
 computational chemistry and represents and warrants to the
 licensee that it is not a competitor of Gaussian, Inc. and that
 it will not use this program in any manner prohibited above.
 ---------------------------------------------------------------
  

 Cite this work as:
 Gaussian 16, Revision A.03,
 M. J. Frisch, G. W. Trucks, H. B. Schlegel, G. E. Scuseria, 
 M. A. Robb, J. R. Cheeseman, G. Scalmani, V. Barone, 
 G. A. Petersson, H. Nakatsuji, X. Li, M. Caricato, A. V. Marenich, 
 J. Bloino, B. G. Janesko, R. Gomperts, B. Mennucci, H. P. Hratchian, 
 J. V. Ortiz, A. F. Izmaylov, J. L. Sonnenberg, D. Williams-Young, 
 F. Ding, F. Lipparini, F. Egidi, J. Goings, B. Peng, A. Petrone, 
 T. Henderson, D. Ranasinghe, V. G. Zakrzewski, J. Gao, N. Rega, 
 G. Zheng, W. Liang, M. Hada, M. Ehara, K. Toyota, R. Fukuda, 
 J. Hasegawa, M. Ishida, T. Nakajima, Y. Honda, O. Kitao, H. Nakai, 
 T. Vreven, K. Throssell, J. A. Montgomery, Jr., J. E. Peralta, 
 F. Ogliaro, M. J. Bearpark, J. J. Heyd, E. N. Brothers, K. N. Kudin, 
 V. N. Staroverov, T. A. Keith, R. Kobayashi, J. Normand, 
 K. Raghavachari, A. P. Rendell, J. C. Burant, S. S. Iyengar, 
 J. Tomasi, M. Cossi, J. M. Millam, M. Klene, C. Adamo, R. Cammi, 
 J. W. Ochterski, R. L. Martin, K. Morokuma, O. Farkas, 
 J. B. Foresman, and D. J. Fox, Gaussian, Inc., Wallingford CT, 2016.
 
 ******************************************
 Gaussian 16:  ES64L-G16RevA.03 25-Dec-2016
                22-Sep-2023 
 ******************************************
 %nprocshared=4
 Will use up to    4 processors via shared memory.
 %mem=4GB
 -----------------------------------------
 # scrf=(cpcm,solvent=water) def2tzvp olyp
 -----------------------------------------
 1/38=1,172=1/1;
 2/12=2,17=6,18=5,40=1/2;
 3/5=44,7=101,11=2,25=1,30=1,70=2101,72=1,74=2002/1,2,3;
 4//1;
 5/5=2,38=5,53=1/2;
 6/7=2,8=2,9=2,10=2,28=1/1;
 99/5=1,9=1/99;
 --------------------
 tmpdir/M2_ref_14.gjf
 --------------------
 Symbolic Z-matrix:
 Charge =  0 Multiplicity = 1
 O                    -0.23239  -1.16141   1.88329 
 P                     0.43524  -0.79448   3.25039 
 H                    -0.19009  -0.64368   1.08608 
 H                     1.40941  -1.77082   3.44172 
 H                    -0.44218  -0.96024   4.24351 
 O                     1.05873   0.56785   3.29537 
 
                          Input orientation:                          
 ---------------------------------------------------------------------
 Center     Atomic      Atomic             Coordinates (Angstroms)
 Number     Number       Type             X           Y           Z
 ---------------------------------------------------------------------
      1          8           0       -0.232392   -1.161409    1.883293
      2         15           0        0.435236   -0.794478    3.250390
      3          1           0       -0.190087   -0.643683    1.086076
      4          1           0        1.409406   -1.770821    3.441721
      5          1           0       -0.442177   -0.960245    4.243509
      6          8           0        1.058734    0.567850    3.295369
 ---------------------------------------------------------------------
                    Distance matrix (angstroms):
                    1          2          3          4          5
     1  O    0.000000
     2  P    1.565030   0.000000
     3  H    0.951517   2.257880   0.000000
     4  H    2.344266   1.392430   3.062333   0.000000
     5  H    2.378044   1.335521   3.183260   2.174455   0.000000
     6  O    2.579012   1.498903   2.812177   2.369340   2.342387
                    6
     6  O    0.000000
 Stoichiometry    H3O2P
 Framework group  C1[X(H3O2P)]
 Deg. of freedom    12
 Full point group                 C1      NOp   1
 Largest Abelian subgroup         C1      NOp   1
 Largest concise Abelian subgroup C1      NOp   1
                         Standard orientation:                         
 ---------------------------------------------------------------------
 Center     Atomic      Atomic             Coordinates (Angstroms)
 Number     Number       Type             X           Y           Z
 ---------------------------------------------------------------------
      1          8           0       -1.308197   -0.287013   -0.017570
      2         15           0        0.105889    0.383438   -0.004323
      3          1           0       -1.483892   -1.218245    0.067998
      4          1           0        0.123437    1.149315    1.158426
      5          1           0        0.205280    1.254315   -1.011950
      6          8           0        1.254053   -0.580107   -0.001134
 ---------------------------------------------------------------------
 Rotational constants (GHZ):          28.1773674           8.7682619           7.1395223
 Standard basis: def2TZVP (5D, 7F)
 There are   132 symmetry adapted cartesian basis functions of A   symmetry.
 There are   117 symmetry adapted basis functions of A   symmetry.
   117 basis functions,   195 primitive gaussians,   132 cartesian basis functions
    17 alpha electrons       17 beta electrons
       nuclear repulsion energy       124.9488175167 Hartrees.
 NAtoms=    6 NActive=    6 NUniq=    6 SFac= 1.00D+00 NAtFMM=   60 NAOKFM=F Big=F
 Integral buffers will be    131072 words long.
 Raffenetti 2 integral format.
 Two-electron integral symmetry is turned on.
 ------------------------------------------------------------------------------
 Polarizable Continuum Model (PCM)
 =================================
 Model                : C-PCM.
 Atomic radii         : UFF (Universal Force Field).
 Polarization charges : Total charges.
 Charge compensation  : None.
 Solution method      : On-the-fly selection.
 Cavity type          : Scaled VdW (van der Waals Surface) (Alpha=1.100).
 Cavity algorithm     : GePol (No added spheres)
                        Default sphere list used, NSphG=    6.
                        Lebedev-Laikov grids with approx.  5.0 points / Ang**2.
                        Smoothing algorithm: York/Karplus (Gamma=1.0000).
                        Polarization charges: spherical gaussians, with
                                              point-specific exponents (IZeta= 3).
                        Self-potential: point-specific (ISelfS= 7).
                        Self-field    : sphere-specific E.n sum rule (ISelfD= 2).
 Solvent              : Water, Eps=  78.355300 Eps(inf)=   1.777849
 ------------------------------------------------------------------------------
 Spheres list:
 ISph  on   Nord     Re0    Alpha      Xe            Ye            Ze
    1   O      1    1.7500  1.100     -1.308197     -0.287013     -0.017570
    2   P      2    2.0735  1.100      0.105889      0.383438     -0.004323
    3   H      3    1.4430  1.100     -1.483892     -1.218245      0.067998
    4   H      4    1.4430  1.100      0.123437      1.149315      1.158426
    5   H      5    1.4430  1.100      0.205280      1.254315     -1.011950
    6   O      6    1.7500  1.100      1.254053     -0.580107     -0.001134
 ------------------------------------------------------------------------------
 One-electron integrals computed using PRISM.
   1 Symmetry operations used in ECPInt.
 ECPInt:  NShTT=    1128 NPrTT=    3744 LenC2=    1123 LenP2D=    3218.
 LDataN:  DoStor=T MaxTD1= 6 Len=  172
 NBasis=   117 RedAO= T EigKep=  1.94D-03  NBF=   117
 NBsUse=   117 1.00D-06 EigRej= -1.00D+00 NBFU=   117
 ExpMin= 9.04D-02 ExpMax= 5.24D+04 ExpMxC= 1.79D+03 IAcc=3 IRadAn=         5 AccDes= 0.00D+00
 Harris functional with IExCor= 2002 and IRadAn=       5 diagonalized for initial guess.
 HarFok:  IExCor= 2002 AccDes= 0.00D+00 IRadAn=         5 IDoV= 1 UseB2=F ITyADJ=14
 ICtDFT=  3500011 ScaDFX=  1.000000  1.000000  1.000000  1.000000
 FoFCou: FMM=F IPFlag=           0 FMFlag=      100000 FMFlg1=           0
         NFxFlg=           0 DoJE=T BraDBF=F KetDBF=T FulRan=T
         wScrn=  0.000000 ICntrl=       500 IOpCl=  0 I1Cent=   200000004 NGrid=           0
         NMat0=    1 NMatS0=      1 NMatT0=    0 NMatD0=    1 NMtDS0=    0 NMtDT0=    0
 Petite list used in FoFCou.
 Keep J ints in memory in canonical form, NReq=27663592.
 Requested convergence on RMS density matrix=1.00D-08 within 128 cycles.
 Requested convergence on MAX density matrix=1.00D-06.
 Requested convergence on             energy=1.00D-06.
 No special actions if energy rises.
 Inv3:  Mode=1 IEnd=     1719147.
 Iteration    1 A*A^-1 deviation from unit magnitude is 3.33D-15 for    745.
 Iteration    1 A*A^-1 deviation from orthogonality  is 2.42D-15 for    346     72.
 Iteration    1 A^-1*A deviation from unit magnitude is 3.33D-15 for    745.
 Iteration    1 A^-1*A deviation from orthogonality  is 1.29D-15 for    735    151.
 Error on total polarization charges =  0.00823
 SCF Done:  E(RO-LYP) =  -493.689935516     A.U. after   11 cycles
            NFock= 11  Conv=0.86D-08     -V/T= 2.0016

 **********************************************************************

            Population analysis using the SCF density.

 **********************************************************************

 Orbital symmetries:
       Occupied  (A) (A) (A) (A) (A) (A) (A) (A) (A) (A) (A) (A)
                 (A) (A) (A) (A) (A)
       Virtual   (A) (A) (A) (A) (A) (A) (A) (A) (A) (A) (A) (A)
                 (A) (A) (A) (A) (A) (A) (A) (A) (A) (A) (A) (A)
                 (A) (A) (A) (A) (A) (A) (A) (A) (A) (A) (A) (A)
                 (A) (A) (A) (A) (A) (A) (A) (A) (A) (A) (A) (A)
                 (A) (A) (A) (A) (A) (A) (A) (A) (A) (A) (A) (A)
                 (A) (A) (A) (A) (A) (A) (A) (A) (A) (A) (A) (A)
                 (A) (A) (A) (A) (A) (A) (A) (A) (A) (A) (A) (A)
                 (A) (A) (A) (A) (A) (A) (A) (A) (A) (A) (A) (A)
                 (A) (A) (A) (A)
 The electronic state is 1-A.
 Alpha  occ. eigenvalues --  -76.37022 -18.80071 -18.71567  -6.40093  -4.61151
 Alpha  occ. eigenvalues --   -4.60854  -4.60821  -0.98709  -0.87442  -0.61014
 Alpha  occ. eigenvalues --   -0.47868  -0.41957  -0.38834  -0.32122  -0.30497
 Alpha  occ. eigenvalues --   -0.25194  -0.23787
 Alpha virt. eigenvalues --   -0.01055   0.01001   0.03723   0.05340   0.08443
 Alpha virt. eigenvalues --    0.16750   0.20482   0.22766   0.24569   0.28077
 Alpha virt. eigenvalues --    0.30854   0.31846   0.36466   0.40047   0.43080
 Alpha virt. eigenvalues --    0.44420   0.45219   0.51036   0.52747   0.57889
 Alpha virt. eigenvalues --    0.60335   0.63742   0.65269   0.74530   0.77572
 Alpha virt. eigenvalues --    1.03223   1.05841   1.08642   1.12761   1.14377
 Alpha virt. eigenvalues --    1.18692   1.23154   1.25250   1.28983   1.32402
 Alpha virt. eigenvalues --    1.34924   1.38757   1.47691   1.52357   1.56609
 Alpha virt. eigenvalues --    1.59102   1.59315   1.71911   1.77120   1.80285
 Alpha virt. eigenvalues --    1.82194   1.89443   1.96095   1.99405   2.06091
 Alpha virt. eigenvalues --    2.06576   2.11726   2.12119   2.16759   2.19725
 Alpha virt. eigenvalues --    2.26803   2.41912   2.47555   2.50618   2.60668
 Alpha virt. eigenvalues --    2.64644   2.66101   2.76895   2.77499   2.84252
 Alpha virt. eigenvalues --    2.85856   2.87063   3.33638   3.66415   3.76200
 Alpha virt. eigenvalues --    4.95610   4.96737   5.02968   5.04638   5.09901
 Alpha virt. eigenvalues --    5.12106   5.14591   5.15592   5.23188   5.26916
 Alpha virt. eigenvalues --    5.33211   5.35941   5.45428   6.10882   6.15049
 Alpha virt. eigenvalues --    6.19478   6.25491   6.35550   6.43660   6.52694
 Alpha virt. eigenvalues --    6.60082   6.62475   6.73600   6.87470   7.19894
 Alpha virt. eigenvalues --    7.49369   7.91155  15.92564  43.11157  43.13797
          Condensed to atoms (all electrons):
               1          2          3          4          5          6
     1  O    7.838480   0.428847   0.299687  -0.033882  -0.026555  -0.066776
     2  P    0.428847  12.550689  -0.015698   0.363197   0.359102   0.717395
     3  H    0.299687  -0.015698   0.352940   0.003098   0.002502   0.002128
     4  H   -0.033882   0.363197   0.003098   0.746365  -0.065652  -0.042641
     5  H   -0.026555   0.359102   0.002502  -0.065652   0.715769  -0.039968
     6  O   -0.066776   0.717395   0.002128  -0.042641  -0.039968   8.026186
 Mulliken charges:
               1
     1  O   -0.439801
     2  P    0.596467
     3  H    0.355343
     4  H    0.029513
     5  H    0.054801
     6  O   -0.596324
 Sum of Mulliken charges =  -0.00000
 Mulliken charges with hydrogens summed into heavy atoms:
               1
     1  O   -0.084458
     2  P    0.680782
     6  O   -0.596324
 Electronic spatial extent (au):  <R**2>=            201.5423
 Charge=             -0.0000 electrons
 Dipole moment (field-independent basis, Debye):
    X=             -3.4303    Y=              1.3327    Z=             -0.0027  Tot=              3.6801
 Quadrupole moment (field-independent basis, Debye-Ang):
   XX=            -29.1104   YY=            -21.1695   ZZ=            -23.8315
   XY=              5.6205   XZ=             -0.3243   YZ=             -0.4882
 Traceless Quadrupole moment (field-independent basis, Debye-Ang):
   XX=             -4.4066   YY=              3.5343   ZZ=              0.8723
   XY=              5.6205   XZ=             -0.3243   YZ=             -0.4882
 Octapole moment (field-independent basis, Debye-Ang**2):
  XXX=            -10.3240  YYY=             -4.1289  ZZZ=             -0.3637  XYY=             -7.3165
  XXY=             -2.2015  XXZ=              0.3904  XZZ=             -0.9004  YZZ=              0.0521
  YYZ=             -0.1219  XYZ=              0.2879
 Hexadecapole moment (field-independent basis, Debye-Ang**3):
 XXXX=           -153.3230 YYYY=            -60.4221 ZZZZ=            -35.6512 XXXY=             14.3629
 XXXZ=             -0.7850 YYYX=             10.6775 YYYZ=             -1.2887 ZZZX=             -0.2032
 ZZZY=             -0.6488 XXYY=            -28.6624 XXZZ=            -31.2539 YYZZ=            -16.8291
 XXYZ=             -0.7840 YYXZ=             -0.5424 ZZXY=              1.3282
 N-N= 1.249488175167D+02 E-N=-1.422681533207D+03  KE= 4.929179575505D+02
 1\1\GINC-NODE85\SP\ROLYP\def2TZVP\H3O2P1\YANZ\22-Sep-2023\0\\# scrf=(c
 pcm,solvent=water) def2tzvp olyp\\tmpdir/M2_ref_14.gjf\\0,1\O,0,-0.232
 392,-1.161409,1.883293\P,0,0.435236,-0.794478,3.25039\H,0,-0.1900868,-
 0.64368341,1.08607603\H,0,1.40940556,-1.77082127,3.44172149\H,0,-0.442
 17711,-0.96024489,4.24350883\O,0,1.058734,0.56785,3.295369\\Version=ES
 64L-G16RevA.03\State=1-A\HF=-493.6899355\RMSD=8.605e-09\Dipole=-0.6950
 461,-1.1741772,-0.4842569\Quadrupole=-0.702367,-3.3660508,4.0684178,-2
 .5276893,-0.3313358,-2.4481941\PG=C01 [X(H3O2P1)]\\@


 WE DON'T KNOW ONE MILLIONTH OF ONE PERCENT ABOUT
 ANYTHING.
                                     T. A. EDISON.
 Job cpu time:       0 days  0 hours  0 minutes 41.3 seconds.
 Elapsed time:       0 days  0 hours  0 minutes 11.0 seconds.
 File lengths (MBytes):  RWF=     16 Int=      0 D2E=      0 Chk=      2 Scr=      1
 Normal termination of Gaussian 16 at Fri Sep 22 16:52:19 2023.
