 Entering Gaussian System, Link 0=g16
 Initial command:
 /share/apps/gaussian/g16/l1.exe "/tmp/55608.mgr/Gau-86005.inp" -scrdir="/tmp/55608.mgr/"
 Entering Link 1 = /share/apps/gaussian/g16/l1.exe PID=     86006.
  
 Copyright (c) 1988,1990,1992,1993,1995,1998,2003,2009,2016,
            Gaussian, Inc.  All Rights Reserved.
  
 This is part of the Gaussian(R) 16 program.  It is based on
 the Gaussian(R) 09 system (copyright 2009, Gaussian, Inc.),
 the Gaussian(R) 03 system (copyright 2003, Gaussian, Inc.),
 the Gaussian(R) 98 system (copyright 1998, Gaussian, Inc.),
 the Gaussian(R) 94 system (copyright 1995, Gaussian, Inc.),
 the Gaussian 92(TM) system (copyright 1992, Gaussian, Inc.),
 the Gaussian 90(TM) system (copyright 1990, Gaussian, Inc.),
 the Gaussian 88(TM) system (copyright 1988, Gaussian, Inc.),
 the Gaussian 86(TM) system (copyright 1986, Carnegie Mellon
 University), and the Gaussian 82(TM) system (copyright 1983,
 Carnegie Mellon University). Gaussian is a federally registered
 trademark of Gaussian, Inc.
  
 This software contains proprietary and confidential information,
 including trade secrets, belonging to Gaussian, Inc.
  
 This software is provided under written license and may be
 used, copied, transmitted, or stored only in accord with that
 written license.
  
 The following legend is applicable only to US Government
 contracts under FAR:
  
                    RESTRICTED RIGHTS LEGEND
  
 Use, reproduction and disclosure by the US Government is
 subject to restrictions as set forth in subparagraphs (a)
 and (c) of the Commercial Computer Software - Restricted
 Rights clause in FAR 52.227-19.
  
 Gaussian, Inc.
 340 Quinnipiac St., Bldg. 40, Wallingford CT 06492
  
  
 ---------------------------------------------------------------
 Warning -- This program may not be used in any manner that
 competes with the business of Gaussian, Inc. or will provide
 assistance to any competitor of Gaussian, Inc.  The licensee
 of this program is prohibited from giving any competitor of
 Gaussian, Inc. access to this program.  By using this program,
 the user acknowledges that Gaussian, Inc. is engaged in the
 business of creating and licensing software in the field of
 computational chemistry and represents and warrants to the
 licensee that it is not a competitor of Gaussian, Inc. and that
 it will not use this program in any manner prohibited above.
 ---------------------------------------------------------------
  

 Cite this work as:
 Gaussian 16, Revision A.03,
 M. J. Frisch, G. W. Trucks, H. B. Schlegel, G. E. Scuseria, 
 M. A. Robb, J. R. Cheeseman, G. Scalmani, V. Barone, 
 G. A. Petersson, H. Nakatsuji, X. Li, M. Caricato, A. V. Marenich, 
 J. Bloino, B. G. Janesko, R. Gomperts, B. Mennucci, H. P. Hratchian, 
 J. V. Ortiz, A. F. Izmaylov, J. L. Sonnenberg, D. Williams-Young, 
 F. Ding, F. Lipparini, F. Egidi, J. Goings, B. Peng, A. Petrone, 
 T. Henderson, D. Ranasinghe, V. G. Zakrzewski, J. Gao, N. Rega, 
 G. Zheng, W. Liang, M. Hada, M. Ehara, K. Toyota, R. Fukuda, 
 J. Hasegawa, M. Ishida, T. Nakajima, Y. Honda, O. Kitao, H. Nakai, 
 T. Vreven, K. Throssell, J. A. Montgomery, Jr., J. E. Peralta, 
 F. Ogliaro, M. J. Bearpark, J. J. Heyd, E. N. Brothers, K. N. Kudin, 
 V. N. Staroverov, T. A. Keith, R. Kobayashi, J. Normand, 
 K. Raghavachari, A. P. Rendell, J. C. Burant, S. S. Iyengar, 
 J. Tomasi, M. Cossi, J. M. Millam, M. Klene, C. Adamo, R. Cammi, 
 J. W. Ochterski, R. L. Martin, K. Morokuma, O. Farkas, 
 J. B. Foresman, and D. J. Fox, Gaussian, Inc., Wallingford CT, 2016.
 
 ******************************************
 Gaussian 16:  ES64L-G16RevA.03 25-Dec-2016
                22-Sep-2023 
 ******************************************
 %nprocshared=4
 Will use up to    4 processors via shared memory.
 %mem=4GB
 -----------------------------------------
 # scrf=(cpcm,solvent=water) def2tzvp olyp
 -----------------------------------------
 1/38=1,172=1/1;
 2/12=2,17=6,18=5,40=1/2;
 3/5=44,7=101,11=2,25=1,30=1,70=2101,72=1,74=2002/1,2,3;
 4//1;
 5/5=2,38=5,53=1/2;
 6/7=2,8=2,9=2,10=2,28=1/1;
 99/5=1,9=1/99;
 --------------------
 tmpdir/M2_ref_10.gjf
 --------------------
 Symbolic Z-matrix:
 Charge =  0 Multiplicity = 1
 O                     1.27644   0.29201   0.38032 
 P                    -0.15562  -0.22182   0.43648 
 O                    -0.23239  -1.16141   1.88329 
 H                     1.81519   0.54939   1.05645 
 O                    -1.30131   0.7179    0.46229 
 H                    -0.22438  -1.2188   -0.48445 
 H                     0.13548  -0.95922   2.63658 
 
                          Input orientation:                          
 ---------------------------------------------------------------------
 Center     Atomic      Atomic             Coordinates (Angstroms)
 Number     Number       Type             X           Y           Z
 ---------------------------------------------------------------------
      1          8           0        1.276440    0.292011    0.380324
      2         15           0       -0.155615   -0.221822    0.436475
      3          8           0       -0.232392   -1.161409    1.883293
      4          1           0        1.815186    0.549389    1.056448
      5          8           0       -1.301306    0.717898    0.462292
      6          1           0       -0.224381   -1.218802   -0.484453
      7          1           0        0.135480   -0.959225    2.636583
 ---------------------------------------------------------------------
                    Distance matrix (angstroms):
                    1          2          3          4          5
     1  O    0.000000
     2  P    1.522484   0.000000
     3  O    2.578356   1.726847   0.000000
     4  H    0.902017   2.205265   2.793399   0.000000
     5  O    2.613976   1.482008   2.587202   3.177096   0.000000
     6  H    2.298447   1.358973   2.368455   3.108169   2.409751
     7  H    2.821007   2.338584   0.862354   2.755749   3.099135
                    6          7
     6  H    0.000000
     7  H    3.152419   0.000000
 Stoichiometry    H3O3P
 Framework group  C1[X(H3O3P)]
 Deg. of freedom    15
 Full point group                 C1      NOp   1
 Largest Abelian subgroup         C1      NOp   1
 Largest concise Abelian subgroup C1      NOp   1
                         Standard orientation:                         
 ---------------------------------------------------------------------
 Center     Atomic      Atomic             Coordinates (Angstroms)
 Number     Number       Type             X           Y           Z
 ---------------------------------------------------------------------
      1          8           0        1.391306   -0.413932   -0.136675
      2         15           0       -0.054592   -0.180361    0.278997
      3          8           0       -0.347283    1.488333   -0.055358
      4          1           0        1.850122   -0.054924   -0.825322
      5          8           0       -1.158693   -0.951897   -0.339097
      6          1           0       -0.044267   -0.140327    1.637341
      7          1           0       -0.069610    1.920625   -0.747944
 ---------------------------------------------------------------------
 Rotational constants (GHZ):           7.6836780           7.6025965           4.3815914
 Standard basis: def2TZVP (5D, 7F)
 There are   168 symmetry adapted cartesian basis functions of A   symmetry.
 There are   148 symmetry adapted basis functions of A   symmetry.
   148 basis functions,   246 primitive gaussians,   168 cartesian basis functions
    21 alpha electrons       21 beta electrons
       nuclear repulsion energy       194.5797321158 Hartrees.
 NAtoms=    7 NActive=    7 NUniq=    7 SFac= 1.00D+00 NAtFMM=   60 NAOKFM=F Big=F
 Integral buffers will be    131072 words long.
 Raffenetti 2 integral format.
 Two-electron integral symmetry is turned on.
 ------------------------------------------------------------------------------
 Polarizable Continuum Model (PCM)
 =================================
 Model                : C-PCM.
 Atomic radii         : UFF (Universal Force Field).
 Polarization charges : Total charges.
 Charge compensation  : None.
 Solution method      : On-the-fly selection.
 Cavity type          : Scaled VdW (van der Waals Surface) (Alpha=1.100).
 Cavity algorithm     : GePol (No added spheres)
                        Default sphere list used, NSphG=    7.
                        Lebedev-Laikov grids with approx.  5.0 points / Ang**2.
                        Smoothing algorithm: York/Karplus (Gamma=1.0000).
                        Polarization charges: spherical gaussians, with
                                              point-specific exponents (IZeta= 3).
                        Self-potential: point-specific (ISelfS= 7).
                        Self-field    : sphere-specific E.n sum rule (ISelfD= 2).
 Solvent              : Water, Eps=  78.355300 Eps(inf)=   1.777849
 ------------------------------------------------------------------------------
 Spheres list:
 ISph  on   Nord     Re0    Alpha      Xe            Ye            Ze
    1   O      1    1.7500  1.100      1.391306     -0.413932     -0.136675
    2   P      2    2.0735  1.100     -0.054592     -0.180361      0.278997
    3   O      3    1.7500  1.100     -0.347283      1.488333     -0.055358
    4   H      4    1.4430  1.100      1.850122     -0.054924     -0.825322
    5   O      5    1.7500  1.100     -1.158693     -0.951897     -0.339097
    6   H      6    1.4430  1.100     -0.044267     -0.140327      1.637341
    7   H      7    1.4430  1.100     -0.069610      1.920625     -0.747944
 ------------------------------------------------------------------------------
 One-electron integrals computed using PRISM.
   1 Symmetry operations used in ECPInt.
 ECPInt:  NShTT=    1711 NPrTT=    5676 LenC2=    1697 LenP2D=    4710.
 LDataN:  DoStor=T MaxTD1= 6 Len=  172
 NBasis=   148 RedAO= T EigKep=  1.48D-03  NBF=   148
 NBsUse=   148 1.00D-06 EigRej= -1.00D+00 NBFU=   148
 ExpMin= 9.04D-02 ExpMax= 5.24D+04 ExpMxC= 1.79D+03 IAcc=3 IRadAn=         5 AccDes= 0.00D+00
 Harris functional with IExCor= 2002 and IRadAn=       5 diagonalized for initial guess.
 HarFok:  IExCor= 2002 AccDes= 0.00D+00 IRadAn=         5 IDoV= 1 UseB2=F ITyADJ=14
 ICtDFT=  3500011 ScaDFX=  1.000000  1.000000  1.000000  1.000000
 FoFCou: FMM=F IPFlag=           0 FMFlag=      100000 FMFlg1=           0
         NFxFlg=           0 DoJE=T BraDBF=F KetDBF=T FulRan=T
         wScrn=  0.000000 ICntrl=       500 IOpCl=  0 I1Cent=   200000004 NGrid=           0
         NMat0=    1 NMatS0=      1 NMatT0=    0 NMatD0=    1 NMtDS0=    0 NMtDT0=    0
 Petite list used in FoFCou.
 Keep J ints in memory in canonical form, NReq=64775784.
 Requested convergence on RMS density matrix=1.00D-08 within 128 cycles.
 Requested convergence on MAX density matrix=1.00D-06.
 Requested convergence on             energy=1.00D-06.
 No special actions if energy rises.
 Inv3:  Mode=1 IEnd=     2244675.
 Iteration    1 A*A^-1 deviation from unit magnitude is 3.11D-15 for    832.
 Iteration    1 A*A^-1 deviation from orthogonality  is 1.77D-15 for    546    268.
 Iteration    1 A^-1*A deviation from unit magnitude is 3.11D-15 for    832.
 Iteration    1 A^-1*A deviation from orthogonality  is 1.36D-15 for    739    629.
 Error on total polarization charges =  0.00762
 SCF Done:  E(RO-LYP) =  -568.949077768     A.U. after   12 cycles
            NFock= 12  Conv=0.35D-08     -V/T= 2.0014

 **********************************************************************

            Population analysis using the SCF density.

 **********************************************************************

 Orbital symmetries:
       Occupied  (A) (A) (A) (A) (A) (A) (A) (A) (A) (A) (A) (A)
                 (A) (A) (A) (A) (A) (A) (A) (A) (A)
       Virtual   (A) (A) (A) (A) (A) (A) (A) (A) (A) (A) (A) (A)
                 (A) (A) (A) (A) (A) (A) (A) (A) (A) (A) (A) (A)
                 (A) (A) (A) (A) (A) (A) (A) (A) (A) (A) (A) (A)
                 (A) (A) (A) (A) (A) (A) (A) (A) (A) (A) (A) (A)
                 (A) (A) (A) (A) (A) (A) (A) (A) (A) (A) (A) (A)
                 (A) (A) (A) (A) (A) (A) (A) (A) (A) (A) (A) (A)
                 (A) (A) (A) (A) (A) (A) (A) (A) (A) (A) (A) (A)
                 (A) (A) (A) (A) (A) (A) (A) (A) (A) (A) (A) (A)
                 (A) (A) (A) (A) (A) (A) (A) (A) (A) (A) (A) (A)
                 (A) (A) (A) (A) (A) (A) (A) (A) (A) (A) (A) (A)
                 (A) (A) (A) (A) (A) (A) (A)
 The electronic state is 1-A.
 Alpha  occ. eigenvalues --  -76.40426 -18.81185 -18.76133 -18.73103  -6.42871
 Alpha  occ. eigenvalues --   -4.64111  -4.63714  -4.63481  -1.02232  -0.94480
 Alpha  occ. eigenvalues --   -0.88964  -0.63306  -0.53643  -0.44219  -0.40036
 Alpha  occ. eigenvalues --   -0.38211  -0.33566  -0.30532  -0.29351  -0.26405
 Alpha  occ. eigenvalues --   -0.25156
 Alpha virt. eigenvalues --   -0.00539   0.01114   0.04637   0.05568   0.09055
 Alpha virt. eigenvalues --    0.09981   0.19200   0.20402   0.21868   0.24845
 Alpha virt. eigenvalues --    0.31014   0.31994   0.35002   0.36588   0.39139
 Alpha virt. eigenvalues --    0.41818   0.45211   0.47235   0.49115   0.51473
 Alpha virt. eigenvalues --    0.51743   0.54227   0.55123   0.61175   0.62644
 Alpha virt. eigenvalues --    0.65575   0.68337   0.69892   0.78465   0.79921
 Alpha virt. eigenvalues --    1.06472   1.09174   1.10771   1.11407   1.13736
 Alpha virt. eigenvalues --    1.18513   1.22887   1.24080   1.28947   1.31923
 Alpha virt. eigenvalues --    1.34265   1.36308   1.40106   1.49131   1.51388
 Alpha virt. eigenvalues --    1.53716   1.56632   1.62816   1.63786   1.68333
 Alpha virt. eigenvalues --    1.76032   1.77479   1.81482   1.85293   1.90058
 Alpha virt. eigenvalues --    1.91321   1.96846   2.00759   2.05400   2.10022
 Alpha virt. eigenvalues --    2.12178   2.19244   2.22831   2.25989   2.27426
 Alpha virt. eigenvalues --    2.34514   2.37323   2.45129   2.54214   2.64176
 Alpha virt. eigenvalues --    2.65742   2.69312   2.73493   2.77943   2.81619
 Alpha virt. eigenvalues --    2.85025   2.87418   2.90224   2.91169   3.25702
 Alpha virt. eigenvalues --    3.42789   3.71535   3.86928   3.88522   4.93588
 Alpha virt. eigenvalues --    4.94569   4.98235   4.99416   5.01607   5.02559
 Alpha virt. eigenvalues --    5.04019   5.05046   5.08029   5.12018   5.15576
 Alpha virt. eigenvalues --    5.23178   5.27990   5.32752   5.36543   5.41622
 Alpha virt. eigenvalues --    5.45698   5.47707   5.50283   6.12783   6.15985
 Alpha virt. eigenvalues --    6.18124   6.23456   6.24316   6.29380   6.40331
 Alpha virt. eigenvalues --    6.43013   6.46694   6.53380   6.56287   6.58154
 Alpha virt. eigenvalues --    6.60820   6.66348   6.74945   6.92246   7.02893
 Alpha virt. eigenvalues --    7.34875   7.60503   8.01932  16.11459  43.06087
 Alpha virt. eigenvalues --   43.14924  43.18652
          Condensed to atoms (all electrons):
               1          2          3          4          5          6
     1  O    7.745115   0.442072  -0.046228   0.320222  -0.057777  -0.031908
     2  P    0.442072  12.397159   0.376613  -0.019730   0.742073   0.371547
     3  O   -0.046228   0.376613   7.947146   0.001322  -0.067530  -0.029288
     4  H    0.320222  -0.019730   0.001322   0.352847  -0.000083   0.003256
     5  O   -0.057777   0.742073  -0.067530  -0.000083   7.955445  -0.046620
     6  H   -0.031908   0.371547  -0.029288   0.003256  -0.046620   0.670778
     7  H    0.001139  -0.021415   0.319408   0.001506   0.001765   0.003352
               7
     1  O    0.001139
     2  P   -0.021415
     3  O    0.319408
     4  H    0.001506
     5  O    0.001765
     6  H    0.003352
     7  H    0.404113
 Mulliken charges:
               1
     1  O   -0.372635
     2  P    0.711681
     3  O   -0.501443
     4  H    0.340659
     5  O   -0.527274
     6  H    0.058881
     7  H    0.290131
 Sum of Mulliken charges =  -0.00000
 Mulliken charges with hydrogens summed into heavy atoms:
               1
     1  O   -0.031976
     2  P    0.770562
     3  O   -0.211312
     5  O   -0.527274
 Electronic spatial extent (au):  <R**2>=            306.1221
 Charge=             -0.0000 electrons
 Dipole moment (field-independent basis, Debye):
    X=              4.8511    Y=              2.1557    Z=             -0.4641  Tot=              5.3288
 Quadrupole moment (field-independent basis, Debye-Ang):
   XX=            -30.8910   YY=            -31.7953   ZZ=            -25.3765
   XY=             -0.6298   XZ=             -4.4062   YZ=             -4.4476
 Traceless Quadrupole moment (field-independent basis, Debye-Ang):
   XX=             -1.5367   YY=             -2.4410   ZZ=              3.9777
   XY=             -0.6298   XZ=             -4.4062   YZ=             -4.4476
 Octapole moment (field-independent basis, Debye-Ang**2):
  XXX=             16.4237  YYY=              8.3062  ZZZ=             -1.8019  XYY=              6.1503
  XXY=              5.3441  XXZ=             -5.4268  XZZ=              4.6972  YZZ=              3.0834
  YYZ=             -5.4946  XYZ=              0.7663
 Hexadecapole moment (field-independent basis, Debye-Ang**3):
 XXXX=           -140.3533 YYYY=           -145.5978 ZZZZ=            -47.0255 XXXY=             -2.0827
 XXXZ=            -16.2931 YYYX=             -1.1100 YYYZ=            -16.3306 ZZZX=             -5.4394
 ZZZY=             -4.5016 XXYY=            -57.6936 XXZZ=            -28.7328 YYZZ=            -30.3030
 XXYZ=             -1.6080 YYXZ=             -1.1394 ZZXY=             -1.0675
 N-N= 1.945797321158D+02 E-N=-1.739996606945D+03  KE= 5.681380669687D+02
 1\1\GINC-NODE85\SP\ROLYP\def2TZVP\H3O3P1\YANZ\22-Sep-2023\0\\# scrf=(c
 pcm,solvent=water) def2tzvp olyp\\tmpdir/M2_ref_10.gjf\\0,1\O,0,1.2764
 4,0.292011,0.380324\P,0,-0.155615,-0.221822,0.436475\O,0,-0.232392,-1.
 161409,1.883293\H,0,1.8151864,0.54938918,1.05644822\O,0,-1.301306,0.71
 7898,0.462292\H,0,-0.22438135,-1.21880177,-0.48445333\H,0,0.13548037,-
 0.95922488,2.63658259\\Version=ES64L-G16RevA.03\State=1-A\HF=-568.9490
 778\RMSD=3.453e-09\Dipole=2.001381,-0.3919478,0.4859433\Quadrupole=-0.
 796275,-2.4866568,3.2829318,3.0126292,2.4519082,2.1615037\PG=C01 [X(H3
 O3P1)]\\@


 What some people mistake for the high cost
 of living is really the cost of living high.
                              -- Doug Larson
 Job cpu time:       0 days  0 hours  1 minutes  5.4 seconds.
 Elapsed time:       0 days  0 hours  0 minutes 17.4 seconds.
 File lengths (MBytes):  RWF=     17 Int=      0 D2E=      0 Chk=      3 Scr=      1
 Normal termination of Gaussian 16 at Fri Sep 22 16:52:07 2023.
