 Entering Gaussian System, Link 0=g16
 Initial command:
 /share/apps/gaussian/g16/l1.exe "/tmp/55608.mgr/Gau-86062.inp" -scrdir="/tmp/55608.mgr/"
 Entering Link 1 = /share/apps/gaussian/g16/l1.exe PID=     86063.
  
 Copyright (c) 1988,1990,1992,1993,1995,1998,2003,2009,2016,
            Gaussian, Inc.  All Rights Reserved.
  
 This is part of the Gaussian(R) 16 program.  It is based on
 the Gaussian(R) 09 system (copyright 2009, Gaussian, Inc.),
 the Gaussian(R) 03 system (copyright 2003, Gaussian, Inc.),
 the Gaussian(R) 98 system (copyright 1998, Gaussian, Inc.),
 the Gaussian(R) 94 system (copyright 1995, Gaussian, Inc.),
 the Gaussian 92(TM) system (copyright 1992, Gaussian, Inc.),
 the Gaussian 90(TM) system (copyright 1990, Gaussian, Inc.),
 the Gaussian 88(TM) system (copyright 1988, Gaussian, Inc.),
 the Gaussian 86(TM) system (copyright 1986, Carnegie Mellon
 University), and the Gaussian 82(TM) system (copyright 1983,
 Carnegie Mellon University). Gaussian is a federally registered
 trademark of Gaussian, Inc.
  
 This software contains proprietary and confidential information,
 including trade secrets, belonging to Gaussian, Inc.
  
 This software is provided under written license and may be
 used, copied, transmitted, or stored only in accord with that
 written license.
  
 The following legend is applicable only to US Government
 contracts under FAR:
  
                    RESTRICTED RIGHTS LEGEND
  
 Use, reproduction and disclosure by the US Government is
 subject to restrictions as set forth in subparagraphs (a)
 and (c) of the Commercial Computer Software - Restricted
 Rights clause in FAR 52.227-19.
  
 Gaussian, Inc.
 340 Quinnipiac St., Bldg. 40, Wallingford CT 06492
  
  
 ---------------------------------------------------------------
 Warning -- This program may not be used in any manner that
 competes with the business of Gaussian, Inc. or will provide
 assistance to any competitor of Gaussian, Inc.  The licensee
 of this program is prohibited from giving any competitor of
 Gaussian, Inc. access to this program.  By using this program,
 the user acknowledges that Gaussian, Inc. is engaged in the
 business of creating and licensing software in the field of
 computational chemistry and represents and warrants to the
 licensee that it is not a competitor of Gaussian, Inc. and that
 it will not use this program in any manner prohibited above.
 ---------------------------------------------------------------
  

 Cite this work as:
 Gaussian 16, Revision A.03,
 M. J. Frisch, G. W. Trucks, H. B. Schlegel, G. E. Scuseria, 
 M. A. Robb, J. R. Cheeseman, G. Scalmani, V. Barone, 
 G. A. Petersson, H. Nakatsuji, X. Li, M. Caricato, A. V. Marenich, 
 J. Bloino, B. G. Janesko, R. Gomperts, B. Mennucci, H. P. Hratchian, 
 J. V. Ortiz, A. F. Izmaylov, J. L. Sonnenberg, D. Williams-Young, 
 F. Ding, F. Lipparini, F. Egidi, J. Goings, B. Peng, A. Petrone, 
 T. Henderson, D. Ranasinghe, V. G. Zakrzewski, J. Gao, N. Rega, 
 G. Zheng, W. Liang, M. Hada, M. Ehara, K. Toyota, R. Fukuda, 
 J. Hasegawa, M. Ishida, T. Nakajima, Y. Honda, O. Kitao, H. Nakai, 
 T. Vreven, K. Throssell, J. A. Montgomery, Jr., J. E. Peralta, 
 F. Ogliaro, M. J. Bearpark, J. J. Heyd, E. N. Brothers, K. N. Kudin, 
 V. N. Staroverov, T. A. Keith, R. Kobayashi, J. Normand, 
 K. Raghavachari, A. P. Rendell, J. C. Burant, S. S. Iyengar, 
 J. Tomasi, M. Cossi, J. M. Millam, M. Klene, C. Adamo, R. Cammi, 
 J. W. Ochterski, R. L. Martin, K. Morokuma, O. Farkas, 
 J. B. Foresman, and D. J. Fox, Gaussian, Inc., Wallingford CT, 2016.
 
 ******************************************
 Gaussian 16:  ES64L-G16RevA.03 25-Dec-2016
                22-Sep-2023 
 ******************************************
 %nprocshared=4
 Will use up to    4 processors via shared memory.
 %mem=4GB
 -----------------------------------------
 # scrf=(cpcm,solvent=water) def2tzvp olyp
 -----------------------------------------
 1/38=1,172=1/1;
 2/12=2,17=6,18=5,40=1/2;
 3/5=44,7=101,11=2,25=1,30=1,70=2101,72=1,74=2002/1,2,3;
 4//1;
 5/5=2,38=5,53=1/2;
 6/7=2,8=2,9=2,10=2,28=1/1;
 99/5=1,9=1/99;
 --------------------
 tmpdir/M2_ref_18.gjf
 --------------------
 Symbolic Z-matrix:
 Charge =  0 Multiplicity = 1
 P                     0.43524  -0.79448   3.25039 
 O                     1.05873   0.56785   3.29537 
 H                    -0.13656  -1.10874   2.07952 
 H                     1.40941  -1.77082   3.44172 
 H                    -0.44218  -0.96024   4.24351 
 
                          Input orientation:                          
 ---------------------------------------------------------------------
 Center     Atomic      Atomic             Coordinates (Angstroms)
 Number     Number       Type             X           Y           Z
 ---------------------------------------------------------------------
      1         15           0        0.435236   -0.794478    3.250390
      2          8           0        1.058734    0.567850    3.295369
      3          1           0       -0.136563   -1.108741    2.079521
      4          1           0        1.409406   -1.770821    3.441721
      5          1           0       -0.442177   -0.960245    4.243509
 ---------------------------------------------------------------------
                    Distance matrix (angstroms):
                    1          2          3          4          5
     1  P    0.000000
     2  O    1.498903   0.000000
     3  H    1.340392   2.391230   0.000000
     4  H    1.392430   2.369340   2.164246   0.000000
     5  H    1.335521   2.342387   2.190501   2.174455   0.000000
 Stoichiometry    H3OP
 Framework group  C1[X(H3OP)]
 Deg. of freedom     9
 Full point group                 C1      NOp   1
 Largest Abelian subgroup         C1      NOp   1
 Largest concise Abelian subgroup C1      NOp   1
                         Standard orientation:                         
 ---------------------------------------------------------------------
 Center     Atomic      Atomic             Coordinates (Angstroms)
 Number     Number       Type             X           Y           Z
 ---------------------------------------------------------------------
      1         15           0       -0.402630    0.002793   -0.010163
      2          8           0        1.096201   -0.006255    0.001368
      3          1           0       -0.960755   -0.922420   -0.803340
      4          1           0       -0.890576   -0.281448    1.262621
      5          1           0       -0.878826    1.212017   -0.317784
 ---------------------------------------------------------------------
 Rotational constants (GHZ):         105.7314323          17.4241057          17.3898535
 Standard basis: def2TZVP (5D, 7F)
 There are    96 symmetry adapted cartesian basis functions of A   symmetry.
 There are    86 symmetry adapted basis functions of A   symmetry.
    86 basis functions,   144 primitive gaussians,    96 cartesian basis functions
    13 alpha electrons       13 beta electrons
       nuclear repulsion energy        66.0250215353 Hartrees.
 NAtoms=    5 NActive=    5 NUniq=    5 SFac= 1.00D+00 NAtFMM=   60 NAOKFM=F Big=F
 Integral buffers will be    131072 words long.
 Raffenetti 2 integral format.
 Two-electron integral symmetry is turned on.
 ------------------------------------------------------------------------------
 Polarizable Continuum Model (PCM)
 =================================
 Model                : C-PCM.
 Atomic radii         : UFF (Universal Force Field).
 Polarization charges : Total charges.
 Charge compensation  : None.
 Solution method      : On-the-fly selection.
 Cavity type          : Scaled VdW (van der Waals Surface) (Alpha=1.100).
 Cavity algorithm     : GePol (No added spheres)
                        Default sphere list used, NSphG=    5.
                        Lebedev-Laikov grids with approx.  5.0 points / Ang**2.
                        Smoothing algorithm: York/Karplus (Gamma=1.0000).
                        Polarization charges: spherical gaussians, with
                                              point-specific exponents (IZeta= 3).
                        Self-potential: point-specific (ISelfS= 7).
                        Self-field    : sphere-specific E.n sum rule (ISelfD= 2).
 Solvent              : Water, Eps=  78.355300 Eps(inf)=   1.777849
 ------------------------------------------------------------------------------
 Spheres list:
 ISph  on   Nord     Re0    Alpha      Xe            Ye            Ze
    1   P      1    2.0735  1.100     -0.402630      0.002793     -0.010163
    2   O      2    1.7500  1.100      1.096201     -0.006255      0.001368
    3   H      3    1.4430  1.100     -0.960755     -0.922420     -0.803340
    4   H      4    1.4430  1.100     -0.890576     -0.281448      1.262621
    5   H      5    1.4430  1.100     -0.878826      1.212017     -0.317784
 ------------------------------------------------------------------------------
 One-electron integrals computed using PRISM.
   1 Symmetry operations used in ECPInt.
 ECPInt:  NShTT=     666 NPrTT=    2212 LenC2=     666 LenP2D=    1989.
 LDataN:  DoStor=T MaxTD1= 6 Len=  172
 NBasis=    86 RedAO= T EigKep=  2.79D-03  NBF=    86
 NBsUse=    86 1.00D-06 EigRej= -1.00D+00 NBFU=    86
 ExpMin= 9.04D-02 ExpMax= 5.24D+04 ExpMxC= 1.79D+03 IAcc=3 IRadAn=         5 AccDes= 0.00D+00
 Harris functional with IExCor= 2002 and IRadAn=       5 diagonalized for initial guess.
 HarFok:  IExCor= 2002 AccDes= 0.00D+00 IRadAn=         5 IDoV= 1 UseB2=F ITyADJ=14
 ICtDFT=  3500011 ScaDFX=  1.000000  1.000000  1.000000  1.000000
 FoFCou: FMM=F IPFlag=           0 FMFlag=      100000 FMFlg1=           0
         NFxFlg=           0 DoJE=T BraDBF=F KetDBF=T FulRan=T
         wScrn=  0.000000 ICntrl=       500 IOpCl=  0 I1Cent=   200000004 NGrid=           0
         NMat0=    1 NMatS0=      1 NMatT0=    0 NMatD0=    1 NMtDS0=    0 NMtDT0=    0
 Petite list used in FoFCou.
 Keep J ints in memory in canonical form, NReq=10684354.
 Requested convergence on RMS density matrix=1.00D-08 within 128 cycles.
 Requested convergence on MAX density matrix=1.00D-06.
 Requested convergence on             energy=1.00D-06.
 No special actions if energy rises.
 Inv3:  Mode=1 IEnd=     1310763.
 Iteration    1 A*A^-1 deviation from unit magnitude is 2.44D-15 for    653.
 Iteration    1 A*A^-1 deviation from orthogonality  is 9.63D-16 for    596    302.
 Iteration    1 A^-1*A deviation from unit magnitude is 2.44D-15 for    615.
 Iteration    1 A^-1*A deviation from orthogonality  is 1.42D-15 for    659     55.
 Error on total polarization charges =  0.00851
 SCF Done:  E(RO-LYP) =  -418.407593767     A.U. after   10 cycles
            NFock= 10  Conv=0.84D-08     -V/T= 2.0011

 **********************************************************************

            Population analysis using the SCF density.

 **********************************************************************

 Orbital symmetries:
       Occupied  (A) (A) (A) (A) (A) (A) (A) (A) (A) (A) (A) (A)
                 (A)
       Virtual   (A) (A) (A) (A) (A) (A) (A) (A) (A) (A) (A) (A)
                 (A) (A) (A) (A) (A) (A) (A) (A) (A) (A) (A) (A)
                 (A) (A) (A) (A) (A) (A) (A) (A) (A) (A) (A) (A)
                 (A) (A) (A) (A) (A) (A) (A) (A) (A) (A) (A) (A)
                 (A) (A) (A) (A) (A) (A) (A) (A) (A) (A) (A) (A)
                 (A) (A) (A) (A) (A) (A) (A) (A) (A) (A) (A) (A)
                 (A)
 The electronic state is 1-A.
 Alpha  occ. eigenvalues --  -76.34141 -18.71093  -6.37945  -4.58787  -4.58752
 Alpha  occ. eigenvalues --   -4.58694  -0.87860  -0.58713  -0.40846  -0.39440
 Alpha  occ. eigenvalues --   -0.33405  -0.23872  -0.23564
 Alpha virt. eigenvalues --   -0.02029   0.02057   0.02944   0.04907   0.14441
 Alpha virt. eigenvalues --    0.14722   0.21883   0.26391   0.27627   0.27946
 Alpha virt. eigenvalues --    0.29728   0.30232   0.38577   0.48486   0.50108
 Alpha virt. eigenvalues --    0.51024   0.57777   0.59643   0.68779   0.75631
 Alpha virt. eigenvalues --    1.01966   1.06273   1.07518   1.08930   1.09044
 Alpha virt. eigenvalues --    1.18018   1.20470   1.22469   1.28801   1.37028
 Alpha virt. eigenvalues --    1.38218   1.45402   1.54126   1.54775   1.57885
 Alpha virt. eigenvalues --    1.60750   1.77623   1.83445   1.84981   1.98461
 Alpha virt. eigenvalues --    2.01529   2.04010   2.04868   2.12681   2.15065
 Alpha virt. eigenvalues --    2.19432   2.46509   2.47668   2.49405   2.59110
 Alpha virt. eigenvalues --    2.74020   2.78062   2.80042   2.81400   2.82949
 Alpha virt. eigenvalues --    3.58291   5.05673   5.06326   5.14354   5.14672
 Alpha virt. eigenvalues --    5.22316   5.22880   5.39947   6.20461   6.21222
 Alpha virt. eigenvalues --    6.52485   6.52538   6.74046   7.18308   7.21750
 Alpha virt. eigenvalues --    7.69297  15.43175  43.07574
          Condensed to atoms (all electrons):
               1          2          3          4          5
     1  P   12.793381   0.694345   0.355686   0.360546   0.362884
     2  O    0.694345   8.049222  -0.040068  -0.044559  -0.044478
     3  H    0.355686  -0.040068   0.695602  -0.038612  -0.038050
     4  H    0.360546  -0.044559  -0.038612   0.708024  -0.037012
     5  H    0.362884  -0.044478  -0.038050  -0.037012   0.692408
 Mulliken charges:
               1
     1  P    0.433158
     2  O   -0.614461
     3  H    0.065442
     4  H    0.051613
     5  H    0.064248
 Sum of Mulliken charges =  -0.00000
 Mulliken charges with hydrogens summed into heavy atoms:
               1
     1  P    0.614461
     2  O   -0.614461
 Electronic spatial extent (au):  <R**2>=            112.9055
 Charge=             -0.0000 electrons
 Dipole moment (field-independent basis, Debye):
    X=             -4.7731    Y=              0.0471    Z=             -0.1763  Tot=              4.7766
 Quadrupole moment (field-independent basis, Debye-Ang):
   XX=            -22.4281   YY=            -18.3249   ZZ=            -18.5268
   XY=              0.0430   XZ=              0.1751   YZ=              0.0453
 Traceless Quadrupole moment (field-independent basis, Debye-Ang):
   XX=             -2.6682   YY=              1.4351   ZZ=              1.2331
   XY=              0.0430   XZ=              0.1751   YZ=              0.0453
 Octapole moment (field-independent basis, Debye-Ang**2):
  XXX=             -5.4711  YYY=              0.2831  ZZZ=             -0.2037  XYY=             -0.7904
  XXY=              0.0407  XXZ=             -0.2094  XZZ=             -0.5835  YZZ=             -0.1468
  YYZ=             -0.3613  XYZ=             -0.0701
 Hexadecapole moment (field-independent basis, Debye-Ang**3):
 XXXX=            -90.4183 YYYY=            -30.5816 ZZZZ=            -31.3405 XXXY=              0.0296
 XXXZ=              0.5308 YYYX=             -0.2107 YYYZ=              0.1595 ZZZX=              0.1455
 ZZZY=              0.0294 XXYY=            -19.9685 XXZZ=            -20.2190 YYZZ=            -10.4273
 XXYZ=              0.1242 YYXZ=              0.3921 ZZXY=              0.2030
 N-N= 6.602502153525D+01 E-N=-1.126899650427D+03  KE= 4.179376629908D+02
 1\1\GINC-NODE85\SP\ROLYP\def2TZVP\H3O1P1\YANZ\22-Sep-2023\0\\# scrf=(c
 pcm,solvent=water) def2tzvp olyp\\tmpdir/M2_ref_18.gjf\\0,1\P,0,0.4352
 36,-0.794478,3.25039\O,0,1.058734,0.56785,3.295369\H,0,-0.13656335,-1.
 10874119,2.07952063\H,0,1.40940556,-1.77082127,3.44172149\H,0,-0.44217
 711,-0.96024489,4.24350883\\Version=ES64L-G16RevA.03\State=1-A\HF=-418
 .4075938\RMSD=8.417e-09\Dipole=-0.8300087,-1.6845767,-0.0699864\Quadru
 pole=0.5142868,-1.5856197,1.071333,-1.005938,-0.0306569,-0.010699\PG=C
 01 [X(H3O1P1)]\\@


 WE HAVE LEFT UNDONE THOSE THINGS WHICH WE OUGHT TO HAVE DONE,
 AND WE HAVE DONE THOSE THINGS WHICH WE OUGHT NOT TO HAVE DONE.
                   BOOK OF COMMON PRAYER                      
 Job cpu time:       0 days  0 hours  0 minutes 22.8 seconds.
 Elapsed time:       0 days  0 hours  0 minutes  6.0 seconds.
 File lengths (MBytes):  RWF=     10 Int=      0 D2E=      0 Chk=      2 Scr=      1
 Normal termination of Gaussian 16 at Fri Sep 22 16:51:58 2023.
