 Entering Gaussian System, Link 0=g16
 Initial command:
 /share/apps/gaussian/g16/l1.exe "/tmp/55608.mgr/Gau-87144.inp" -scrdir="/tmp/55608.mgr/"
 Entering Link 1 = /share/apps/gaussian/g16/l1.exe PID=     87145.
  
 Copyright (c) 1988,1990,1992,1993,1995,1998,2003,2009,2016,
            Gaussian, Inc.  All Rights Reserved.
  
 This is part of the Gaussian(R) 16 program.  It is based on
 the Gaussian(R) 09 system (copyright 2009, Gaussian, Inc.),
 the Gaussian(R) 03 system (copyright 2003, Gaussian, Inc.),
 the Gaussian(R) 98 system (copyright 1998, Gaussian, Inc.),
 the Gaussian(R) 94 system (copyright 1995, Gaussian, Inc.),
 the Gaussian 92(TM) system (copyright 1992, Gaussian, Inc.),
 the Gaussian 90(TM) system (copyright 1990, Gaussian, Inc.),
 the Gaussian 88(TM) system (copyright 1988, Gaussian, Inc.),
 the Gaussian 86(TM) system (copyright 1986, Carnegie Mellon
 University), and the Gaussian 82(TM) system (copyright 1983,
 Carnegie Mellon University). Gaussian is a federally registered
 trademark of Gaussian, Inc.
  
 This software contains proprietary and confidential information,
 including trade secrets, belonging to Gaussian, Inc.
  
 This software is provided under written license and may be
 used, copied, transmitted, or stored only in accord with that
 written license.
  
 The following legend is applicable only to US Government
 contracts under FAR:
  
                    RESTRICTED RIGHTS LEGEND
  
 Use, reproduction and disclosure by the US Government is
 subject to restrictions as set forth in subparagraphs (a)
 and (c) of the Commercial Computer Software - Restricted
 Rights clause in FAR 52.227-19.
  
 Gaussian, Inc.
 340 Quinnipiac St., Bldg. 40, Wallingford CT 06492
  
  
 ---------------------------------------------------------------
 Warning -- This program may not be used in any manner that
 competes with the business of Gaussian, Inc. or will provide
 assistance to any competitor of Gaussian, Inc.  The licensee
 of this program is prohibited from giving any competitor of
 Gaussian, Inc. access to this program.  By using this program,
 the user acknowledges that Gaussian, Inc. is engaged in the
 business of creating and licensing software in the field of
 computational chemistry and represents and warrants to the
 licensee that it is not a competitor of Gaussian, Inc. and that
 it will not use this program in any manner prohibited above.
 ---------------------------------------------------------------
  

 Cite this work as:
 Gaussian 16, Revision A.03,
 M. J. Frisch, G. W. Trucks, H. B. Schlegel, G. E. Scuseria, 
 M. A. Robb, J. R. Cheeseman, G. Scalmani, V. Barone, 
 G. A. Petersson, H. Nakatsuji, X. Li, M. Caricato, A. V. Marenich, 
 J. Bloino, B. G. Janesko, R. Gomperts, B. Mennucci, H. P. Hratchian, 
 J. V. Ortiz, A. F. Izmaylov, J. L. Sonnenberg, D. Williams-Young, 
 F. Ding, F. Lipparini, F. Egidi, J. Goings, B. Peng, A. Petrone, 
 T. Henderson, D. Ranasinghe, V. G. Zakrzewski, J. Gao, N. Rega, 
 G. Zheng, W. Liang, M. Hada, M. Ehara, K. Toyota, R. Fukuda, 
 J. Hasegawa, M. Ishida, T. Nakajima, Y. Honda, O. Kitao, H. Nakai, 
 T. Vreven, K. Throssell, J. A. Montgomery, Jr., J. E. Peralta, 
 F. Ogliaro, M. J. Bearpark, J. J. Heyd, E. N. Brothers, K. N. Kudin, 
 V. N. Staroverov, T. A. Keith, R. Kobayashi, J. Normand, 
 K. Raghavachari, A. P. Rendell, J. C. Burant, S. S. Iyengar, 
 J. Tomasi, M. Cossi, J. M. Millam, M. Klene, C. Adamo, R. Cammi, 
 J. W. Ochterski, R. L. Martin, K. Morokuma, O. Farkas, 
 J. B. Foresman, and D. J. Fox, Gaussian, Inc., Wallingford CT, 2016.
 
 ******************************************
 Gaussian 16:  ES64L-G16RevA.03 25-Dec-2016
                22-Sep-2023 
 ******************************************
 %nprocshared=4
 Will use up to    4 processors via shared memory.
 %mem=4GB
 -----------------------------------------
 # scrf=(cpcm,solvent=water) def2tzvp olyp
 -----------------------------------------
 1/38=1,172=1/1;
 2/12=2,17=6,18=5,40=1/2;
 3/5=44,7=101,11=2,25=1,30=1,70=2101,72=1,74=2002/1,2,3;
 4//1;
 5/5=2,38=5,53=1/2;
 6/7=2,8=2,9=2,10=2,28=1/1;
 99/5=1,9=1/99;
 --------------------
 tmpdir/M2_ref_48.gjf
 --------------------
 Symbolic Z-matrix:
 Charge =  0 Multiplicity = 1
 H                    -2.01937  -2.43834  -0.28796 
 C                    -1.51639  -1.90379  -1.09671 
 H                    -1.2819   -2.59276  -1.90733 
 H                    -0.465    -1.47854  -0.72072 
 H                    -2.14462  -1.09086  -1.46302 
 
                          Input orientation:                          
 ---------------------------------------------------------------------
 Center     Atomic      Atomic             Coordinates (Angstroms)
 Number     Number       Type             X           Y           Z
 ---------------------------------------------------------------------
      1          1           0       -2.019373   -2.438335   -0.287957
      2          6           0       -1.516389   -1.903788   -1.096714
      3          1           0       -1.281902   -2.592755   -1.907328
      4          1           0       -0.464997   -1.478545   -0.720720
      5          1           0       -2.144620   -1.090860   -1.463021
 ---------------------------------------------------------------------
                    Distance matrix (angstroms):
                    1          2          3          4          5
     1  H    0.000000
     2  C    1.092164   0.000000
     3  H    1.786077   1.089383   0.000000
     4  H    1.877383   1.194834   1.821219   0.000000
     5  H    1.792247   1.090737   1.788122   1.876817   0.000000
 Stoichiometry    CH4
 Framework group  C1[X(CH4)]
 Deg. of freedom     9
 Full point group                 C1      NOp   1
 Largest Abelian subgroup         C1      NOp   1
 Largest concise Abelian subgroup C1      NOp   1
                         Standard orientation:                         
 ---------------------------------------------------------------------
 Center     Atomic      Atomic             Coordinates (Angstroms)
 Number     Number       Type             X           Y           Z
 ---------------------------------------------------------------------
      1          1           0        0.518657   -0.867361   -0.433130
      2          6           0        0.015452    0.000653   -0.001670
      3          1           0        0.007908   -0.076958    1.084918
      4          1           0       -1.132793    0.019743   -0.331517
      5          1           0        0.513517    0.920661   -0.310250
 ---------------------------------------------------------------------
 Rotational constants (GHZ):         157.8350188         147.9593687         146.4292447
 Standard basis: def2TZVP (5D, 7F)
 There are    60 symmetry adapted cartesian basis functions of A   symmetry.
 There are    55 symmetry adapted basis functions of A   symmetry.
    55 basis functions,    83 primitive gaussians,    60 cartesian basis functions
     5 alpha electrons        5 beta electrons
       nuclear repulsion energy        13.1318088564 Hartrees.
 NAtoms=    5 NActive=    5 NUniq=    5 SFac= 1.00D+00 NAtFMM=   60 NAOKFM=F Big=F
 Integral buffers will be    131072 words long.
 Raffenetti 2 integral format.
 Two-electron integral symmetry is turned on.
 ------------------------------------------------------------------------------
 Polarizable Continuum Model (PCM)
 =================================
 Model                : C-PCM.
 Atomic radii         : UFF (Universal Force Field).
 Polarization charges : Total charges.
 Charge compensation  : None.
 Solution method      : On-the-fly selection.
 Cavity type          : Scaled VdW (van der Waals Surface) (Alpha=1.100).
 Cavity algorithm     : GePol (No added spheres)
                        Default sphere list used, NSphG=    5.
                        Lebedev-Laikov grids with approx.  5.0 points / Ang**2.
                        Smoothing algorithm: York/Karplus (Gamma=1.0000).
                        Polarization charges: spherical gaussians, with
                                              point-specific exponents (IZeta= 3).
                        Self-potential: point-specific (ISelfS= 7).
                        Self-field    : sphere-specific E.n sum rule (ISelfD= 2).
 Solvent              : Water, Eps=  78.355300 Eps(inf)=   1.777849
 ------------------------------------------------------------------------------
 Spheres list:
 ISph  on   Nord     Re0    Alpha      Xe            Ye            Ze
    1   H      1    1.4430  1.100      0.518657     -0.867361     -0.433130
    2   C      2    1.9255  1.100      0.015452      0.000653     -0.001670
    3   H      3    1.4430  1.100      0.007908     -0.076958      1.084918
    4   H      4    1.4430  1.100     -1.132793      0.019743     -0.331517
    5   H      5    1.4430  1.100      0.513517      0.920661     -0.310250
 ------------------------------------------------------------------------------
 One-electron integrals computed using PRISM.
   1 Symmetry operations used in ECPInt.
 ECPInt:  NShTT=     378 NPrTT=    1024 LenC2=     379 LenP2D=     987.
 LDataN:  DoStor=T MaxTD1= 6 Len=  172
 NBasis=    55 RedAO= T EigKep=  1.62D-03  NBF=    55
 NBsUse=    55 1.00D-06 EigRej= -1.00D+00 NBFU=    55
 ExpMin= 9.52D-02 ExpMax= 1.36D+04 ExpMxC= 4.63D+02 IAcc=3 IRadAn=         5 AccDes= 0.00D+00
 Harris functional with IExCor= 2002 and IRadAn=       5 diagonalized for initial guess.
 HarFok:  IExCor= 2002 AccDes= 0.00D+00 IRadAn=         5 IDoV= 1 UseB2=F ITyADJ=14
 ICtDFT=  3500011 ScaDFX=  1.000000  1.000000  1.000000  1.000000
 FoFCou: FMM=F IPFlag=           0 FMFlag=      100000 FMFlg1=           0
         NFxFlg=           0 DoJE=T BraDBF=F KetDBF=T FulRan=T
         wScrn=  0.000000 ICntrl=       500 IOpCl=  0 I1Cent=   200000004 NGrid=           0
         NMat0=    1 NMatS0=      1 NMatT0=    0 NMatD0=    1 NMtDS0=    0 NMtDT0=    0
 Petite list used in FoFCou.
 Keep J ints in memory in canonical form, NReq=4722199.
 Requested convergence on RMS density matrix=1.00D-08 within 128 cycles.
 Requested convergence on MAX density matrix=1.00D-06.
 Requested convergence on             energy=1.00D-06.
 No special actions if energy rises.
 Inv3:  Mode=1 IEnd=      762048.
 Iteration    1 A*A^-1 deviation from unit magnitude is 2.66D-15 for    109.
 Iteration    1 A*A^-1 deviation from orthogonality  is 1.11D-15 for    487    251.
 Iteration    1 A^-1*A deviation from unit magnitude is 2.22D-15 for    109.
 Iteration    1 A^-1*A deviation from orthogonality  is 1.17D-15 for    367    150.
 Error on total polarization charges =  0.00938
 SCF Done:  E(RO-LYP) =  -40.5045809519     A.U. after    8 cycles
            NFock=  8  Conv=0.65D-08     -V/T= 2.0070

 **********************************************************************

            Population analysis using the SCF density.

 **********************************************************************

 Orbital symmetries:
       Occupied  (A) (A) (A) (A) (A)
       Virtual   (A) (A) (A) (A) (A) (A) (A) (A) (A) (A) (A) (A)
                 (A) (A) (A) (A) (A) (A) (A) (A) (A) (A) (A) (A)
                 (A) (A) (A) (A) (A) (A) (A) (A) (A) (A) (A) (A)
                 (A) (A) (A) (A) (A) (A) (A) (A) (A) (A) (A) (A)
                 (A) (A)
 The electronic state is 1-A.
 Alpha  occ. eigenvalues --   -9.88930  -0.61986  -0.34603  -0.34506  -0.32666
 Alpha virt. eigenvalues --    0.02287   0.08642   0.10180   0.10265   0.17694
 Alpha virt. eigenvalues --    0.17716   0.18332   0.36510   0.39329   0.42884
 Alpha virt. eigenvalues --    0.43014   0.47040   0.55848   0.56044   0.89482
 Alpha virt. eigenvalues --    0.89520   0.89907   1.41057   1.42219   1.43232
 Alpha virt. eigenvalues --    1.44968   1.46291   1.46422   1.48018   1.88696
 Alpha virt. eigenvalues --    1.90337   1.91610   1.94716   2.13879   2.15751
 Alpha virt. eigenvalues --    2.17180   2.30901   2.35021   2.47636   2.49454
 Alpha virt. eigenvalues --    2.50498   2.86554   2.88114   2.91188   3.21251
 Alpha virt. eigenvalues --    3.24929   3.28843   3.37580   3.40120   3.42175
 Alpha virt. eigenvalues --    3.96690   4.09521   4.10523   4.35757  21.86243
          Condensed to atoms (all electrons):
               1          2          3          4          5
     1  H    0.538947   0.401693  -0.023542  -0.019647  -0.024078
     2  C    0.401693   4.907669   0.402058   0.379894   0.402020
     3  H   -0.023542   0.402058   0.542294  -0.024140  -0.023309
     4  H   -0.019647   0.379894  -0.024140   0.570399  -0.019709
     5  H   -0.024078   0.402020  -0.023309  -0.019709   0.538209
 Mulliken charges:
               1
     1  H    0.126626
     2  C   -0.493334
     3  H    0.126638
     4  H    0.113203
     5  H    0.126866
 Sum of Mulliken charges =   0.00000
 Mulliken charges with hydrogens summed into heavy atoms:
               1
     2  C    0.000000
 Electronic spatial extent (au):  <R**2>=             36.8026
 Charge=              0.0000 electrons
 Dipole moment (field-independent basis, Debye):
    X=              0.0684    Y=             -0.0040    Z=              0.0525  Tot=              0.0863
 Quadrupole moment (field-independent basis, Debye-Ang):
   XX=             -8.4553   YY=             -8.4803   ZZ=             -8.5756
   XY=              0.0078   XZ=             -0.0974   YZ=              0.0007
 Traceless Quadrupole moment (field-independent basis, Debye-Ang):
   XX=              0.0485   YY=              0.0234   ZZ=             -0.0719
   XY=              0.0078   XZ=             -0.0974   YZ=              0.0007
 Octapole moment (field-independent basis, Debye-Ang**2):
  XXX=             -0.4797  YYY=              0.0926  ZZZ=              1.0171  XYY=              0.7800
  XXY=              0.0221  XXZ=             -0.3914  XZZ=              0.1532  YZZ=             -0.1274
  YYZ=             -0.3988  XYZ=              0.0425
 Hexadecapole moment (field-independent basis, Debye-Ang**3):
 XXXX=            -17.8920 YYYY=            -16.5102 ZZZZ=            -16.4080 XXXY=             -0.0112
 XXXZ=              0.2230 YYYX=              0.0956 YYYZ=              0.0521 ZZZX=             -0.2497
 ZZZY=             -0.0694 XXYY=             -5.8356 XXZZ=             -6.1244 YYZZ=             -5.7689
 XXYZ=              0.0229 YYXZ=             -0.4545 ZZXY=             -0.0451
 N-N= 1.313180885643D+01 E-N=-1.195126762461D+02  KE= 4.022439160851D+01
 1\1\GINC-NODE85\SP\ROLYP\def2TZVP\C1H4\YANZ\22-Sep-2023\0\\# scrf=(cpc
 m,solvent=water) def2tzvp olyp\\tmpdir/M2_ref_48.gjf\\0,1\H,0,-2.01937
 3,-2.438335,-0.287957\C,0,-1.516389,-1.903788,-1.096714\H,0,-1.281902,
 -2.592755,-1.907328\H,0,-0.46499721,-1.47854467,-0.72071965\H,0,-2.144
 62,-1.09086,-1.463021\\Version=ES64L-G16RevA.03\State=1-A\HF=-40.50458
 1\RMSD=6.490e-09\Dipole=-0.0219147,-0.0183306,-0.0183443\Quadrupole=0.
 0618389,-0.023915,-0.0379239,-0.0306094,-0.0373708,-0.0475635\PG=C01 [
 X(C1H4)]\\@


 HO!  SUCH BUGS AND GOBLINS IN MY LIFE!

                            -- HAMLET, ACT 5, SCENE 2
 Job cpu time:       0 days  0 hours  0 minutes 12.8 seconds.
 Elapsed time:       0 days  0 hours  0 minutes  3.4 seconds.
 File lengths (MBytes):  RWF=     10 Int=      0 D2E=      0 Chk=      1 Scr=      1
 Normal termination of Gaussian 16 at Fri Sep 22 16:52:58 2023.
