 Entering Gaussian System, Link 0=g16
 Initial command:
 /share/apps/gaussian/g16/l1.exe "/tmp/55608.mgr/Gau-86244.inp" -scrdir="/tmp/55608.mgr/"
 Entering Link 1 = /share/apps/gaussian/g16/l1.exe PID=     86245.
  
 Copyright (c) 1988,1990,1992,1993,1995,1998,2003,2009,2016,
            Gaussian, Inc.  All Rights Reserved.
  
 This is part of the Gaussian(R) 16 program.  It is based on
 the Gaussian(R) 09 system (copyright 2009, Gaussian, Inc.),
 the Gaussian(R) 03 system (copyright 2003, Gaussian, Inc.),
 the Gaussian(R) 98 system (copyright 1998, Gaussian, Inc.),
 the Gaussian(R) 94 system (copyright 1995, Gaussian, Inc.),
 the Gaussian 92(TM) system (copyright 1992, Gaussian, Inc.),
 the Gaussian 90(TM) system (copyright 1990, Gaussian, Inc.),
 the Gaussian 88(TM) system (copyright 1988, Gaussian, Inc.),
 the Gaussian 86(TM) system (copyright 1986, Carnegie Mellon
 University), and the Gaussian 82(TM) system (copyright 1983,
 Carnegie Mellon University). Gaussian is a federally registered
 trademark of Gaussian, Inc.
  
 This software contains proprietary and confidential information,
 including trade secrets, belonging to Gaussian, Inc.
  
 This software is provided under written license and may be
 used, copied, transmitted, or stored only in accord with that
 written license.
  
 The following legend is applicable only to US Government
 contracts under FAR:
  
                    RESTRICTED RIGHTS LEGEND
  
 Use, reproduction and disclosure by the US Government is
 subject to restrictions as set forth in subparagraphs (a)
 and (c) of the Commercial Computer Software - Restricted
 Rights clause in FAR 52.227-19.
  
 Gaussian, Inc.
 340 Quinnipiac St., Bldg. 40, Wallingford CT 06492
  
  
 ---------------------------------------------------------------
 Warning -- This program may not be used in any manner that
 competes with the business of Gaussian, Inc. or will provide
 assistance to any competitor of Gaussian, Inc.  The licensee
 of this program is prohibited from giving any competitor of
 Gaussian, Inc. access to this program.  By using this program,
 the user acknowledges that Gaussian, Inc. is engaged in the
 business of creating and licensing software in the field of
 computational chemistry and represents and warrants to the
 licensee that it is not a competitor of Gaussian, Inc. and that
 it will not use this program in any manner prohibited above.
 ---------------------------------------------------------------
  

 Cite this work as:
 Gaussian 16, Revision A.03,
 M. J. Frisch, G. W. Trucks, H. B. Schlegel, G. E. Scuseria, 
 M. A. Robb, J. R. Cheeseman, G. Scalmani, V. Barone, 
 G. A. Petersson, H. Nakatsuji, X. Li, M. Caricato, A. V. Marenich, 
 J. Bloino, B. G. Janesko, R. Gomperts, B. Mennucci, H. P. Hratchian, 
 J. V. Ortiz, A. F. Izmaylov, J. L. Sonnenberg, D. Williams-Young, 
 F. Ding, F. Lipparini, F. Egidi, J. Goings, B. Peng, A. Petrone, 
 T. Henderson, D. Ranasinghe, V. G. Zakrzewski, J. Gao, N. Rega, 
 G. Zheng, W. Liang, M. Hada, M. Ehara, K. Toyota, R. Fukuda, 
 J. Hasegawa, M. Ishida, T. Nakajima, Y. Honda, O. Kitao, H. Nakai, 
 T. Vreven, K. Throssell, J. A. Montgomery, Jr., J. E. Peralta, 
 F. Ogliaro, M. J. Bearpark, J. J. Heyd, E. N. Brothers, K. N. Kudin, 
 V. N. Staroverov, T. A. Keith, R. Kobayashi, J. Normand, 
 K. Raghavachari, A. P. Rendell, J. C. Burant, S. S. Iyengar, 
 J. Tomasi, M. Cossi, J. M. Millam, M. Klene, C. Adamo, R. Cammi, 
 J. W. Ochterski, R. L. Martin, K. Morokuma, O. Farkas, 
 J. B. Foresman, and D. J. Fox, Gaussian, Inc., Wallingford CT, 2016.
 
 ******************************************
 Gaussian 16:  ES64L-G16RevA.03 25-Dec-2016
                22-Sep-2023 
 ******************************************
 %nprocshared=4
 Will use up to    4 processors via shared memory.
 %mem=4GB
 -----------------------------------------
 # scrf=(cpcm,solvent=water) def2tzvp olyp
 -----------------------------------------
 1/38=1,172=1/1;
 2/12=2,17=6,18=5,40=1/2;
 3/5=44,7=101,11=2,25=1,30=1,70=2101,72=1,74=2002/1,2,3;
 4//1;
 5/5=2,38=5,53=1/2;
 6/7=2,8=2,9=2,10=2,28=1/1;
 99/5=1,9=1/99;
 --------------------
 tmpdir/M2_ref_11.gjf
 --------------------
 Symbolic Z-matrix:
 Charge =  0 Multiplicity = 1
 O                    -0.23591  -1.38589  -0.63879 
 C                    -1.51639  -1.90379  -1.09671 
 H                    -0.19166  -0.74447  -0.04631 
 H                    -2.01937  -2.43834  -0.28796 
 H                    -1.2819   -2.59276  -1.90733 
 H                    -2.14462  -1.09086  -1.46302 
 
                          Input orientation:                          
 ---------------------------------------------------------------------
 Center     Atomic      Atomic             Coordinates (Angstroms)
 Number     Number       Type             X           Y           Z
 ---------------------------------------------------------------------
      1          8           0       -0.235906   -1.385887   -0.638793
      2          6           0       -1.516389   -1.903788   -1.096714
      3          1           0       -0.191665   -0.744471   -0.046305
      4          1           0       -2.019373   -2.438335   -0.287957
      5          1           0       -1.281902   -2.592755   -1.907328
      6          1           0       -2.144620   -1.090860   -1.463021
 ---------------------------------------------------------------------
                    Distance matrix (angstroms):
                    1          2          3          4          5
     1  O    0.000000
     2  C    1.455180   0.000000
     3  H    0.874308   2.049944   0.000000
     4  H    2.100354   1.092164   2.503615   0.000000
     5  H    2.039563   1.089383   2.840454   1.786077   0.000000
     6  H    2.099900   1.090737   2.437438   1.792247   1.788122
                    6
     6  H    0.000000
 Stoichiometry    CH4O
 Framework group  C1[X(CH4O)]
 Deg. of freedom    12
 Full point group                 C1      NOp   1
 Largest Abelian subgroup         C1      NOp   1
 Largest concise Abelian subgroup C1      NOp   1
                         Standard orientation:                         
 ---------------------------------------------------------------------
 Center     Atomic      Atomic             Coordinates (Angstroms)
 Number     Number       Type             X           Y           Z
 ---------------------------------------------------------------------
      1          8           0       -0.754672    0.103519   -0.000076
      2          6           0        0.695116   -0.021641   -0.000225
      3          1           0       -1.270930   -0.602073    0.005523
      4          1           0        1.039885   -0.427982    0.953107
      5          1           0        1.077470    0.989829   -0.132467
      6          1           0        1.020255   -0.658082   -0.824200
 ---------------------------------------------------------------------
 Rotational constants (GHZ):         135.5512419          23.6365629          23.1042582
 Standard basis: def2TZVP (5D, 7F)
 There are    96 symmetry adapted cartesian basis functions of A   symmetry.
 There are    86 symmetry adapted basis functions of A   symmetry.
    86 basis functions,   134 primitive gaussians,    96 cartesian basis functions
     9 alpha electrons        9 beta electrons
       nuclear repulsion energy        40.1882036518 Hartrees.
 NAtoms=    6 NActive=    6 NUniq=    6 SFac= 1.00D+00 NAtFMM=   60 NAOKFM=F Big=F
 Integral buffers will be    131072 words long.
 Raffenetti 2 integral format.
 Two-electron integral symmetry is turned on.
 ------------------------------------------------------------------------------
 Polarizable Continuum Model (PCM)
 =================================
 Model                : C-PCM.
 Atomic radii         : UFF (Universal Force Field).
 Polarization charges : Total charges.
 Charge compensation  : None.
 Solution method      : On-the-fly selection.
 Cavity type          : Scaled VdW (van der Waals Surface) (Alpha=1.100).
 Cavity algorithm     : GePol (No added spheres)
                        Default sphere list used, NSphG=    6.
                        Lebedev-Laikov grids with approx.  5.0 points / Ang**2.
                        Smoothing algorithm: York/Karplus (Gamma=1.0000).
                        Polarization charges: spherical gaussians, with
                                              point-specific exponents (IZeta= 3).
                        Self-potential: point-specific (ISelfS= 7).
                        Self-field    : sphere-specific E.n sum rule (ISelfD= 2).
 Solvent              : Water, Eps=  78.355300 Eps(inf)=   1.777849
 ------------------------------------------------------------------------------
 Spheres list:
 ISph  on   Nord     Re0    Alpha      Xe            Ye            Ze
    1   O      1    1.7500  1.100     -0.754672      0.103519     -0.000076
    2   C      2    1.9255  1.100      0.695116     -0.021641     -0.000225
    3   H      3    1.4430  1.100     -1.270930     -0.602073      0.005523
    4   H      4    1.4430  1.100      1.039885     -0.427982      0.953107
    5   H      5    1.4430  1.100      1.077470      0.989829     -0.132467
    6   H      6    1.4430  1.100      1.020255     -0.658082     -0.824200
 ------------------------------------------------------------------------------
 One-electron integrals computed using PRISM.
   1 Symmetry operations used in ECPInt.
 ECPInt:  NShTT=     741 NPrTT=    2136 LenC2=     741 LenP2D=    1961.
 LDataN:  DoStor=T MaxTD1= 6 Len=  172
 NBasis=    86 RedAO= T EigKep=  1.65D-03  NBF=    86
 NBsUse=    86 1.00D-06 EigRej= -1.00D+00 NBFU=    86
 ExpMin= 9.52D-02 ExpMax= 2.70D+04 ExpMxC= 9.22D+02 IAcc=3 IRadAn=         5 AccDes= 0.00D+00
 Harris functional with IExCor= 2002 and IRadAn=       5 diagonalized for initial guess.
 HarFok:  IExCor= 2002 AccDes= 0.00D+00 IRadAn=         5 IDoV= 1 UseB2=F ITyADJ=14
 ICtDFT=  3500011 ScaDFX=  1.000000  1.000000  1.000000  1.000000
 FoFCou: FMM=F IPFlag=           0 FMFlag=      100000 FMFlg1=           0
         NFxFlg=           0 DoJE=T BraDBF=F KetDBF=T FulRan=T
         wScrn=  0.000000 ICntrl=       500 IOpCl=  0 I1Cent=   200000004 NGrid=           0
         NMat0=    1 NMatS0=      1 NMatT0=    0 NMatD0=    1 NMtDS0=    0 NMtDT0=    0
 Petite list used in FoFCou.
 Keep J ints in memory in canonical form, NReq=10684533.
 Requested convergence on RMS density matrix=1.00D-08 within 128 cycles.
 Requested convergence on MAX density matrix=1.00D-06.
 Requested convergence on             energy=1.00D-06.
 No special actions if energy rises.
 Inv3:  Mode=1 IEnd=     1156923.
 Iteration    1 A*A^-1 deviation from unit magnitude is 2.66D-15 for    106.
 Iteration    1 A*A^-1 deviation from orthogonality  is 1.64D-15 for    595    316.
 Iteration    1 A^-1*A deviation from unit magnitude is 2.89D-15 for    608.
 Iteration    1 A^-1*A deviation from orthogonality  is 1.23D-15 for    609     54.
 Error on total polarization charges =  0.00729
 SCF Done:  E(RO-LYP) =  -115.719028527     A.U. after    9 cycles
            NFock=  9  Conv=0.73D-08     -V/T= 2.0019

 **********************************************************************

            Population analysis using the SCF density.

 **********************************************************************

 Orbital symmetries:
       Occupied  (A) (A) (A) (A) (A) (A) (A) (A) (A)
       Virtual   (A) (A) (A) (A) (A) (A) (A) (A) (A) (A) (A) (A)
                 (A) (A) (A) (A) (A) (A) (A) (A) (A) (A) (A) (A)
                 (A) (A) (A) (A) (A) (A) (A) (A) (A) (A) (A) (A)
                 (A) (A) (A) (A) (A) (A) (A) (A) (A) (A) (A) (A)
                 (A) (A) (A) (A) (A) (A) (A) (A) (A) (A) (A) (A)
                 (A) (A) (A) (A) (A) (A) (A) (A) (A) (A) (A) (A)
                 (A) (A) (A) (A) (A)
 The electronic state is 1-A.
 Alpha  occ. eigenvalues --  -18.74383  -9.93915  -0.93608  -0.63199  -0.45827
 Alpha  occ. eigenvalues --   -0.38327  -0.37750  -0.27628  -0.22680
 Alpha virt. eigenvalues --    0.01685   0.04606   0.09311   0.09954   0.11479
 Alpha virt. eigenvalues --    0.19235   0.19886   0.24951   0.34065   0.37347
 Alpha virt. eigenvalues --    0.40881   0.42450   0.45584   0.46092   0.46654
 Alpha virt. eigenvalues --    0.56395   0.65019   0.71990   0.76382   0.86966
 Alpha virt. eigenvalues --    0.88180   0.96602   1.25684   1.37324   1.39631
 Alpha virt. eigenvalues --    1.43148   1.44969   1.45399   1.49053   1.53491
 Alpha virt. eigenvalues --    1.55647   1.79033   1.84846   1.87806   1.90635
 Alpha virt. eigenvalues --    1.96669   2.14737   2.16554   2.19627   2.22182
 Alpha virt. eigenvalues --    2.26460   2.31848   2.45670   2.48169   2.57931
 Alpha virt. eigenvalues --    2.66655   2.70993   2.76574   2.85095   2.91104
 Alpha virt. eigenvalues --    2.98259   3.10652   3.26176   3.28670   3.33068
 Alpha virt. eigenvalues --    3.39348   3.44702   3.49471   3.90262   4.03561
 Alpha virt. eigenvalues --    4.10275   4.30360   4.38902   5.07266   5.11137
 Alpha virt. eigenvalues --    5.39637   5.55725   5.58335   5.78837   6.27574
 Alpha virt. eigenvalues --    6.30963   6.56180   6.58437   6.78859   7.10129
 Alpha virt. eigenvalues --   22.00387  43.25924
          Condensed to atoms (all electrons):
               1          2          3          4          5          6
     1  O    7.975114   0.328261   0.318396  -0.050686  -0.042342  -0.047703
     2  C    0.328261   4.653134  -0.040462   0.407618   0.387663   0.412892
     3  H    0.318396  -0.040462   0.432118  -0.002307   0.009777  -0.004961
     4  H   -0.050686   0.407618  -0.002307   0.617782  -0.037001  -0.043778
     5  H   -0.042342   0.387663   0.009777  -0.037001   0.591117  -0.032759
     6  H   -0.047703   0.412892  -0.004961  -0.043778  -0.032759   0.605518
 Mulliken charges:
               1
     1  O   -0.481040
     2  C   -0.149107
     3  H    0.287439
     4  H    0.108371
     5  H    0.123546
     6  H    0.110791
 Sum of Mulliken charges =  -0.00000
 Mulliken charges with hydrogens summed into heavy atoms:
               1
     1  O   -0.193601
     2  C    0.193601
 Electronic spatial extent (au):  <R**2>=             85.5115
 Charge=             -0.0000 electrons
 Dipole moment (field-independent basis, Debye):
    X=              0.8206    Y=             -1.5445    Z=             -0.0050  Tot=              1.7490
 Quadrupole moment (field-independent basis, Debye-Ang):
   XX=            -11.9898   YY=            -12.5033   ZZ=            -13.6418
   XY=              2.2617   XZ=             -0.0416   YZ=             -0.0105
 Traceless Quadrupole moment (field-independent basis, Debye-Ang):
   XX=              0.7218   YY=              0.2084   ZZ=             -0.9302
   XY=              2.2617   XZ=             -0.0416   YZ=             -0.0105
 Octapole moment (field-independent basis, Debye-Ang**2):
  XXX=             -5.8122  YYY=             -0.5027  ZZZ=              0.1874  XYY=             -1.3244
  XXY=             -2.6915  XXZ=             -0.0078  XZZ=             -0.3168  YZZ=             -0.8225
  YYZ=             -0.2433  XYZ=             -0.0005
 Hexadecapole moment (field-independent basis, Debye-Ang**3):
 XXXX=            -61.1951 YYYY=            -20.1929 ZZZZ=            -20.2294 XXXY=              4.7013
 XXXZ=             -0.0966 YYYX=              2.7367 YYYZ=             -0.0044 ZZZX=              0.1723
 ZZZY=             -0.0004 XXYY=            -13.0369 XXZZ=            -14.6011 YYZZ=             -6.7724
 XXYZ=             -0.0435 YYXZ=             -0.2844 ZZXY=             -0.0831
 N-N= 4.018820365182D+01 E-N=-3.523243412234D+02  KE= 1.155011741347D+02
 1\1\GINC-NODE85\SP\ROLYP\def2TZVP\C1H4O1\YANZ\22-Sep-2023\0\\# scrf=(c
 pcm,solvent=water) def2tzvp olyp\\tmpdir/M2_ref_11.gjf\\0,1\O,0,-0.235
 906,-1.385887,-0.638793\C,0,-1.516389,-1.903788,-1.096714\H,0,-0.19166
 453,-0.74447089,-0.04630528\H,0,-2.019373,-2.438335,-0.287957\H,0,-1.2
 81902,-2.592755,-1.907328\H,0,-2.14462,-1.09086,-1.463021\\Version=ES6
 4L-G16RevA.03\State=1-A\HF=-115.7190285\RMSD=7.296e-09\Dipole=-0.60342
 48,0.242082,0.2253186\Quadrupole=-1.1210497,0.6584882,0.4625616,0.6059
 345,0.5872676,1.2487452\PG=C01 [X(C1H4O1)]\\@


                                                                                    A
                                                                                  AA
                                                                                 AAA
                                                                                AAAA
                                                                               AAAAA
                                                                              AAAAAA   KKKKKKKK
                                                                             AAAAAAA   KKKKKKKK
                                                                            AAAAAAAA   KKKKKKKK
                                       ZZZZZZZZZZZZZZZZZZZZ                AAAA  AAA   KKKKKKKK
                                       ZZZZZZZZZZZZZZZZZZZ                AAAA   AAA   KKKKKKKK          K
                                       ZZZZZZZZZZZZZZZZZZ                AAAA    AAA   KKKKKKKK         KKK
                                       ZZZZZZZZZZZZZZZZZ                AAAA     AAA   KKKKKKKK        KKKKK
                                       ZZZZZZZZZZZZZZZZ                AAAA      AAA   KKKKKKKK       KKKKKKK
                                                ZZZZZZ                AAAA       AAA   KKKKKKKK      KKKKKKK
                                               ZZZZZZ                AAAA        AAA   KKKKKKKK     KKKKKKK
                                              ZZZZZZ                AAAA         AAA   KKKKKKKK    KKKKKKK
                                             ZZZZZZ                AAAA          AAA   KKKKKKKK   KKKKKKK
                                            ZZZZZZ                AAAAAAAAAAAAAAAAAA   KKKKKKKK  KKKKKKK
                                           ZZZZZZ                AAAAAAAAAAAAAAAAAAA   KKKKKKKK KKKKKKK
                                          ZZZZZZ                AAAAAAAAAAAAAAAAAAAA   KKKKKKKKKKKKKKK
                                         ZZZZZZ                AAAAAAAAAAAAAAAAAAAAA   KKKKKKKKKKKKKK
                                        ZZZZZZ                AAAAAA        AAAAAAAA   KKKKKKKKKKKKK
                                       ZZZZZZ                AAAAAA         AAAAAAAA   KKKKKKKKKKKK
                                      ZZZZZZ                AAAAAA          AAAAAAAA   KKKKKKKKKKK
                                     ZZZZZZ                AAAAAA           AAAAAAAA   KKKKKKKKKKKK
                                    ZZZZZZ                AAAAAA            AAAAAAAA   KKKKKKKKKKKKK
                                   ZZZZZZ                AAAAAA             AAAAAAAA   KKKKKKKKKKKKKK
                                  ZZZZZZ                AAAAAA              AAAAAAAA   KKKKKKKKKKKKKKK
                                 ZZZZZZ                AAAAAA               AAAAAAAA   KKKKK KKKKKKKKKK
                                ZZZZZZ                AAAAAA                AAAAAAAA   KKKKK  KKKKKKKKKK
                               ZZZZZZ                AAAAAA                            KKKKK   KKKKKKKKKK
                              ZZZZZZ                AAAAAA                             KKKKK    KKKKKKKKKK
                             ZZZZZZ                                                    KKKKK     KKKKKKKKKK
                            ZZZZZZ                                                     KKKKK      KKKKKKKKKK
                           ZZZZZZ                                                      KKKKK       KKKKKKKKKK
                          ZZZZZZ                                                       KKKKK        KKKKKKKKKK
                         ZZZZZZZZZZZZZZZZZZZZZZZZZZZZZZZZZZZZZZZZ                      KKKKK         KKKKKKKKKK
                        ZZZZZZZZZZZZZZZZZZZZZZZZZZZZZZZZZZZZZZZZZ                      KKKKK          KKKKKKKKKK
                       ZZZZZZZZZZZZZZZZZZZZZZZZZZZZZZZZZZZZZZZZZZ                      KKKKK           KKKKKKKKKK
                       ZZZZZZZZZZZZZZZZZZZZZZZZZZZZZZZZZZZZZZZZZZ                      KKKKK            KKKKKKKKKK
                       ZZZZZZZZZZZZZZZZZZZZZZZZZZZZZZZZZZZZZZZZZZ                      KKKKK             KKKKKKKKKK
                       ZZZZZZZZZZZZZZZZZZZZZZZZZZZZZZZZZZZZZZZZZZ                      KKKKK              KKKKKKKKKK
                       ZZZZZZZZZZZZZZZZZZZZZZZZZZZZZZZZZZZZZZZZZZ                      KKKKK               KKKKKKKKKK
                       ZZZZZZZZZZZZZZZZZZZZZZZZZZZZZZZZZZZZZZZZZZ                      KKKKK                KKKKKKKKKK
                       ZZZZZZZZZZZZZZZZZZZZZZZZZZZZZZZZZZZZZZZZZZ                      KKKKK
                                                                                       KKKKK
                                                                                          (J.P.)
 Job cpu time:       0 days  0 hours  0 minutes 23.4 seconds.
 Elapsed time:       0 days  0 hours  0 minutes  6.2 seconds.
 File lengths (MBytes):  RWF=     10 Int=      0 D2E=      0 Chk=      2 Scr=      1
 Normal termination of Gaussian 16 at Fri Sep 22 16:52:13 2023.
