 Entering Gaussian System, Link 0=g16
 Initial command:
 /share/apps/gaussian/g16/l1.exe "/tmp/55608.mgr/Gau-86480.inp" -scrdir="/tmp/55608.mgr/"
 Entering Link 1 = /share/apps/gaussian/g16/l1.exe PID=     86481.
  
 Copyright (c) 1988,1990,1992,1993,1995,1998,2003,2009,2016,
            Gaussian, Inc.  All Rights Reserved.
  
 This is part of the Gaussian(R) 16 program.  It is based on
 the Gaussian(R) 09 system (copyright 2009, Gaussian, Inc.),
 the Gaussian(R) 03 system (copyright 2003, Gaussian, Inc.),
 the Gaussian(R) 98 system (copyright 1998, Gaussian, Inc.),
 the Gaussian(R) 94 system (copyright 1995, Gaussian, Inc.),
 the Gaussian 92(TM) system (copyright 1992, Gaussian, Inc.),
 the Gaussian 90(TM) system (copyright 1990, Gaussian, Inc.),
 the Gaussian 88(TM) system (copyright 1988, Gaussian, Inc.),
 the Gaussian 86(TM) system (copyright 1986, Carnegie Mellon
 University), and the Gaussian 82(TM) system (copyright 1983,
 Carnegie Mellon University). Gaussian is a federally registered
 trademark of Gaussian, Inc.
  
 This software contains proprietary and confidential information,
 including trade secrets, belonging to Gaussian, Inc.
  
 This software is provided under written license and may be
 used, copied, transmitted, or stored only in accord with that
 written license.
  
 The following legend is applicable only to US Government
 contracts under FAR:
  
                    RESTRICTED RIGHTS LEGEND
  
 Use, reproduction and disclosure by the US Government is
 subject to restrictions as set forth in subparagraphs (a)
 and (c) of the Commercial Computer Software - Restricted
 Rights clause in FAR 52.227-19.
  
 Gaussian, Inc.
 340 Quinnipiac St., Bldg. 40, Wallingford CT 06492
  
  
 ---------------------------------------------------------------
 Warning -- This program may not be used in any manner that
 competes with the business of Gaussian, Inc. or will provide
 assistance to any competitor of Gaussian, Inc.  The licensee
 of this program is prohibited from giving any competitor of
 Gaussian, Inc. access to this program.  By using this program,
 the user acknowledges that Gaussian, Inc. is engaged in the
 business of creating and licensing software in the field of
 computational chemistry and represents and warrants to the
 licensee that it is not a competitor of Gaussian, Inc. and that
 it will not use this program in any manner prohibited above.
 ---------------------------------------------------------------
  

 Cite this work as:
 Gaussian 16, Revision A.03,
 M. J. Frisch, G. W. Trucks, H. B. Schlegel, G. E. Scuseria, 
 M. A. Robb, J. R. Cheeseman, G. Scalmani, V. Barone, 
 G. A. Petersson, H. Nakatsuji, X. Li, M. Caricato, A. V. Marenich, 
 J. Bloino, B. G. Janesko, R. Gomperts, B. Mennucci, H. P. Hratchian, 
 J. V. Ortiz, A. F. Izmaylov, J. L. Sonnenberg, D. Williams-Young, 
 F. Ding, F. Lipparini, F. Egidi, J. Goings, B. Peng, A. Petrone, 
 T. Henderson, D. Ranasinghe, V. G. Zakrzewski, J. Gao, N. Rega, 
 G. Zheng, W. Liang, M. Hada, M. Ehara, K. Toyota, R. Fukuda, 
 J. Hasegawa, M. Ishida, T. Nakajima, Y. Honda, O. Kitao, H. Nakai, 
 T. Vreven, K. Throssell, J. A. Montgomery, Jr., J. E. Peralta, 
 F. Ogliaro, M. J. Bearpark, J. J. Heyd, E. N. Brothers, K. N. Kudin, 
 V. N. Staroverov, T. A. Keith, R. Kobayashi, J. Normand, 
 K. Raghavachari, A. P. Rendell, J. C. Burant, S. S. Iyengar, 
 J. Tomasi, M. Cossi, J. M. Millam, M. Klene, C. Adamo, R. Cammi, 
 J. W. Ochterski, R. L. Martin, K. Morokuma, O. Farkas, 
 J. B. Foresman, and D. J. Fox, Gaussian, Inc., Wallingford CT, 2016.
 
 ******************************************
 Gaussian 16:  ES64L-G16RevA.03 25-Dec-2016
                22-Sep-2023 
 ******************************************
 %nprocshared=4
 Will use up to    4 processors via shared memory.
 %mem=4GB
 -----------------------------------------
 # scrf=(cpcm,solvent=water) def2tzvp olyp
 -----------------------------------------
 1/38=1,172=1/1;
 2/12=2,17=6,18=5,40=1/2;
 3/5=44,7=101,11=2,25=1,30=1,70=2101,72=1,74=2002/1,2,3;
 4//1;
 5/5=2,38=5,53=1/2;
 6/7=2,8=2,9=2,10=2,28=1/1;
 99/5=1,9=1/99;
 --------------------
 tmpdir/M2_ref_20.gjf
 --------------------
 Symbolic Z-matrix:
 Charge =  0 Multiplicity = 1
 O                    -0.23239  -1.16141   1.88329 
 P                     0.43524  -0.79448   3.25039 
 O                    -0.58922  -0.98803   4.40995 
 H                    -0.19009  -0.64368   1.08608 
 H                     1.40941  -1.77082   3.44172 
 O                     1.05873   0.56785   3.29537 
 H                    -1.15749  -1.77474   4.35418 
 
                          Input orientation:                          
 ---------------------------------------------------------------------
 Center     Atomic      Atomic             Coordinates (Angstroms)
 Number     Number       Type             X           Y           Z
 ---------------------------------------------------------------------
      1          8           0       -0.232392   -1.161409    1.883293
      2         15           0        0.435236   -0.794478    3.250390
      3          8           0       -0.589224   -0.988026    4.409947
      4          1           0       -0.190087   -0.643683    1.086076
      5          1           0        1.409406   -1.770821    3.441721
      6          8           0        1.058734    0.567850    3.295369
      7          1           0       -1.157492   -1.774739    4.354181
 ---------------------------------------------------------------------
                    Distance matrix (angstroms):
                    1          2          3          4          5
     1  O    0.000000
     2  P    1.565030   0.000000
     3  O    2.557610   1.559343   0.000000
     4  H    0.951517   2.257880   3.365412   0.000000
     5  H    2.344266   1.392430   2.354729   3.062333   0.000000
     6  O    2.579012   1.498903   2.525629   2.812177   2.369340
     7  H    2.708740   2.171647   0.972088   3.591054   2.724254
                    6          7
     6  O    0.000000
     7  H    3.394181   0.000000
 Stoichiometry    H3O3P
 Framework group  C1[X(H3O3P)]
 Deg. of freedom    15
 Full point group                 C1      NOp   1
 Largest Abelian subgroup         C1      NOp   1
 Largest concise Abelian subgroup C1      NOp   1
                         Standard orientation:                         
 ---------------------------------------------------------------------
 Center     Atomic      Atomic             Coordinates (Angstroms)
 Number     Number       Type             X           Y           Z
 ---------------------------------------------------------------------
      1          8           0        1.074207   -0.987961   -0.127936
      2         15           0       -0.001072    0.085001    0.248691
      3          8           0       -1.408763   -0.383390   -0.231484
      4          1           0        1.914884   -0.813840   -0.538215
      5          1           0       -0.051086    0.062543    1.640040
      6          8           0        0.305258    1.471585   -0.231161
      7          1           0       -1.613331   -1.325592   -0.107538
 ---------------------------------------------------------------------
 Rotational constants (GHZ):           8.1542595           7.7733459           4.4625866
 Standard basis: def2TZVP (5D, 7F)
 There are   168 symmetry adapted cartesian basis functions of A   symmetry.
 There are   148 symmetry adapted basis functions of A   symmetry.
   148 basis functions,   246 primitive gaussians,   168 cartesian basis functions
    21 alpha electrons       21 beta electrons
       nuclear repulsion energy       196.6001521523 Hartrees.
 NAtoms=    7 NActive=    7 NUniq=    7 SFac= 1.00D+00 NAtFMM=   60 NAOKFM=F Big=F
 Integral buffers will be    131072 words long.
 Raffenetti 2 integral format.
 Two-electron integral symmetry is turned on.
 ------------------------------------------------------------------------------
 Polarizable Continuum Model (PCM)
 =================================
 Model                : C-PCM.
 Atomic radii         : UFF (Universal Force Field).
 Polarization charges : Total charges.
 Charge compensation  : None.
 Solution method      : On-the-fly selection.
 Cavity type          : Scaled VdW (van der Waals Surface) (Alpha=1.100).
 Cavity algorithm     : GePol (No added spheres)
                        Default sphere list used, NSphG=    7.
                        Lebedev-Laikov grids with approx.  5.0 points / Ang**2.
                        Smoothing algorithm: York/Karplus (Gamma=1.0000).
                        Polarization charges: spherical gaussians, with
                                              point-specific exponents (IZeta= 3).
                        Self-potential: point-specific (ISelfS= 7).
                        Self-field    : sphere-specific E.n sum rule (ISelfD= 2).
 Solvent              : Water, Eps=  78.355300 Eps(inf)=   1.777849
 ------------------------------------------------------------------------------
 Spheres list:
 ISph  on   Nord     Re0    Alpha      Xe            Ye            Ze
    1   O      1    1.7500  1.100      1.074207     -0.987961     -0.127936
    2   P      2    2.0735  1.100     -0.001072      0.085001      0.248691
    3   O      3    1.7500  1.100     -1.408763     -0.383390     -0.231484
    4   H      4    1.4430  1.100      1.914884     -0.813840     -0.538215
    5   H      5    1.4430  1.100     -0.051086      0.062543      1.640040
    6   O      6    1.7500  1.100      0.305258      1.471585     -0.231161
    7   H      7    1.4430  1.100     -1.613331     -1.325592     -0.107538
 ------------------------------------------------------------------------------
 One-electron integrals computed using PRISM.
   1 Symmetry operations used in ECPInt.
 ECPInt:  NShTT=    1711 NPrTT=    5676 LenC2=    1698 LenP2D=    4722.
 LDataN:  DoStor=T MaxTD1= 6 Len=  172
 NBasis=   148 RedAO= T EigKep=  1.48D-03  NBF=   148
 NBsUse=   148 1.00D-06 EigRej= -1.00D+00 NBFU=   148
 ExpMin= 9.04D-02 ExpMax= 5.24D+04 ExpMxC= 1.79D+03 IAcc=3 IRadAn=         5 AccDes= 0.00D+00
 Harris functional with IExCor= 2002 and IRadAn=       5 diagonalized for initial guess.
 HarFok:  IExCor= 2002 AccDes= 0.00D+00 IRadAn=         5 IDoV= 1 UseB2=F ITyADJ=14
 ICtDFT=  3500011 ScaDFX=  1.000000  1.000000  1.000000  1.000000
 FoFCou: FMM=F IPFlag=           0 FMFlag=      100000 FMFlg1=           0
         NFxFlg=           0 DoJE=T BraDBF=F KetDBF=T FulRan=T
         wScrn=  0.000000 ICntrl=       500 IOpCl=  0 I1Cent=   200000004 NGrid=           0
         NMat0=    1 NMatS0=      1 NMatT0=    0 NMatD0=    1 NMtDS0=    0 NMtDT0=    0
 Petite list used in FoFCou.
 Keep J ints in memory in canonical form, NReq=64775784.
 Requested convergence on RMS density matrix=1.00D-08 within 128 cycles.
 Requested convergence on MAX density matrix=1.00D-06.
 Requested convergence on             energy=1.00D-06.
 No special actions if energy rises.
 Inv3:  Mode=1 IEnd=     2208492.
 Iteration    1 A*A^-1 deviation from unit magnitude is 3.77D-15 for    835.
 Iteration    1 A*A^-1 deviation from orthogonality  is 1.43D-15 for    754    569.
 Iteration    1 A^-1*A deviation from unit magnitude is 4.00D-15 for    835.
 Iteration    1 A^-1*A deviation from orthogonality  is 1.39D-15 for    734    457.
 Error on total polarization charges =  0.00779
 SCF Done:  E(RO-LYP) =  -568.980880816     A.U. after   12 cycles
            NFock= 12  Conv=0.18D-08     -V/T= 2.0019

 **********************************************************************

            Population analysis using the SCF density.

 **********************************************************************

 Orbital symmetries:
       Occupied  (A) (A) (A) (A) (A) (A) (A) (A) (A) (A) (A) (A)
                 (A) (A) (A) (A) (A) (A) (A) (A) (A)
       Virtual   (A) (A) (A) (A) (A) (A) (A) (A) (A) (A) (A) (A)
                 (A) (A) (A) (A) (A) (A) (A) (A) (A) (A) (A) (A)
                 (A) (A) (A) (A) (A) (A) (A) (A) (A) (A) (A) (A)
                 (A) (A) (A) (A) (A) (A) (A) (A) (A) (A) (A) (A)
                 (A) (A) (A) (A) (A) (A) (A) (A) (A) (A) (A) (A)
                 (A) (A) (A) (A) (A) (A) (A) (A) (A) (A) (A) (A)
                 (A) (A) (A) (A) (A) (A) (A) (A) (A) (A) (A) (A)
                 (A) (A) (A) (A) (A) (A) (A) (A) (A) (A) (A) (A)
                 (A) (A) (A) (A) (A) (A) (A) (A) (A) (A) (A) (A)
                 (A) (A) (A) (A) (A) (A) (A) (A) (A) (A) (A) (A)
                 (A) (A) (A) (A) (A) (A) (A)
 The electronic state is 1-A.
 Alpha  occ. eigenvalues --  -76.39409 -18.81065 -18.80186 -18.71776  -6.41901
 Alpha  occ. eigenvalues --   -4.62985  -4.62811  -4.62581  -1.01079  -0.96964
 Alpha  occ. eigenvalues --   -0.87238  -0.60597  -0.53878  -0.45441  -0.39461
 Alpha  occ. eigenvalues --   -0.38206  -0.33639  -0.31834  -0.30199  -0.25395
 Alpha  occ. eigenvalues --   -0.24806
 Alpha virt. eigenvalues --   -0.00415   0.01463   0.04616   0.05965   0.07917
 Alpha virt. eigenvalues --    0.11327   0.19469   0.21062   0.22880   0.26168
 Alpha virt. eigenvalues --    0.30209   0.32503   0.35401   0.36223   0.38802
 Alpha virt. eigenvalues --    0.41164   0.42215   0.43472   0.46840   0.47827
 Alpha virt. eigenvalues --    0.51472   0.53354   0.58869   0.59715   0.63775
 Alpha virt. eigenvalues --    0.65167   0.67236   0.70039   0.78112   0.80535
 Alpha virt. eigenvalues --    1.06860   1.07886   1.10345   1.11636   1.13744
 Alpha virt. eigenvalues --    1.22251   1.22428   1.24668   1.28423   1.32970
 Alpha virt. eigenvalues --    1.34785   1.36320   1.38655   1.50696   1.51874
 Alpha virt. eigenvalues --    1.54228   1.58660   1.62212   1.71712   1.74018
 Alpha virt. eigenvalues --    1.78997   1.82010   1.82749   1.85689   1.89358
 Alpha virt. eigenvalues --    1.91879   1.93795   2.04060   2.06216   2.09871
 Alpha virt. eigenvalues --    2.12578   2.16221   2.19316   2.20161   2.24427
 Alpha virt. eigenvalues --    2.26180   2.37610   2.43333   2.48736   2.62785
 Alpha virt. eigenvalues --    2.66143   2.66363   2.69285   2.70599   2.79282
 Alpha virt. eigenvalues --    2.79926   2.85486   2.88243   2.89717   3.25031
 Alpha virt. eigenvalues --    3.48818   3.68274   3.75161   3.77297   4.94033
 Alpha virt. eigenvalues --    4.94673   4.97224   4.99916   5.01257   5.02909
 Alpha virt. eigenvalues --    5.05710   5.09913   5.10756   5.13553   5.18667
 Alpha virt. eigenvalues --    5.20532   5.23333   5.25688   5.30268   5.33134
 Alpha virt. eigenvalues --    5.35612   5.47504   5.49601   6.00042   6.10997
 Alpha virt. eigenvalues --    6.15677   6.17826   6.23276   6.27806   6.36457
 Alpha virt. eigenvalues --    6.39508   6.43731   6.48816   6.55880   6.60708
 Alpha virt. eigenvalues --    6.62700   6.65199   6.73754   6.87911   6.89797
 Alpha virt. eigenvalues --    7.32244   7.85899   7.93870  16.38725  43.10314
 Alpha virt. eigenvalues --   43.16525  43.20114
          Condensed to atoms (all electrons):
               1          2          3          4          5          6
     1  O    7.852113   0.422102  -0.039810   0.298543  -0.039762  -0.061384
     2  P    0.422102  12.371239   0.409134  -0.014098   0.376165   0.743945
     3  O   -0.039810   0.409134   7.847032   0.001422  -0.047694  -0.051580
     4  H    0.298543  -0.014098   0.001422   0.351954   0.004568   0.000517
     5  H   -0.039762   0.376165  -0.047694   0.004568   0.740605  -0.047355
     6  O   -0.061384   0.743945  -0.051580   0.000517  -0.047355   8.001869
     7  H   -0.000725  -0.002785   0.278487  -0.000022   0.001316   0.002810
               7
     1  O   -0.000725
     2  P   -0.002785
     3  O    0.278487
     4  H   -0.000022
     5  H    0.001316
     6  O    0.002810
     7  H    0.367603
 Mulliken charges:
               1
     1  O   -0.431077
     2  P    0.694299
     3  O   -0.396991
     4  H    0.357117
     5  H    0.012158
     6  O   -0.588822
     7  H    0.353316
 Sum of Mulliken charges =  -0.00000
 Mulliken charges with hydrogens summed into heavy atoms:
               1
     1  O   -0.073960
     2  P    0.706457
     3  O   -0.043675
     6  O   -0.588822
 Electronic spatial extent (au):  <R**2>=            299.6428
 Charge=             -0.0000 electrons
 Dipole moment (field-independent basis, Debye):
    X=              0.4035    Y=             -5.3428    Z=              1.0520  Tot=              5.4603
 Quadrupole moment (field-independent basis, Debye-Ang):
   XX=            -23.8957   YY=            -33.9150   ZZ=            -28.8200
   XY=              1.2798   XZ=             -2.2596   YZ=              1.8084
 Traceless Quadrupole moment (field-independent basis, Debye-Ang):
   XX=              4.9812   YY=             -5.0381   ZZ=              0.0569
   XY=              1.2798   XZ=             -2.2596   YZ=              1.8084
 Octapole moment (field-independent basis, Debye-Ang**2):
  XXX=             11.2112  YYY=            -17.9339  ZZZ=             -0.4990  XYY=             -8.5679
  XXY=            -11.1549  XXZ=             -4.1220  XZZ=              1.4434  YZZ=             -1.9602
  YYZ=              0.4913  XYZ=              1.8016
 Hexadecapole moment (field-independent basis, Debye-Ang**3):
 XXXX=           -118.2306 YYYY=           -162.2097 ZZZZ=            -50.6424 XXXY=             -0.4734
 XXXZ=            -10.2887 YYYX=              7.1588 YYYZ=              3.5953 ZZZX=             -1.6727
 ZZZY=              1.7295 XXYY=            -39.0728 XXZZ=            -31.9410 YYZZ=            -34.3748
 XXYZ=              4.7004 YYXZ=             -0.7741 ZZXY=             -1.1328
 N-N= 1.966001521523D+02 E-N=-1.744055594509D+03  KE= 5.679061088699D+02
 1\1\GINC-NODE85\SP\ROLYP\def2TZVP\H3O3P1\YANZ\22-Sep-2023\0\\# scrf=(c
 pcm,solvent=water) def2tzvp olyp\\tmpdir/M2_ref_20.gjf\\0,1\O,0,-0.232
 392,-1.161409,1.883293\P,0,0.435236,-0.794478,3.25039\O,0,-0.589224,-0
 .988026,4.409947\H,0,-0.1900868,-0.64368341,1.08607603\H,0,1.40940556,
 -1.77082127,3.44172149\O,0,1.058734,0.56785,3.295369\H,0,-1.157492,-1.
 774739,4.354181\\Version=ES64L-G16RevA.03\State=1-A\HF=-568.9808808\RM
 SD=1.776e-09\Dipole=-1.0031788,-1.7674352,-0.6963155\Quadrupole=-0.326
 485,-2.6660987,2.9925837,-1.0850901,-0.6588383,-3.116497\PG=C01 [X(H3O
 3P1)]\\@


 QUHEN THE CAUSS IS TAKEN AWAY THE EFFECT WANISHETH.
 -- PROVERBS AND REASONS OF THE YEAR 1585
           AS REPRINTED IN PAISLEY MAGAZINE 1828.
 Job cpu time:       0 days  0 hours  1 minutes  9.9 seconds.
 Elapsed time:       0 days  0 hours  0 minutes 19.1 seconds.
 File lengths (MBytes):  RWF=     17 Int=      0 D2E=      0 Chk=      3 Scr=      1
 Normal termination of Gaussian 16 at Fri Sep 22 16:52:37 2023.
