 Entering Gaussian System, Link 0=g16
 Initial command:
 /share/apps/gaussian/g16/l1.exe "/tmp/55608.mgr/Gau-86384.inp" -scrdir="/tmp/55608.mgr/"
 Entering Link 1 = /share/apps/gaussian/g16/l1.exe PID=     86385.
  
 Copyright (c) 1988,1990,1992,1993,1995,1998,2003,2009,2016,
            Gaussian, Inc.  All Rights Reserved.
  
 This is part of the Gaussian(R) 16 program.  It is based on
 the Gaussian(R) 09 system (copyright 2009, Gaussian, Inc.),
 the Gaussian(R) 03 system (copyright 2003, Gaussian, Inc.),
 the Gaussian(R) 98 system (copyright 1998, Gaussian, Inc.),
 the Gaussian(R) 94 system (copyright 1995, Gaussian, Inc.),
 the Gaussian 92(TM) system (copyright 1992, Gaussian, Inc.),
 the Gaussian 90(TM) system (copyright 1990, Gaussian, Inc.),
 the Gaussian 88(TM) system (copyright 1988, Gaussian, Inc.),
 the Gaussian 86(TM) system (copyright 1986, Carnegie Mellon
 University), and the Gaussian 82(TM) system (copyright 1983,
 Carnegie Mellon University). Gaussian is a federally registered
 trademark of Gaussian, Inc.
  
 This software contains proprietary and confidential information,
 including trade secrets, belonging to Gaussian, Inc.
  
 This software is provided under written license and may be
 used, copied, transmitted, or stored only in accord with that
 written license.
  
 The following legend is applicable only to US Government
 contracts under FAR:
  
                    RESTRICTED RIGHTS LEGEND
  
 Use, reproduction and disclosure by the US Government is
 subject to restrictions as set forth in subparagraphs (a)
 and (c) of the Commercial Computer Software - Restricted
 Rights clause in FAR 52.227-19.
  
 Gaussian, Inc.
 340 Quinnipiac St., Bldg. 40, Wallingford CT 06492
  
  
 ---------------------------------------------------------------
 Warning -- This program may not be used in any manner that
 competes with the business of Gaussian, Inc. or will provide
 assistance to any competitor of Gaussian, Inc.  The licensee
 of this program is prohibited from giving any competitor of
 Gaussian, Inc. access to this program.  By using this program,
 the user acknowledges that Gaussian, Inc. is engaged in the
 business of creating and licensing software in the field of
 computational chemistry and represents and warrants to the
 licensee that it is not a competitor of Gaussian, Inc. and that
 it will not use this program in any manner prohibited above.
 ---------------------------------------------------------------
  

 Cite this work as:
 Gaussian 16, Revision A.03,
 M. J. Frisch, G. W. Trucks, H. B. Schlegel, G. E. Scuseria, 
 M. A. Robb, J. R. Cheeseman, G. Scalmani, V. Barone, 
 G. A. Petersson, H. Nakatsuji, X. Li, M. Caricato, A. V. Marenich, 
 J. Bloino, B. G. Janesko, R. Gomperts, B. Mennucci, H. P. Hratchian, 
 J. V. Ortiz, A. F. Izmaylov, J. L. Sonnenberg, D. Williams-Young, 
 F. Ding, F. Lipparini, F. Egidi, J. Goings, B. Peng, A. Petrone, 
 T. Henderson, D. Ranasinghe, V. G. Zakrzewski, J. Gao, N. Rega, 
 G. Zheng, W. Liang, M. Hada, M. Ehara, K. Toyota, R. Fukuda, 
 J. Hasegawa, M. Ishida, T. Nakajima, Y. Honda, O. Kitao, H. Nakai, 
 T. Vreven, K. Throssell, J. A. Montgomery, Jr., J. E. Peralta, 
 F. Ogliaro, M. J. Bearpark, J. J. Heyd, E. N. Brothers, K. N. Kudin, 
 V. N. Staroverov, T. A. Keith, R. Kobayashi, J. Normand, 
 K. Raghavachari, A. P. Rendell, J. C. Burant, S. S. Iyengar, 
 J. Tomasi, M. Cossi, J. M. Millam, M. Klene, C. Adamo, R. Cammi, 
 J. W. Ochterski, R. L. Martin, K. Morokuma, O. Farkas, 
 J. B. Foresman, and D. J. Fox, Gaussian, Inc., Wallingford CT, 2016.
 
 ******************************************
 Gaussian 16:  ES64L-G16RevA.03 25-Dec-2016
                22-Sep-2023 
 ******************************************
 %nprocshared=4
 Will use up to    4 processors via shared memory.
 %mem=4GB
 -----------------------------------------
 # scrf=(cpcm,solvent=water) def2tzvp olyp
 -----------------------------------------
 1/38=1,172=1/1;
 2/12=2,17=6,18=5,40=1/2;
 3/5=44,7=101,11=2,25=1,30=1,70=2101,72=1,74=2002/1,2,3;
 4//1;
 5/5=2,38=5,53=1/2;
 6/7=2,8=2,9=2,10=2,28=1/1;
 99/5=1,9=1/99;
 --------------------
 tmpdir/M2_ref_27.gjf
 --------------------
 Symbolic Z-matrix:
 Charge =  0 Multiplicity = 1
 O                    -0.58922  -0.98803   4.40995 
 H                    -1.15749  -1.77474   4.35418 
 H                    -0.02473  -0.88138   3.77101 
 
                          Input orientation:                          
 ---------------------------------------------------------------------
 Center     Atomic      Atomic             Coordinates (Angstroms)
 Number     Number       Type             X           Y           Z
 ---------------------------------------------------------------------
      1          8           0       -0.589224   -0.988026    4.409947
      2          1           0       -1.157492   -1.774739    4.354181
      3          1           0       -0.024732   -0.881378    3.771015
 ---------------------------------------------------------------------
                    Distance matrix (angstroms):
                    1          2          3
     1  O    0.000000
     2  H    0.972088   0.000000
     3  H    0.859220   1.556059   0.000000
 Stoichiometry    H2O
 Framework group  CS[SG(H2O)]
 Deg. of freedom     3
 Full point group                 CS      NOp   2
 Largest Abelian subgroup         CS      NOp   2
 Largest concise Abelian subgroup C1      NOp   1
                         Standard orientation:                         
 ---------------------------------------------------------------------
 Center     Atomic      Atomic             Coordinates (Angstroms)
 Number     Number       Type             X           Y           Z
 ---------------------------------------------------------------------
      1          8           0        0.000000    0.097217   -0.000000
      2          1           0        0.770733   -0.495174    0.000000
      3          1           0       -0.770733   -0.282560   -0.000000
 ---------------------------------------------------------------------
 Rotational constants (GHZ):        1229.4995924         410.1963299         307.5791149
 Standard basis: def2TZVP (5D, 7F)
 There are    35 symmetry adapted cartesian basis functions of A'  symmetry.
 There are    13 symmetry adapted cartesian basis functions of A"  symmetry.
 There are    31 symmetry adapted basis functions of A'  symmetry.
 There are    12 symmetry adapted basis functions of A"  symmetry.
    43 basis functions,    67 primitive gaussians,    48 cartesian basis functions
     5 alpha electrons        5 beta electrons
       nuclear repulsion energy         9.6220949318 Hartrees.
 NAtoms=    3 NActive=    3 NUniq=    3 SFac= 1.00D+00 NAtFMM=   60 NAOKFM=F Big=F
 Integral buffers will be    131072 words long.
 Raffenetti 2 integral format.
 Two-electron integral symmetry is turned on.
 ------------------------------------------------------------------------------
 Polarizable Continuum Model (PCM)
 =================================
 Model                : C-PCM.
 Atomic radii         : UFF (Universal Force Field).
 Polarization charges : Total charges.
 Charge compensation  : None.
 Solution method      : On-the-fly selection.
 Cavity type          : Scaled VdW (van der Waals Surface) (Alpha=1.100).
 Cavity algorithm     : GePol (No added spheres)
                        Default sphere list used, NSphG=    3.
                        Lebedev-Laikov grids with approx.  5.0 points / Ang**2.
                        Smoothing algorithm: York/Karplus (Gamma=1.0000).
                        Polarization charges: spherical gaussians, with
                                              point-specific exponents (IZeta= 3).
                        Self-potential: point-specific (ISelfS= 7).
                        Self-field    : sphere-specific E.n sum rule (ISelfD= 2).
 Solvent              : Water, Eps=  78.355300 Eps(inf)=   1.777849
 ------------------------------------------------------------------------------
 Spheres list:
 ISph  on   Nord     Re0    Alpha      Xe            Ye            Ze
    1   O      1    1.7500  1.100      0.000000      0.097217     -0.000000
    2   H      2    1.4430  1.100      0.770733     -0.495174      0.000000
    3   H      3    1.4430  1.100     -0.770733     -0.282560     -0.000000
 ------------------------------------------------------------------------------
 One-electron integrals computed using PRISM.
   2 Symmetry operations used in ECPInt.
 ECPInt:  NShTT=     190 NPrTT=     556 LenC2=     191 LenP2D=     543.
 LDataN:  DoStor=T MaxTD1= 6 Len=  172
 NBasis=    43 RedAO= T EigKep=  6.74D-03  NBF=    31    12
 NBsUse=    43 1.00D-06 EigRej= -1.00D+00 NBFU=    31    12
 ExpMin= 1.03D-01 ExpMax= 2.70D+04 ExpMxC= 9.22D+02 IAcc=3 IRadAn=         5 AccDes= 0.00D+00
 Harris functional with IExCor= 2002 and IRadAn=       5 diagonalized for initial guess.
 HarFok:  IExCor= 2002 AccDes= 0.00D+00 IRadAn=         5 IDoV= 1 UseB2=F ITyADJ=14
 ICtDFT=  3500011 ScaDFX=  1.000000  1.000000  1.000000  1.000000
 FoFCou: FMM=F IPFlag=           0 FMFlag=      100000 FMFlg1=           0
         NFxFlg=           0 DoJE=T BraDBF=F KetDBF=T FulRan=T
         wScrn=  0.000000 ICntrl=       500 IOpCl=  0 I1Cent=   200000004 NGrid=           0
         NMat0=    1 NMatS0=      1 NMatT0=    0 NMatD0=    1 NMtDS0=    0 NMtDT0=    0
 Petite list used in FoFCou.
 Initial guess orbital symmetries:
       Occupied  (A') (A') (A') (A') (A")
       Virtual   (A') (A') (A') (A') (A") (A') (A') (A') (A") (A')
                 (A") (A') (A') (A') (A') (A") (A") (A') (A') (A")
                 (A') (A') (A') (A') (A') (A") (A') (A") (A") (A')
                 (A') (A") (A') (A") (A') (A') (A') (A')
 The electronic state of the initial guess is 1-A'.
 Keep J ints in memory in symmetry-blocked form, NReq=3935939.
 Requested convergence on RMS density matrix=1.00D-08 within 128 cycles.
 Requested convergence on MAX density matrix=1.00D-06.
 Requested convergence on             energy=1.00D-06.
 No special actions if energy rises.
 Inv3:  Mode=1 IEnd=      451632.
 Iteration    1 A*A^-1 deviation from unit magnitude is 5.33D-15 for     96.
 Iteration    1 A*A^-1 deviation from orthogonality  is 1.85D-15 for    297      5.
 Iteration    1 A^-1*A deviation from unit magnitude is 4.88D-15 for     96.
 Iteration    1 A^-1*A deviation from orthogonality  is 9.84D-16 for    376     92.
 Error on total polarization charges =  0.00416
 SCF Done:  E(RO-LYP) =  -76.4295657316     A.U. after   10 cycles
            NFock= 10  Conv=0.40D-09     -V/T= 2.0001

 **********************************************************************

            Population analysis using the SCF density.

 **********************************************************************

 Orbital symmetries:
       Occupied  (A') (A') (A') (A') (A")
       Virtual   (A') (A') (A') (A') (A") (A') (A') (A') (A") (A')
                 (A") (A') (A') (A') (A') (A") (A") (A') (A') (A")
                 (A') (A') (A') (A') (A') (A") (A') (A") (A") (A')
                 (A') (A") (A') (A") (A') (A') (A') (A')
 The electronic state is 1-A'.
 Alpha  occ. eigenvalues --  -18.74467  -0.94203  -0.51167  -0.31816  -0.25937
 Alpha virt. eigenvalues --    0.00636   0.08223   0.34391   0.37321   0.39616
 Alpha virt. eigenvalues --    0.40970   0.55201   0.58326   1.12350   1.19604
 Alpha virt. eigenvalues --    1.27860   1.43405   1.51640   1.67834   1.88663
 Alpha virt. eigenvalues --    1.95153   2.15093   2.21245   2.41975   2.53397
 Alpha virt. eigenvalues --    2.53716   2.67646   2.79894   3.53616   3.95809
 Alpha virt. eigenvalues --    4.98044   5.03936   5.24567   5.36886   5.50641
 Alpha virt. eigenvalues --    5.93111   6.15107   6.18167   6.26634   6.34600
 Alpha virt. eigenvalues --    6.72325   7.12388  42.94102
          Condensed to atoms (all electrons):
               1          2          3
     1  O    7.993353   0.314854   0.347181
     2  H    0.314854   0.363490  -0.028941
     3  H    0.347181  -0.028941   0.376969
 Mulliken charges:
               1
     1  O   -0.655388
     2  H    0.350597
     3  H    0.304791
 Sum of Mulliken charges =  -0.00000
 Mulliken charges with hydrogens summed into heavy atoms:
               1
     1  O   -0.000000
 Electronic spatial extent (au):  <R**2>=             18.9982
 Charge=              0.0000 electrons
 Dipole moment (field-independent basis, Debye):
    X=             -0.0668    Y=             -1.9815    Z=              0.0000  Tot=              1.9827
 Quadrupole moment (field-independent basis, Debye-Ang):
   XX=             -3.9565   YY=             -6.4963   ZZ=             -7.4696
   XY=             -0.4038   XZ=              0.0000   YZ=              0.0000
 Traceless Quadrupole moment (field-independent basis, Debye-Ang):
   XX=              2.0177   YY=             -0.5221   ZZ=             -1.4955
   XY=             -0.4038   XZ=              0.0000   YZ=              0.0000
 Octapole moment (field-independent basis, Debye-Ang**2):
  XXX=             -0.1749  YYY=             -1.3747  ZZZ=              0.0000  XYY=              0.1868
  XXY=             -1.2846  XXZ=              0.0000  XZZ=             -0.0735  YZZ=             -0.3916
  YYZ=              0.0000  XYZ=             -0.0000
 Hexadecapole moment (field-independent basis, Debye-Ang**3):
 XXXX=             -5.4673 YYYY=             -6.8434 ZZZZ=             -6.4127 XXXY=             -0.0588
 XXXZ=             -0.0000 YYYX=              0.0004 YYYZ=              0.0000 ZZZX=             -0.0000
 ZZZY=              0.0000 XXYY=             -1.8781 XXZZ=             -2.3035 YYZZ=             -2.2452
 XXYZ=             -0.0000 YYXZ=             -0.0000 ZZXY=              0.0674
 N-N= 9.622094931813D+00 E-N=-2.003250614419D+02  KE= 7.642411172381D+01
 Symmetry A'   KE= 7.191169680851D+01
 Symmetry A"   KE= 4.512414915300D+00
 1\1\GINC-NODE85\SP\ROLYP\def2TZVP\H2O1\YANZ\22-Sep-2023\0\\# scrf=(cpc
 m,solvent=water) def2tzvp olyp\\tmpdir/M2_ref_27.gjf\\0,1\O,0,-0.58922
 4,-0.988026,4.409947\H,0,-1.157492,-1.774739,4.354181\H,0,-0.0247322,-
 0.88137834,3.77101486\\Version=ES64L-G16RevA.03\State=1-A'\HF=-76.4295
 657\RMSD=3.984e-10\Dipole=0.0162661,-0.5326631,-0.56962\Quadrupole=0.2
 982942,0.054682,-0.3529762,1.0832966,-0.7556672,-0.2364734\PG=CS [SG(H
 2O1)]\\@


 THE FIRST MORNING OF CREATION WROTE WHAT THE LAST DAWN OF
 RECKONING SHALL READ. -- OMAR KHAYYAM
 Job cpu time:       0 days  0 hours  0 minutes  8.1 seconds.
 Elapsed time:       0 days  0 hours  0 minutes  2.2 seconds.
 File lengths (MBytes):  RWF=      6 Int=      0 D2E=      0 Chk=      1 Scr=      1
 Normal termination of Gaussian 16 at Fri Sep 22 16:52:15 2023.
