 Entering Gaussian System, Link 0=g16
 Initial command:
 /share/apps/gaussian/g16/l1.exe "/tmp/55608.mgr/Gau-85714.inp" -scrdir="/tmp/55608.mgr/"
 Entering Link 1 = /share/apps/gaussian/g16/l1.exe PID=     85720.
  
 Copyright (c) 1988,1990,1992,1993,1995,1998,2003,2009,2016,
            Gaussian, Inc.  All Rights Reserved.
  
 This is part of the Gaussian(R) 16 program.  It is based on
 the Gaussian(R) 09 system (copyright 2009, Gaussian, Inc.),
 the Gaussian(R) 03 system (copyright 2003, Gaussian, Inc.),
 the Gaussian(R) 98 system (copyright 1998, Gaussian, Inc.),
 the Gaussian(R) 94 system (copyright 1995, Gaussian, Inc.),
 the Gaussian 92(TM) system (copyright 1992, Gaussian, Inc.),
 the Gaussian 90(TM) system (copyright 1990, Gaussian, Inc.),
 the Gaussian 88(TM) system (copyright 1988, Gaussian, Inc.),
 the Gaussian 86(TM) system (copyright 1986, Carnegie Mellon
 University), and the Gaussian 82(TM) system (copyright 1983,
 Carnegie Mellon University). Gaussian is a federally registered
 trademark of Gaussian, Inc.
  
 This software contains proprietary and confidential information,
 including trade secrets, belonging to Gaussian, Inc.
  
 This software is provided under written license and may be
 used, copied, transmitted, or stored only in accord with that
 written license.
  
 The following legend is applicable only to US Government
 contracts under FAR:
  
                    RESTRICTED RIGHTS LEGEND
  
 Use, reproduction and disclosure by the US Government is
 subject to restrictions as set forth in subparagraphs (a)
 and (c) of the Commercial Computer Software - Restricted
 Rights clause in FAR 52.227-19.
  
 Gaussian, Inc.
 340 Quinnipiac St., Bldg. 40, Wallingford CT 06492
  
  
 ---------------------------------------------------------------
 Warning -- This program may not be used in any manner that
 competes with the business of Gaussian, Inc. or will provide
 assistance to any competitor of Gaussian, Inc.  The licensee
 of this program is prohibited from giving any competitor of
 Gaussian, Inc. access to this program.  By using this program,
 the user acknowledges that Gaussian, Inc. is engaged in the
 business of creating and licensing software in the field of
 computational chemistry and represents and warrants to the
 licensee that it is not a competitor of Gaussian, Inc. and that
 it will not use this program in any manner prohibited above.
 ---------------------------------------------------------------
  

 Cite this work as:
 Gaussian 16, Revision A.03,
 M. J. Frisch, G. W. Trucks, H. B. Schlegel, G. E. Scuseria, 
 M. A. Robb, J. R. Cheeseman, G. Scalmani, V. Barone, 
 G. A. Petersson, H. Nakatsuji, X. Li, M. Caricato, A. V. Marenich, 
 J. Bloino, B. G. Janesko, R. Gomperts, B. Mennucci, H. P. Hratchian, 
 J. V. Ortiz, A. F. Izmaylov, J. L. Sonnenberg, D. Williams-Young, 
 F. Ding, F. Lipparini, F. Egidi, J. Goings, B. Peng, A. Petrone, 
 T. Henderson, D. Ranasinghe, V. G. Zakrzewski, J. Gao, N. Rega, 
 G. Zheng, W. Liang, M. Hada, M. Ehara, K. Toyota, R. Fukuda, 
 J. Hasegawa, M. Ishida, T. Nakajima, Y. Honda, O. Kitao, H. Nakai, 
 T. Vreven, K. Throssell, J. A. Montgomery, Jr., J. E. Peralta, 
 F. Ogliaro, M. J. Bearpark, J. J. Heyd, E. N. Brothers, K. N. Kudin, 
 V. N. Staroverov, T. A. Keith, R. Kobayashi, J. Normand, 
 K. Raghavachari, A. P. Rendell, J. C. Burant, S. S. Iyengar, 
 J. Tomasi, M. Cossi, J. M. Millam, M. Klene, C. Adamo, R. Cammi, 
 J. W. Ochterski, R. L. Martin, K. Morokuma, O. Farkas, 
 J. B. Foresman, and D. J. Fox, Gaussian, Inc., Wallingford CT, 2016.
 
 ******************************************
 Gaussian 16:  ES64L-G16RevA.03 25-Dec-2016
                22-Sep-2023 
 ******************************************
 %nprocshared=4
 Will use up to    4 processors via shared memory.
 %mem=4GB
 -----------------------------------------
 # scrf=(cpcm,solvent=water) def2tzvp olyp
 -----------------------------------------
 1/38=1,172=1/1;
 2/12=2,17=6,18=5,40=1/2;
 3/5=44,7=101,11=2,25=1,30=1,70=2101,72=1,74=2002/1,2,3;
 4//1;
 5/5=2,38=5,53=1/2;
 6/7=2,8=2,9=2,10=2,28=1/1;
 99/5=1,9=1/99;
 -------------------
 tmpdir/M2_ref_9.gjf
 -------------------
 Symbolic Z-matrix:
 Charge =  0 Multiplicity = 1
 O                    -0.23591  -1.38589  -0.63879 
 P                    -0.15562  -0.22182   0.43648 
 O                    -0.23239  -1.16141   1.88329 
 H                    -1.11535  -1.74159  -0.9533 
 O                    -1.30131   0.7179    0.46229 
 H                     1.07089   0.21826   0.38838 
 H                     0.13548  -0.95922   2.63658 
 
                          Input orientation:                          
 ---------------------------------------------------------------------
 Center     Atomic      Atomic             Coordinates (Angstroms)
 Number     Number       Type             X           Y           Z
 ---------------------------------------------------------------------
      1          8           0       -0.235906   -1.385887   -0.638793
      2         15           0       -0.155615   -0.221822    0.436475
      3          8           0       -0.232392   -1.161409    1.883293
      4          1           0       -1.115353   -1.741586   -0.953297
      5          8           0       -1.301306    0.717898    0.462292
      6          1           0        1.070889    0.218257    0.388384
      7          1           0        0.135480   -0.959225    2.636583
 ---------------------------------------------------------------------
                    Distance matrix (angstroms):
                    1          2          3          4          5
     1  O    0.000000
     2  P    1.586725   0.000000
     3  O    2.532059   1.726847   0.000000
     4  H    0.999431   2.272058   3.026957   0.000000
     5  O    2.602571   1.482008   2.587202   2.843859   0.000000
     6  H    2.309996   1.303953   2.415942   3.228118   2.425368
     7  H    3.323861   2.338584   0.862354   3.881225   3.099135
                    6          7
     6  H    0.000000
     7  H    2.704783   0.000000
 Stoichiometry    H3O3P
 Framework group  C1[X(H3O3P)]
 Deg. of freedom    15
 Full point group                 C1      NOp   1
 Largest Abelian subgroup         C1      NOp   1
 Largest concise Abelian subgroup C1      NOp   1
                         Standard orientation:                         
 ---------------------------------------------------------------------
 Center     Atomic      Atomic             Coordinates (Angstroms)
 Number     Number       Type             X           Y           Z
 ---------------------------------------------------------------------
      1          8           0        1.134761   -0.948081   -0.111982
      2         15           0        0.069404    0.141274    0.330752
      3          8           0       -1.369080   -0.604305   -0.266640
      4          1           0        1.543029   -0.933454   -1.024104
      5          8           0        0.183061    1.464729   -0.326437
      6          1           0       -0.017000    0.042699    1.628100
      7          1           0       -2.157015   -0.527098    0.075194
 ---------------------------------------------------------------------
 Rotational constants (GHZ):           7.6170481           7.3754170           4.4055877
 Standard basis: def2TZVP (5D, 7F)
 There are   168 symmetry adapted cartesian basis functions of A   symmetry.
 There are   148 symmetry adapted basis functions of A   symmetry.
   148 basis functions,   246 primitive gaussians,   168 cartesian basis functions
    21 alpha electrons       21 beta electrons
       nuclear repulsion energy       192.5935271295 Hartrees.
 NAtoms=    7 NActive=    7 NUniq=    7 SFac= 1.00D+00 NAtFMM=   60 NAOKFM=F Big=F
 Integral buffers will be    131072 words long.
 Raffenetti 2 integral format.
 Two-electron integral symmetry is turned on.
 ------------------------------------------------------------------------------
 Polarizable Continuum Model (PCM)
 =================================
 Model                : C-PCM.
 Atomic radii         : UFF (Universal Force Field).
 Polarization charges : Total charges.
 Charge compensation  : None.
 Solution method      : On-the-fly selection.
 Cavity type          : Scaled VdW (van der Waals Surface) (Alpha=1.100).
 Cavity algorithm     : GePol (No added spheres)
                        Default sphere list used, NSphG=    7.
                        Lebedev-Laikov grids with approx.  5.0 points / Ang**2.
                        Smoothing algorithm: York/Karplus (Gamma=1.0000).
                        Polarization charges: spherical gaussians, with
                                              point-specific exponents (IZeta= 3).
                        Self-potential: point-specific (ISelfS= 7).
                        Self-field    : sphere-specific E.n sum rule (ISelfD= 2).
 Solvent              : Water, Eps=  78.355300 Eps(inf)=   1.777849
 ------------------------------------------------------------------------------
 Spheres list:
 ISph  on   Nord     Re0    Alpha      Xe            Ye            Ze
    1   O      1    1.7500  1.100      1.134761     -0.948081     -0.111982
    2   P      2    2.0735  1.100      0.069404      0.141274      0.330752
    3   O      3    1.7500  1.100     -1.369080     -0.604305     -0.266640
    4   H      4    1.4430  1.100      1.543029     -0.933454     -1.024104
    5   O      5    1.7500  1.100      0.183061      1.464729     -0.326437
    6   H      6    1.4430  1.100     -0.017000      0.042699      1.628100
    7   H      7    1.4430  1.100     -2.157015     -0.527098      0.075194
 ------------------------------------------------------------------------------
 One-electron integrals computed using PRISM.
   1 Symmetry operations used in ECPInt.
 ECPInt:  NShTT=    1711 NPrTT=    5676 LenC2=    1698 LenP2D=    4710.
 LDataN:  DoStor=T MaxTD1= 6 Len=  172
 NBasis=   148 RedAO= T EigKep=  1.63D-03  NBF=   148
 NBsUse=   148 1.00D-06 EigRej= -1.00D+00 NBFU=   148
 ExpMin= 9.04D-02 ExpMax= 5.24D+04 ExpMxC= 1.79D+03 IAcc=3 IRadAn=         5 AccDes= 0.00D+00
 Harris functional with IExCor= 2002 and IRadAn=       5 diagonalized for initial guess.
 HarFok:  IExCor= 2002 AccDes= 0.00D+00 IRadAn=         5 IDoV= 1 UseB2=F ITyADJ=14
 ICtDFT=  3500011 ScaDFX=  1.000000  1.000000  1.000000  1.000000
 FoFCou: FMM=F IPFlag=           0 FMFlag=      100000 FMFlg1=           0
         NFxFlg=           0 DoJE=T BraDBF=F KetDBF=T FulRan=T
         wScrn=  0.000000 ICntrl=       500 IOpCl=  0 I1Cent=   200000004 NGrid=           0
         NMat0=    1 NMatS0=      1 NMatT0=    0 NMatD0=    1 NMtDS0=    0 NMtDT0=    0
 Petite list used in FoFCou.
 Keep J ints in memory in canonical form, NReq=64775784.
 Requested convergence on RMS density matrix=1.00D-08 within 128 cycles.
 Requested convergence on MAX density matrix=1.00D-06.
 Requested convergence on             energy=1.00D-06.
 No special actions if energy rises.
 Inv3:  Mode=1 IEnd=     2260272.
 Iteration    1 A*A^-1 deviation from unit magnitude is 3.55D-15 for    855.
 Iteration    1 A*A^-1 deviation from orthogonality  is 9.40D-16 for    640    176.
 Iteration    1 A^-1*A deviation from unit magnitude is 3.55D-15 for    855.
 Iteration    1 A^-1*A deviation from orthogonality  is 1.05D-15 for    279    103.
 Error on total polarization charges =  0.00726
 SCF Done:  E(RO-LYP) =  -568.953430807     A.U. after   12 cycles
            NFock= 12  Conv=0.21D-08     -V/T= 2.0018

 **********************************************************************

            Population analysis using the SCF density.

 **********************************************************************

 Orbital symmetries:
       Occupied  (A) (A) (A) (A) (A) (A) (A) (A) (A) (A) (A) (A)
                 (A) (A) (A) (A) (A) (A) (A) (A) (A)
       Virtual   (A) (A) (A) (A) (A) (A) (A) (A) (A) (A) (A) (A)
                 (A) (A) (A) (A) (A) (A) (A) (A) (A) (A) (A) (A)
                 (A) (A) (A) (A) (A) (A) (A) (A) (A) (A) (A) (A)
                 (A) (A) (A) (A) (A) (A) (A) (A) (A) (A) (A) (A)
                 (A) (A) (A) (A) (A) (A) (A) (A) (A) (A) (A) (A)
                 (A) (A) (A) (A) (A) (A) (A) (A) (A) (A) (A) (A)
                 (A) (A) (A) (A) (A) (A) (A) (A) (A) (A) (A) (A)
                 (A) (A) (A) (A) (A) (A) (A) (A) (A) (A) (A) (A)
                 (A) (A) (A) (A) (A) (A) (A) (A) (A) (A) (A) (A)
                 (A) (A) (A) (A) (A) (A) (A) (A) (A) (A) (A) (A)
                 (A) (A) (A) (A) (A) (A) (A)
 The electronic state is 1-A.
 Alpha  occ. eigenvalues --  -76.40452 -18.80955 -18.76408 -18.73223  -6.42972
 Alpha  occ. eigenvalues --   -4.64076  -4.63923  -4.63586  -0.98831  -0.94223
 Alpha  occ. eigenvalues --   -0.88861  -0.60961  -0.50832  -0.46977  -0.39633
 Alpha  occ. eigenvalues --   -0.34552  -0.33208  -0.31967  -0.29100  -0.26679
 Alpha  occ. eigenvalues --   -0.24894
 Alpha virt. eigenvalues --   -0.01021   0.00741   0.02842   0.04806   0.06502
 Alpha virt. eigenvalues --    0.12340   0.19609   0.19968   0.22171   0.23128
 Alpha virt. eigenvalues --    0.29471   0.33849   0.35168   0.37858   0.38424
 Alpha virt. eigenvalues --    0.40847   0.42292   0.45806   0.48309   0.51122
 Alpha virt. eigenvalues --    0.53382   0.54142   0.54743   0.58120   0.62704
 Alpha virt. eigenvalues --    0.64851   0.70882   0.71951   0.74284   0.81014
 Alpha virt. eigenvalues --    1.05420   1.06150   1.10209   1.13668   1.14543
 Alpha virt. eigenvalues --    1.15953   1.23017   1.24788   1.26478   1.33087
 Alpha virt. eigenvalues --    1.34386   1.36533   1.39402   1.48027   1.49172
 Alpha virt. eigenvalues --    1.53089   1.59923   1.61515   1.64813   1.69228
 Alpha virt. eigenvalues --    1.75442   1.78316   1.81520   1.87598   1.88644
 Alpha virt. eigenvalues --    1.93588   1.97138   2.01175   2.04526   2.10780
 Alpha virt. eigenvalues --    2.13337   2.15897   2.19015   2.23071   2.26563
 Alpha virt. eigenvalues --    2.32829   2.35163   2.43920   2.47687   2.60611
 Alpha virt. eigenvalues --    2.65008   2.67229   2.69956   2.76667   2.79546
 Alpha virt. eigenvalues --    2.82088   2.85007   2.91418   2.93541   3.28739
 Alpha virt. eigenvalues --    3.38807   3.63984   3.74702   3.88239   4.96009
 Alpha virt. eigenvalues --    4.96636   4.97783   4.98368   5.01496   5.02013
 Alpha virt. eigenvalues --    5.03162   5.04064   5.09900   5.12133   5.13406
 Alpha virt. eigenvalues --    5.17708   5.26049   5.28310   5.30067   5.39284
 Alpha virt. eigenvalues --    5.41308   5.47422   5.48174   5.94449   6.14693
 Alpha virt. eigenvalues --    6.17909   6.18372   6.24709   6.25283   6.34695
 Alpha virt. eigenvalues --    6.38531   6.43356   6.51983   6.57592   6.60424
 Alpha virt. eigenvalues --    6.60685   6.62539   6.74373   6.84341   7.01885
 Alpha virt. eigenvalues --    7.39765   7.58510   7.92514  16.02048  43.04642
 Alpha virt. eigenvalues --   43.15768  43.17821
          Condensed to atoms (all electrons):
               1          2          3          4          5          6
     1  O    7.846834   0.436214  -0.044845   0.287277  -0.062494  -0.029183
     2  P    0.436214  12.421899   0.365030  -0.014833   0.739208   0.360354
     3  O   -0.044845   0.365030   7.947462   0.000122  -0.065489  -0.040161
     4  H    0.287277  -0.014833   0.000122   0.353495   0.000688   0.003388
     5  O   -0.062494   0.739208  -0.065489   0.000688   7.951425  -0.037617
     6  H   -0.029183   0.360354  -0.040161   0.003388  -0.037617   0.671860
     7  H    0.002522  -0.015996   0.315682  -0.000077   0.001688   0.000288
               7
     1  O    0.002522
     2  P   -0.015996
     3  O    0.315682
     4  H   -0.000077
     5  O    0.001688
     6  H    0.000288
     7  H    0.403491
 Mulliken charges:
               1
     1  O   -0.436325
     2  P    0.708124
     3  O   -0.477801
     4  H    0.369941
     5  O   -0.527410
     6  H    0.071070
     7  H    0.292401
 Sum of Mulliken charges =  -0.00000
 Mulliken charges with hydrogens summed into heavy atoms:
               1
     1  O   -0.066384
     2  P    0.779194
     3  O   -0.185400
     5  O   -0.527410
 Electronic spatial extent (au):  <R**2>=            308.0193
 Charge=             -0.0000 electrons
 Dipole moment (field-independent basis, Debye):
    X=             -0.0875    Y=             -2.5640    Z=              1.8413  Tot=              3.1579
 Quadrupole moment (field-independent basis, Debye-Ang):
   XX=            -23.5164   YY=            -37.0912   ZZ=            -25.7999
   XY=             -1.4883   XZ=             -4.6671   YZ=              2.8530
 Traceless Quadrupole moment (field-independent basis, Debye-Ang):
   XX=              5.2861   YY=             -8.2887   ZZ=              3.0026
   XY=             -1.4883   XZ=             -4.6671   YZ=              2.8530
 Octapole moment (field-independent basis, Debye-Ang**2):
  XXX=            -10.1766  YYY=            -10.1619  ZZZ=              0.0586  XYY=             -0.4293
  XXY=             -4.1873  XXZ=             -2.5469  XZZ=              4.3686  YZZ=             -3.2458
  YYZ=              0.5279  XYZ=              4.2962
 Hexadecapole moment (field-independent basis, Debye-Ang**3):
 XXXX=           -108.1248 YYYY=           -170.4176 ZZZZ=            -48.8599 XXXY=              1.9440
 XXXZ=            -15.0577 YYYX=             -3.9500 YYYZ=              5.0802 ZZZX=             -6.7549
 ZZZY=              4.1932 XXYY=            -50.1090 XXZZ=            -29.3927 YYZZ=            -33.2730
 XXYZ=              4.7958 YYXZ=             -4.0756 ZZXY=             -4.4873
 N-N= 1.925935271295D+02 E-N=-1.736119082203D+03  KE= 5.679096135398D+02
 1\1\GINC-NODE85\SP\ROLYP\def2TZVP\H3O3P1\YANZ\22-Sep-2023\0\\# scrf=(c
 pcm,solvent=water) def2tzvp olyp\\tmpdir/M2_ref_9.gjf\\0,1\O,0,-0.2359
 06,-1.385887,-0.638793\P,0,-0.155615,-0.221822,0.436475\O,0,-0.232392,
 -1.161409,1.883293\H,0,-1.11535325,-1.74158607,-0.95329726\O,0,-1.3013
 06,0.717898,0.462292\H,0,1.07088855,0.21825747,0.38838369\H,0,0.135480
 37,-0.95922488,2.63658259\\Version=ES64L-G16RevA.03\State=1-A\HF=-568.
 9534308\RMSD=2.114e-09\Dipole=1.070104,-0.6242657,-0.0936594\Quadrupol
 e=-0.0767165,-3.2218241,3.2985406,4.7544798,3.2217991,1.8295954\PG=C01
  [X(H3O3P1)]\\@


 FOR THE NATURE OF THE CHEMICAL BOND
 IS THE PROBLEM AT THE HEART OF ALL CHEMISTRY.

                     -- BRYCE CRAWFORD, JR., 1953
 Job cpu time:       0 days  0 hours  1 minutes  7.6 seconds.
 Elapsed time:       0 days  0 hours  0 minutes 18.3 seconds.
 File lengths (MBytes):  RWF=     17 Int=      0 D2E=      0 Chk=      3 Scr=      1
 Normal termination of Gaussian 16 at Fri Sep 22 16:51:49 2023.
