 Entering Gaussian System, Link 0=g16
 Initial command:
 /share/apps/gaussian/g16/l1.exe "/tmp/55608.mgr/Gau-86178.inp" -scrdir="/tmp/55608.mgr/"
 Entering Link 1 = /share/apps/gaussian/g16/l1.exe PID=     86179.
  
 Copyright (c) 1988,1990,1992,1993,1995,1998,2003,2009,2016,
            Gaussian, Inc.  All Rights Reserved.
  
 This is part of the Gaussian(R) 16 program.  It is based on
 the Gaussian(R) 09 system (copyright 2009, Gaussian, Inc.),
 the Gaussian(R) 03 system (copyright 2003, Gaussian, Inc.),
 the Gaussian(R) 98 system (copyright 1998, Gaussian, Inc.),
 the Gaussian(R) 94 system (copyright 1995, Gaussian, Inc.),
 the Gaussian 92(TM) system (copyright 1992, Gaussian, Inc.),
 the Gaussian 90(TM) system (copyright 1990, Gaussian, Inc.),
 the Gaussian 88(TM) system (copyright 1988, Gaussian, Inc.),
 the Gaussian 86(TM) system (copyright 1986, Carnegie Mellon
 University), and the Gaussian 82(TM) system (copyright 1983,
 Carnegie Mellon University). Gaussian is a federally registered
 trademark of Gaussian, Inc.
  
 This software contains proprietary and confidential information,
 including trade secrets, belonging to Gaussian, Inc.
  
 This software is provided under written license and may be
 used, copied, transmitted, or stored only in accord with that
 written license.
  
 The following legend is applicable only to US Government
 contracts under FAR:
  
                    RESTRICTED RIGHTS LEGEND
  
 Use, reproduction and disclosure by the US Government is
 subject to restrictions as set forth in subparagraphs (a)
 and (c) of the Commercial Computer Software - Restricted
 Rights clause in FAR 52.227-19.
  
 Gaussian, Inc.
 340 Quinnipiac St., Bldg. 40, Wallingford CT 06492
  
  
 ---------------------------------------------------------------
 Warning -- This program may not be used in any manner that
 competes with the business of Gaussian, Inc. or will provide
 assistance to any competitor of Gaussian, Inc.  The licensee
 of this program is prohibited from giving any competitor of
 Gaussian, Inc. access to this program.  By using this program,
 the user acknowledges that Gaussian, Inc. is engaged in the
 business of creating and licensing software in the field of
 computational chemistry and represents and warrants to the
 licensee that it is not a competitor of Gaussian, Inc. and that
 it will not use this program in any manner prohibited above.
 ---------------------------------------------------------------
  

 Cite this work as:
 Gaussian 16, Revision A.03,
 M. J. Frisch, G. W. Trucks, H. B. Schlegel, G. E. Scuseria, 
 M. A. Robb, J. R. Cheeseman, G. Scalmani, V. Barone, 
 G. A. Petersson, H. Nakatsuji, X. Li, M. Caricato, A. V. Marenich, 
 J. Bloino, B. G. Janesko, R. Gomperts, B. Mennucci, H. P. Hratchian, 
 J. V. Ortiz, A. F. Izmaylov, J. L. Sonnenberg, D. Williams-Young, 
 F. Ding, F. Lipparini, F. Egidi, J. Goings, B. Peng, A. Petrone, 
 T. Henderson, D. Ranasinghe, V. G. Zakrzewski, J. Gao, N. Rega, 
 G. Zheng, W. Liang, M. Hada, M. Ehara, K. Toyota, R. Fukuda, 
 J. Hasegawa, M. Ishida, T. Nakajima, Y. Honda, O. Kitao, H. Nakai, 
 T. Vreven, K. Throssell, J. A. Montgomery, Jr., J. E. Peralta, 
 F. Ogliaro, M. J. Bearpark, J. J. Heyd, E. N. Brothers, K. N. Kudin, 
 V. N. Staroverov, T. A. Keith, R. Kobayashi, J. Normand, 
 K. Raghavachari, A. P. Rendell, J. C. Burant, S. S. Iyengar, 
 J. Tomasi, M. Cossi, J. M. Millam, M. Klene, C. Adamo, R. Cammi, 
 J. W. Ochterski, R. L. Martin, K. Morokuma, O. Farkas, 
 J. B. Foresman, and D. J. Fox, Gaussian, Inc., Wallingford CT, 2016.
 
 ******************************************
 Gaussian 16:  ES64L-G16RevA.03 25-Dec-2016
                22-Sep-2023 
 ******************************************
 %nprocshared=4
 Will use up to    4 processors via shared memory.
 %mem=4GB
 -----------------------------------------
 # scrf=(cpcm,solvent=water) def2tzvp olyp
 -----------------------------------------
 1/38=1,172=1/1;
 2/12=2,17=6,18=5,40=1/2;
 3/5=44,7=101,11=2,25=1,30=1,70=2101,72=1,74=2002/1,2,3;
 4//1;
 5/5=2,38=5,53=1/2;
 6/7=2,8=2,9=2,10=2,28=1/1;
 99/5=1,9=1/99;
 --------------------
 tmpdir/M2_ref_19.gjf
 --------------------
 Symbolic Z-matrix:
 Charge =  0 Multiplicity = 1
 O                    -0.23239  -1.16141   1.88329 
 P                     0.43524  -0.79448   3.25039 
 O                     1.57267  -1.93445   3.47379 
 H                    -0.19009  -0.64368   1.08608 
 H                    -0.44218  -0.96024   4.24351 
 O                     1.05873   0.56785   3.29537 
 H                     2.45743  -1.81029   3.46924 
 
                          Input orientation:                          
 ---------------------------------------------------------------------
 Center     Atomic      Atomic             Coordinates (Angstroms)
 Number     Number       Type             X           Y           Z
 ---------------------------------------------------------------------
      1          8           0       -0.232392   -1.161409    1.883293
      2         15           0        0.435236   -0.794478    3.250390
      3          8           0        1.572668   -1.934448    3.473787
      4          1           0       -0.190087   -0.643683    1.086076
      5          1           0       -0.442177   -0.960245    4.243509
      6          8           0        1.058734    0.567850    3.295369
      7          1           0        2.457425   -1.810295    3.469243
 ---------------------------------------------------------------------
                    Distance matrix (angstroms):
                    1          2          3          4          5
     1  O    0.000000
     2  P    1.565030   0.000000
     3  O    2.526955   1.625789   0.000000
     4  H    0.951517   2.257880   3.236440   0.000000
     5  H    2.378044   1.335521   2.366674   3.183260   0.000000
     6  O    2.579012   1.498903   2.560753   2.812177   2.342387
     7  H    3.189264   2.273550   0.893437   3.748304   3.119257
                    6          7
     6  O    0.000000
     7  H    2.764442   0.000000
 Stoichiometry    H3O3P
 Framework group  C1[X(H3O3P)]
 Deg. of freedom    15
 Full point group                 C1      NOp   1
 Largest Abelian subgroup         C1      NOp   1
 Largest concise Abelian subgroup C1      NOp   1
                         Standard orientation:                         
 ---------------------------------------------------------------------
 Center     Atomic      Atomic             Coordinates (Angstroms)
 Number     Number       Type             X           Y           Z
 ---------------------------------------------------------------------
      1          8           0       -1.274498   -0.726913   -0.154621
      2         15           0       -0.025825    0.094727    0.309106
      3          8           0        1.251300   -0.802817   -0.145378
      4          1           0       -1.894417   -0.465844   -0.827620
      5          1           0        0.019655    0.138125    1.643147
      6          8           0        0.074550    1.467264   -0.284845
      7          1           0        1.851321   -0.593457   -0.773369
 ---------------------------------------------------------------------
 Rotational constants (GHZ):           8.0176325           7.5222561           4.5008659
 Standard basis: def2TZVP (5D, 7F)
 There are   168 symmetry adapted cartesian basis functions of A   symmetry.
 There are   148 symmetry adapted basis functions of A   symmetry.
   148 basis functions,   246 primitive gaussians,   168 cartesian basis functions
    21 alpha electrons       21 beta electrons
       nuclear repulsion energy       195.4222459245 Hartrees.
 NAtoms=    7 NActive=    7 NUniq=    7 SFac= 1.00D+00 NAtFMM=   60 NAOKFM=F Big=F
 Integral buffers will be    131072 words long.
 Raffenetti 2 integral format.
 Two-electron integral symmetry is turned on.
 ------------------------------------------------------------------------------
 Polarizable Continuum Model (PCM)
 =================================
 Model                : C-PCM.
 Atomic radii         : UFF (Universal Force Field).
 Polarization charges : Total charges.
 Charge compensation  : None.
 Solution method      : On-the-fly selection.
 Cavity type          : Scaled VdW (van der Waals Surface) (Alpha=1.100).
 Cavity algorithm     : GePol (No added spheres)
                        Default sphere list used, NSphG=    7.
                        Lebedev-Laikov grids with approx.  5.0 points / Ang**2.
                        Smoothing algorithm: York/Karplus (Gamma=1.0000).
                        Polarization charges: spherical gaussians, with
                                              point-specific exponents (IZeta= 3).
                        Self-potential: point-specific (ISelfS= 7).
                        Self-field    : sphere-specific E.n sum rule (ISelfD= 2).
 Solvent              : Water, Eps=  78.355300 Eps(inf)=   1.777849
 ------------------------------------------------------------------------------
 Spheres list:
 ISph  on   Nord     Re0    Alpha      Xe            Ye            Ze
    1   O      1    1.7500  1.100     -1.274498     -0.726913     -0.154621
    2   P      2    2.0735  1.100     -0.025825      0.094727      0.309106
    3   O      3    1.7500  1.100      1.251300     -0.802817     -0.145378
    4   H      4    1.4430  1.100     -1.894417     -0.465844     -0.827620
    5   H      5    1.4430  1.100      0.019655      0.138125      1.643147
    6   O      6    1.7500  1.100      0.074550      1.467264     -0.284845
    7   H      7    1.4430  1.100      1.851321     -0.593457     -0.773369
 ------------------------------------------------------------------------------
 One-electron integrals computed using PRISM.
   1 Symmetry operations used in ECPInt.
 ECPInt:  NShTT=    1711 NPrTT=    5676 LenC2=    1698 LenP2D=    4720.
 LDataN:  DoStor=T MaxTD1= 6 Len=  172
 NBasis=   148 RedAO= T EigKep=  1.49D-03  NBF=   148
 NBsUse=   148 1.00D-06 EigRej= -1.00D+00 NBFU=   148
 ExpMin= 9.04D-02 ExpMax= 5.24D+04 ExpMxC= 1.79D+03 IAcc=3 IRadAn=         5 AccDes= 0.00D+00
 Harris functional with IExCor= 2002 and IRadAn=       5 diagonalized for initial guess.
 HarFok:  IExCor= 2002 AccDes= 0.00D+00 IRadAn=         5 IDoV= 1 UseB2=F ITyADJ=14
 ICtDFT=  3500011 ScaDFX=  1.000000  1.000000  1.000000  1.000000
 FoFCou: FMM=F IPFlag=           0 FMFlag=      100000 FMFlg1=           0
         NFxFlg=           0 DoJE=T BraDBF=F KetDBF=T FulRan=T
         wScrn=  0.000000 ICntrl=       500 IOpCl=  0 I1Cent=   200000004 NGrid=           0
         NMat0=    1 NMatS0=      1 NMatT0=    0 NMatD0=    1 NMtDS0=    0 NMtDT0=    0
 Petite list used in FoFCou.
 Keep J ints in memory in canonical form, NReq=64775784.
 Requested convergence on RMS density matrix=1.00D-08 within 128 cycles.
 Requested convergence on MAX density matrix=1.00D-06.
 Requested convergence on             energy=1.00D-06.
 No special actions if energy rises.
 Inv3:  Mode=1 IEnd=     2187948.
 Iteration    1 A*A^-1 deviation from unit magnitude is 3.89D-15 for    845.
 Iteration    1 A*A^-1 deviation from orthogonality  is 1.63D-15 for    717    135.
 Iteration    1 A^-1*A deviation from unit magnitude is 3.89D-15 for    845.
 Iteration    1 A^-1*A deviation from orthogonality  is 6.98D-16 for    750    117.
 Error on total polarization charges =  0.00750
 SCF Done:  E(RO-LYP) =  -568.967374330     A.U. after   12 cycles
            NFock= 12  Conv=0.94D-08     -V/T= 2.0018

 **********************************************************************

            Population analysis using the SCF density.

 **********************************************************************

 Orbital symmetries:
       Occupied  (A) (A) (A) (A) (A) (A) (A) (A) (A) (A) (A) (A)
                 (A) (A) (A) (A) (A) (A) (A) (A) (A)
       Virtual   (A) (A) (A) (A) (A) (A) (A) (A) (A) (A) (A) (A)
                 (A) (A) (A) (A) (A) (A) (A) (A) (A) (A) (A) (A)
                 (A) (A) (A) (A) (A) (A) (A) (A) (A) (A) (A) (A)
                 (A) (A) (A) (A) (A) (A) (A) (A) (A) (A) (A) (A)
                 (A) (A) (A) (A) (A) (A) (A) (A) (A) (A) (A) (A)
                 (A) (A) (A) (A) (A) (A) (A) (A) (A) (A) (A) (A)
                 (A) (A) (A) (A) (A) (A) (A) (A) (A) (A) (A) (A)
                 (A) (A) (A) (A) (A) (A) (A) (A) (A) (A) (A) (A)
                 (A) (A) (A) (A) (A) (A) (A) (A) (A) (A) (A) (A)
                 (A) (A) (A) (A) (A) (A) (A) (A) (A) (A) (A) (A)
                 (A) (A) (A) (A) (A) (A) (A)
 The electronic state is 1-A.
 Alpha  occ. eigenvalues --  -76.40129 -18.80407 -18.78231 -18.71633  -6.42567
 Alpha  occ. eigenvalues --   -4.63627  -4.63508  -4.63237  -1.00139  -0.96072
 Alpha  occ. eigenvalues --   -0.87156  -0.62511  -0.52817  -0.46257  -0.40184
 Alpha  occ. eigenvalues --   -0.36246  -0.33050  -0.31365  -0.30057  -0.24935
 Alpha  occ. eigenvalues --   -0.24497
 Alpha virt. eigenvalues --   -0.00811   0.02056   0.03866   0.05850   0.06774
 Alpha virt. eigenvalues --    0.13352   0.18561   0.21666   0.22175   0.24684
 Alpha virt. eigenvalues --    0.30861   0.33593   0.35975   0.37209   0.39415
 Alpha virt. eigenvalues --    0.41638   0.42655   0.46004   0.48142   0.49976
 Alpha virt. eigenvalues --    0.52301   0.54606   0.57156   0.58106   0.63717
 Alpha virt. eigenvalues --    0.66037   0.66935   0.67560   0.77025   0.80157
 Alpha virt. eigenvalues --    1.05962   1.08012   1.11877   1.13433   1.16858
 Alpha virt. eigenvalues --    1.17527   1.21045   1.26588   1.30210   1.31445
 Alpha virt. eigenvalues --    1.35195   1.35623   1.38923   1.48647   1.50247
 Alpha virt. eigenvalues --    1.54170   1.58611   1.61498   1.66235   1.76837
 Alpha virt. eigenvalues --    1.77905   1.79241   1.83336   1.84061   1.84614
 Alpha virt. eigenvalues --    1.93424   1.96040   2.04169   2.08344   2.11319
 Alpha virt. eigenvalues --    2.13924   2.17075   2.17208   2.22134   2.26732
 Alpha virt. eigenvalues --    2.30479   2.43092   2.44022   2.52483   2.63546
 Alpha virt. eigenvalues --    2.65919   2.68364   2.71375   2.74626   2.78038
 Alpha virt. eigenvalues --    2.81674   2.84364   2.89746   2.92429   3.25545
 Alpha virt. eigenvalues --    3.45332   3.69270   3.76945   3.84276   4.93385
 Alpha virt. eigenvalues --    4.95315   4.96937   4.97504   5.00774   5.02438
 Alpha virt. eigenvalues --    5.04838   5.05987   5.14689   5.15064   5.17340
 Alpha virt. eigenvalues --    5.21424   5.24010   5.26618   5.30993   5.34545
 Alpha virt. eigenvalues --    5.43144   5.45627   5.48076   6.09655   6.14250
 Alpha virt. eigenvalues --    6.17596   6.21028   6.24793   6.29671   6.34355
 Alpha virt. eigenvalues --    6.39867   6.43605   6.52201   6.58570   6.61380
 Alpha virt. eigenvalues --    6.62912   6.63262   6.73629   6.88340   6.94348
 Alpha virt. eigenvalues --    7.37505   7.74707   7.92735  16.27979  43.09879
 Alpha virt. eigenvalues --   43.15564  43.16806
          Condensed to atoms (all electrons):
               1          2          3          4          5          6
     1  O    7.839060   0.431859  -0.052500   0.298229  -0.034015  -0.063633
     2  P    0.431859  12.361541   0.417310  -0.013588   0.375849   0.735874
     3  O   -0.052500   0.417310   7.871673   0.000967  -0.035074  -0.068099
     4  H    0.298229  -0.013588   0.000967   0.349831   0.003879   0.000905
     5  H   -0.034015   0.375849  -0.035074   0.003879   0.660211  -0.039829
     6  O   -0.063633   0.735874  -0.068099   0.000905  -0.039829   8.017680
     7  H    0.000900  -0.016638   0.314121  -0.000062   0.004440   0.002207
               7
     1  O    0.000900
     2  P   -0.016638
     3  O    0.314121
     4  H   -0.000062
     5  H    0.004440
     6  O    0.002207
     7  H    0.373802
 Mulliken charges:
               1
     1  O   -0.419899
     2  P    0.707793
     3  O   -0.448399
     4  H    0.359840
     5  H    0.064540
     6  O   -0.585105
     7  H    0.321230
 Sum of Mulliken charges =   0.00000
 Mulliken charges with hydrogens summed into heavy atoms:
               1
     1  O   -0.060059
     2  P    0.772333
     3  O   -0.127169
     6  O   -0.585105
 Electronic spatial extent (au):  <R**2>=            301.3798
 Charge=              0.0000 electrons
 Dipole moment (field-independent basis, Debye):
    X=             -0.7984    Y=             -2.5045    Z=             -0.1334  Tot=              2.6321
 Quadrupole moment (field-independent basis, Debye-Ang):
   XX=            -22.7822   YY=            -38.5825   ZZ=            -25.3254
   XY=             -0.2512   XZ=              0.3777   YZ=              2.6248
 Traceless Quadrupole moment (field-independent basis, Debye-Ang):
   XX=              6.1145   YY=             -9.6858   ZZ=              3.5713
   XY=             -0.2512   XZ=              0.3777   YZ=              2.6248
 Octapole moment (field-independent basis, Debye-Ang**2):
  XXX=             -2.1397  YYY=            -10.7141  ZZZ=             -1.5541  XYY=             -0.8153
  XXY=             -1.9044  XXZ=            -12.7924  XZZ=             -0.7071  YZZ=             -2.5200
  YYZ=              1.2357  XYZ=              0.3025
 Hexadecapole moment (field-independent basis, Debye-Ang**3):
 XXXX=           -109.7544 YYYY=           -168.9808 ZZZZ=            -47.9130 XXXY=             -0.7947
 XXXZ=              1.9589 YYYX=             -0.1871 YYYZ=              3.4879 ZZZX=              0.8505
 ZZZY=              3.7256 XXYY=            -52.5784 XXZZ=            -23.3519 YYZZ=            -33.7900
 XXYZ=              7.2954 YYXZ=             -0.2718 ZZXY=             -0.0966
 N-N= 1.954222459245D+02 E-N=-1.741762016893D+03  KE= 5.679650366667D+02
 1\1\GINC-NODE85\SP\ROLYP\def2TZVP\H3O3P1\YANZ\22-Sep-2023\0\\# scrf=(c
 pcm,solvent=water) def2tzvp olyp\\tmpdir/M2_ref_19.gjf\\0,1\O,0,-0.232
 392,-1.161409,1.883293\P,0,0.435236,-0.794478,3.25039\O,0,1.572668,-1.
 934448,3.473787\H,0,-0.1900868,-0.64368341,1.08607603\H,0,-0.44217711,
 -0.96024489,4.24350883\O,0,1.058734,0.56785,3.295369\H,0,2.45742512,-1
 .81029463,3.46924279\\Version=ES64L-G16RevA.03\State=1-A\HF=-568.96737
 43\RMSD=9.358e-09\Dipole=-0.2935975,-0.8411919,-0.527751\Quadrupole=2.
 941547,-6.509883,3.568336,-2.758132,0.2824029,-2.034574\PG=C01 [X(H3O3
 P1)]\\@


 ALL MY ATTEMPTS TO ADAPT THE THEORETICAL FOUNDATIONS OF PHYSICS
 TO THESE NEW NOTIONS FAILED COMPLETELY. IT WAS AS IF THE GROUND HAD
 BEEN PULLED OUT FROM UNDER ONE WITH NO FIRM FOUNDATION TO BE SEEN ANYWHERE,
 UPON WHICH ONE COULD HAVE BUILT.  -- A.EINSTEIN
 Job cpu time:       0 days  0 hours  1 minutes  8.4 seconds.
 Elapsed time:       0 days  0 hours  0 minutes 19.1 seconds.
 File lengths (MBytes):  RWF=     17 Int=      0 D2E=      0 Chk=      3 Scr=      1
 Normal termination of Gaussian 16 at Fri Sep 22 16:52:17 2023.
