 Entering Gaussian System, Link 0=g16
 Initial command:
 /share/apps/gaussian/g16/l1.exe "/tmp/55608.mgr/Gau-86113.inp" -scrdir="/tmp/55608.mgr/"
 Entering Link 1 = /share/apps/gaussian/g16/l1.exe PID=     86114.
  
 Copyright (c) 1988,1990,1992,1993,1995,1998,2003,2009,2016,
            Gaussian, Inc.  All Rights Reserved.
  
 This is part of the Gaussian(R) 16 program.  It is based on
 the Gaussian(R) 09 system (copyright 2009, Gaussian, Inc.),
 the Gaussian(R) 03 system (copyright 2003, Gaussian, Inc.),
 the Gaussian(R) 98 system (copyright 1998, Gaussian, Inc.),
 the Gaussian(R) 94 system (copyright 1995, Gaussian, Inc.),
 the Gaussian 92(TM) system (copyright 1992, Gaussian, Inc.),
 the Gaussian 90(TM) system (copyright 1990, Gaussian, Inc.),
 the Gaussian 88(TM) system (copyright 1988, Gaussian, Inc.),
 the Gaussian 86(TM) system (copyright 1986, Carnegie Mellon
 University), and the Gaussian 82(TM) system (copyright 1983,
 Carnegie Mellon University). Gaussian is a federally registered
 trademark of Gaussian, Inc.
  
 This software contains proprietary and confidential information,
 including trade secrets, belonging to Gaussian, Inc.
  
 This software is provided under written license and may be
 used, copied, transmitted, or stored only in accord with that
 written license.
  
 The following legend is applicable only to US Government
 contracts under FAR:
  
                    RESTRICTED RIGHTS LEGEND
  
 Use, reproduction and disclosure by the US Government is
 subject to restrictions as set forth in subparagraphs (a)
 and (c) of the Commercial Computer Software - Restricted
 Rights clause in FAR 52.227-19.
  
 Gaussian, Inc.
 340 Quinnipiac St., Bldg. 40, Wallingford CT 06492
  
  
 ---------------------------------------------------------------
 Warning -- This program may not be used in any manner that
 competes with the business of Gaussian, Inc. or will provide
 assistance to any competitor of Gaussian, Inc.  The licensee
 of this program is prohibited from giving any competitor of
 Gaussian, Inc. access to this program.  By using this program,
 the user acknowledges that Gaussian, Inc. is engaged in the
 business of creating and licensing software in the field of
 computational chemistry and represents and warrants to the
 licensee that it is not a competitor of Gaussian, Inc. and that
 it will not use this program in any manner prohibited above.
 ---------------------------------------------------------------
  

 Cite this work as:
 Gaussian 16, Revision A.03,
 M. J. Frisch, G. W. Trucks, H. B. Schlegel, G. E. Scuseria, 
 M. A. Robb, J. R. Cheeseman, G. Scalmani, V. Barone, 
 G. A. Petersson, H. Nakatsuji, X. Li, M. Caricato, A. V. Marenich, 
 J. Bloino, B. G. Janesko, R. Gomperts, B. Mennucci, H. P. Hratchian, 
 J. V. Ortiz, A. F. Izmaylov, J. L. Sonnenberg, D. Williams-Young, 
 F. Ding, F. Lipparini, F. Egidi, J. Goings, B. Peng, A. Petrone, 
 T. Henderson, D. Ranasinghe, V. G. Zakrzewski, J. Gao, N. Rega, 
 G. Zheng, W. Liang, M. Hada, M. Ehara, K. Toyota, R. Fukuda, 
 J. Hasegawa, M. Ishida, T. Nakajima, Y. Honda, O. Kitao, H. Nakai, 
 T. Vreven, K. Throssell, J. A. Montgomery, Jr., J. E. Peralta, 
 F. Ogliaro, M. J. Bearpark, J. J. Heyd, E. N. Brothers, K. N. Kudin, 
 V. N. Staroverov, T. A. Keith, R. Kobayashi, J. Normand, 
 K. Raghavachari, A. P. Rendell, J. C. Burant, S. S. Iyengar, 
 J. Tomasi, M. Cossi, J. M. Millam, M. Klene, C. Adamo, R. Cammi, 
 J. W. Ochterski, R. L. Martin, K. Morokuma, O. Farkas, 
 J. B. Foresman, and D. J. Fox, Gaussian, Inc., Wallingford CT, 2016.
 
 ******************************************
 Gaussian 16:  ES64L-G16RevA.03 25-Dec-2016
                22-Sep-2023 
 ******************************************
 %nprocshared=4
 Will use up to    4 processors via shared memory.
 %mem=4GB
 -----------------------------------------
 # scrf=(cpcm,solvent=water) def2tzvp olyp
 -----------------------------------------
 1/38=1,172=1/1;
 2/12=2,17=6,18=5,40=1/2;
 3/5=44,7=101,11=2,25=1,30=1,70=2101,72=1,74=2002/1,2,3;
 4//1;
 5/5=2,38=5,53=1/2;
 6/7=2,8=2,9=2,10=2,28=1/1;
 99/5=1,9=1/99;
 -------------------
 tmpdir/M2_ref_5.gjf
 -------------------
 Symbolic Z-matrix:
 Charge =  0 Multiplicity = 1
 O                    -1.30131   0.7179    0.46229 
 P                    -0.15562  -0.22182   0.43648 
 O                    -0.23591  -1.38589  -0.63879 
 H                     1.07089   0.21826   0.38838 
 H                    -0.22137  -1.02654   1.67562 
 H                    -1.11535  -1.74159  -0.9533 
 
                          Input orientation:                          
 ---------------------------------------------------------------------
 Center     Atomic      Atomic             Coordinates (Angstroms)
 Number     Number       Type             X           Y           Z
 ---------------------------------------------------------------------
      1          8           0       -1.301306    0.717898    0.462292
      2         15           0       -0.155615   -0.221822    0.436475
      3          8           0       -0.235906   -1.385887   -0.638793
      4          1           0        1.070889    0.218257    0.388384
      5          1           0       -0.221372   -1.026544    1.675623
      6          1           0       -1.115353   -1.741586   -0.953297
 ---------------------------------------------------------------------
                    Distance matrix (angstroms):
                    1          2          3          4          5
     1  O    0.000000
     2  P    1.482008   0.000000
     3  O    2.602571   1.586725   0.000000
     4  H    2.425368   1.303953   2.309996   0.000000
     5  H    2.383591   1.478982   2.342191   2.208269   0.000000
     6  H    2.843859   2.272058   0.999431   3.228118   2.867352
                    6
     6  H    0.000000
 Stoichiometry    H3O2P
 Framework group  C1[X(H3O2P)]
 Deg. of freedom    12
 Full point group                 C1      NOp   1
 Largest Abelian subgroup         C1      NOp   1
 Largest concise Abelian subgroup C1      NOp   1
                         Standard orientation:                         
 ---------------------------------------------------------------------
 Center     Atomic      Atomic             Coordinates (Angstroms)
 Number     Number       Type             X           Y           Z
 ---------------------------------------------------------------------
      1          8           0       -1.267659   -0.559723   -0.022946
      2         15           0       -0.118465    0.375950   -0.008288
      3          8           0        1.320595   -0.290181   -0.063702
      4          1           0       -0.069297    1.389534   -0.827144
      5          1           0       -0.059848    0.976298    1.342096
      6          1           0        1.482630   -1.205859    0.302549
 ---------------------------------------------------------------------
 Rotational constants (GHZ):          28.5961307           8.5704781           7.0851224
 Standard basis: def2TZVP (5D, 7F)
 There are   132 symmetry adapted cartesian basis functions of A   symmetry.
 There are   117 symmetry adapted basis functions of A   symmetry.
   117 basis functions,   195 primitive gaussians,   132 cartesian basis functions
    17 alpha electrons       17 beta electrons
       nuclear repulsion energy       124.3036610921 Hartrees.
 NAtoms=    6 NActive=    6 NUniq=    6 SFac= 1.00D+00 NAtFMM=   60 NAOKFM=F Big=F
 Integral buffers will be    131072 words long.
 Raffenetti 2 integral format.
 Two-electron integral symmetry is turned on.
 ------------------------------------------------------------------------------
 Polarizable Continuum Model (PCM)
 =================================
 Model                : C-PCM.
 Atomic radii         : UFF (Universal Force Field).
 Polarization charges : Total charges.
 Charge compensation  : None.
 Solution method      : On-the-fly selection.
 Cavity type          : Scaled VdW (van der Waals Surface) (Alpha=1.100).
 Cavity algorithm     : GePol (No added spheres)
                        Default sphere list used, NSphG=    6.
                        Lebedev-Laikov grids with approx.  5.0 points / Ang**2.
                        Smoothing algorithm: York/Karplus (Gamma=1.0000).
                        Polarization charges: spherical gaussians, with
                                              point-specific exponents (IZeta= 3).
                        Self-potential: point-specific (ISelfS= 7).
                        Self-field    : sphere-specific E.n sum rule (ISelfD= 2).
 Solvent              : Water, Eps=  78.355300 Eps(inf)=   1.777849
 ------------------------------------------------------------------------------
 Spheres list:
 ISph  on   Nord     Re0    Alpha      Xe            Ye            Ze
    1   O      1    1.7500  1.100     -1.267659     -0.559723     -0.022946
    2   P      2    2.0735  1.100     -0.118465      0.375950     -0.008288
    3   O      3    1.7500  1.100      1.320595     -0.290181     -0.063702
    4   H      4    1.4430  1.100     -0.069297      1.389534     -0.827144
    5   H      5    1.4430  1.100     -0.059848      0.976298      1.342096
    6   H      6    1.4430  1.100      1.482630     -1.205859      0.302549
 ------------------------------------------------------------------------------
 One-electron integrals computed using PRISM.
   1 Symmetry operations used in ECPInt.
 ECPInt:  NShTT=    1128 NPrTT=    3744 LenC2=    1123 LenP2D=    3217.
 LDataN:  DoStor=T MaxTD1= 6 Len=  172
 NBasis=   117 RedAO= T EigKep=  1.94D-03  NBF=   117
 NBsUse=   117 1.00D-06 EigRej= -1.00D+00 NBFU=   117
 ExpMin= 9.04D-02 ExpMax= 5.24D+04 ExpMxC= 1.79D+03 IAcc=3 IRadAn=         5 AccDes= 0.00D+00
 Harris functional with IExCor= 2002 and IRadAn=       5 diagonalized for initial guess.
 HarFok:  IExCor= 2002 AccDes= 0.00D+00 IRadAn=         5 IDoV= 1 UseB2=F ITyADJ=14
 ICtDFT=  3500011 ScaDFX=  1.000000  1.000000  1.000000  1.000000
 FoFCou: FMM=F IPFlag=           0 FMFlag=      100000 FMFlg1=           0
         NFxFlg=           0 DoJE=T BraDBF=F KetDBF=T FulRan=T
         wScrn=  0.000000 ICntrl=       500 IOpCl=  0 I1Cent=   200000004 NGrid=           0
         NMat0=    1 NMatS0=      1 NMatT0=    0 NMatD0=    1 NMtDS0=    0 NMtDT0=    0
 Petite list used in FoFCou.
 Keep J ints in memory in canonical form, NReq=27663592.
 Requested convergence on RMS density matrix=1.00D-08 within 128 cycles.
 Requested convergence on MAX density matrix=1.00D-06.
 Requested convergence on             energy=1.00D-06.
 No special actions if energy rises.
 Inv3:  Mode=1 IEnd=     1710075.
 Iteration    1 A*A^-1 deviation from unit magnitude is 2.78D-15 for    110.
 Iteration    1 A*A^-1 deviation from orthogonality  is 3.10D-15 for    753    210.
 Iteration    1 A^-1*A deviation from unit magnitude is 2.78D-15 for    110.
 Iteration    1 A^-1*A deviation from orthogonality  is 1.49D-15 for    679    198.
 Error on total polarization charges =  0.00851
 SCF Done:  E(RO-LYP) =  -493.686092224     A.U. after   11 cycles
            NFock= 11  Conv=0.83D-08     -V/T= 2.0018

 **********************************************************************

            Population analysis using the SCF density.

 **********************************************************************

 Orbital symmetries:
       Occupied  (A) (A) (A) (A) (A) (A) (A) (A) (A) (A) (A) (A)
                 (A) (A) (A) (A) (A)
       Virtual   (A) (A) (A) (A) (A) (A) (A) (A) (A) (A) (A) (A)
                 (A) (A) (A) (A) (A) (A) (A) (A) (A) (A) (A) (A)
                 (A) (A) (A) (A) (A) (A) (A) (A) (A) (A) (A) (A)
                 (A) (A) (A) (A) (A) (A) (A) (A) (A) (A) (A) (A)
                 (A) (A) (A) (A) (A) (A) (A) (A) (A) (A) (A) (A)
                 (A) (A) (A) (A) (A) (A) (A) (A) (A) (A) (A) (A)
                 (A) (A) (A) (A) (A) (A) (A) (A) (A) (A) (A) (A)
                 (A) (A) (A) (A) (A) (A) (A) (A) (A) (A) (A) (A)
                 (A) (A) (A) (A)
 The electronic state is 1-A.
 Alpha  occ. eigenvalues --  -76.37197 -18.80041 -18.72492  -6.40259  -4.61320
 Alpha  occ. eigenvalues --   -4.61062  -4.60951  -0.97341  -0.88564  -0.59777
 Alpha  occ. eigenvalues --   -0.46852  -0.41546  -0.38226  -0.33256  -0.29548
 Alpha  occ. eigenvalues --   -0.26191  -0.24256
 Alpha virt. eigenvalues --   -0.01513   0.00640   0.02796   0.04908   0.08748
 Alpha virt. eigenvalues --    0.16594   0.20772   0.22435   0.23993   0.27003
 Alpha virt. eigenvalues --    0.30909   0.31715   0.36097   0.38918   0.42618
 Alpha virt. eigenvalues --    0.43493   0.45764   0.49997   0.52359   0.56602
 Alpha virt. eigenvalues --    0.62387   0.64206   0.65239   0.74325   0.77460
 Alpha virt. eigenvalues --    1.03330   1.06535   1.07360   1.12809   1.15909
 Alpha virt. eigenvalues --    1.17394   1.20475   1.25363   1.29769   1.31984
 Alpha virt. eigenvalues --    1.35438   1.37657   1.46684   1.49850   1.55865
 Alpha virt. eigenvalues --    1.58403   1.64161   1.72271   1.77397   1.79847
 Alpha virt. eigenvalues --    1.81542   1.88816   1.93754   1.96437   2.00692
 Alpha virt. eigenvalues --    2.04737   2.10216   2.12158   2.16625   2.20681
 Alpha virt. eigenvalues --    2.28176   2.35191   2.43504   2.48268   2.61320
 Alpha virt. eigenvalues --    2.63099   2.67288   2.75094   2.78608   2.83405
 Alpha virt. eigenvalues --    2.87115   2.89964   3.30264   3.63802   3.73091
 Alpha virt. eigenvalues --    4.96957   4.98150   5.02338   5.03969   5.09016
 Alpha virt. eigenvalues --    5.10296   5.13390   5.16567   5.22982   5.23536
 Alpha virt. eigenvalues --    5.29652   5.39695   5.46301   5.94877   6.16269
 Alpha virt. eigenvalues --    6.19038   6.22037   6.34608   6.44898   6.53113
 Alpha virt. eigenvalues --    6.59002   6.61192   6.74834   6.83814   7.18913
 Alpha virt. eigenvalues --    7.48813   7.91505  15.81430  43.11824  43.13713
          Condensed to atoms (all electrons):
               1          2          3          4          5          6
     1  O    7.982982   0.719556  -0.062204  -0.030893  -0.049588   0.001123
     2  P    0.719556  12.578048   0.415976   0.345513   0.366178  -0.014859
     3  O   -0.062204   0.415976   7.880163  -0.022778  -0.041659   0.287616
     4  H   -0.030893   0.345513  -0.022778   0.692666  -0.061423   0.003121
     5  H   -0.049588   0.366178  -0.041659  -0.061423   0.793015   0.001923
     6  H    0.001123  -0.014859   0.287616   0.003121   0.001923   0.357922
 Mulliken charges:
               1
     1  O   -0.560976
     2  P    0.589588
     3  O   -0.457114
     4  H    0.073794
     5  H   -0.008445
     6  H    0.363153
 Sum of Mulliken charges =  -0.00000
 Mulliken charges with hydrogens summed into heavy atoms:
               1
     1  O   -0.560976
     2  P    0.654937
     3  O   -0.093961
 Electronic spatial extent (au):  <R**2>=            203.4910
 Charge=             -0.0000 electrons
 Dipole moment (field-independent basis, Debye):
    X=              3.1014    Y=              1.2243    Z=              0.2207  Tot=              3.3416
 Quadrupole moment (field-independent basis, Debye-Ang):
   XX=            -29.2742   YY=            -21.1987   ZZ=            -24.0057
   XY=             -5.2550   XZ=              1.1655   YZ=             -1.8499
 Traceless Quadrupole moment (field-independent basis, Debye-Ang):
   XX=             -4.4480   YY=              3.6275   ZZ=              0.8205
   XY=             -5.2550   XZ=              1.1655   YZ=             -1.8499
 Octapole moment (field-independent basis, Debye-Ang**2):
  XXX=              9.1890  YYY=             -3.7940  ZZZ=             -1.3404  XYY=              6.6748
  XXY=             -2.1749  XXZ=              1.8418  XZZ=              1.1161  YZZ=             -0.5736
  YYZ=             -0.0412  XYZ=             -1.3259
 Hexadecapole moment (field-independent basis, Debye-Ang**3):
 XXXX=           -156.2347 YYYY=            -58.7882 ZZZZ=            -38.5600 XXXY=            -13.4442
 XXXZ=              3.0750 YYYX=             -9.7502 YYYZ=             -4.5148 ZZZX=              0.7108
 ZZZY=             -2.4510 XXYY=            -29.2408 XXZZ=            -31.6566 YYZZ=            -17.0883
 XXYZ=             -3.0300 YYXZ=              1.9010 ZZXY=             -1.3216
 N-N= 1.243036610921D+02 E-N=-1.421304629757D+03  KE= 4.928178760787D+02
 1\1\GINC-NODE85\SP\ROLYP\def2TZVP\H3O2P1\YANZ\22-Sep-2023\0\\# scrf=(c
 pcm,solvent=water) def2tzvp olyp\\tmpdir/M2_ref_5.gjf\\0,1\O,0,-1.3013
 06,0.717898,0.462292\P,0,-0.155615,-0.221822,0.436475\O,0,-0.235906,-1
 .385887,-0.638793\H,0,1.07088855,0.21825747,0.38838369\H,0,-0.22137174
 ,-1.02654444,1.67562253\H,0,-1.11535325,-1.74158607,-0.95329726\\Versi
 on=ES64L-G16RevA.03\State=1-A\HF=-493.6860922\RMSD=8.303e-09\Dipole=0.
 7544712,-1.0463009,-0.2537655\Quadrupole=0.3807829,-1.1088751,0.728092
 1,4.5612083,2.2973973,0.4034157\PG=C01 [X(H3O2P1)]\\@


      TO SUSPECT YOUR OWN MORTALITY IS TO KNOW THE BEGINNING OF TERROR.
      TO LEARN IRREFUTABLY THAT YOU ARE MORTAL IS TO KNOW THE END
      OF TERROR.

                                                  -- JESSICA
                                                     CHILDREN OF DUNE
                                                     BY FRANK HERBERT
 Job cpu time:       0 days  0 hours  0 minutes 42.5 seconds.
 Elapsed time:       0 days  0 hours  0 minutes 11.3 seconds.
 File lengths (MBytes):  RWF=     16 Int=      0 D2E=      0 Chk=      2 Scr=      1
 Normal termination of Gaussian 16 at Fri Sep 22 16:52:05 2023.
