 Entering Gaussian System, Link 0=g16
 Initial command:
 /share/apps/gaussian/g16/l1.exe "/tmp/55608.mgr/Gau-86780.inp" -scrdir="/tmp/55608.mgr/"
 Entering Link 1 = /share/apps/gaussian/g16/l1.exe PID=     86781.
  
 Copyright (c) 1988,1990,1992,1993,1995,1998,2003,2009,2016,
            Gaussian, Inc.  All Rights Reserved.
  
 This is part of the Gaussian(R) 16 program.  It is based on
 the Gaussian(R) 09 system (copyright 2009, Gaussian, Inc.),
 the Gaussian(R) 03 system (copyright 2003, Gaussian, Inc.),
 the Gaussian(R) 98 system (copyright 1998, Gaussian, Inc.),
 the Gaussian(R) 94 system (copyright 1995, Gaussian, Inc.),
 the Gaussian 92(TM) system (copyright 1992, Gaussian, Inc.),
 the Gaussian 90(TM) system (copyright 1990, Gaussian, Inc.),
 the Gaussian 88(TM) system (copyright 1988, Gaussian, Inc.),
 the Gaussian 86(TM) system (copyright 1986, Carnegie Mellon
 University), and the Gaussian 82(TM) system (copyright 1983,
 Carnegie Mellon University). Gaussian is a federally registered
 trademark of Gaussian, Inc.
  
 This software contains proprietary and confidential information,
 including trade secrets, belonging to Gaussian, Inc.
  
 This software is provided under written license and may be
 used, copied, transmitted, or stored only in accord with that
 written license.
  
 The following legend is applicable only to US Government
 contracts under FAR:
  
                    RESTRICTED RIGHTS LEGEND
  
 Use, reproduction and disclosure by the US Government is
 subject to restrictions as set forth in subparagraphs (a)
 and (c) of the Commercial Computer Software - Restricted
 Rights clause in FAR 52.227-19.
  
 Gaussian, Inc.
 340 Quinnipiac St., Bldg. 40, Wallingford CT 06492
  
  
 ---------------------------------------------------------------
 Warning -- This program may not be used in any manner that
 competes with the business of Gaussian, Inc. or will provide
 assistance to any competitor of Gaussian, Inc.  The licensee
 of this program is prohibited from giving any competitor of
 Gaussian, Inc. access to this program.  By using this program,
 the user acknowledges that Gaussian, Inc. is engaged in the
 business of creating and licensing software in the field of
 computational chemistry and represents and warrants to the
 licensee that it is not a competitor of Gaussian, Inc. and that
 it will not use this program in any manner prohibited above.
 ---------------------------------------------------------------
  

 Cite this work as:
 Gaussian 16, Revision A.03,
 M. J. Frisch, G. W. Trucks, H. B. Schlegel, G. E. Scuseria, 
 M. A. Robb, J. R. Cheeseman, G. Scalmani, V. Barone, 
 G. A. Petersson, H. Nakatsuji, X. Li, M. Caricato, A. V. Marenich, 
 J. Bloino, B. G. Janesko, R. Gomperts, B. Mennucci, H. P. Hratchian, 
 J. V. Ortiz, A. F. Izmaylov, J. L. Sonnenberg, D. Williams-Young, 
 F. Ding, F. Lipparini, F. Egidi, J. Goings, B. Peng, A. Petrone, 
 T. Henderson, D. Ranasinghe, V. G. Zakrzewski, J. Gao, N. Rega, 
 G. Zheng, W. Liang, M. Hada, M. Ehara, K. Toyota, R. Fukuda, 
 J. Hasegawa, M. Ishida, T. Nakajima, Y. Honda, O. Kitao, H. Nakai, 
 T. Vreven, K. Throssell, J. A. Montgomery, Jr., J. E. Peralta, 
 F. Ogliaro, M. J. Bearpark, J. J. Heyd, E. N. Brothers, K. N. Kudin, 
 V. N. Staroverov, T. A. Keith, R. Kobayashi, J. Normand, 
 K. Raghavachari, A. P. Rendell, J. C. Burant, S. S. Iyengar, 
 J. Tomasi, M. Cossi, J. M. Millam, M. Klene, C. Adamo, R. Cammi, 
 J. W. Ochterski, R. L. Martin, K. Morokuma, O. Farkas, 
 J. B. Foresman, and D. J. Fox, Gaussian, Inc., Wallingford CT, 2016.
 
 ******************************************
 Gaussian 16:  ES64L-G16RevA.03 25-Dec-2016
                22-Sep-2023 
 ******************************************
 %nprocshared=4
 Will use up to    4 processors via shared memory.
 %mem=4GB
 -----------------------------------------
 # scrf=(cpcm,solvent=water) def2tzvp olyp
 -----------------------------------------
 1/38=1,172=1/1;
 2/12=2,17=6,18=5,40=1/2;
 3/5=44,7=101,11=2,25=1,30=1,70=2101,72=1,74=2002/1,2,3;
 4//1;
 5/5=2,38=5,53=1/2;
 6/7=2,8=2,9=2,10=2,28=1/1;
 99/5=1,9=1/99;
 --------------------
 tmpdir/M2_ref_23.gjf
 --------------------
 Symbolic Z-matrix:
 Charge =  0 Multiplicity = 1
 O                     1.57267  -1.93445   3.47379 
 P                     0.43524  -0.79448   3.25039 
 O                     1.05873   0.56785   3.29537 
 H                     2.45743  -1.81029   3.46924 
 H                    -0.13656  -1.10874   2.07952 
 H                    -0.44218  -0.96024   4.24351 
 
                          Input orientation:                          
 ---------------------------------------------------------------------
 Center     Atomic      Atomic             Coordinates (Angstroms)
 Number     Number       Type             X           Y           Z
 ---------------------------------------------------------------------
      1          8           0        1.572668   -1.934448    3.473787
      2         15           0        0.435236   -0.794478    3.250390
      3          8           0        1.058734    0.567850    3.295369
      4          1           0        2.457425   -1.810295    3.469243
      5          1           0       -0.136563   -1.108741    2.079521
      6          1           0       -0.442177   -0.960245    4.243509
 ---------------------------------------------------------------------
                    Distance matrix (angstroms):
                    1          2          3          4          5
     1  O    0.000000
     2  P    1.625789   0.000000
     3  O    2.560753   1.498903   0.000000
     4  H    0.893437   2.273550   2.764442   0.000000
     5  H    2.355258   1.340392   2.391230   3.025274   0.000000
     6  H    2.366674   1.335521   2.342387   3.119257   2.190501
                    6
     6  H    0.000000
 Stoichiometry    H3O2P
 Framework group  C1[X(H3O2P)]
 Deg. of freedom    12
 Full point group                 C1      NOp   1
 Largest Abelian subgroup         C1      NOp   1
 Largest concise Abelian subgroup C1      NOp   1
                         Standard orientation:                         
 ---------------------------------------------------------------------
 Center     Atomic      Atomic             Coordinates (Angstroms)
 Number     Number       Type             X           Y           Z
 ---------------------------------------------------------------------
      1          8           0        1.324365   -0.297063   -0.021532
      2         15           0       -0.137560    0.413745    0.005229
      3          8           0       -1.214768   -0.628508   -0.001368
      4          1           0        1.495116   -1.165671    0.099279
      5          1           0       -0.118598    1.190599    1.097378
      6          1           0       -0.189892    1.173478   -1.091896
 ---------------------------------------------------------------------
 Rotational constants (GHZ):          25.8740270           8.8566661           7.0454771
 Standard basis: def2TZVP (5D, 7F)
 There are   132 symmetry adapted cartesian basis functions of A   symmetry.
 There are   117 symmetry adapted basis functions of A   symmetry.
   117 basis functions,   195 primitive gaussians,   132 cartesian basis functions
    17 alpha electrons       17 beta electrons
       nuclear repulsion energy       124.0259020873 Hartrees.
 NAtoms=    6 NActive=    6 NUniq=    6 SFac= 1.00D+00 NAtFMM=   60 NAOKFM=F Big=F
 Integral buffers will be    131072 words long.
 Raffenetti 2 integral format.
 Two-electron integral symmetry is turned on.
 ------------------------------------------------------------------------------
 Polarizable Continuum Model (PCM)
 =================================
 Model                : C-PCM.
 Atomic radii         : UFF (Universal Force Field).
 Polarization charges : Total charges.
 Charge compensation  : None.
 Solution method      : On-the-fly selection.
 Cavity type          : Scaled VdW (van der Waals Surface) (Alpha=1.100).
 Cavity algorithm     : GePol (No added spheres)
                        Default sphere list used, NSphG=    6.
                        Lebedev-Laikov grids with approx.  5.0 points / Ang**2.
                        Smoothing algorithm: York/Karplus (Gamma=1.0000).
                        Polarization charges: spherical gaussians, with
                                              point-specific exponents (IZeta= 3).
                        Self-potential: point-specific (ISelfS= 7).
                        Self-field    : sphere-specific E.n sum rule (ISelfD= 2).
 Solvent              : Water, Eps=  78.355300 Eps(inf)=   1.777849
 ------------------------------------------------------------------------------
 Spheres list:
 ISph  on   Nord     Re0    Alpha      Xe            Ye            Ze
    1   O      1    1.7500  1.100      1.324365     -0.297063     -0.021532
    2   P      2    2.0735  1.100     -0.137560      0.413745      0.005229
    3   O      3    1.7500  1.100     -1.214768     -0.628508     -0.001368
    4   H      4    1.4430  1.100      1.495116     -1.165671      0.099279
    5   H      5    1.4430  1.100     -0.118598      1.190599      1.097378
    6   H      6    1.4430  1.100     -0.189892      1.173478     -1.091896
 ------------------------------------------------------------------------------
 One-electron integrals computed using PRISM.
   1 Symmetry operations used in ECPInt.
 ECPInt:  NShTT=    1128 NPrTT=    3744 LenC2=    1123 LenP2D=    3218.
 LDataN:  DoStor=T MaxTD1= 6 Len=  172
 NBasis=   117 RedAO= T EigKep=  2.09D-03  NBF=   117
 NBsUse=   117 1.00D-06 EigRej= -1.00D+00 NBFU=   117
 ExpMin= 9.04D-02 ExpMax= 5.24D+04 ExpMxC= 1.79D+03 IAcc=3 IRadAn=         5 AccDes= 0.00D+00
 Harris functional with IExCor= 2002 and IRadAn=       5 diagonalized for initial guess.
 HarFok:  IExCor= 2002 AccDes= 0.00D+00 IRadAn=         5 IDoV= 1 UseB2=F ITyADJ=14
 ICtDFT=  3500011 ScaDFX=  1.000000  1.000000  1.000000  1.000000
 FoFCou: FMM=F IPFlag=           0 FMFlag=      100000 FMFlg1=           0
         NFxFlg=           0 DoJE=T BraDBF=F KetDBF=T FulRan=T
         wScrn=  0.000000 ICntrl=       500 IOpCl=  0 I1Cent=   200000004 NGrid=           0
         NMat0=    1 NMatS0=      1 NMatT0=    0 NMatD0=    1 NMtDS0=    0 NMtDT0=    0
 Petite list used in FoFCou.
 Keep J ints in memory in canonical form, NReq=27663592.
 Requested convergence on RMS density matrix=1.00D-08 within 128 cycles.
 Requested convergence on MAX density matrix=1.00D-06.
 Requested convergence on             energy=1.00D-06.
 No special actions if energy rises.
 Inv3:  Mode=1 IEnd=     1764867.
 Iteration    1 A*A^-1 deviation from unit magnitude is 2.89D-15 for    738.
 Iteration    1 A*A^-1 deviation from orthogonality  is 2.04D-15 for    760    284.
 Iteration    1 A^-1*A deviation from unit magnitude is 2.89D-15 for    738.
 Iteration    1 A^-1*A deviation from orthogonality  is 1.59D-15 for    762    123.
 Error on total polarization charges =  0.00788
 SCF Done:  E(RO-LYP) =  -493.681384932     A.U. after   11 cycles
            NFock= 11  Conv=0.92D-08     -V/T= 2.0014

 **********************************************************************

            Population analysis using the SCF density.

 **********************************************************************

 Orbital symmetries:
       Occupied  (A) (A) (A) (A) (A) (A) (A) (A) (A) (A) (A) (A)
                 (A) (A) (A) (A) (A)
       Virtual   (A) (A) (A) (A) (A) (A) (A) (A) (A) (A) (A) (A)
                 (A) (A) (A) (A) (A) (A) (A) (A) (A) (A) (A) (A)
                 (A) (A) (A) (A) (A) (A) (A) (A) (A) (A) (A) (A)
                 (A) (A) (A) (A) (A) (A) (A) (A) (A) (A) (A) (A)
                 (A) (A) (A) (A) (A) (A) (A) (A) (A) (A) (A) (A)
                 (A) (A) (A) (A) (A) (A) (A) (A) (A) (A) (A) (A)
                 (A) (A) (A) (A) (A) (A) (A) (A) (A) (A) (A) (A)
                 (A) (A) (A) (A) (A) (A) (A) (A) (A) (A) (A) (A)
                 (A) (A) (A) (A)
 The electronic state is 1-A.
 Alpha  occ. eigenvalues --  -76.37450 -18.78311 -18.71904  -6.40538  -4.61648
 Alpha  occ. eigenvalues --   -4.61273  -4.61239  -0.97484  -0.87753  -0.61246
 Alpha  occ. eigenvalues --   -0.48085  -0.42607  -0.37650  -0.32167  -0.29645
 Alpha  occ. eigenvalues --   -0.25125  -0.24360
 Alpha virt. eigenvalues --   -0.01313   0.00576   0.03324   0.05512   0.08773
 Alpha virt. eigenvalues --    0.16856   0.20214   0.22523   0.24322   0.27400
 Alpha virt. eigenvalues --    0.30019   0.32085   0.37356   0.40342   0.43825
 Alpha virt. eigenvalues --    0.44459   0.47937   0.51133   0.53324   0.58463
 Alpha virt. eigenvalues --    0.61175   0.62974   0.63921   0.72628   0.76855
 Alpha virt. eigenvalues --    1.02992   1.06069   1.08244   1.11143   1.15343
 Alpha virt. eigenvalues --    1.18529   1.21966   1.24527   1.29646   1.32851
 Alpha virt. eigenvalues --    1.36568   1.37523   1.45562   1.51517   1.54047
 Alpha virt. eigenvalues --    1.56833   1.60788   1.70437   1.78087   1.81890
 Alpha virt. eigenvalues --    1.84487   1.87772   1.95106   1.98880   2.05534
 Alpha virt. eigenvalues --    2.07231   2.12050   2.17027   2.18184   2.23094
 Alpha virt. eigenvalues --    2.25053   2.42177   2.49058   2.53527   2.59815
 Alpha virt. eigenvalues --    2.63864   2.72870   2.79792   2.80738   2.82808
 Alpha virt. eigenvalues --    2.84900   2.85850   3.32370   3.62685   3.83419
 Alpha virt. eigenvalues --    4.96483   4.97189   5.02883   5.03774   5.09059
 Alpha virt. eigenvalues --    5.10690   5.14480   5.16103   5.23420   5.25425
 Alpha virt. eigenvalues --    5.36346   5.37731   5.46721   6.15075   6.20157
 Alpha virt. eigenvalues --    6.22535   6.25314   6.42057   6.43500   6.52505
 Alpha virt. eigenvalues --    6.58818   6.60484   6.73564   6.93491   7.21147
 Alpha virt. eigenvalues --    7.50093   7.81627  15.81064  43.08073  43.10082
          Condensed to atoms (all electrons):
               1          2          3          4          5          6
     1  O    7.862310   0.411936  -0.071272   0.316074  -0.031574  -0.027388
     2  P    0.411936  12.561787   0.715645  -0.018005   0.357716   0.360030
     3  O   -0.071272   0.715645   8.015095   0.003553  -0.038202  -0.039904
     4  H    0.316074  -0.018005   0.003553   0.373077   0.002167   0.003162
     5  H   -0.031574   0.357716  -0.038202   0.002167   0.716965  -0.062591
     6  H   -0.027388   0.360030  -0.039904   0.003162  -0.062591   0.708072
 Mulliken charges:
               1
     1  O   -0.460086
     2  P    0.610891
     3  O   -0.584915
     4  H    0.319973
     5  H    0.055519
     6  H    0.058618
 Sum of Mulliken charges =  -0.00000
 Mulliken charges with hydrogens summed into heavy atoms:
               1
     1  O   -0.140113
     2  P    0.725029
     3  O   -0.584915
 Electronic spatial extent (au):  <R**2>=            202.8976
 Charge=              0.0000 electrons
 Dipole moment (field-independent basis, Debye):
    X=              2.7049    Y=              2.0618    Z=              0.2780  Tot=              3.4124
 Quadrupole moment (field-independent basis, Debye-Ang):
   XX=            -29.3038   YY=            -21.2240   ZZ=            -23.5050
   XY=             -5.4672   XZ=              0.4661   YZ=             -0.3316
 Traceless Quadrupole moment (field-independent basis, Debye-Ang):
   XX=             -4.6262   YY=              3.4536   ZZ=              1.1726
   XY=             -5.4672   XZ=              0.4661   YZ=             -0.3316
 Octapole moment (field-independent basis, Debye-Ang**2):
  XXX=              8.2831  YYY=             -2.5758  ZZZ=              0.1109  XYY=              6.6570
  XXY=             -1.5472  XXZ=              0.6253  XZZ=              0.6560  YZZ=              0.5946
  YYZ=              0.3644  XYZ=             -0.4695
 Hexadecapole moment (field-independent basis, Debye-Ang**3):
 XXXX=           -153.1590 YYYY=            -62.9030 ZZZZ=            -34.3484 XXXY=            -14.0092
 XXXZ=              1.1832 YYYX=             -9.8549 YYYZ=             -0.5659 ZZZX=              0.3308
 ZZZY=             -0.2293 XXYY=            -29.4958 XXZZ=            -31.0278 YYZZ=            -16.6491
 XXYZ=             -0.7948 YYXZ=              0.6525 ZZXY=             -1.3385
 N-N= 1.240259020873D+02 E-N=-1.420895287322D+03  KE= 4.929933017809D+02
 1\1\GINC-NODE85\SP\ROLYP\def2TZVP\H3O2P1\YANZ\22-Sep-2023\0\\# scrf=(c
 pcm,solvent=water) def2tzvp olyp\\tmpdir/M2_ref_23.gjf\\0,1\O,0,1.5726
 68,-1.934448,3.473787\P,0,0.435236,-0.794478,3.25039\O,0,1.058734,0.56
 785,3.295369\H,0,2.45742512,-1.81029463,3.46924279\H,0,-0.13656335,-1.
 10874119,2.07952063\H,0,-0.44217711,-0.96024489,4.24350883\\Version=ES
 64L-G16RevA.03\State=1-A\HF=-493.6813849\RMSD=9.208e-09\Dipole=-0.3975
 221,-1.2766635,-0.1206767\Quadrupole=4.4695694,-5.3021247,0.8325553,-1
 .3369223,0.1950094,0.2782066\PG=C01 [X(H3O2P1)]\\@


 LIVE PURE, SPEAK TRUE, RIGHT WRONG, FOLLOW THE KING...
 ELSE, WHEREFORE BORN......
           IDYLLS OF THE KING, TENNYSON
 Job cpu time:       0 days  0 hours  0 minutes 38.7 seconds.
 Elapsed time:       0 days  0 hours  0 minutes 10.2 seconds.
 File lengths (MBytes):  RWF=     16 Int=      0 D2E=      0 Chk=      2 Scr=      1
 Normal termination of Gaussian 16 at Fri Sep 22 16:52:44 2023.
