 Entering Gaussian System, Link 0=g16
 Initial command:
 /share/apps/gaussian/g16/l1.exe "/tmp/55608.mgr/Gau-86717.inp" -scrdir="/tmp/55608.mgr/"
 Entering Link 1 = /share/apps/gaussian/g16/l1.exe PID=     86718.
  
 Copyright (c) 1988,1990,1992,1993,1995,1998,2003,2009,2016,
            Gaussian, Inc.  All Rights Reserved.
  
 This is part of the Gaussian(R) 16 program.  It is based on
 the Gaussian(R) 09 system (copyright 2009, Gaussian, Inc.),
 the Gaussian(R) 03 system (copyright 2003, Gaussian, Inc.),
 the Gaussian(R) 98 system (copyright 1998, Gaussian, Inc.),
 the Gaussian(R) 94 system (copyright 1995, Gaussian, Inc.),
 the Gaussian 92(TM) system (copyright 1992, Gaussian, Inc.),
 the Gaussian 90(TM) system (copyright 1990, Gaussian, Inc.),
 the Gaussian 88(TM) system (copyright 1988, Gaussian, Inc.),
 the Gaussian 86(TM) system (copyright 1986, Carnegie Mellon
 University), and the Gaussian 82(TM) system (copyright 1983,
 Carnegie Mellon University). Gaussian is a federally registered
 trademark of Gaussian, Inc.
  
 This software contains proprietary and confidential information,
 including trade secrets, belonging to Gaussian, Inc.
  
 This software is provided under written license and may be
 used, copied, transmitted, or stored only in accord with that
 written license.
  
 The following legend is applicable only to US Government
 contracts under FAR:
  
                    RESTRICTED RIGHTS LEGEND
  
 Use, reproduction and disclosure by the US Government is
 subject to restrictions as set forth in subparagraphs (a)
 and (c) of the Commercial Computer Software - Restricted
 Rights clause in FAR 52.227-19.
  
 Gaussian, Inc.
 340 Quinnipiac St., Bldg. 40, Wallingford CT 06492
  
  
 ---------------------------------------------------------------
 Warning -- This program may not be used in any manner that
 competes with the business of Gaussian, Inc. or will provide
 assistance to any competitor of Gaussian, Inc.  The licensee
 of this program is prohibited from giving any competitor of
 Gaussian, Inc. access to this program.  By using this program,
 the user acknowledges that Gaussian, Inc. is engaged in the
 business of creating and licensing software in the field of
 computational chemistry and represents and warrants to the
 licensee that it is not a competitor of Gaussian, Inc. and that
 it will not use this program in any manner prohibited above.
 ---------------------------------------------------------------
  

 Cite this work as:
 Gaussian 16, Revision A.03,
 M. J. Frisch, G. W. Trucks, H. B. Schlegel, G. E. Scuseria, 
 M. A. Robb, J. R. Cheeseman, G. Scalmani, V. Barone, 
 G. A. Petersson, H. Nakatsuji, X. Li, M. Caricato, A. V. Marenich, 
 J. Bloino, B. G. Janesko, R. Gomperts, B. Mennucci, H. P. Hratchian, 
 J. V. Ortiz, A. F. Izmaylov, J. L. Sonnenberg, D. Williams-Young, 
 F. Ding, F. Lipparini, F. Egidi, J. Goings, B. Peng, A. Petrone, 
 T. Henderson, D. Ranasinghe, V. G. Zakrzewski, J. Gao, N. Rega, 
 G. Zheng, W. Liang, M. Hada, M. Ehara, K. Toyota, R. Fukuda, 
 J. Hasegawa, M. Ishida, T. Nakajima, Y. Honda, O. Kitao, H. Nakai, 
 T. Vreven, K. Throssell, J. A. Montgomery, Jr., J. E. Peralta, 
 F. Ogliaro, M. J. Bearpark, J. J. Heyd, E. N. Brothers, K. N. Kudin, 
 V. N. Staroverov, T. A. Keith, R. Kobayashi, J. Normand, 
 K. Raghavachari, A. P. Rendell, J. C. Burant, S. S. Iyengar, 
 J. Tomasi, M. Cossi, J. M. Millam, M. Klene, C. Adamo, R. Cammi, 
 J. W. Ochterski, R. L. Martin, K. Morokuma, O. Farkas, 
 J. B. Foresman, and D. J. Fox, Gaussian, Inc., Wallingford CT, 2016.
 
 ******************************************
 Gaussian 16:  ES64L-G16RevA.03 25-Dec-2016
                22-Sep-2023 
 ******************************************
 %nprocshared=4
 Will use up to    4 processors via shared memory.
 %mem=4GB
 -----------------------------------------
 # scrf=(cpcm,solvent=water) def2tzvp olyp
 -----------------------------------------
 1/38=1,172=1/1;
 2/12=2,17=6,18=5,40=1/2;
 3/5=44,7=101,11=2,25=1,30=1,70=2101,72=1,74=2002/1,2,3;
 4//1;
 5/5=2,38=5,53=1/2;
 6/7=2,8=2,9=2,10=2,28=1/1;
 99/5=1,9=1/99;
 --------------------
 tmpdir/M2_ref_26.gjf
 --------------------
 Symbolic Z-matrix:
 Charge =  0 Multiplicity = 1
 P                     0.43524  -0.79448   3.25039 
 O                     1.57267  -1.93445   3.47379 
 P                     3.17836  -1.70913   3.46554 
 H                    -0.13656  -1.10874   2.07952 
 H                    -0.44218  -0.96024   4.24351 
 O                     1.05873   0.56785   3.29537 
 O                     3.56554  -0.65644   2.47366 
 H                     3.56124  -1.3504    4.69687 
 H                     3.68797  -2.93278   3.27695 
 
                          Input orientation:                          
 ---------------------------------------------------------------------
 Center     Atomic      Atomic             Coordinates (Angstroms)
 Number     Number       Type             X           Y           Z
 ---------------------------------------------------------------------
      1         15           0        0.435236   -0.794478    3.250390
      2          8           0        1.572668   -1.934448    3.473787
      3         15           0        3.178357   -1.709130    3.465540
      4          1           0       -0.136563   -1.108741    2.079521
      5          1           0       -0.442177   -0.960245    4.243509
      6          8           0        1.058734    0.567850    3.295369
      7          8           0        3.565538   -0.656436    2.473662
      8          1           0        3.561237   -1.350396    4.696875
      9          1           0        3.687966   -2.932777    3.276953
 ---------------------------------------------------------------------
                    Distance matrix (angstroms):
                    1          2          3          4          5
     1  P    0.000000
     2  O    1.625789   0.000000
     3  P    2.899585   1.621442   0.000000
     4  H    1.340392   2.355258   3.642830   0.000000
     5  H    1.335521   2.366674   3.778139   2.190501   0.000000
     6  O    1.498903   2.560753   3.115509   2.391230   2.342387
     7  O    3.228181   2.570038   1.497296   3.750398   4.391633
     8  H    3.489018   2.406547   1.338459   4.536812   4.047849
     9  H    3.892722   2.347316   1.338872   4.403178   4.677948
                    6          7          8          9
     6  O    0.000000
     7  O    2.908289   0.000000
     8  H    3.450566   2.329007   0.000000
     9  H    4.378081   2.417022   2.129828   0.000000
 Stoichiometry    H4O3P2
 Framework group  C1[X(H4O3P2)]
 Deg. of freedom    21
 Full point group                 C1      NOp   1
 Largest Abelian subgroup         C1      NOp   1
 Largest concise Abelian subgroup C1      NOp   1
                         Standard orientation:                         
 ---------------------------------------------------------------------
 Center     Atomic      Atomic             Coordinates (Angstroms)
 Number     Number       Type             X           Y           Z
 ---------------------------------------------------------------------
      1         15           0       -1.463683   -0.243594   -0.122000
      2          8           0       -0.013525   -0.977729   -0.086234
      3         15           0        1.421323   -0.266459    0.167494
      4          1           0       -1.868106   -0.350282   -1.395464
      5          1           0       -2.256465   -0.971253    0.668965
      6          8           0       -1.338398    1.163964    0.377795
      7          8           0        1.453139    1.103580   -0.435727
      8          1           0        1.631552   -0.197741    1.487553
      9          1           0        2.318677   -1.148451   -0.290136
 ---------------------------------------------------------------------
 Rotational constants (GHZ):           6.7976540           2.3013199           1.8647376
 Standard basis: def2TZVP (5D, 7F)
 There are   216 symmetry adapted cartesian basis functions of A   symmetry.
 There are   191 symmetry adapted basis functions of A   symmetry.
   191 basis functions,   323 primitive gaussians,   216 cartesian basis functions
    29 alpha electrons       29 beta electrons
       nuclear repulsion energy       334.0338964307 Hartrees.
 NAtoms=    9 NActive=    9 NUniq=    9 SFac= 1.00D+00 NAtFMM=   60 NAOKFM=F Big=F
 Integral buffers will be    131072 words long.
 Raffenetti 2 integral format.
 Two-electron integral symmetry is turned on.
 ------------------------------------------------------------------------------
 Polarizable Continuum Model (PCM)
 =================================
 Model                : C-PCM.
 Atomic radii         : UFF (Universal Force Field).
 Polarization charges : Total charges.
 Charge compensation  : None.
 Solution method      : On-the-fly selection.
 Cavity type          : Scaled VdW (van der Waals Surface) (Alpha=1.100).
 Cavity algorithm     : GePol (No added spheres)
                        Default sphere list used, NSphG=    9.
                        Lebedev-Laikov grids with approx.  5.0 points / Ang**2.
                        Smoothing algorithm: York/Karplus (Gamma=1.0000).
                        Polarization charges: spherical gaussians, with
                                              point-specific exponents (IZeta= 3).
                        Self-potential: point-specific (ISelfS= 7).
                        Self-field    : sphere-specific E.n sum rule (ISelfD= 2).
 Solvent              : Water, Eps=  78.355300 Eps(inf)=   1.777849
 ------------------------------------------------------------------------------
 Spheres list:
 ISph  on   Nord     Re0    Alpha      Xe            Ye            Ze
    1   P      1    2.0735  1.100     -1.463683     -0.243594     -0.122000
    2   O      2    1.7500  1.100     -0.013525     -0.977729     -0.086234
    3   P      3    2.0735  1.100      1.421323     -0.266459      0.167494
    4   H      4    1.4430  1.100     -1.868106     -0.350282     -1.395464
    5   H      5    1.4430  1.100     -2.256465     -0.971253      0.668965
    6   O      6    1.7500  1.100     -1.338398      1.163964      0.377795
    7   O      7    1.7500  1.100      1.453139      1.103580     -0.435727
    8   H      8    1.4430  1.100      1.631552     -0.197741      1.487553
    9   H      9    1.4430  1.100      2.318677     -1.148451     -0.290136
 ------------------------------------------------------------------------------
 One-electron integrals computed using PRISM.
   1 Symmetry operations used in ECPInt.
 ECPInt:  NShTT=    2850 NPrTT=    9741 LenC2=    2803 LenP2D=    7613.
 LDataN:  DoStor=T MaxTD1= 6 Len=  172
 NBasis=   191 RedAO= T EigKep=  1.64D-03  NBF=   191
 NBsUse=   191 1.00D-06 EigRej= -1.00D+00 NBFU=   191
 ExpMin= 9.04D-02 ExpMax= 5.24D+04 ExpMxC= 1.79D+03 IAcc=3 IRadAn=         5 AccDes= 0.00D+00
 Harris functional with IExCor= 2002 and IRadAn=       5 diagonalized for initial guess.
 HarFok:  IExCor= 2002 AccDes= 0.00D+00 IRadAn=         5 IDoV= 1 UseB2=F ITyADJ=14
 ICtDFT=  3500011 ScaDFX=  1.000000  1.000000  1.000000  1.000000
 FoFCou: FMM=F IPFlag=           0 FMFlag=      100000 FMFlg1=           0
         NFxFlg=           0 DoJE=T BraDBF=F KetDBF=T FulRan=T
         wScrn=  0.000000 ICntrl=       500 IOpCl=  0 I1Cent=   200000004 NGrid=           0
         NMat0=    1 NMatS0=      1 NMatT0=    0 NMatD0=    1 NMtDS0=    0 NMtDT0=    0
 Petite list used in FoFCou.
 Keep J ints in memory in canonical form, NReq=173223722.
 Requested convergence on RMS density matrix=1.00D-08 within 128 cycles.
 Requested convergence on MAX density matrix=1.00D-06.
 Requested convergence on             energy=1.00D-06.
 No special actions if energy rises.
 Inv3:  Mode=1 IEnd=     3577392.
 Iteration    1 A*A^-1 deviation from unit magnitude is 3.55D-15 for   1089.
 Iteration    1 A*A^-1 deviation from orthogonality  is 1.13D-15 for    923    584.
 Iteration    1 A^-1*A deviation from unit magnitude is 3.55D-15 for   1089.
 Iteration    1 A^-1*A deviation from orthogonality  is 1.30D-15 for    884    490.
 Error on total polarization charges =  0.00992
 SCF Done:  E(RO-LYP) =  -910.924970937     A.U. after   13 cycles
            NFock= 13  Conv=0.28D-08     -V/T= 2.0015

 **********************************************************************

            Population analysis using the SCF density.

 **********************************************************************

 Orbital symmetries:
       Occupied  (A) (A) (A) (A) (A) (A) (A) (A) (A) (A) (A) (A)
                 (A) (A) (A) (A) (A) (A) (A) (A) (A) (A) (A) (A)
                 (A) (A) (A) (A) (A)
       Virtual   (A) (A) (A) (A) (A) (A) (A) (A) (A) (A) (A) (A)
                 (A) (A) (A) (A) (A) (A) (A) (A) (A) (A) (A) (A)
                 (A) (A) (A) (A) (A) (A) (A) (A) (A) (A) (A) (A)
                 (A) (A) (A) (A) (A) (A) (A) (A) (A) (A) (A) (A)
                 (A) (A) (A) (A) (A) (A) (A) (A) (A) (A) (A) (A)
                 (A) (A) (A) (A) (A) (A) (A) (A) (A) (A) (A) (A)
                 (A) (A) (A) (A) (A) (A) (A) (A) (A) (A) (A) (A)
                 (A) (A) (A) (A) (A) (A) (A) (A) (A) (A) (A) (A)
                 (A) (A) (A) (A) (A) (A) (A) (A) (A) (A) (A) (A)
                 (A) (A) (A) (A) (A) (A) (A) (A) (A) (A) (A) (A)
                 (A) (A) (A) (A) (A) (A) (A) (A) (A) (A) (A) (A)
                 (A) (A) (A) (A) (A) (A) (A) (A) (A) (A) (A) (A)
                 (A) (A) (A) (A) (A) (A) (A) (A) (A) (A) (A) (A)
                 (A) (A) (A) (A) (A) (A)
 The electronic state is 1-A.
 Alpha  occ. eigenvalues --  -76.38413 -76.38135 -18.81957 -18.72405 -18.72236
 Alpha  occ. eigenvalues --   -6.41564  -6.41276  -4.62722  -4.62424  -4.62268
 Alpha  occ. eigenvalues --   -4.62228  -4.62004  -4.61924  -0.99926  -0.88732
 Alpha  occ. eigenvalues --   -0.87902  -0.64190  -0.55067  -0.46694  -0.44295
 Alpha  occ. eigenvalues --   -0.43268  -0.39696  -0.35221  -0.32923  -0.31718
 Alpha  occ. eigenvalues --   -0.26941  -0.25591  -0.24687  -0.23803
 Alpha virt. eigenvalues --   -0.03570  -0.00212   0.00590   0.02038   0.03026
 Alpha virt. eigenvalues --    0.04074   0.07330   0.08998   0.14367   0.17599
 Alpha virt. eigenvalues --    0.19210   0.19369   0.20511   0.23459   0.23950
 Alpha virt. eigenvalues --    0.26374   0.29513   0.30233   0.31334   0.31478
 Alpha virt. eigenvalues --    0.32890   0.36595   0.38122   0.38771   0.41896
 Alpha virt. eigenvalues --    0.47007   0.48652   0.49100   0.50468   0.51561
 Alpha virt. eigenvalues --    0.54885   0.58446   0.61316   0.62372   0.64100
 Alpha virt. eigenvalues --    0.67767   0.68690   0.71781   0.73098   0.75624
 Alpha virt. eigenvalues --    0.79083   0.81624   1.02060   1.03927   1.04906
 Alpha virt. eigenvalues --    1.08580   1.09927   1.11397   1.12711   1.14601
 Alpha virt. eigenvalues --    1.16717   1.18365   1.18785   1.21757   1.24600
 Alpha virt. eigenvalues --    1.26974   1.29739   1.31160   1.34468   1.35666
 Alpha virt. eigenvalues --    1.37516   1.43361   1.45738   1.47607   1.49029
 Alpha virt. eigenvalues --    1.53355   1.54940   1.58929   1.60797   1.61772
 Alpha virt. eigenvalues --    1.65410   1.72521   1.74850   1.78647   1.82800
 Alpha virt. eigenvalues --    1.85552   1.86846   1.90432   1.92424   1.96072
 Alpha virt. eigenvalues --    2.02105   2.03010   2.03801   2.04327   2.08607
 Alpha virt. eigenvalues --    2.12469   2.13892   2.14798   2.15998   2.18940
 Alpha virt. eigenvalues --    2.21197   2.21655   2.24629   2.26670   2.33005
 Alpha virt. eigenvalues --    2.46784   2.52326   2.55981   2.57264   2.60095
 Alpha virt. eigenvalues --    2.64635   2.69224   2.77867   2.79843   2.81023
 Alpha virt. eigenvalues --    2.82332   2.84870   2.86865   2.89205   2.92129
 Alpha virt. eigenvalues --    2.98914   3.32203   3.41763   3.63994   3.64795
 Alpha virt. eigenvalues --    4.95438   4.96104   5.02135   5.02639   5.04483
 Alpha virt. eigenvalues --    5.05634   5.06401   5.08008   5.09195   5.10225
 Alpha virt. eigenvalues --    5.10974   5.15640   5.16805   5.20180   5.23458
 Alpha virt. eigenvalues --    5.24084   5.30054   5.35646   5.35947   5.40899
 Alpha virt. eigenvalues --    5.46887   6.17710   6.19016   6.20828   6.22398
 Alpha virt. eigenvalues --    6.30861   6.32934   6.49601   6.52157   6.52956
 Alpha virt. eigenvalues --    6.58382   6.60533   6.66236   6.69095   6.73369
 Alpha virt. eigenvalues --    6.76526   7.22343   7.23537   7.47909   7.57391
 Alpha virt. eigenvalues --    7.83191   7.87060  15.80252  15.87511  43.10555
 Alpha virt. eigenvalues --   43.16192  43.30494
          Condensed to atoms (all electrons):
               1          2          3          4          5          6
     1  P   12.643626   0.361162  -0.023470   0.357811   0.366082   0.702948
     2  O    0.361162   7.800464   0.359844  -0.023024  -0.018707  -0.059807
     3  P   -0.023470   0.359844  12.637012   0.002738  -0.000067   0.004541
     4  H    0.357811  -0.023024   0.002738   0.685748  -0.054565  -0.034778
     5  H    0.366082  -0.018707  -0.000067  -0.054565   0.673778  -0.035831
     6  O    0.702948  -0.059807   0.004541  -0.034778  -0.035831   7.987972
     7  O    0.001231  -0.057050   0.710611  -0.000343  -0.000263  -0.013473
     8  H    0.002435  -0.024555   0.368862  -0.000081   0.000567   0.000791
     9  H    0.000661  -0.016079   0.359440   0.000077  -0.000223  -0.000251
               7          8          9
     1  P    0.001231   0.002435   0.000661
     2  O   -0.057050  -0.024555  -0.016079
     3  P    0.710611   0.368862   0.359440
     4  H   -0.000343  -0.000081   0.000077
     5  H   -0.000263   0.000567  -0.000223
     6  O   -0.013473   0.000791  -0.000251
     7  O    7.985629  -0.041801  -0.030321
     8  H   -0.041801   0.698906  -0.058967
     9  H   -0.030321  -0.058967   0.674572
 Mulliken charges:
               1
     1  P    0.587514
     2  O   -0.322249
     3  P    0.580488
     4  H    0.066417
     5  H    0.069229
     6  O   -0.552114
     7  O   -0.554220
     8  H    0.053844
     9  H    0.071091
 Sum of Mulliken charges =  -0.00000
 Mulliken charges with hydrogens summed into heavy atoms:
               1
     1  P    0.723160
     2  O   -0.322249
     3  P    0.705423
     6  O   -0.552114
     7  O   -0.554220
 Electronic spatial extent (au):  <R**2>=            632.5942
 Charge=              0.0000 electrons
 Dipole moment (field-independent basis, Debye):
    X=             -0.6734    Y=             -7.3070    Z=              0.3939  Tot=              7.3486
 Quadrupole moment (field-independent basis, Debye-Ang):
   XX=            -35.6468   YY=            -49.5964   ZZ=            -40.5887
   XY=             -0.2905   XZ=              5.2580   YZ=             -0.0246
 Traceless Quadrupole moment (field-independent basis, Debye-Ang):
   XX=              6.2972   YY=             -7.6524   ZZ=              1.3553
   XY=             -0.2905   XZ=              5.2580   YZ=             -0.0246
 Octapole moment (field-independent basis, Debye-Ang**2):
  XXX=             -4.0748  YYY=            -10.9442  ZZZ=             -0.1586  XYY=              0.4016
  XXY=            -21.7373  XXZ=              0.8143  XZZ=             -1.0830  YZZ=             -2.8386
  YYZ=              0.2071  XYZ=              4.3165
 Hexadecapole moment (field-independent basis, Debye-Ang**3):
 XXXX=           -489.4970 YYYY=           -196.5075 ZZZZ=            -76.8304 XXXY=             -3.1651
 XXXZ=             12.1742 YYYX=              0.2005 YYYZ=             -0.0512 ZZZX=              4.4693
 ZZZY=              0.3407 XXYY=           -129.5405 XXZZ=            -97.0567 YYZZ=            -45.3284
 XXYZ=              0.7373 YYXZ=              4.1747 ZZXY=              0.2594
 N-N= 3.340338964307D+02 E-N=-2.832585877020D+03  KE= 9.095974455013D+02
 1\1\GINC-NODE85\SP\ROLYP\def2TZVP\H4O3P2\YANZ\22-Sep-2023\0\\# scrf=(c
 pcm,solvent=water) def2tzvp olyp\\tmpdir/M2_ref_26.gjf\\0,1\P,0,0.4352
 36,-0.794478,3.25039\O,0,1.572668,-1.934448,3.473787\P,0,3.178357,-1.7
 0913,3.46554\H,0,-0.13656335,-1.10874119,2.07952063\H,0,-0.44217711,-0
 .96024489,4.24350883\O,0,1.058734,0.56785,3.295369\O,0,3.565538,-0.656
 436,2.473662\H,0,3.56123666,-1.35039577,4.69687487\H,0,3.68796593,-2.9
 3277725,3.27695348\\Version=ES64L-G16RevA.03\State=1-A\HF=-910.9249709
 \RMSD=2.763e-09\Dipole=-1.1363955,-2.4516184,1.0280654\Quadrupole=4.37
 57983,-4.5993312,0.2235329,-2.3675128,4.1113171,0.5447682\PG=C01 [X(H4
 O3P2)]\\@


 SIC AS THE CAWSE OF EWERY THING IS, SIC WILBE THE EFFECT.
 -- PROVERBS AND REASONS OF THE YEAR 1585
           AS REPRINTED IN PAISLEY MAGAZINE 1828.
 Job cpu time:       0 days  0 hours  2 minutes  6.5 seconds.
 Elapsed time:       0 days  0 hours  0 minutes 35.7 seconds.
 File lengths (MBytes):  RWF=     27 Int=      0 D2E=      0 Chk=      4 Scr=      1
 Normal termination of Gaussian 16 at Fri Sep 22 16:53:08 2023.
