 Entering Gaussian System, Link 0=g16
 Initial command:
 /share/apps/gaussian/g16/l1.exe "/tmp/55608.mgr/Gau-85873.inp" -scrdir="/tmp/55608.mgr/"
 Entering Link 1 = /share/apps/gaussian/g16/l1.exe PID=     85874.
  
 Copyright (c) 1988,1990,1992,1993,1995,1998,2003,2009,2016,
            Gaussian, Inc.  All Rights Reserved.
  
 This is part of the Gaussian(R) 16 program.  It is based on
 the Gaussian(R) 09 system (copyright 2009, Gaussian, Inc.),
 the Gaussian(R) 03 system (copyright 2003, Gaussian, Inc.),
 the Gaussian(R) 98 system (copyright 1998, Gaussian, Inc.),
 the Gaussian(R) 94 system (copyright 1995, Gaussian, Inc.),
 the Gaussian 92(TM) system (copyright 1992, Gaussian, Inc.),
 the Gaussian 90(TM) system (copyright 1990, Gaussian, Inc.),
 the Gaussian 88(TM) system (copyright 1988, Gaussian, Inc.),
 the Gaussian 86(TM) system (copyright 1986, Carnegie Mellon
 University), and the Gaussian 82(TM) system (copyright 1983,
 Carnegie Mellon University). Gaussian is a federally registered
 trademark of Gaussian, Inc.
  
 This software contains proprietary and confidential information,
 including trade secrets, belonging to Gaussian, Inc.
  
 This software is provided under written license and may be
 used, copied, transmitted, or stored only in accord with that
 written license.
  
 The following legend is applicable only to US Government
 contracts under FAR:
  
                    RESTRICTED RIGHTS LEGEND
  
 Use, reproduction and disclosure by the US Government is
 subject to restrictions as set forth in subparagraphs (a)
 and (c) of the Commercial Computer Software - Restricted
 Rights clause in FAR 52.227-19.
  
 Gaussian, Inc.
 340 Quinnipiac St., Bldg. 40, Wallingford CT 06492
  
  
 ---------------------------------------------------------------
 Warning -- This program may not be used in any manner that
 competes with the business of Gaussian, Inc. or will provide
 assistance to any competitor of Gaussian, Inc.  The licensee
 of this program is prohibited from giving any competitor of
 Gaussian, Inc. access to this program.  By using this program,
 the user acknowledges that Gaussian, Inc. is engaged in the
 business of creating and licensing software in the field of
 computational chemistry and represents and warrants to the
 licensee that it is not a competitor of Gaussian, Inc. and that
 it will not use this program in any manner prohibited above.
 ---------------------------------------------------------------
  

 Cite this work as:
 Gaussian 16, Revision A.03,
 M. J. Frisch, G. W. Trucks, H. B. Schlegel, G. E. Scuseria, 
 M. A. Robb, J. R. Cheeseman, G. Scalmani, V. Barone, 
 G. A. Petersson, H. Nakatsuji, X. Li, M. Caricato, A. V. Marenich, 
 J. Bloino, B. G. Janesko, R. Gomperts, B. Mennucci, H. P. Hratchian, 
 J. V. Ortiz, A. F. Izmaylov, J. L. Sonnenberg, D. Williams-Young, 
 F. Ding, F. Lipparini, F. Egidi, J. Goings, B. Peng, A. Petrone, 
 T. Henderson, D. Ranasinghe, V. G. Zakrzewski, J. Gao, N. Rega, 
 G. Zheng, W. Liang, M. Hada, M. Ehara, K. Toyota, R. Fukuda, 
 J. Hasegawa, M. Ishida, T. Nakajima, Y. Honda, O. Kitao, H. Nakai, 
 T. Vreven, K. Throssell, J. A. Montgomery, Jr., J. E. Peralta, 
 F. Ogliaro, M. J. Bearpark, J. J. Heyd, E. N. Brothers, K. N. Kudin, 
 V. N. Staroverov, T. A. Keith, R. Kobayashi, J. Normand, 
 K. Raghavachari, A. P. Rendell, J. C. Burant, S. S. Iyengar, 
 J. Tomasi, M. Cossi, J. M. Millam, M. Klene, C. Adamo, R. Cammi, 
 J. W. Ochterski, R. L. Martin, K. Morokuma, O. Farkas, 
 J. B. Foresman, and D. J. Fox, Gaussian, Inc., Wallingford CT, 2016.
 
 ******************************************
 Gaussian 16:  ES64L-G16RevA.03 25-Dec-2016
                22-Sep-2023 
 ******************************************
 %nprocshared=4
 Will use up to    4 processors via shared memory.
 %mem=4GB
 -----------------------------------------
 # scrf=(cpcm,solvent=water) def2tzvp olyp
 -----------------------------------------
 1/38=1,172=1/1;
 2/12=2,17=6,18=5,40=1/2;
 3/5=44,7=101,11=2,25=1,30=1,70=2101,72=1,74=2002/1,2,3;
 4//1;
 5/5=2,38=5,53=1/2;
 6/7=2,8=2,9=2,10=2,28=1/1;
 99/5=1,9=1/99;
 -------------------
 tmpdir/M2_ref_1.gjf
 -------------------
 Symbolic Z-matrix:
 Charge =  0 Multiplicity = 1
 O                    -1.30131   0.7179    0.46229 
 P                    -0.15562  -0.22182   0.43648 
 H                    -0.22438  -1.2188   -0.48445 
 H                     1.07089   0.21826   0.38838 
 H                    -0.22137  -1.02654   1.67562 
 
                          Input orientation:                          
 ---------------------------------------------------------------------
 Center     Atomic      Atomic             Coordinates (Angstroms)
 Number     Number       Type             X           Y           Z
 ---------------------------------------------------------------------
      1          8           0       -1.301306    0.717898    0.462292
      2         15           0       -0.155615   -0.221822    0.436475
      3          1           0       -0.224381   -1.218802   -0.484453
      4          1           0        1.070889    0.218257    0.388384
      5          1           0       -0.221372   -1.026544    1.675623
 ---------------------------------------------------------------------
                    Distance matrix (angstroms):
                    1          2          3          4          5
     1  O    0.000000
     2  P    1.482008   0.000000
     3  H    2.409751   1.358973   0.000000
     4  H    2.425368   1.303953   2.122430   0.000000
     5  H    2.383591   1.478982   2.168617   2.208269   0.000000
 Stoichiometry    H3OP
 Framework group  C1[X(H3OP)]
 Deg. of freedom     9
 Full point group                 C1      NOp   1
 Largest Abelian subgroup         C1      NOp   1
 Largest concise Abelian subgroup C1      NOp   1
                         Standard orientation:                         
 ---------------------------------------------------------------------
 Center     Atomic      Atomic             Coordinates (Angstroms)
 Number     Number       Type             X           Y           Z
 ---------------------------------------------------------------------
      1          8           0       -1.091645   -0.001348    0.002629
      2         15           0        0.390176   -0.023673   -0.004882
      3          1           0        0.988980   -0.186432    1.204147
      4          1           0        1.044436   -0.794139   -0.828665
      5          1           0        0.847101    1.346446   -0.323287
 ---------------------------------------------------------------------
 Rotational constants (GHZ):         105.9382788          17.5950301          17.4421320
 Standard basis: def2TZVP (5D, 7F)
 There are    96 symmetry adapted cartesian basis functions of A   symmetry.
 There are    86 symmetry adapted basis functions of A   symmetry.
    86 basis functions,   144 primitive gaussians,    96 cartesian basis functions
    13 alpha electrons       13 beta electrons
       nuclear repulsion energy        66.1547055159 Hartrees.
 NAtoms=    5 NActive=    5 NUniq=    5 SFac= 1.00D+00 NAtFMM=   60 NAOKFM=F Big=F
 Integral buffers will be    131072 words long.
 Raffenetti 2 integral format.
 Two-electron integral symmetry is turned on.
 ------------------------------------------------------------------------------
 Polarizable Continuum Model (PCM)
 =================================
 Model                : C-PCM.
 Atomic radii         : UFF (Universal Force Field).
 Polarization charges : Total charges.
 Charge compensation  : None.
 Solution method      : On-the-fly selection.
 Cavity type          : Scaled VdW (van der Waals Surface) (Alpha=1.100).
 Cavity algorithm     : GePol (No added spheres)
                        Default sphere list used, NSphG=    5.
                        Lebedev-Laikov grids with approx.  5.0 points / Ang**2.
                        Smoothing algorithm: York/Karplus (Gamma=1.0000).
                        Polarization charges: spherical gaussians, with
                                              point-specific exponents (IZeta= 3).
                        Self-potential: point-specific (ISelfS= 7).
                        Self-field    : sphere-specific E.n sum rule (ISelfD= 2).
 Solvent              : Water, Eps=  78.355300 Eps(inf)=   1.777849
 ------------------------------------------------------------------------------
 Spheres list:
 ISph  on   Nord     Re0    Alpha      Xe            Ye            Ze
    1   O      1    1.7500  1.100     -1.091645     -0.001348      0.002629
    2   P      2    2.0735  1.100      0.390176     -0.023673     -0.004882
    3   H      3    1.4430  1.100      0.988980     -0.186432      1.204147
    4   H      4    1.4430  1.100      1.044436     -0.794139     -0.828665
    5   H      5    1.4430  1.100      0.847101      1.346446     -0.323287
 ------------------------------------------------------------------------------
 One-electron integrals computed using PRISM.
   1 Symmetry operations used in ECPInt.
 ECPInt:  NShTT=     666 NPrTT=    2212 LenC2=     666 LenP2D=    1990.
 LDataN:  DoStor=T MaxTD1= 6 Len=  172
 NBasis=    86 RedAO= T EigKep=  2.74D-03  NBF=    86
 NBsUse=    86 1.00D-06 EigRej= -1.00D+00 NBFU=    86
 ExpMin= 9.04D-02 ExpMax= 5.24D+04 ExpMxC= 1.79D+03 IAcc=3 IRadAn=         5 AccDes= 0.00D+00
 Harris functional with IExCor= 2002 and IRadAn=       5 diagonalized for initial guess.
 HarFok:  IExCor= 2002 AccDes= 0.00D+00 IRadAn=         5 IDoV= 1 UseB2=F ITyADJ=14
 ICtDFT=  3500011 ScaDFX=  1.000000  1.000000  1.000000  1.000000
 FoFCou: FMM=F IPFlag=           0 FMFlag=      100000 FMFlg1=           0
         NFxFlg=           0 DoJE=T BraDBF=F KetDBF=T FulRan=T
         wScrn=  0.000000 ICntrl=       500 IOpCl=  0 I1Cent=   200000004 NGrid=           0
         NMat0=    1 NMatS0=      1 NMatT0=    0 NMatD0=    1 NMtDS0=    0 NMtDT0=    0
 Petite list used in FoFCou.
 Keep J ints in memory in canonical form, NReq=10684354.
 Requested convergence on RMS density matrix=1.00D-08 within 128 cycles.
 Requested convergence on MAX density matrix=1.00D-06.
 Requested convergence on             energy=1.00D-06.
 No special actions if energy rises.
 Inv3:  Mode=1 IEnd=     1263603.
 Iteration    1 A*A^-1 deviation from unit magnitude is 3.89D-15 for    639.
 Iteration    1 A*A^-1 deviation from orthogonality  is 3.20D-15 for    639    217.
 Iteration    1 A^-1*A deviation from unit magnitude is 3.89D-15 for    639.
 Iteration    1 A^-1*A deviation from orthogonality  is 1.38D-15 for    601     24.
 Error on total polarization charges =  0.00885
 SCF Done:  E(RO-LYP) =  -418.404154276     A.U. after   10 cycles
            NFock= 10  Conv=0.92D-08     -V/T= 2.0012

 **********************************************************************

            Population analysis using the SCF density.

 **********************************************************************

 Orbital symmetries:
       Occupied  (A) (A) (A) (A) (A) (A) (A) (A) (A) (A) (A) (A)
                 (A)
       Virtual   (A) (A) (A) (A) (A) (A) (A) (A) (A) (A) (A) (A)
                 (A) (A) (A) (A) (A) (A) (A) (A) (A) (A) (A) (A)
                 (A) (A) (A) (A) (A) (A) (A) (A) (A) (A) (A) (A)
                 (A) (A) (A) (A) (A) (A) (A) (A) (A) (A) (A) (A)
                 (A) (A) (A) (A) (A) (A) (A) (A) (A) (A) (A) (A)
                 (A) (A) (A) (A) (A) (A) (A) (A) (A) (A) (A) (A)
                 (A)
 The electronic state is 1-A.
 Alpha  occ. eigenvalues --  -76.34382 -18.71915  -6.38128  -4.59021  -4.58936
 Alpha  occ. eigenvalues --   -4.58839  -0.89025  -0.58577  -0.40707  -0.38103
 Alpha  occ. eigenvalues --   -0.34218  -0.24947  -0.23942
 Alpha virt. eigenvalues --   -0.02186   0.01336   0.02401   0.06164   0.14474
 Alpha virt. eigenvalues --    0.15057   0.22081   0.25058   0.26480   0.28221
 Alpha virt. eigenvalues --    0.29706   0.30549   0.38768   0.48004   0.49780
 Alpha virt. eigenvalues --    0.51740   0.55585   0.61226   0.68197   0.76050
 Alpha virt. eigenvalues --    1.02412   1.06201   1.07859   1.09179   1.10306
 Alpha virt. eigenvalues --    1.17862   1.19726   1.24083   1.28202   1.34519
 Alpha virt. eigenvalues --    1.38634   1.46143   1.53036   1.53116   1.56573
 Alpha virt. eigenvalues --    1.63844   1.77738   1.78942   1.85579   1.95359
 Alpha virt. eigenvalues --    1.98162   1.99580   2.03807   2.10912   2.15818
 Alpha virt. eigenvalues --    2.23217   2.41130   2.48629   2.52717   2.61515
 Alpha virt. eigenvalues --    2.69823   2.79348   2.79992   2.82241   2.82932
 Alpha virt. eigenvalues --    3.61749   5.04779   5.05362   5.14701   5.14909
 Alpha virt. eigenvalues --    5.21891   5.24030   5.43032   6.19257   6.20597
 Alpha virt. eigenvalues --    6.52638   6.53226   6.75256   7.15847   7.22370
 Alpha virt. eigenvalues --    7.71537  15.35657  43.08104
          Condensed to atoms (all electrons):
               1          2          3          4          5
     1  O    8.007028   0.699365  -0.038166  -0.034514  -0.048193
     2  P    0.699365  12.808065   0.359880   0.353772   0.359705
     3  H   -0.038166   0.359880   0.697907  -0.043620  -0.036946
     4  H   -0.034514   0.353772  -0.043620   0.686199  -0.035658
     5  H   -0.048193   0.359705  -0.036946  -0.035658   0.729550
 Mulliken charges:
               1
     1  O   -0.585521
     2  P    0.419213
     3  H    0.060945
     4  H    0.073821
     5  H    0.031542
 Sum of Mulliken charges =  -0.00000
 Mulliken charges with hydrogens summed into heavy atoms:
               1
     1  O   -0.585521
     2  P    0.585521
 Electronic spatial extent (au):  <R**2>=            113.3051
 Charge=             -0.0000 electrons
 Dipole moment (field-independent basis, Debye):
    X=              4.4399    Y=             -0.4505    Z=             -0.0512  Tot=              4.4630
 Quadrupole moment (field-independent basis, Debye-Ang):
   XX=            -22.3124   YY=            -18.7233   ZZ=            -18.5083
   XY=             -0.4863   XZ=             -0.0316   YZ=              0.1955
 Traceless Quadrupole moment (field-independent basis, Debye-Ang):
   XX=             -2.4644   YY=              1.1247   ZZ=              1.3397
   XY=             -0.4863   XZ=             -0.0316   YZ=              0.1955
 Octapole moment (field-independent basis, Debye-Ang**2):
  XXX=              4.7037  YYY=             -1.1079  ZZZ=              0.0732  XYY=              0.2185
  XXY=             -0.5685  XXZ=             -0.0531  XZZ=              0.5253  YZZ=             -0.5164
  YYZ=             -0.1272  XYZ=              0.2340
 Hexadecapole moment (field-independent basis, Debye-Ang**3):
 XXXX=            -90.4860 YYYY=            -33.1963 ZZZZ=            -30.5137 XXXY=             -1.5053
 XXXZ=             -0.1567 YYYX=             -0.9405 YYYZ=              0.3478 ZZZX=              0.1729
 ZZZY=              0.6180 XXYY=            -20.6496 XXZZ=            -19.8060 YYZZ=            -10.8601
 XXYZ=              0.4048 YYXZ=             -0.2374 ZZXY=             -0.5720
 N-N= 6.615470551593D+01 E-N=-1.127053751890D+03  KE= 4.179132032900D+02
 1\1\GINC-NODE85\SP\ROLYP\def2TZVP\H3O1P1\YANZ\22-Sep-2023\0\\# scrf=(c
 pcm,solvent=water) def2tzvp olyp\\tmpdir/M2_ref_1.gjf\\0,1\O,0,-1.3013
 06,0.717898,0.462292\P,0,-0.155615,-0.221822,0.436475\H,0,-0.22438135,
 -1.21880177,-0.48445333\H,0,1.07088855,0.21825747,0.38838369\H,0,-0.22
 137174,-1.02654444,1.67562253\\Version=ES64L-G16RevA.03\State=1-A\HF=-
 418.4041543\RMSD=9.221e-09\Dipole=1.4190516,-1.0249875,-0.1370145\Quad
 rupole=-0.3764427,-0.3891178,0.7655605,1.476274,-0.1421201,0.1934655\P
 G=C01 [X(H3O1P1)]\\@


 TO DETECT ERRORS, THE PROGRAMMER MUST HAVE A CONNIVING MIND,
 ONE THAT DELIGHTS IN UNCOVERING FLAWS WHERE BEAUTY AND
 PERFECTION WERE ONCE THOUGHT TO LIE.

             -- THE PSYCHOLOGY OF COMPUTER PROGRAMMING
                GERALD M. WEINBERG
 Job cpu time:       0 days  0 hours  0 minutes 24.1 seconds.
 Elapsed time:       0 days  0 hours  0 minutes  6.2 seconds.
 File lengths (MBytes):  RWF=     10 Int=      0 D2E=      0 Chk=      2 Scr=      1
 Normal termination of Gaussian 16 at Fri Sep 22 16:51:40 2023.
