 Entering Gaussian System, Link 0=g16
 Initial command:
 /share/apps/gaussian/g16/l1.exe "/tmp/55608.mgr/Gau-85713.inp" -scrdir="/tmp/55608.mgr/"
 Entering Link 1 = /share/apps/gaussian/g16/l1.exe PID=     85718.
  
 Copyright (c) 1988,1990,1992,1993,1995,1998,2003,2009,2016,
            Gaussian, Inc.  All Rights Reserved.
  
 This is part of the Gaussian(R) 16 program.  It is based on
 the Gaussian(R) 09 system (copyright 2009, Gaussian, Inc.),
 the Gaussian(R) 03 system (copyright 2003, Gaussian, Inc.),
 the Gaussian(R) 98 system (copyright 1998, Gaussian, Inc.),
 the Gaussian(R) 94 system (copyright 1995, Gaussian, Inc.),
 the Gaussian 92(TM) system (copyright 1992, Gaussian, Inc.),
 the Gaussian 90(TM) system (copyright 1990, Gaussian, Inc.),
 the Gaussian 88(TM) system (copyright 1988, Gaussian, Inc.),
 the Gaussian 86(TM) system (copyright 1986, Carnegie Mellon
 University), and the Gaussian 82(TM) system (copyright 1983,
 Carnegie Mellon University). Gaussian is a federally registered
 trademark of Gaussian, Inc.
  
 This software contains proprietary and confidential information,
 including trade secrets, belonging to Gaussian, Inc.
  
 This software is provided under written license and may be
 used, copied, transmitted, or stored only in accord with that
 written license.
  
 The following legend is applicable only to US Government
 contracts under FAR:
  
                    RESTRICTED RIGHTS LEGEND
  
 Use, reproduction and disclosure by the US Government is
 subject to restrictions as set forth in subparagraphs (a)
 and (c) of the Commercial Computer Software - Restricted
 Rights clause in FAR 52.227-19.
  
 Gaussian, Inc.
 340 Quinnipiac St., Bldg. 40, Wallingford CT 06492
  
  
 ---------------------------------------------------------------
 Warning -- This program may not be used in any manner that
 competes with the business of Gaussian, Inc. or will provide
 assistance to any competitor of Gaussian, Inc.  The licensee
 of this program is prohibited from giving any competitor of
 Gaussian, Inc. access to this program.  By using this program,
 the user acknowledges that Gaussian, Inc. is engaged in the
 business of creating and licensing software in the field of
 computational chemistry and represents and warrants to the
 licensee that it is not a competitor of Gaussian, Inc. and that
 it will not use this program in any manner prohibited above.
 ---------------------------------------------------------------
  

 Cite this work as:
 Gaussian 16, Revision A.03,
 M. J. Frisch, G. W. Trucks, H. B. Schlegel, G. E. Scuseria, 
 M. A. Robb, J. R. Cheeseman, G. Scalmani, V. Barone, 
 G. A. Petersson, H. Nakatsuji, X. Li, M. Caricato, A. V. Marenich, 
 J. Bloino, B. G. Janesko, R. Gomperts, B. Mennucci, H. P. Hratchian, 
 J. V. Ortiz, A. F. Izmaylov, J. L. Sonnenberg, D. Williams-Young, 
 F. Ding, F. Lipparini, F. Egidi, J. Goings, B. Peng, A. Petrone, 
 T. Henderson, D. Ranasinghe, V. G. Zakrzewski, J. Gao, N. Rega, 
 G. Zheng, W. Liang, M. Hada, M. Ehara, K. Toyota, R. Fukuda, 
 J. Hasegawa, M. Ishida, T. Nakajima, Y. Honda, O. Kitao, H. Nakai, 
 T. Vreven, K. Throssell, J. A. Montgomery, Jr., J. E. Peralta, 
 F. Ogliaro, M. J. Bearpark, J. J. Heyd, E. N. Brothers, K. N. Kudin, 
 V. N. Staroverov, T. A. Keith, R. Kobayashi, J. Normand, 
 K. Raghavachari, A. P. Rendell, J. C. Burant, S. S. Iyengar, 
 J. Tomasi, M. Cossi, J. M. Millam, M. Klene, C. Adamo, R. Cammi, 
 J. W. Ochterski, R. L. Martin, K. Morokuma, O. Farkas, 
 J. B. Foresman, and D. J. Fox, Gaussian, Inc., Wallingford CT, 2016.
 
 ******************************************
 Gaussian 16:  ES64L-G16RevA.03 25-Dec-2016
                22-Sep-2023 
 ******************************************
 %nprocshared=4
 Will use up to    4 processors via shared memory.
 %mem=4GB
 -----------------------------------------
 # scrf=(cpcm,solvent=water) def2tzvp olyp
 -----------------------------------------
 1/38=1,172=1/1;
 2/12=2,17=6,18=5,40=1/2;
 3/5=44,7=101,11=2,25=1,30=1,70=2101,72=1,74=2002/1,2,3;
 4//1;
 5/5=2,38=5,53=1/2;
 6/7=2,8=2,9=2,10=2,28=1/1;
 99/5=1,9=1/99;
 --------------------
 tmpdir/M2_ref_15.gjf
 --------------------
 Symbolic Z-matrix:
 Charge =  0 Multiplicity = 1
 P                    -0.15562  -0.22182   0.43648 
 O                    -0.23239  -1.16141   1.88329 
 P                     0.43524  -0.79448   3.25039 
 O                    -1.30131   0.7179    0.46229 
 H                    -0.22438  -1.2188   -0.48445 
 H                     1.07089   0.21826   0.38838 
 H                     1.40941  -1.77082   3.44172 
 H                    -0.44218  -0.96024   4.24351 
 O                     1.05873   0.56785   3.29537 
 
                          Input orientation:                          
 ---------------------------------------------------------------------
 Center     Atomic      Atomic             Coordinates (Angstroms)
 Number     Number       Type             X           Y           Z
 ---------------------------------------------------------------------
      1         15           0       -0.155615   -0.221822    0.436475
      2          8           0       -0.232392   -1.161409    1.883293
      3         15           0        0.435236   -0.794478    3.250390
      4          8           0       -1.301306    0.717898    0.462292
      5          1           0       -0.224381   -1.218802   -0.484453
      6          1           0        1.070889    0.218257    0.388384
      7          1           0        1.409406   -1.770821    3.441721
      8          1           0       -0.442177   -0.960245    4.243509
      9          8           0        1.058734    0.567850    3.295369
 ---------------------------------------------------------------------
                    Distance matrix (angstroms):
                    1          2          3          4          5
     1  P    0.000000
     2  O    1.726847   0.000000
     3  P    2.931750   1.565030   0.000000
     4  O    1.482008   2.587202   3.616124   0.000000
     5  H    1.358973   2.368455   3.816307   2.409751   0.000000
     6  H    1.303953   2.415942   3.101736   2.425368   2.122430
     7  H    3.725613   2.344266   1.392430   4.734837   4.288220
     8  H    3.888559   2.378044   1.335521   4.225147   4.740033
     9  O    3.204918   2.579012   1.498903   3.690343   4.373279
                    6          7          8          9
     6  H    0.000000
     7  H    3.659768   0.000000
     8  H    4.305836   2.174455   0.000000
     9  O    2.927956   2.369340   2.342387   0.000000
 Stoichiometry    H4O3P2
 Framework group  C1[X(H4O3P2)]
 Deg. of freedom    21
 Full point group                 C1      NOp   1
 Largest Abelian subgroup         C1      NOp   1
 Largest concise Abelian subgroup C1      NOp   1
                         Standard orientation:                         
 ---------------------------------------------------------------------
 Center     Atomic      Atomic             Coordinates (Angstroms)
 Number     Number       Type             X           Y           Z
 ---------------------------------------------------------------------
      1         15           0       -1.385899   -0.132571   -0.374560
      2          8           0        0.062403   -0.864965    0.215374
      3         15           0        1.495916   -0.240049    0.153409
      4          8           0       -1.955626    0.668567    0.734466
      5          1           0       -2.079556   -1.249104   -0.719521
      6          1           0       -1.041771    0.430010   -1.499448
      7          1           0        2.204757   -1.066139   -0.714912
      8          1           0        2.096747   -0.362791    1.339813
      9          8           0        1.539419    1.176063   -0.335924
 ---------------------------------------------------------------------
 Rotational constants (GHZ):           7.4472300           1.9139312           1.7465625
 Standard basis: def2TZVP (5D, 7F)
 There are   216 symmetry adapted cartesian basis functions of A   symmetry.
 There are   191 symmetry adapted basis functions of A   symmetry.
   191 basis functions,   323 primitive gaussians,   216 cartesian basis functions
    29 alpha electrons       29 beta electrons
       nuclear repulsion energy       327.8578803298 Hartrees.
 NAtoms=    9 NActive=    9 NUniq=    9 SFac= 1.00D+00 NAtFMM=   60 NAOKFM=F Big=F
 Integral buffers will be    131072 words long.
 Raffenetti 2 integral format.
 Two-electron integral symmetry is turned on.
 ------------------------------------------------------------------------------
 Polarizable Continuum Model (PCM)
 =================================
 Model                : C-PCM.
 Atomic radii         : UFF (Universal Force Field).
 Polarization charges : Total charges.
 Charge compensation  : None.
 Solution method      : On-the-fly selection.
 Cavity type          : Scaled VdW (van der Waals Surface) (Alpha=1.100).
 Cavity algorithm     : GePol (No added spheres)
                        Default sphere list used, NSphG=    9.
                        Lebedev-Laikov grids with approx.  5.0 points / Ang**2.
                        Smoothing algorithm: York/Karplus (Gamma=1.0000).
                        Polarization charges: spherical gaussians, with
                                              point-specific exponents (IZeta= 3).
                        Self-potential: point-specific (ISelfS= 7).
                        Self-field    : sphere-specific E.n sum rule (ISelfD= 2).
 Solvent              : Water, Eps=  78.355300 Eps(inf)=   1.777849
 ------------------------------------------------------------------------------
 Spheres list:
 ISph  on   Nord     Re0    Alpha      Xe            Ye            Ze
    1   P      1    2.0735  1.100     -1.385899     -0.132571     -0.374560
    2   O      2    1.7500  1.100      0.062403     -0.864965      0.215374
    3   P      3    2.0735  1.100      1.495916     -0.240049      0.153409
    4   O      4    1.7500  1.100     -1.955626      0.668567      0.734466
    5   H      5    1.4430  1.100     -2.079556     -1.249104     -0.719521
    6   H      6    1.4430  1.100     -1.041771      0.430010     -1.499448
    7   H      7    1.4430  1.100      2.204757     -1.066139     -0.714912
    8   H      8    1.4430  1.100      2.096747     -0.362791      1.339813
    9   O      9    1.7500  1.100      1.539419      1.176063     -0.335924
 ------------------------------------------------------------------------------
 One-electron integrals computed using PRISM.
   1 Symmetry operations used in ECPInt.
 ECPInt:  NShTT=    2850 NPrTT=    9741 LenC2=    2788 LenP2D=    7503.
 LDataN:  DoStor=T MaxTD1= 6 Len=  172
 NBasis=   191 RedAO= T EigKep=  1.68D-03  NBF=   191
 NBsUse=   191 1.00D-06 EigRej= -1.00D+00 NBFU=   191
 ExpMin= 9.04D-02 ExpMax= 5.24D+04 ExpMxC= 1.79D+03 IAcc=3 IRadAn=         5 AccDes= 0.00D+00
 Harris functional with IExCor= 2002 and IRadAn=       5 diagonalized for initial guess.
 HarFok:  IExCor= 2002 AccDes= 0.00D+00 IRadAn=         5 IDoV= 1 UseB2=F ITyADJ=14
 ICtDFT=  3500011 ScaDFX=  1.000000  1.000000  1.000000  1.000000
 FoFCou: FMM=F IPFlag=           0 FMFlag=      100000 FMFlg1=           0
         NFxFlg=           0 DoJE=T BraDBF=F KetDBF=T FulRan=T
         wScrn=  0.000000 ICntrl=       500 IOpCl=  0 I1Cent=   200000004 NGrid=           0
         NMat0=    1 NMatS0=      1 NMatT0=    0 NMatD0=    1 NMtDS0=    0 NMtDT0=    0
 Petite list used in FoFCou.
 Keep J ints in memory in canonical form, NReq=173223722.
 Requested convergence on RMS density matrix=1.00D-08 within 128 cycles.
 Requested convergence on MAX density matrix=1.00D-06.
 Requested convergence on             energy=1.00D-06.
 No special actions if energy rises.
 Inv3:  Mode=1 IEnd=     3649827.
 Iteration    1 A*A^-1 deviation from unit magnitude is 3.89D-15 for    186.
 Iteration    1 A*A^-1 deviation from orthogonality  is 1.74D-15 for    790     17.
 Iteration    1 A^-1*A deviation from unit magnitude is 3.66D-15 for    186.
 Iteration    1 A^-1*A deviation from orthogonality  is 1.21D-15 for   1086   1084.
 Error on total polarization charges =  0.00993
 SCF Done:  E(RO-LYP) =  -910.927815458     A.U. after   13 cycles
            NFock= 13  Conv=0.19D-08     -V/T= 2.0015

 **********************************************************************

            Population analysis using the SCF density.

 **********************************************************************

 Orbital symmetries:
       Occupied  (A) (A) (A) (A) (A) (A) (A) (A) (A) (A) (A) (A)
                 (A) (A) (A) (A) (A) (A) (A) (A) (A) (A) (A) (A)
                 (A) (A) (A) (A) (A)
       Virtual   (A) (A) (A) (A) (A) (A) (A) (A) (A) (A) (A) (A)
                 (A) (A) (A) (A) (A) (A) (A) (A) (A) (A) (A) (A)
                 (A) (A) (A) (A) (A) (A) (A) (A) (A) (A) (A) (A)
                 (A) (A) (A) (A) (A) (A) (A) (A) (A) (A) (A) (A)
                 (A) (A) (A) (A) (A) (A) (A) (A) (A) (A) (A) (A)
                 (A) (A) (A) (A) (A) (A) (A) (A) (A) (A) (A) (A)
                 (A) (A) (A) (A) (A) (A) (A) (A) (A) (A) (A) (A)
                 (A) (A) (A) (A) (A) (A) (A) (A) (A) (A) (A) (A)
                 (A) (A) (A) (A) (A) (A) (A) (A) (A) (A) (A) (A)
                 (A) (A) (A) (A) (A) (A) (A) (A) (A) (A) (A) (A)
                 (A) (A) (A) (A) (A) (A) (A) (A) (A) (A) (A) (A)
                 (A) (A) (A) (A) (A) (A) (A) (A) (A) (A) (A) (A)
                 (A) (A) (A) (A) (A) (A) (A) (A) (A) (A) (A) (A)
                 (A) (A) (A) (A) (A) (A)
 The electronic state is 1-A.
 Alpha  occ. eigenvalues --  -76.39387 -76.37525 -18.81854 -18.74492 -18.72282
 Alpha  occ. eigenvalues --   -6.42580  -6.40660  -4.63816  -4.63273  -4.63171
 Alpha  occ. eigenvalues --   -4.61731  -4.61409  -4.61374  -0.99424  -0.90840
 Alpha  occ. eigenvalues --   -0.87966  -0.63550  -0.55382  -0.47025  -0.43617
 Alpha  occ. eigenvalues --   -0.42872  -0.38792  -0.36784  -0.32791  -0.32122
 Alpha  occ. eigenvalues --   -0.27852  -0.26774  -0.25978  -0.24328
 Alpha virt. eigenvalues --   -0.04055  -0.00992   0.00429   0.01892   0.03491
 Alpha virt. eigenvalues --    0.03757   0.06984   0.08562   0.15418   0.16424
 Alpha virt. eigenvalues --    0.18636   0.19349   0.20385   0.23205   0.23542
 Alpha virt. eigenvalues --    0.25503   0.27409   0.29212   0.31062   0.32135
 Alpha virt. eigenvalues --    0.34557   0.36250   0.37104   0.39598   0.41053
 Alpha virt. eigenvalues --    0.45437   0.48419   0.50028   0.51406   0.53179
 Alpha virt. eigenvalues --    0.53303   0.56527   0.57375   0.63977   0.65421
 Alpha virt. eigenvalues --    0.66118   0.66503   0.69359   0.73937   0.76654
 Alpha virt. eigenvalues --    0.79496   0.82624   1.01052   1.03588   1.05813
 Alpha virt. eigenvalues --    1.07682   1.09282   1.09508   1.12680   1.13184
 Alpha virt. eigenvalues --    1.15107   1.16457   1.20381   1.22683   1.24916
 Alpha virt. eigenvalues --    1.26797   1.29348   1.30476   1.31646   1.34937
 Alpha virt. eigenvalues --    1.40035   1.41116   1.41901   1.48431   1.50325
 Alpha virt. eigenvalues --    1.52653   1.56230   1.59167   1.60336   1.60719
 Alpha virt. eigenvalues --    1.63004   1.70285   1.74905   1.78711   1.81192
 Alpha virt. eigenvalues --    1.84138   1.87839   1.88660   1.92418   1.94591
 Alpha virt. eigenvalues --    1.95605   1.99120   2.02914   2.05690   2.08027
 Alpha virt. eigenvalues --    2.09738   2.11237   2.13817   2.16920   2.17734
 Alpha virt. eigenvalues --    2.19214   2.20453   2.24249   2.27036   2.35457
 Alpha virt. eigenvalues --    2.46581   2.50647   2.54220   2.57197   2.61770
 Alpha virt. eigenvalues --    2.64463   2.70639   2.76853   2.77936   2.79062
 Alpha virt. eigenvalues --    2.80625   2.84662   2.85684   2.88200   2.92747
 Alpha virt. eigenvalues --    2.95818   3.29098   3.43293   3.65463   3.66988
 Alpha virt. eigenvalues --    4.95511   4.96509   5.00788   5.01183   5.02739
 Alpha virt. eigenvalues --    5.03845   5.04287   5.06272   5.09134   5.10755
 Alpha virt. eigenvalues --    5.13472   5.14035   5.18356   5.21376   5.24308
 Alpha virt. eigenvalues --    5.25504   5.30331   5.31364   5.37681   5.42451
 Alpha virt. eigenvalues --    5.45525   6.16492   6.17994   6.19671   6.20178
 Alpha virt. eigenvalues --    6.30958   6.32255   6.47318   6.51351   6.52593
 Alpha virt. eigenvalues --    6.58276   6.60384   6.66154   6.68394   6.73824
 Alpha virt. eigenvalues --    6.75385   7.21835   7.23527   7.45321   7.52279
 Alpha virt. eigenvalues --    7.76396   7.93970  15.59843  15.94289  43.08562
 Alpha virt. eigenvalues --   43.17933  43.28180
          Condensed to atoms (all electrons):
               1          2          3          4          5          6
     1  P   12.674219   0.303001  -0.018358   0.731217   0.357941   0.361514
     2  O    0.303001   7.814732   0.395960  -0.050969  -0.015738  -0.023232
     3  P   -0.018358   0.395960  12.616920   0.001696   0.003489  -0.000683
     4  O    0.731217  -0.050969   0.001696   7.903417  -0.034876  -0.032521
     5  H    0.357941  -0.015738   0.003489  -0.034876   0.666514  -0.053112
     6  H    0.361514  -0.023232  -0.000683  -0.032521  -0.053112   0.658129
     7  H   -0.000052  -0.025242   0.366850  -0.000202   0.000220   0.000098
     8  H    0.001325  -0.020015   0.362758  -0.000339  -0.000101   0.000217
     9  O    0.005369  -0.059476   0.691286  -0.001327   0.000200   0.005969
               7          8          9
     1  P   -0.000052   0.001325   0.005369
     2  O   -0.025242  -0.020015  -0.059476
     3  P    0.366850   0.362758   0.691286
     4  O   -0.000202  -0.000339  -0.001327
     5  H    0.000220  -0.000101   0.000200
     6  H    0.000098   0.000217   0.005969
     7  H    0.717687  -0.058440  -0.038835
     8  H   -0.058440   0.689497  -0.036075
     9  O   -0.038835  -0.036075   8.019851
 Mulliken charges:
               1
     1  P    0.583824
     2  O   -0.319021
     3  P    0.580080
     4  O   -0.516094
     5  H    0.075463
     6  H    0.083622
     7  H    0.037916
     8  H    0.061172
     9  O   -0.586962
 Sum of Mulliken charges =  -0.00000
 Mulliken charges with hydrogens summed into heavy atoms:
               1
     1  P    0.742908
     2  O   -0.319021
     3  P    0.679168
     4  O   -0.516094
     9  O   -0.586962
 Electronic spatial extent (au):  <R**2>=            684.6404
 Charge=             -0.0000 electrons
 Dipole moment (field-independent basis, Debye):
    X=              0.3315    Y=             -5.4132    Z=             -2.4301  Tot=              5.9430
 Quadrupole moment (field-independent basis, Debye-Ang):
   XX=            -42.6802   YY=            -47.2475   ZZ=            -40.7313
   XY=             -2.0101   XZ=              9.4537   YZ=              0.1857
 Traceless Quadrupole moment (field-independent basis, Debye-Ang):
   XX=              0.8728   YY=             -3.6945   ZZ=              2.8216
   XY=             -2.0101   XZ=              9.4537   YZ=              0.1857
 Octapole moment (field-independent basis, Debye-Ang**2):
  XXX=              8.9354  YYY=             -7.8549  ZZZ=             -2.1121  XYY=             -5.7380
  XXY=            -21.1471  XXZ=             -7.2411  XZZ=              1.0301  YZZ=             -2.0959
  YYZ=             -0.3365  XYZ=              4.0350
 Hexadecapole moment (field-independent basis, Debye-Ang**3):
 XXXX=           -606.7350 YYYY=           -159.6199 ZZZZ=            -97.1103 XXXY=              1.0578
 XXXZ=             33.4482 YYYX=             -5.0672 YYYZ=              0.7149 ZZZX=              8.1510
 ZZZY=             -0.8405 XXYY=           -136.0573 XXZZ=           -115.8530 YYZZ=            -42.5457
 XXYZ=             -1.5654 YYXZ=              5.4493 ZZXY=              0.0548
 N-N= 3.278578803298D+02 E-N=-2.819860685642D+03  KE= 9.095675680810D+02
 1\1\GINC-NODE85\SP\ROLYP\def2TZVP\H4O3P2\YANZ\22-Sep-2023\0\\# scrf=(c
 pcm,solvent=water) def2tzvp olyp\\tmpdir/M2_ref_15.gjf\\0,1\P,0,-0.155
 615,-0.221822,0.436475\O,0,-0.232392,-1.161409,1.883293\P,0,0.435236,-
 0.794478,3.25039\O,0,-1.301306,0.717898,0.462292\H,0,-0.22438135,-1.21
 880177,-0.48445333\H,0,1.07088855,0.21825747,0.38838369\H,0,1.40940556
 ,-1.77082127,3.44172149\H,0,-0.44217711,-0.96024489,4.24350883\O,0,1.0
 58734,0.56785,3.295369\\Version=ES64L-G16RevA.03\State=1-A\HF=-910.927
 8155\RMSD=1.931e-09\Dipole=0.6916992,-2.1646385,-0.5502563\Quadrupole=
 -3.2014295,-2.2370095,5.438439,0.1466183,-5.6571599,-1.8431012\PG=C01 
 [X(H4O3P2)]\\@


 NOTHING MAKES A PERSON MORE PRODUCTIVE THAN THE LAST MINUTE.
 Job cpu time:       0 days  0 hours  2 minutes 11.2 seconds.
 Elapsed time:       0 days  0 hours  0 minutes 37.1 seconds.
 File lengths (MBytes):  RWF=     27 Int=      0 D2E=      0 Chk=      4 Scr=      1
 Normal termination of Gaussian 16 at Fri Sep 22 16:52:08 2023.
