 Entering Gaussian System, Link 0=g16
 Initial command:
 /share/apps/gaussian/g16/l1.exe "/tmp/55608.mgr/Gau-86876.inp" -scrdir="/tmp/55608.mgr/"
 Entering Link 1 = /share/apps/gaussian/g16/l1.exe PID=     86877.
  
 Copyright (c) 1988,1990,1992,1993,1995,1998,2003,2009,2016,
            Gaussian, Inc.  All Rights Reserved.
  
 This is part of the Gaussian(R) 16 program.  It is based on
 the Gaussian(R) 09 system (copyright 2009, Gaussian, Inc.),
 the Gaussian(R) 03 system (copyright 2003, Gaussian, Inc.),
 the Gaussian(R) 98 system (copyright 1998, Gaussian, Inc.),
 the Gaussian(R) 94 system (copyright 1995, Gaussian, Inc.),
 the Gaussian 92(TM) system (copyright 1992, Gaussian, Inc.),
 the Gaussian 90(TM) system (copyright 1990, Gaussian, Inc.),
 the Gaussian 88(TM) system (copyright 1988, Gaussian, Inc.),
 the Gaussian 86(TM) system (copyright 1986, Carnegie Mellon
 University), and the Gaussian 82(TM) system (copyright 1983,
 Carnegie Mellon University). Gaussian is a federally registered
 trademark of Gaussian, Inc.
  
 This software contains proprietary and confidential information,
 including trade secrets, belonging to Gaussian, Inc.
  
 This software is provided under written license and may be
 used, copied, transmitted, or stored only in accord with that
 written license.
  
 The following legend is applicable only to US Government
 contracts under FAR:
  
                    RESTRICTED RIGHTS LEGEND
  
 Use, reproduction and disclosure by the US Government is
 subject to restrictions as set forth in subparagraphs (a)
 and (c) of the Commercial Computer Software - Restricted
 Rights clause in FAR 52.227-19.
  
 Gaussian, Inc.
 340 Quinnipiac St., Bldg. 40, Wallingford CT 06492
  
  
 ---------------------------------------------------------------
 Warning -- This program may not be used in any manner that
 competes with the business of Gaussian, Inc. or will provide
 assistance to any competitor of Gaussian, Inc.  The licensee
 of this program is prohibited from giving any competitor of
 Gaussian, Inc. access to this program.  By using this program,
 the user acknowledges that Gaussian, Inc. is engaged in the
 business of creating and licensing software in the field of
 computational chemistry and represents and warrants to the
 licensee that it is not a competitor of Gaussian, Inc. and that
 it will not use this program in any manner prohibited above.
 ---------------------------------------------------------------
  

 Cite this work as:
 Gaussian 16, Revision A.03,
 M. J. Frisch, G. W. Trucks, H. B. Schlegel, G. E. Scuseria, 
 M. A. Robb, J. R. Cheeseman, G. Scalmani, V. Barone, 
 G. A. Petersson, H. Nakatsuji, X. Li, M. Caricato, A. V. Marenich, 
 J. Bloino, B. G. Janesko, R. Gomperts, B. Mennucci, H. P. Hratchian, 
 J. V. Ortiz, A. F. Izmaylov, J. L. Sonnenberg, D. Williams-Young, 
 F. Ding, F. Lipparini, F. Egidi, J. Goings, B. Peng, A. Petrone, 
 T. Henderson, D. Ranasinghe, V. G. Zakrzewski, J. Gao, N. Rega, 
 G. Zheng, W. Liang, M. Hada, M. Ehara, K. Toyota, R. Fukuda, 
 J. Hasegawa, M. Ishida, T. Nakajima, Y. Honda, O. Kitao, H. Nakai, 
 T. Vreven, K. Throssell, J. A. Montgomery, Jr., J. E. Peralta, 
 F. Ogliaro, M. J. Bearpark, J. J. Heyd, E. N. Brothers, K. N. Kudin, 
 V. N. Staroverov, T. A. Keith, R. Kobayashi, J. Normand, 
 K. Raghavachari, A. P. Rendell, J. C. Burant, S. S. Iyengar, 
 J. Tomasi, M. Cossi, J. M. Millam, M. Klene, C. Adamo, R. Cammi, 
 J. W. Ochterski, R. L. Martin, K. Morokuma, O. Farkas, 
 J. B. Foresman, and D. J. Fox, Gaussian, Inc., Wallingford CT, 2016.
 
 ******************************************
 Gaussian 16:  ES64L-G16RevA.03 25-Dec-2016
                22-Sep-2023 
 ******************************************
 %nprocshared=4
 Will use up to    4 processors via shared memory.
 %mem=4GB
 -----------------------------------------
 # scrf=(cpcm,solvent=water) def2tzvp olyp
 -----------------------------------------
 1/38=1,172=1/1;
 2/12=2,17=6,18=5,40=1/2;
 3/5=44,7=101,11=2,25=1,30=1,70=2101,72=1,74=2002/1,2,3;
 4//1;
 5/5=2,38=5,53=1/2;
 6/7=2,8=2,9=2,10=2,28=1/1;
 99/5=1,9=1/99;
 --------------------
 tmpdir/M2_ref_37.gjf
 --------------------
 Symbolic Z-matrix:
 Charge =  0 Multiplicity = 1
 O                     3.6254   -1.29028   4.90324 
 P                     3.17836  -1.70913   3.46554 
 O                     3.77337  -3.13785   3.24535 
 H                     3.47039  -1.94227   5.60713 
 H                     1.80314  -1.90211   3.4726 
 O                     3.56554  -0.65644   2.47366 
 H                     3.58677  -3.54678   2.38331 
 
                          Input orientation:                          
 ---------------------------------------------------------------------
 Center     Atomic      Atomic             Coordinates (Angstroms)
 Number     Number       Type             X           Y           Z
 ---------------------------------------------------------------------
      1          8           0        3.625404   -1.290275    4.903236
      2         15           0        3.178357   -1.709130    3.465540
      3          8           0        3.773372   -3.137850    3.245348
      4          1           0        3.470387   -1.942269    5.607129
      5          1           0        1.803142   -1.902107    3.472603
      6          8           0        3.565538   -0.656436    2.473662
      7          1           0        3.586768   -3.546784    2.383314
 ---------------------------------------------------------------------
                    Distance matrix (angstroms):
                    1          2          3          4          5
     1  O    0.000000
     2  P    1.562773   0.000000
     3  O    2.486769   1.563256   0.000000
     4  H    0.971901   2.173945   2.664437   0.000000
     5  H    2.396182   1.388706   2.336774   2.708785   0.000000
     6  O    2.511606   1.497296   2.606935   3.388368   2.378154
     7  H    3.382800   2.171402   0.972189   3.602915   2.659480
                    6          7
     6  O    0.000000
     7  H    2.891838   0.000000
 Stoichiometry    H3O3P
 Framework group  C1[X(H3O3P)]
 Deg. of freedom    15
 Full point group                 C1      NOp   1
 Largest Abelian subgroup         C1      NOp   1
 Largest concise Abelian subgroup C1      NOp   1
                         Standard orientation:                         
 ---------------------------------------------------------------------
 Center     Atomic      Atomic             Coordinates (Angstroms)
 Number     Number       Type             X           Y           Z
 ---------------------------------------------------------------------
      1          8           0        1.342514   -0.533159   -0.201845
      2         15           0       -0.013639    0.098445    0.250025
      3          8           0       -1.116764   -0.901013   -0.227433
      4          1           0        1.474330   -1.469881    0.021245
      5          1           0       -0.078631    0.052279    1.636441
      6          8           0       -0.120436    1.507966   -0.243678
      7          1           0       -2.033628   -0.649428   -0.024412
 ---------------------------------------------------------------------
 Rotational constants (GHZ):           8.1473209           7.8742629           4.5071836
 Standard basis: def2TZVP (5D, 7F)
 There are   168 symmetry adapted cartesian basis functions of A   symmetry.
 There are   148 symmetry adapted basis functions of A   symmetry.
   148 basis functions,   246 primitive gaussians,   168 cartesian basis functions
    21 alpha electrons       21 beta electrons
       nuclear repulsion energy       196.9464566173 Hartrees.
 NAtoms=    7 NActive=    7 NUniq=    7 SFac= 1.00D+00 NAtFMM=   60 NAOKFM=F Big=F
 Integral buffers will be    131072 words long.
 Raffenetti 2 integral format.
 Two-electron integral symmetry is turned on.
 ------------------------------------------------------------------------------
 Polarizable Continuum Model (PCM)
 =================================
 Model                : C-PCM.
 Atomic radii         : UFF (Universal Force Field).
 Polarization charges : Total charges.
 Charge compensation  : None.
 Solution method      : On-the-fly selection.
 Cavity type          : Scaled VdW (van der Waals Surface) (Alpha=1.100).
 Cavity algorithm     : GePol (No added spheres)
                        Default sphere list used, NSphG=    7.
                        Lebedev-Laikov grids with approx.  5.0 points / Ang**2.
                        Smoothing algorithm: York/Karplus (Gamma=1.0000).
                        Polarization charges: spherical gaussians, with
                                              point-specific exponents (IZeta= 3).
                        Self-potential: point-specific (ISelfS= 7).
                        Self-field    : sphere-specific E.n sum rule (ISelfD= 2).
 Solvent              : Water, Eps=  78.355300 Eps(inf)=   1.777849
 ------------------------------------------------------------------------------
 Spheres list:
 ISph  on   Nord     Re0    Alpha      Xe            Ye            Ze
    1   O      1    1.7500  1.100      1.342514     -0.533159     -0.201845
    2   P      2    2.0735  1.100     -0.013639      0.098445      0.250025
    3   O      3    1.7500  1.100     -1.116764     -0.901013     -0.227433
    4   H      4    1.4430  1.100      1.474330     -1.469881      0.021245
    5   H      5    1.4430  1.100     -0.078631      0.052279      1.636441
    6   O      6    1.7500  1.100     -0.120436      1.507966     -0.243678
    7   H      7    1.4430  1.100     -2.033628     -0.649428     -0.024412
 ------------------------------------------------------------------------------
 One-electron integrals computed using PRISM.
   1 Symmetry operations used in ECPInt.
 ECPInt:  NShTT=    1711 NPrTT=    5676 LenC2=    1699 LenP2D=    4725.
 LDataN:  DoStor=T MaxTD1= 6 Len=  172
 NBasis=   148 RedAO= T EigKep=  1.54D-03  NBF=   148
 NBsUse=   148 1.00D-06 EigRej= -1.00D+00 NBFU=   148
 ExpMin= 9.04D-02 ExpMax= 5.24D+04 ExpMxC= 1.79D+03 IAcc=3 IRadAn=         5 AccDes= 0.00D+00
 Harris functional with IExCor= 2002 and IRadAn=       5 diagonalized for initial guess.
 HarFok:  IExCor= 2002 AccDes= 0.00D+00 IRadAn=         5 IDoV= 1 UseB2=F ITyADJ=14
 ICtDFT=  3500011 ScaDFX=  1.000000  1.000000  1.000000  1.000000
 FoFCou: FMM=F IPFlag=           0 FMFlag=      100000 FMFlg1=           0
         NFxFlg=           0 DoJE=T BraDBF=F KetDBF=T FulRan=T
         wScrn=  0.000000 ICntrl=       500 IOpCl=  0 I1Cent=   200000004 NGrid=           0
         NMat0=    1 NMatS0=      1 NMatT0=    0 NMatD0=    1 NMtDS0=    0 NMtDT0=    0
 Petite list used in FoFCou.
 Keep J ints in memory in canonical form, NReq=64775784.
 Requested convergence on RMS density matrix=1.00D-08 within 128 cycles.
 Requested convergence on MAX density matrix=1.00D-06.
 Requested convergence on             energy=1.00D-06.
 No special actions if energy rises.
 Inv3:  Mode=1 IEnd=     2172603.
 Iteration    1 A*A^-1 deviation from unit magnitude is 2.66D-15 for    131.
 Iteration    1 A*A^-1 deviation from orthogonality  is 1.54D-15 for    696    216.
 Iteration    1 A^-1*A deviation from unit magnitude is 2.66D-15 for    843.
 Iteration    1 A^-1*A deviation from orthogonality  is 9.70D-16 for    837    509.
 Error on total polarization charges =  0.00769
 SCF Done:  E(RO-LYP) =  -568.984598056     A.U. after   12 cycles
            NFock= 12  Conv=0.16D-08     -V/T= 2.0019

 **********************************************************************

            Population analysis using the SCF density.

 **********************************************************************

 Orbital symmetries:
       Occupied  (A) (A) (A) (A) (A) (A) (A) (A) (A) (A) (A) (A)
                 (A) (A) (A) (A) (A) (A) (A) (A) (A)
       Virtual   (A) (A) (A) (A) (A) (A) (A) (A) (A) (A) (A) (A)
                 (A) (A) (A) (A) (A) (A) (A) (A) (A) (A) (A) (A)
                 (A) (A) (A) (A) (A) (A) (A) (A) (A) (A) (A) (A)
                 (A) (A) (A) (A) (A) (A) (A) (A) (A) (A) (A) (A)
                 (A) (A) (A) (A) (A) (A) (A) (A) (A) (A) (A) (A)
                 (A) (A) (A) (A) (A) (A) (A) (A) (A) (A) (A) (A)
                 (A) (A) (A) (A) (A) (A) (A) (A) (A) (A) (A) (A)
                 (A) (A) (A) (A) (A) (A) (A) (A) (A) (A) (A) (A)
                 (A) (A) (A) (A) (A) (A) (A) (A) (A) (A) (A) (A)
                 (A) (A) (A) (A) (A) (A) (A) (A) (A) (A) (A) (A)
                 (A) (A) (A) (A) (A) (A) (A)
 The electronic state is 1-A.
 Alpha  occ. eigenvalues --  -76.39166 -18.80975 -18.80666 -18.72047  -6.41738
 Alpha  occ. eigenvalues --   -4.62822  -4.62651  -4.62404  -1.01299  -0.96900
 Alpha  occ. eigenvalues --   -0.87496  -0.59539  -0.52675  -0.47263  -0.39743
 Alpha  occ. eigenvalues --   -0.36241  -0.34890  -0.32498  -0.30129  -0.25680
 Alpha  occ. eigenvalues --   -0.25061
 Alpha virt. eigenvalues --   -0.00336   0.01368   0.05021   0.05531   0.07010
 Alpha virt. eigenvalues --    0.12232   0.20117   0.20944   0.22461   0.25483
 Alpha virt. eigenvalues --    0.29625   0.32649   0.34512   0.36451   0.37636
 Alpha virt. eigenvalues --    0.40835   0.41812   0.44196   0.46112   0.47945
 Alpha virt. eigenvalues --    0.52088   0.53369   0.55297   0.59164   0.62561
 Alpha virt. eigenvalues --    0.67656   0.68754   0.73895   0.76631   0.80077
 Alpha virt. eigenvalues --    1.04430   1.07736   1.09564   1.11467   1.12121
 Alpha virt. eigenvalues --    1.15868   1.23380   1.28129   1.29209   1.32427
 Alpha virt. eigenvalues --    1.34163   1.36999   1.42375   1.47509   1.52675
 Alpha virt. eigenvalues --    1.54638   1.59012   1.62525   1.74280   1.74656
 Alpha virt. eigenvalues --    1.80410   1.81404   1.83516   1.85273   1.91160
 Alpha virt. eigenvalues --    1.94097   1.96057   1.99956   2.06344   2.07670
 Alpha virt. eigenvalues --    2.12280   2.17030   2.18877   2.21484   2.23067
 Alpha virt. eigenvalues --    2.25194   2.36249   2.40547   2.45223   2.60663
 Alpha virt. eigenvalues --    2.63148   2.66811   2.70239   2.73560   2.75979
 Alpha virt. eigenvalues --    2.79307   2.82970   2.88251   2.91666   3.28843
 Alpha virt. eigenvalues --    3.45028   3.67025   3.74724   3.78114   4.94516
 Alpha virt. eigenvalues --    4.95525   4.98611   4.99875   5.01834   5.04153
 Alpha virt. eigenvalues --    5.05633   5.09550   5.12302   5.13904   5.14981
 Alpha virt. eigenvalues --    5.19496   5.22702   5.26869   5.30217   5.33998
 Alpha virt. eigenvalues --    5.35794   5.47267   5.47585   5.99524   6.02523
 Alpha virt. eigenvalues --    6.16116   6.19686   6.21475   6.28321   6.38175
 Alpha virt. eigenvalues --    6.40190   6.45036   6.47672   6.55397   6.59237
 Alpha virt. eigenvalues --    6.62593   6.64997   6.74214   6.84286   6.92946
 Alpha virt. eigenvalues --    7.34274   7.81832   7.96467  16.38301  43.07635
 Alpha virt. eigenvalues --   43.16595  43.22022
          Condensed to atoms (all electrons):
               1          2          3          4          5          6
     1  O    7.846099   0.411196  -0.037901   0.278444  -0.042370  -0.053611
     2  P    0.411196  12.407343   0.405993  -0.003296   0.368800   0.739991
     3  O   -0.037901   0.405993   7.858889  -0.000992  -0.044114  -0.057662
     4  H    0.278444  -0.003296  -0.000992   0.369496   0.001058   0.002976
     5  H   -0.042370   0.368800  -0.044114   0.001058   0.758519  -0.050253
     6  O   -0.053611   0.739991  -0.057662   0.002976  -0.050253   7.996695
     7  H    0.002507  -0.009837   0.289375  -0.000126   0.002067  -0.000513
               7
     1  O    0.002507
     2  P   -0.009837
     3  O    0.289375
     4  H   -0.000126
     5  H    0.002067
     6  O   -0.000513
     7  H    0.359499
 Mulliken charges:
               1
     1  O   -0.404364
     2  P    0.679810
     3  O   -0.413588
     4  H    0.352441
     5  H    0.006295
     6  O   -0.577622
     7  H    0.357028
 Sum of Mulliken charges =  -0.00000
 Mulliken charges with hydrogens summed into heavy atoms:
               1
     1  O   -0.051923
     2  P    0.686105
     3  O   -0.056560
     6  O   -0.577622
 Electronic spatial extent (au):  <R**2>=            297.8722
 Charge=              0.0000 electrons
 Dipole moment (field-independent basis, Debye):
    X=             -1.2913    Y=             -5.1900    Z=              2.5592  Tot=              5.9290
 Quadrupole moment (field-independent basis, Debye-Ang):
   XX=            -23.4260   YY=            -33.6970   ZZ=            -29.6236
   XY=             -2.1116   XZ=             -0.0265   YZ=              0.3755
 Traceless Quadrupole moment (field-independent basis, Debye-Ang):
   XX=              5.4895   YY=             -4.7814   ZZ=             -0.7081
   XY=             -2.1116   XZ=             -0.0265   YZ=              0.3755
 Octapole moment (field-independent basis, Debye-Ang**2):
  XXX=            -15.6778  YYY=            -20.4484  ZZZ=              0.5542  XYY=              7.9612
  XXY=             -8.8663  XXZ=              1.6545  XZZ=             -0.0859  YZZ=             -1.3417
  YYZ=              2.2012  XYZ=             -0.1417
 Hexadecapole moment (field-independent basis, Debye-Ang**3):
 XXXX=           -107.9234 YYYY=           -162.5309 ZZZZ=            -51.4418 XXXY=              1.2994
 XXXZ=              0.6874 YYYX=            -11.5068 YYYZ=              1.7568 ZZZX=             -0.1596
 ZZZY=              0.6272 XXYY=            -39.9944 XXZZ=            -33.8254 YYZZ=            -35.5936
 XXYZ=             -0.8256 YYXZ=             -0.1452 ZZXY=             -0.2985
 N-N= 1.969464566173D+02 E-N=-1.744761527702D+03  KE= 5.679122808234D+02
 1\1\GINC-NODE85\SP\ROLYP\def2TZVP\H3O3P1\YANZ\22-Sep-2023\0\\# scrf=(c
 pcm,solvent=water) def2tzvp olyp\\tmpdir/M2_ref_37.gjf\\0,1\O,0,3.6254
 04,-1.290275,4.903236\P,0,3.178357,-1.70913,3.46554\O,0,3.773372,-3.13
 785,3.245348\H,0,3.470387,-1.942269,5.607129\H,0,1.80314218,-1.9021067
 6,3.47260326\O,0,3.565538,-0.656436,2.473662\H,0,3.586768,-3.546784,2.
 383314\\Version=ES64L-G16RevA.03\State=1-A\HF=-568.9845981\RMSD=1.607e
 -09\Dipole=-0.8261028,-1.971972,0.9327594\Quadrupole=-0.5055933,-1.996
 1475,2.5017408,-0.0088928,-0.0377107,3.4753336\PG=C01 [X(H3O3P1)]\\@


 QED = W**5 (WHICH WAS WHAT WE WANTED)
 Job cpu time:       0 days  0 hours  1 minutes  9.2 seconds.
 Elapsed time:       0 days  0 hours  0 minutes 18.9 seconds.
 File lengths (MBytes):  RWF=     17 Int=      0 D2E=      0 Chk=      3 Scr=      1
 Normal termination of Gaussian 16 at Fri Sep 22 16:53:02 2023.
