 Entering Gaussian System, Link 0=g16
 Initial command:
 /share/apps/gaussian/g16/l1.exe "/tmp/55608.mgr/Gau-86945.inp" -scrdir="/tmp/55608.mgr/"
 Entering Link 1 = /share/apps/gaussian/g16/l1.exe PID=     86946.
  
 Copyright (c) 1988,1990,1992,1993,1995,1998,2003,2009,2016,
            Gaussian, Inc.  All Rights Reserved.
  
 This is part of the Gaussian(R) 16 program.  It is based on
 the Gaussian(R) 09 system (copyright 2009, Gaussian, Inc.),
 the Gaussian(R) 03 system (copyright 2003, Gaussian, Inc.),
 the Gaussian(R) 98 system (copyright 1998, Gaussian, Inc.),
 the Gaussian(R) 94 system (copyright 1995, Gaussian, Inc.),
 the Gaussian 92(TM) system (copyright 1992, Gaussian, Inc.),
 the Gaussian 90(TM) system (copyright 1990, Gaussian, Inc.),
 the Gaussian 88(TM) system (copyright 1988, Gaussian, Inc.),
 the Gaussian 86(TM) system (copyright 1986, Carnegie Mellon
 University), and the Gaussian 82(TM) system (copyright 1983,
 Carnegie Mellon University). Gaussian is a federally registered
 trademark of Gaussian, Inc.
  
 This software contains proprietary and confidential information,
 including trade secrets, belonging to Gaussian, Inc.
  
 This software is provided under written license and may be
 used, copied, transmitted, or stored only in accord with that
 written license.
  
 The following legend is applicable only to US Government
 contracts under FAR:
  
                    RESTRICTED RIGHTS LEGEND
  
 Use, reproduction and disclosure by the US Government is
 subject to restrictions as set forth in subparagraphs (a)
 and (c) of the Commercial Computer Software - Restricted
 Rights clause in FAR 52.227-19.
  
 Gaussian, Inc.
 340 Quinnipiac St., Bldg. 40, Wallingford CT 06492
  
  
 ---------------------------------------------------------------
 Warning -- This program may not be used in any manner that
 competes with the business of Gaussian, Inc. or will provide
 assistance to any competitor of Gaussian, Inc.  The licensee
 of this program is prohibited from giving any competitor of
 Gaussian, Inc. access to this program.  By using this program,
 the user acknowledges that Gaussian, Inc. is engaged in the
 business of creating and licensing software in the field of
 computational chemistry and represents and warrants to the
 licensee that it is not a competitor of Gaussian, Inc. and that
 it will not use this program in any manner prohibited above.
 ---------------------------------------------------------------
  

 Cite this work as:
 Gaussian 16, Revision A.03,
 M. J. Frisch, G. W. Trucks, H. B. Schlegel, G. E. Scuseria, 
 M. A. Robb, J. R. Cheeseman, G. Scalmani, V. Barone, 
 G. A. Petersson, H. Nakatsuji, X. Li, M. Caricato, A. V. Marenich, 
 J. Bloino, B. G. Janesko, R. Gomperts, B. Mennucci, H. P. Hratchian, 
 J. V. Ortiz, A. F. Izmaylov, J. L. Sonnenberg, D. Williams-Young, 
 F. Ding, F. Lipparini, F. Egidi, J. Goings, B. Peng, A. Petrone, 
 T. Henderson, D. Ranasinghe, V. G. Zakrzewski, J. Gao, N. Rega, 
 G. Zheng, W. Liang, M. Hada, M. Ehara, K. Toyota, R. Fukuda, 
 J. Hasegawa, M. Ishida, T. Nakajima, Y. Honda, O. Kitao, H. Nakai, 
 T. Vreven, K. Throssell, J. A. Montgomery, Jr., J. E. Peralta, 
 F. Ogliaro, M. J. Bearpark, J. J. Heyd, E. N. Brothers, K. N. Kudin, 
 V. N. Staroverov, T. A. Keith, R. Kobayashi, J. Normand, 
 K. Raghavachari, A. P. Rendell, J. C. Burant, S. S. Iyengar, 
 J. Tomasi, M. Cossi, J. M. Millam, M. Klene, C. Adamo, R. Cammi, 
 J. W. Ochterski, R. L. Martin, K. Morokuma, O. Farkas, 
 J. B. Foresman, and D. J. Fox, Gaussian, Inc., Wallingford CT, 2016.
 
 ******************************************
 Gaussian 16:  ES64L-G16RevA.03 25-Dec-2016
                22-Sep-2023 
 ******************************************
 %nprocshared=4
 Will use up to    4 processors via shared memory.
 %mem=4GB
 -----------------------------------------
 # scrf=(cpcm,solvent=water) def2tzvp olyp
 -----------------------------------------
 1/38=1,172=1/1;
 2/12=2,17=6,18=5,40=1/2;
 3/5=44,7=101,11=2,25=1,30=1,70=2101,72=1,74=2002/1,2,3;
 4//1;
 5/5=2,38=5,53=1/2;
 6/7=2,8=2,9=2,10=2,28=1/1;
 99/5=1,9=1/99;
 --------------------
 tmpdir/M2_ref_34.gjf
 --------------------
 Symbolic Z-matrix:
 Charge =  0 Multiplicity = 1
 O                     1.57267  -1.93445   3.47379 
 P                     3.17836  -1.70913   3.46554 
 O                     3.77337  -3.13785   3.24535 
 H                     0.94593  -1.30631   3.35069 
 O                     3.56554  -0.65644   2.47366 
 H                     3.56124  -1.3504    4.69687 
 H                     3.58677  -3.54678   2.38331 
 
                          Input orientation:                          
 ---------------------------------------------------------------------
 Center     Atomic      Atomic             Coordinates (Angstroms)
 Number     Number       Type             X           Y           Z
 ---------------------------------------------------------------------
      1          8           0        1.572668   -1.934448    3.473787
      2         15           0        3.178357   -1.709130    3.465540
      3          8           0        3.773372   -3.137850    3.245348
      4          1           0        0.945927   -1.306309    3.350692
      5          8           0        3.565538   -0.656436    2.473662
      6          1           0        3.561237   -1.350396    4.696875
      7          1           0        3.586768   -3.546784    2.383314
 ---------------------------------------------------------------------
                    Distance matrix (angstroms):
                    1          2          3          4          5
     1  O    0.000000
     2  P    1.621442   0.000000
     3  O    2.518622   1.563256   0.000000
     4  H    0.895832   2.271387   3.370473   0.000000
     5  O    2.570038   1.497296   2.606935   2.837935   0.000000
     6  H    2.406547   1.338459   2.312342   2.941768   2.329007
     7  H    2.800957   2.171402   0.972189   3.595774   2.891838
                    6          7
     6  H    0.000000
     7  H    3.190194   0.000000
 Stoichiometry    H3O3P
 Framework group  C1[X(H3O3P)]
 Deg. of freedom    15
 Full point group                 C1      NOp   1
 Largest Abelian subgroup         C1      NOp   1
 Largest concise Abelian subgroup C1      NOp   1
                         Standard orientation:                         
 ---------------------------------------------------------------------
 Center     Atomic      Atomic             Coordinates (Angstroms)
 Number     Number       Type             X           Y           Z
 ---------------------------------------------------------------------
      1          8           0       -1.082205   -0.987213   -0.166214
      2         15           0        0.018588    0.113963    0.286267
      3          8           0        1.392060   -0.520278   -0.107537
      4          1           0       -1.957681   -0.844846   -0.291872
      5          8           0       -0.296976    1.456439   -0.296889
      6          1           0        0.027065    0.178639    1.623136
      7          1           0        1.548774   -0.634819   -1.060150
 ---------------------------------------------------------------------
 Rotational constants (GHZ):           7.9469996           7.6497035           4.4778991
 Standard basis: def2TZVP (5D, 7F)
 There are   168 symmetry adapted cartesian basis functions of A   symmetry.
 There are   148 symmetry adapted basis functions of A   symmetry.
   148 basis functions,   246 primitive gaussians,   168 cartesian basis functions
    21 alpha electrons       21 beta electrons
       nuclear repulsion energy       195.5954827871 Hartrees.
 NAtoms=    7 NActive=    7 NUniq=    7 SFac= 1.00D+00 NAtFMM=   60 NAOKFM=F Big=F
 Integral buffers will be    131072 words long.
 Raffenetti 2 integral format.
 Two-electron integral symmetry is turned on.
 ------------------------------------------------------------------------------
 Polarizable Continuum Model (PCM)
 =================================
 Model                : C-PCM.
 Atomic radii         : UFF (Universal Force Field).
 Polarization charges : Total charges.
 Charge compensation  : None.
 Solution method      : On-the-fly selection.
 Cavity type          : Scaled VdW (van der Waals Surface) (Alpha=1.100).
 Cavity algorithm     : GePol (No added spheres)
                        Default sphere list used, NSphG=    7.
                        Lebedev-Laikov grids with approx.  5.0 points / Ang**2.
                        Smoothing algorithm: York/Karplus (Gamma=1.0000).
                        Polarization charges: spherical gaussians, with
                                              point-specific exponents (IZeta= 3).
                        Self-potential: point-specific (ISelfS= 7).
                        Self-field    : sphere-specific E.n sum rule (ISelfD= 2).
 Solvent              : Water, Eps=  78.355300 Eps(inf)=   1.777849
 ------------------------------------------------------------------------------
 Spheres list:
 ISph  on   Nord     Re0    Alpha      Xe            Ye            Ze
    1   O      1    1.7500  1.100     -1.082205     -0.987213     -0.166214
    2   P      2    2.0735  1.100      0.018588      0.113963      0.286267
    3   O      3    1.7500  1.100      1.392060     -0.520278     -0.107537
    4   H      4    1.4430  1.100     -1.957681     -0.844846     -0.291872
    5   O      5    1.7500  1.100     -0.296976      1.456439     -0.296889
    6   H      6    1.4430  1.100      0.027065      0.178639      1.623136
    7   H      7    1.4430  1.100      1.548774     -0.634819     -1.060150
 ------------------------------------------------------------------------------
 One-electron integrals computed using PRISM.
   1 Symmetry operations used in ECPInt.
 ECPInt:  NShTT=    1711 NPrTT=    5676 LenC2=    1698 LenP2D=    4719.
 LDataN:  DoStor=T MaxTD1= 6 Len=  172
 NBasis=   148 RedAO= T EigKep=  1.49D-03  NBF=   148
 NBsUse=   148 1.00D-06 EigRej= -1.00D+00 NBFU=   148
 ExpMin= 9.04D-02 ExpMax= 5.24D+04 ExpMxC= 1.79D+03 IAcc=3 IRadAn=         5 AccDes= 0.00D+00
 Harris functional with IExCor= 2002 and IRadAn=       5 diagonalized for initial guess.
 HarFok:  IExCor= 2002 AccDes= 0.00D+00 IRadAn=         5 IDoV= 1 UseB2=F ITyADJ=14
 ICtDFT=  3500011 ScaDFX=  1.000000  1.000000  1.000000  1.000000
 FoFCou: FMM=F IPFlag=           0 FMFlag=      100000 FMFlg1=           0
         NFxFlg=           0 DoJE=T BraDBF=F KetDBF=T FulRan=T
         wScrn=  0.000000 ICntrl=       500 IOpCl=  0 I1Cent=   200000004 NGrid=           0
         NMat0=    1 NMatS0=      1 NMatT0=    0 NMatD0=    1 NMtDS0=    0 NMtDT0=    0
 Petite list used in FoFCou.
 Keep J ints in memory in canonical form, NReq=64775784.
 Requested convergence on RMS density matrix=1.00D-08 within 128 cycles.
 Requested convergence on MAX density matrix=1.00D-06.
 Requested convergence on             energy=1.00D-06.
 No special actions if energy rises.
 Inv3:  Mode=1 IEnd=     2229132.
 Iteration    1 A*A^-1 deviation from unit magnitude is 3.33D-15 for    852.
 Iteration    1 A*A^-1 deviation from orthogonality  is 2.27D-15 for    852    712.
 Iteration    1 A^-1*A deviation from unit magnitude is 3.33D-15 for    852.
 Iteration    1 A^-1*A deviation from orthogonality  is 1.15D-15 for    746    589.
 Error on total polarization charges =  0.00752
 SCF Done:  E(RO-LYP) =  -568.974176613     A.U. after   11 cycles
            NFock= 11  Conv=0.99D-08     -V/T= 2.0018

 **********************************************************************

            Population analysis using the SCF density.

 **********************************************************************

 Orbital symmetries:
       Occupied  (A) (A) (A) (A) (A) (A) (A) (A) (A) (A) (A) (A)
                 (A) (A) (A) (A) (A) (A) (A) (A) (A)
       Virtual   (A) (A) (A) (A) (A) (A) (A) (A) (A) (A) (A) (A)
                 (A) (A) (A) (A) (A) (A) (A) (A) (A) (A) (A) (A)
                 (A) (A) (A) (A) (A) (A) (A) (A) (A) (A) (A) (A)
                 (A) (A) (A) (A) (A) (A) (A) (A) (A) (A) (A) (A)
                 (A) (A) (A) (A) (A) (A) (A) (A) (A) (A) (A) (A)
                 (A) (A) (A) (A) (A) (A) (A) (A) (A) (A) (A) (A)
                 (A) (A) (A) (A) (A) (A) (A) (A) (A) (A) (A) (A)
                 (A) (A) (A) (A) (A) (A) (A) (A) (A) (A) (A) (A)
                 (A) (A) (A) (A) (A) (A) (A) (A) (A) (A) (A) (A)
                 (A) (A) (A) (A) (A) (A) (A) (A) (A) (A) (A) (A)
                 (A) (A) (A) (A) (A) (A) (A)
 The electronic state is 1-A.
 Alpha  occ. eigenvalues --  -76.39738 -18.81324 -18.78689 -18.71860  -6.42251
 Alpha  occ. eigenvalues --   -4.63336  -4.63160  -4.62923  -1.00726  -0.96422
 Alpha  occ. eigenvalues --   -0.87412  -0.61478  -0.53250  -0.45382  -0.40499
 Alpha  occ. eigenvalues --   -0.36373  -0.34236  -0.32420  -0.29903  -0.25271
 Alpha  occ. eigenvalues --   -0.24686
 Alpha virt. eigenvalues --   -0.00174   0.01676   0.04643   0.06150   0.06930
 Alpha virt. eigenvalues --    0.11499   0.19603   0.20863   0.22790   0.24021
 Alpha virt. eigenvalues --    0.29727   0.33364   0.35609   0.36918   0.38471
 Alpha virt. eigenvalues --    0.41104   0.41903   0.44230   0.47928   0.49129
 Alpha virt. eigenvalues --    0.51968   0.53472   0.58535   0.59863   0.63856
 Alpha virt. eigenvalues --    0.66871   0.69344   0.71934   0.74464   0.81583
 Alpha virt. eigenvalues --    1.05436   1.08632   1.10710   1.11216   1.12491
 Alpha virt. eigenvalues --    1.16800   1.22931   1.25177   1.30178   1.30452
 Alpha virt. eigenvalues --    1.34693   1.38595   1.40227   1.48163   1.49307
 Alpha virt. eigenvalues --    1.52931   1.60649   1.63416   1.70482   1.72402
 Alpha virt. eigenvalues --    1.75962   1.81308   1.83827   1.87043   1.88591
 Alpha virt. eigenvalues --    1.92214   1.98432   2.04320   2.04994   2.07868
 Alpha virt. eigenvalues --    2.12333   2.16422   2.19865   2.22827   2.25289
 Alpha virt. eigenvalues --    2.28927   2.34616   2.45586   2.50673   2.59912
 Alpha virt. eigenvalues --    2.67053   2.70337   2.70677   2.74968   2.80748
 Alpha virt. eigenvalues --    2.83602   2.85429   2.86674   2.91890   3.25630
 Alpha virt. eigenvalues --    3.44598   3.64204   3.75134   3.86238   4.94404
 Alpha virt. eigenvalues --    4.95895   4.97689   4.99278   5.02252   5.03087
 Alpha virt. eigenvalues --    5.04751   5.07030   5.11177   5.12946   5.18445
 Alpha virt. eigenvalues --    5.19053   5.20040   5.26943   5.32040   5.37956
 Alpha virt. eigenvalues --    5.40387   5.45074   5.50425   5.99984   6.14999
 Alpha virt. eigenvalues --    6.17556   6.19845   6.22123   6.27776   6.37505
 Alpha virt. eigenvalues --    6.40570   6.45499   6.52884   6.56380   6.59748
 Alpha virt. eigenvalues --    6.61306   6.63126   6.74151   6.85823   6.94873
 Alpha virt. eigenvalues --    7.36032   7.74806   7.95000  16.28521  43.09003
 Alpha virt. eigenvalues --   43.16150  43.17131
          Condensed to atoms (all electrons):
               1          2          3          4          5          6
     1  O    7.873908   0.399690  -0.039123   0.312615  -0.069425  -0.037827
     2  P    0.399690  12.394421   0.428976  -0.015537   0.735172   0.377692
     3  O   -0.039123   0.428976   7.814935   0.002222  -0.058225  -0.032734
     4  H    0.312615  -0.015537   0.002222   0.374631   0.001084   0.002461
     5  O   -0.069425   0.735172  -0.058225   0.001084   8.012683  -0.046905
     6  H   -0.037827   0.377692  -0.032734   0.002461  -0.046905   0.685807
     7  H   -0.000077  -0.013467   0.293072  -0.000054   0.000169   0.004204
               7
     1  O   -0.000077
     2  P   -0.013467
     3  O    0.293072
     4  H   -0.000054
     5  O    0.000169
     6  H    0.004204
     7  H    0.355648
 Mulliken charges:
               1
     1  O   -0.439761
     2  P    0.693053
     3  O   -0.409122
     4  H    0.322578
     5  O   -0.574554
     6  H    0.047302
     7  H    0.360504
 Sum of Mulliken charges =  -0.00000
 Mulliken charges with hydrogens summed into heavy atoms:
               1
     1  O   -0.117183
     2  P    0.740355
     3  O   -0.048618
     5  O   -0.574554
 Electronic spatial extent (au):  <R**2>=            301.3285
 Charge=              0.0000 electrons
 Dipole moment (field-independent basis, Debye):
    X=             -0.2350    Y=             -3.2657    Z=              0.1887  Tot=              3.2796
 Quadrupole moment (field-independent basis, Debye-Ang):
   XX=            -24.0378   YY=            -37.5030   ZZ=            -25.8721
   XY=              1.4914   XZ=             -2.7152   YZ=              3.0293
 Traceless Quadrupole moment (field-independent basis, Debye-Ang):
   XX=              5.0998   YY=             -8.3653   ZZ=              3.2655
   XY=              1.4914   XZ=             -2.7152   YZ=              3.0293
 Octapole moment (field-independent basis, Debye-Ang**2):
  XXX=            -12.5572  YYY=            -11.1564  ZZZ=             -2.1478  XYY=              2.6295
  XXY=             -6.1344  XXZ=             -7.5046  XZZ=              4.2463  YZZ=             -2.9634
  YYZ=              0.7166  XYZ=              1.2206
 Hexadecapole moment (field-independent basis, Debye-Ang**3):
 XXXX=           -116.3964 YYYY=           -170.9971 ZZZZ=            -47.1905 XXXY=             10.8927
 XXXZ=             -5.1992 YYYX=              2.5517 YYYZ=              4.4488 ZZZX=             -6.0074
 ZZZY=              4.2537 XXYY=            -48.0576 XXZZ=            -26.5788 YYZZ=            -34.0216
 XXYZ=              6.3860 YYXZ=             -1.7200 ZZXY=             -2.1780
 N-N= 1.955954827871D+02 E-N=-1.742054501849D+03  KE= 5.679725795113D+02
 1\1\GINC-NODE85\SP\ROLYP\def2TZVP\H3O3P1\YANZ\22-Sep-2023\0\\# scrf=(c
 pcm,solvent=water) def2tzvp olyp\\tmpdir/M2_ref_34.gjf\\0,1\O,0,1.5726
 68,-1.934448,3.473787\P,0,3.178357,-1.70913,3.46554\O,0,3.773372,-3.13
 785,3.245348\H,0,0.94592704,-1.30630857,3.35069213\O,0,3.565538,-0.656
 436,2.473662\H,0,3.56123666,-1.35039577,4.69687487\H,0,3.586768,-3.546
 784,2.383314\\Version=ES64L-G16RevA.03\State=1-A\HF=-568.9741766\RMSD=
 9.852e-09\Dipole=-0.7984736,-0.8729339,0.5150732\Quadrupole=1.1985023,
 -1.388657,0.1901547,-3.4613282,0.9333879,5.029955\PG=C01 [X(H3O3P1)]\\
 @


 THERE'S NOTHING SO GREAT AS THE GREAT OUTDOORS.

                                       -- ZIGGY
 Job cpu time:       0 days  0 hours  1 minutes  4.7 seconds.
 Elapsed time:       0 days  0 hours  0 minutes 17.6 seconds.
 File lengths (MBytes):  RWF=     17 Int=      0 D2E=      0 Chk=      3 Scr=      1
 Normal termination of Gaussian 16 at Fri Sep 22 16:53:05 2023.
