 Entering Gaussian System, Link 0=g16
 Initial command:
 /share/apps/gaussian/g16/l1.exe "/tmp/55608.mgr/Gau-86038.inp" -scrdir="/tmp/55608.mgr/"
 Entering Link 1 = /share/apps/gaussian/g16/l1.exe PID=     86039.
  
 Copyright (c) 1988,1990,1992,1993,1995,1998,2003,2009,2016,
            Gaussian, Inc.  All Rights Reserved.
  
 This is part of the Gaussian(R) 16 program.  It is based on
 the Gaussian(R) 09 system (copyright 2009, Gaussian, Inc.),
 the Gaussian(R) 03 system (copyright 2003, Gaussian, Inc.),
 the Gaussian(R) 98 system (copyright 1998, Gaussian, Inc.),
 the Gaussian(R) 94 system (copyright 1995, Gaussian, Inc.),
 the Gaussian 92(TM) system (copyright 1992, Gaussian, Inc.),
 the Gaussian 90(TM) system (copyright 1990, Gaussian, Inc.),
 the Gaussian 88(TM) system (copyright 1988, Gaussian, Inc.),
 the Gaussian 86(TM) system (copyright 1986, Carnegie Mellon
 University), and the Gaussian 82(TM) system (copyright 1983,
 Carnegie Mellon University). Gaussian is a federally registered
 trademark of Gaussian, Inc.
  
 This software contains proprietary and confidential information,
 including trade secrets, belonging to Gaussian, Inc.
  
 This software is provided under written license and may be
 used, copied, transmitted, or stored only in accord with that
 written license.
  
 The following legend is applicable only to US Government
 contracts under FAR:
  
                    RESTRICTED RIGHTS LEGEND
  
 Use, reproduction and disclosure by the US Government is
 subject to restrictions as set forth in subparagraphs (a)
 and (c) of the Commercial Computer Software - Restricted
 Rights clause in FAR 52.227-19.
  
 Gaussian, Inc.
 340 Quinnipiac St., Bldg. 40, Wallingford CT 06492
  
  
 ---------------------------------------------------------------
 Warning -- This program may not be used in any manner that
 competes with the business of Gaussian, Inc. or will provide
 assistance to any competitor of Gaussian, Inc.  The licensee
 of this program is prohibited from giving any competitor of
 Gaussian, Inc. access to this program.  By using this program,
 the user acknowledges that Gaussian, Inc. is engaged in the
 business of creating and licensing software in the field of
 computational chemistry and represents and warrants to the
 licensee that it is not a competitor of Gaussian, Inc. and that
 it will not use this program in any manner prohibited above.
 ---------------------------------------------------------------
  

 Cite this work as:
 Gaussian 16, Revision A.03,
 M. J. Frisch, G. W. Trucks, H. B. Schlegel, G. E. Scuseria, 
 M. A. Robb, J. R. Cheeseman, G. Scalmani, V. Barone, 
 G. A. Petersson, H. Nakatsuji, X. Li, M. Caricato, A. V. Marenich, 
 J. Bloino, B. G. Janesko, R. Gomperts, B. Mennucci, H. P. Hratchian, 
 J. V. Ortiz, A. F. Izmaylov, J. L. Sonnenberg, D. Williams-Young, 
 F. Ding, F. Lipparini, F. Egidi, J. Goings, B. Peng, A. Petrone, 
 T. Henderson, D. Ranasinghe, V. G. Zakrzewski, J. Gao, N. Rega, 
 G. Zheng, W. Liang, M. Hada, M. Ehara, K. Toyota, R. Fukuda, 
 J. Hasegawa, M. Ishida, T. Nakajima, Y. Honda, O. Kitao, H. Nakai, 
 T. Vreven, K. Throssell, J. A. Montgomery, Jr., J. E. Peralta, 
 F. Ogliaro, M. J. Bearpark, J. J. Heyd, E. N. Brothers, K. N. Kudin, 
 V. N. Staroverov, T. A. Keith, R. Kobayashi, J. Normand, 
 K. Raghavachari, A. P. Rendell, J. C. Burant, S. S. Iyengar, 
 J. Tomasi, M. Cossi, J. M. Millam, M. Klene, C. Adamo, R. Cammi, 
 J. W. Ochterski, R. L. Martin, K. Morokuma, O. Farkas, 
 J. B. Foresman, and D. J. Fox, Gaussian, Inc., Wallingford CT, 2016.
 
 ******************************************
 Gaussian 16:  ES64L-G16RevA.03 25-Dec-2016
                22-Sep-2023 
 ******************************************
 %nprocshared=4
 Will use up to    4 processors via shared memory.
 %mem=4GB
 -----------------------------------------
 # scrf=(cpcm,solvent=water) def2tzvp olyp
 -----------------------------------------
 1/38=1,172=1/1;
 2/12=2,17=6,18=5,40=1/2;
 3/5=44,7=101,11=2,25=1,30=1,70=2101,72=1,74=2002/1,2,3;
 4//1;
 5/5=2,38=5,53=1/2;
 6/7=2,8=2,9=2,10=2,28=1/1;
 99/5=1,9=1/99;
 -------------------
 tmpdir/M2_ref_8.gjf
 -------------------
 Symbolic Z-matrix:
 Charge =  0 Multiplicity = 1
 O                    -0.23591  -1.38589  -0.63879 
 P                    -0.15562  -0.22182   0.43648 
 O                     1.27644   0.29201   0.38032 
 H                    -1.11535  -1.74159  -0.9533 
 O                    -1.30131   0.7179    0.46229 
 H                    -0.22137  -1.02654   1.67562 
 H                     1.81519   0.54939   1.05645 
 
                          Input orientation:                          
 ---------------------------------------------------------------------
 Center     Atomic      Atomic             Coordinates (Angstroms)
 Number     Number       Type             X           Y           Z
 ---------------------------------------------------------------------
      1          8           0       -0.235906   -1.385887   -0.638793
      2         15           0       -0.155615   -0.221822    0.436475
      3          8           0        1.276440    0.292011    0.380324
      4          1           0       -1.115353   -1.741586   -0.953297
      5          8           0       -1.301306    0.717898    0.462292
      6          1           0       -0.221372   -1.026544    1.675623
      7          1           0        1.815186    0.549389    1.056448
 ---------------------------------------------------------------------
                    Distance matrix (angstroms):
                    1          2          3          4          5
     1  O    0.000000
     2  P    1.586725   0.000000
     3  O    2.478131   1.522484   0.000000
     4  H    0.999431   2.272058   3.410973   0.000000
     5  O    2.602571   1.482008   2.613976   2.843859   0.000000
     6  H    2.342191   1.478982   2.379039   2.867352   2.383591
     7  H    3.290306   2.205265   0.902017   4.227967   3.177096
                    6          7
     6  H    0.000000
     7  H    2.648493   0.000000
 Stoichiometry    H3O3P
 Framework group  C1[X(H3O3P)]
 Deg. of freedom    15
 Full point group                 C1      NOp   1
 Largest Abelian subgroup         C1      NOp   1
 Largest concise Abelian subgroup C1      NOp   1
                         Standard orientation:                         
 ---------------------------------------------------------------------
 Center     Atomic      Atomic             Coordinates (Angstroms)
 Number     Number       Type             X           Y           Z
 ---------------------------------------------------------------------
      1          8           0       -1.033068   -1.049012   -0.131489
      2         15           0        0.015993    0.098849    0.184075
      3          8           0        1.371917   -0.458921   -0.226195
      4          1           0       -2.014475   -0.861833   -0.157300
      5          8           0       -0.389865    1.471939   -0.198351
      6          1           0        0.011767    0.036578    1.661740
      7          1           0        2.170944   -0.369525    0.182705
 ---------------------------------------------------------------------
 Rotational constants (GHZ):           8.1559703           7.8413738           4.3847351
 Standard basis: def2TZVP (5D, 7F)
 There are   168 symmetry adapted cartesian basis functions of A   symmetry.
 There are   148 symmetry adapted basis functions of A   symmetry.
   148 basis functions,   246 primitive gaussians,   168 cartesian basis functions
    21 alpha electrons       21 beta electrons
       nuclear repulsion energy       196.8236611765 Hartrees.
 NAtoms=    7 NActive=    7 NUniq=    7 SFac= 1.00D+00 NAtFMM=   60 NAOKFM=F Big=F
 Integral buffers will be    131072 words long.
 Raffenetti 2 integral format.
 Two-electron integral symmetry is turned on.
 ------------------------------------------------------------------------------
 Polarizable Continuum Model (PCM)
 =================================
 Model                : C-PCM.
 Atomic radii         : UFF (Universal Force Field).
 Polarization charges : Total charges.
 Charge compensation  : None.
 Solution method      : On-the-fly selection.
 Cavity type          : Scaled VdW (van der Waals Surface) (Alpha=1.100).
 Cavity algorithm     : GePol (No added spheres)
                        Default sphere list used, NSphG=    7.
                        Lebedev-Laikov grids with approx.  5.0 points / Ang**2.
                        Smoothing algorithm: York/Karplus (Gamma=1.0000).
                        Polarization charges: spherical gaussians, with
                                              point-specific exponents (IZeta= 3).
                        Self-potential: point-specific (ISelfS= 7).
                        Self-field    : sphere-specific E.n sum rule (ISelfD= 2).
 Solvent              : Water, Eps=  78.355300 Eps(inf)=   1.777849
 ------------------------------------------------------------------------------
 Spheres list:
 ISph  on   Nord     Re0    Alpha      Xe            Ye            Ze
    1   O      1    1.7500  1.100     -1.033068     -1.049012     -0.131489
    2   P      2    2.0735  1.100      0.015993      0.098849      0.184075
    3   O      3    1.7500  1.100      1.371917     -0.458921     -0.226195
    4   H      4    1.4430  1.100     -2.014475     -0.861833     -0.157300
    5   O      5    1.7500  1.100     -0.389865      1.471939     -0.198351
    6   H      6    1.4430  1.100      0.011767      0.036578      1.661740
    7   H      7    1.4430  1.100      2.170944     -0.369525      0.182705
 ------------------------------------------------------------------------------
 One-electron integrals computed using PRISM.
   1 Symmetry operations used in ECPInt.
 ECPInt:  NShTT=    1711 NPrTT=    5676 LenC2=    1698 LenP2D=    4712.
 LDataN:  DoStor=T MaxTD1= 6 Len=  172
 NBasis=   148 RedAO= T EigKep=  1.43D-03  NBF=   148
 NBsUse=   148 1.00D-06 EigRej= -1.00D+00 NBFU=   148
 ExpMin= 9.04D-02 ExpMax= 5.24D+04 ExpMxC= 1.79D+03 IAcc=3 IRadAn=         5 AccDes= 0.00D+00
 Harris functional with IExCor= 2002 and IRadAn=       5 diagonalized for initial guess.
 HarFok:  IExCor= 2002 AccDes= 0.00D+00 IRadAn=         5 IDoV= 1 UseB2=F ITyADJ=14
 ICtDFT=  3500011 ScaDFX=  1.000000  1.000000  1.000000  1.000000
 FoFCou: FMM=F IPFlag=           0 FMFlag=      100000 FMFlg1=           0
         NFxFlg=           0 DoJE=T BraDBF=F KetDBF=T FulRan=T
         wScrn=  0.000000 ICntrl=       500 IOpCl=  0 I1Cent=   200000004 NGrid=           0
         NMat0=    1 NMatS0=      1 NMatT0=    0 NMatD0=    1 NMtDS0=    0 NMtDT0=    0
 Petite list used in FoFCou.
 Keep J ints in memory in canonical form, NReq=64775784.
 Requested convergence on RMS density matrix=1.00D-08 within 128 cycles.
 Requested convergence on MAX density matrix=1.00D-06.
 Requested convergence on             energy=1.00D-06.
 No special actions if energy rises.
 Inv3:  Mode=1 IEnd=     2208492.
 Iteration    1 A*A^-1 deviation from unit magnitude is 4.22D-15 for    844.
 Iteration    1 A*A^-1 deviation from orthogonality  is 2.40D-15 for    844    314.
 Iteration    1 A^-1*A deviation from unit magnitude is 4.00D-15 for    844.
 Iteration    1 A^-1*A deviation from orthogonality  is 8.71D-16 for    289    116.
 Error on total polarization charges =  0.00817
 SCF Done:  E(RO-LYP) =  -568.966912515     A.U. after   11 cycles
            NFock= 11  Conv=0.72D-08     -V/T= 2.0019

 **********************************************************************

            Population analysis using the SCF density.

 **********************************************************************

 Orbital symmetries:
       Occupied  (A) (A) (A) (A) (A) (A) (A) (A) (A) (A) (A) (A)
                 (A) (A) (A) (A) (A) (A) (A) (A) (A)
       Virtual   (A) (A) (A) (A) (A) (A) (A) (A) (A) (A) (A) (A)
                 (A) (A) (A) (A) (A) (A) (A) (A) (A) (A) (A) (A)
                 (A) (A) (A) (A) (A) (A) (A) (A) (A) (A) (A) (A)
                 (A) (A) (A) (A) (A) (A) (A) (A) (A) (A) (A) (A)
                 (A) (A) (A) (A) (A) (A) (A) (A) (A) (A) (A) (A)
                 (A) (A) (A) (A) (A) (A) (A) (A) (A) (A) (A) (A)
                 (A) (A) (A) (A) (A) (A) (A) (A) (A) (A) (A) (A)
                 (A) (A) (A) (A) (A) (A) (A) (A) (A) (A) (A) (A)
                 (A) (A) (A) (A) (A) (A) (A) (A) (A) (A) (A) (A)
                 (A) (A) (A) (A) (A) (A) (A) (A) (A) (A) (A) (A)
                 (A) (A) (A) (A) (A) (A) (A)
 The electronic state is 1-A.
 Alpha  occ. eigenvalues --  -76.39860 -18.81022 -18.80211 -18.72366  -6.42224
 Alpha  occ. eigenvalues --   -4.63239  -4.63223  -4.62895  -1.02342  -0.96553
 Alpha  occ. eigenvalues --   -0.88223  -0.62930  -0.52465  -0.45700  -0.39600
 Alpha  occ. eigenvalues --   -0.37115  -0.34310  -0.33077  -0.29106  -0.25769
 Alpha  occ. eigenvalues --   -0.24969
 Alpha virt. eigenvalues --   -0.01262   0.01782   0.04919   0.06735   0.08071
 Alpha virt. eigenvalues --    0.10669   0.18022   0.20727   0.24784   0.25856
 Alpha virt. eigenvalues --    0.31707   0.34172   0.34715   0.35671   0.37972
 Alpha virt. eigenvalues --    0.40672   0.41813   0.44323   0.47230   0.49488
 Alpha virt. eigenvalues --    0.51026   0.53004   0.55306   0.62626   0.64385
 Alpha virt. eigenvalues --    0.65549   0.70312   0.71348   0.77605   0.81859
 Alpha virt. eigenvalues --    1.06613   1.07676   1.10806   1.12363   1.17256
 Alpha virt. eigenvalues --    1.17737   1.23108   1.25061   1.28296   1.32968
 Alpha virt. eigenvalues --    1.36193   1.38070   1.40866   1.48716   1.49687
 Alpha virt. eigenvalues --    1.54786   1.60261   1.64713   1.67371   1.71441
 Alpha virt. eigenvalues --    1.76898   1.77966   1.80222   1.81828   1.89650
 Alpha virt. eigenvalues --    1.93563   1.95596   2.00512   2.05208   2.08666
 Alpha virt. eigenvalues --    2.11451   2.16004   2.17258   2.20664   2.28983
 Alpha virt. eigenvalues --    2.32260   2.37656   2.40941   2.52337   2.60715
 Alpha virt. eigenvalues --    2.63668   2.69159   2.69849   2.73731   2.78927
 Alpha virt. eigenvalues --    2.81136   2.89251   2.90003   2.92181   3.25340
 Alpha virt. eigenvalues --    3.48234   3.70243   3.74608   3.87805   4.93750
 Alpha virt. eigenvalues --    4.94793   4.96033   4.98482   5.01747   5.03970
 Alpha virt. eigenvalues --    5.07252   5.07931   5.10262   5.13046   5.14942
 Alpha virt. eigenvalues --    5.21556   5.23420   5.25122   5.29722   5.41107
 Alpha virt. eigenvalues --    5.44670   5.48412   5.53271   5.96203   6.14592
 Alpha virt. eigenvalues --    6.15077   6.21042   6.22356   6.26222   6.37005
 Alpha virt. eigenvalues --    6.41710   6.45475   6.54168   6.56308   6.60968
 Alpha virt. eigenvalues --    6.62271   6.67452   6.75421   6.88320   6.92248
 Alpha virt. eigenvalues --    7.28105   7.84178   8.03305  16.34214  43.11162
 Alpha virt. eigenvalues --   43.17404  43.24012
          Condensed to atoms (all electrons):
               1          2          3          4          5          6
     1  O    7.869824   0.422439  -0.028745   0.288540  -0.060786  -0.048712
     2  P    0.422439  12.374470   0.432953  -0.016110   0.735270   0.368013
     3  O   -0.028745   0.432953   7.746394   0.001451  -0.053597  -0.047866
     4  H    0.288540  -0.016110   0.001451   0.356070  -0.000367   0.004955
     5  O   -0.060786   0.735270  -0.053597  -0.000367   7.988218  -0.053722
     6  H   -0.048712   0.368013  -0.047866   0.004955  -0.053722   0.814268
     7  H    0.001198  -0.016329   0.321936  -0.000080  -0.000202   0.001885
               7
     1  O    0.001198
     2  P   -0.016329
     3  O    0.321936
     4  H   -0.000080
     5  O   -0.000202
     6  H    0.001885
     7  H    0.346511
 Mulliken charges:
               1
     1  O   -0.443757
     2  P    0.699295
     3  O   -0.372525
     4  H    0.365541
     5  O   -0.554814
     6  H   -0.038820
     7  H    0.345081
 Sum of Mulliken charges =  -0.00000
 Mulliken charges with hydrogens summed into heavy atoms:
               1
     1  O   -0.078217
     2  P    0.660475
     3  O   -0.027444
     5  O   -0.554814
 Electronic spatial extent (au):  <R**2>=            301.4471
 Charge=             -0.0000 electrons
 Dipole moment (field-independent basis, Debye):
    X=              1.1518    Y=             -2.9894    Z=              1.6364  Tot=              3.5974
 Quadrupole moment (field-independent basis, Debye-Ang):
   XX=            -17.4488   YY=            -37.8263   ZZ=            -30.1700
   XY=              2.3860   XZ=              1.8359   YZ=              0.5422
 Traceless Quadrupole moment (field-independent basis, Debye-Ang):
   XX=             11.0329   YY=             -9.3446   ZZ=             -1.6883
   XY=              2.3860   XZ=              1.8359   YZ=              0.5422
 Octapole moment (field-independent basis, Debye-Ang**2):
  XXX=              3.5923  YYY=            -10.3230  ZZZ=             -1.6765  XYY=              2.9229
  XXY=             -8.2162  XXZ=              2.3001  XZZ=              0.5107  YZZ=             -1.0834
  YYZ=              1.3965  XYZ=             -1.2870
 Hexadecapole moment (field-independent basis, Debye-Ang**3):
 XXXX=            -68.0735 YYYY=           -172.9016 ZZZZ=            -53.1872 XXXY=              9.1440
 XXXZ=              9.9068 YYYX=              3.9747 YYYZ=              1.9218 ZZZX=              0.4253
 ZZZY=              0.5310 XXYY=            -48.2451 XXZZ=            -34.1012 YYZZ=            -35.6061
 XXYZ=             -0.0667 YYXZ=              0.3017 ZZXY=              0.4079
 N-N= 1.968236611765D+02 E-N=-1.744407355740D+03  KE= 5.679121004505D+02
 1\1\GINC-NODE85\SP\ROLYP\def2TZVP\H3O3P1\YANZ\22-Sep-2023\0\\# scrf=(c
 pcm,solvent=water) def2tzvp olyp\\tmpdir/M2_ref_8.gjf\\0,1\O,0,-0.2359
 06,-1.385887,-0.638793\P,0,-0.155615,-0.221822,0.436475\O,0,1.27644,0.
 292011,0.380324\H,0,-1.11535325,-1.74158607,-0.95329726\O,0,-1.301306,
 0.717898,0.462292\H,0,-0.22137174,-1.02654444,1.67562253\H,0,1.8151864
 ,0.54938918,1.05644822\\Version=ES64L-G16RevA.03\State=1-A\HF=-568.966
 9125\RMSD=7.240e-09\Dipole=1.0418707,-0.913898,0.2870696\Quadrupole=0.
 4403647,-1.2903391,0.8499744,6.1040011,4.7551064,1.6047345\PG=C01 [X(H
 3O3P1)]\\@


 THE MEEK SHALL INHERIT THE EARTH.
 (THE REST OF US WILL ESCAPE TO THE STARS)
 Job cpu time:       0 days  0 hours  1 minutes  6.4 seconds.
 Elapsed time:       0 days  0 hours  0 minutes 18.1 seconds.
 File lengths (MBytes):  RWF=     17 Int=      0 D2E=      0 Chk=      3 Scr=      1
 Normal termination of Gaussian 16 at Fri Sep 22 16:52:10 2023.
