 Entering Gaussian System, Link 0=g16
 Initial command:
 /share/apps/gaussian/g16/l1.exe "/tmp/55608.mgr/Gau-87552.inp" -scrdir="/tmp/55608.mgr/"
 Entering Link 1 = /share/apps/gaussian/g16/l1.exe PID=     87553.
  
 Copyright (c) 1988,1990,1992,1993,1995,1998,2003,2009,2016,
            Gaussian, Inc.  All Rights Reserved.
  
 This is part of the Gaussian(R) 16 program.  It is based on
 the Gaussian(R) 09 system (copyright 2009, Gaussian, Inc.),
 the Gaussian(R) 03 system (copyright 2003, Gaussian, Inc.),
 the Gaussian(R) 98 system (copyright 1998, Gaussian, Inc.),
 the Gaussian(R) 94 system (copyright 1995, Gaussian, Inc.),
 the Gaussian 92(TM) system (copyright 1992, Gaussian, Inc.),
 the Gaussian 90(TM) system (copyright 1990, Gaussian, Inc.),
 the Gaussian 88(TM) system (copyright 1988, Gaussian, Inc.),
 the Gaussian 86(TM) system (copyright 1986, Carnegie Mellon
 University), and the Gaussian 82(TM) system (copyright 1983,
 Carnegie Mellon University). Gaussian is a federally registered
 trademark of Gaussian, Inc.
  
 This software contains proprietary and confidential information,
 including trade secrets, belonging to Gaussian, Inc.
  
 This software is provided under written license and may be
 used, copied, transmitted, or stored only in accord with that
 written license.
  
 The following legend is applicable only to US Government
 contracts under FAR:
  
                    RESTRICTED RIGHTS LEGEND
  
 Use, reproduction and disclosure by the US Government is
 subject to restrictions as set forth in subparagraphs (a)
 and (c) of the Commercial Computer Software - Restricted
 Rights clause in FAR 52.227-19.
  
 Gaussian, Inc.
 340 Quinnipiac St., Bldg. 40, Wallingford CT 06492
  
  
 ---------------------------------------------------------------
 Warning -- This program may not be used in any manner that
 competes with the business of Gaussian, Inc. or will provide
 assistance to any competitor of Gaussian, Inc.  The licensee
 of this program is prohibited from giving any competitor of
 Gaussian, Inc. access to this program.  By using this program,
 the user acknowledges that Gaussian, Inc. is engaged in the
 business of creating and licensing software in the field of
 computational chemistry and represents and warrants to the
 licensee that it is not a competitor of Gaussian, Inc. and that
 it will not use this program in any manner prohibited above.
 ---------------------------------------------------------------
  

 Cite this work as:
 Gaussian 16, Revision A.03,
 M. J. Frisch, G. W. Trucks, H. B. Schlegel, G. E. Scuseria, 
 M. A. Robb, J. R. Cheeseman, G. Scalmani, V. Barone, 
 G. A. Petersson, H. Nakatsuji, X. Li, M. Caricato, A. V. Marenich, 
 J. Bloino, B. G. Janesko, R. Gomperts, B. Mennucci, H. P. Hratchian, 
 J. V. Ortiz, A. F. Izmaylov, J. L. Sonnenberg, D. Williams-Young, 
 F. Ding, F. Lipparini, F. Egidi, J. Goings, B. Peng, A. Petrone, 
 T. Henderson, D. Ranasinghe, V. G. Zakrzewski, J. Gao, N. Rega, 
 G. Zheng, W. Liang, M. Hada, M. Ehara, K. Toyota, R. Fukuda, 
 J. Hasegawa, M. Ishida, T. Nakajima, Y. Honda, O. Kitao, H. Nakai, 
 T. Vreven, K. Throssell, J. A. Montgomery, Jr., J. E. Peralta, 
 F. Ogliaro, M. J. Bearpark, J. J. Heyd, E. N. Brothers, K. N. Kudin, 
 V. N. Staroverov, T. A. Keith, R. Kobayashi, J. Normand, 
 K. Raghavachari, A. P. Rendell, J. C. Burant, S. S. Iyengar, 
 J. Tomasi, M. Cossi, J. M. Millam, M. Klene, C. Adamo, R. Cammi, 
 J. W. Ochterski, R. L. Martin, K. Morokuma, O. Farkas, 
 J. B. Foresman, and D. J. Fox, Gaussian, Inc., Wallingford CT, 2016.
 
 ******************************************
 Gaussian 16:  ES64L-G16RevA.03 25-Dec-2016
                22-Sep-2023 
 ******************************************
 %nprocshared=4
 Will use up to    4 processors via shared memory.
 %mem=4GB
 -----------------------------------------
 # scrf=(cpcm,solvent=water) def2tzvp olyp
 -----------------------------------------
 1/38=1,172=1/1;
 2/12=2,17=6,18=5,40=1/2;
 3/5=44,7=101,11=2,25=1,30=1,70=2101,72=1,74=2002/1,2,3;
 4//1;
 5/5=2,38=5,53=1/2;
 6/7=2,8=2,9=2,10=2,28=1/1;
 99/5=1,9=1/99;
 --------------------
 tmpdir/M2_ref_53.gjf
 --------------------
 Symbolic Z-matrix:
 Charge = -1 Multiplicity = 1
 C                    -1.54879   0.91579   31.48338 
 O                    -1.24893  -0.06738   30.56437 
 H                    -2.64152   1.02952   31.69584 
 H                    -1.08678   0.76178   32.49083 
 H                    -1.21854   1.94215   31.18361 
 
                          Input orientation:                          
 ---------------------------------------------------------------------
 Center     Atomic      Atomic             Coordinates (Angstroms)
 Number     Number       Type             X           Y           Z
 ---------------------------------------------------------------------
      1          6           0       -1.548792    0.915792   31.483380
      2          8           0       -1.248932   -0.067380   30.564368
      3          1           0       -2.641517    1.029520   31.695842
      4          1           0       -1.086781    0.761780   32.490826
      5          1           0       -1.218536    1.942152   31.183615
 ---------------------------------------------------------------------
                    Distance matrix (angstroms):
                    1          2          3          4          5
     1  C    0.000000
     2  O    1.378813   0.000000
     3  H    1.118983   2.103025   0.000000
     4  H    1.118982   2.103578   1.766604   0.000000
     5  H    1.119081   2.103000   1.766394   1.766193   0.000000
 Stoichiometry    CH3O(1-)
 Framework group  C1[X(CH3O)]
 Deg. of freedom     9
 Full point group                 C1      NOp   1
 Largest Abelian subgroup         C1      NOp   1
 Largest concise Abelian subgroup C1      NOp   1
                         Standard orientation:                         
 ---------------------------------------------------------------------
 Center     Atomic      Atomic             Coordinates (Angstroms)
 Number     Number       Type             X           Y           Z
 ---------------------------------------------------------------------
      1          6           0       -0.567573    0.000016   -0.000097
      2          8           0        0.811240   -0.000047   -0.000025
      3          1           0       -1.027862    0.983821   -0.269138
      4          1           0       -1.028760   -0.725137   -0.716742
      5          1           0       -1.027865   -0.258399    0.986664
 ---------------------------------------------------------------------
 Rotational constants (GHZ):         160.7146443          26.7977565          26.7965578
 Standard basis: def2TZVP (5D, 7F)
 There are    90 symmetry adapted cartesian basis functions of A   symmetry.
 There are    80 symmetry adapted basis functions of A   symmetry.
    80 basis functions,   126 primitive gaussians,    90 cartesian basis functions
     9 alpha electrons        9 beta electrons
       nuclear repulsion energy        33.8713964985 Hartrees.
 NAtoms=    5 NActive=    5 NUniq=    5 SFac= 1.00D+00 NAtFMM=   60 NAOKFM=F Big=F
 Integral buffers will be    131072 words long.
 Raffenetti 2 integral format.
 Two-electron integral symmetry is turned on.
 ------------------------------------------------------------------------------
 Polarizable Continuum Model (PCM)
 =================================
 Model                : C-PCM.
 Atomic radii         : UFF (Universal Force Field).
 Polarization charges : Total charges.
 Charge compensation  : None.
 Solution method      : On-the-fly selection.
 Cavity type          : Scaled VdW (van der Waals Surface) (Alpha=1.100).
 Cavity algorithm     : GePol (No added spheres)
                        Default sphere list used, NSphG=    5.
                        Lebedev-Laikov grids with approx.  5.0 points / Ang**2.
                        Smoothing algorithm: York/Karplus (Gamma=1.0000).
                        Polarization charges: spherical gaussians, with
                                              point-specific exponents (IZeta= 3).
                        Self-potential: point-specific (ISelfS= 7).
                        Self-field    : sphere-specific E.n sum rule (ISelfD= 2).
 Solvent              : Water, Eps=  78.355300 Eps(inf)=   1.777849
 ------------------------------------------------------------------------------
 Spheres list:
 ISph  on   Nord     Re0    Alpha      Xe            Ye            Ze
    1   C      1    1.9255  1.100     -0.567573      0.000016     -0.000097
    2   O      2    1.7500  1.100      0.811240     -0.000047     -0.000025
    3   H      3    1.4430  1.100     -1.027862      0.983821     -0.269138
    4   H      4    1.4430  1.100     -1.028760     -0.725137     -0.716742
    5   H      5    1.4430  1.100     -1.027865     -0.258399      0.986664
 ------------------------------------------------------------------------------
 One-electron integrals computed using PRISM.
   1 Symmetry operations used in ECPInt.
 ECPInt:  NShTT=     595 NPrTT=    1764 LenC2=     595 LenP2D=    1623.
 LDataN:  DoStor=T MaxTD1= 6 Len=  172
 NBasis=    80 RedAO= T EigKep=  1.85D-03  NBF=    80
 NBsUse=    80 1.00D-06 EigRej= -1.00D+00 NBFU=    80
 ExpMin= 9.52D-02 ExpMax= 2.70D+04 ExpMxC= 9.22D+02 IAcc=3 IRadAn=         5 AccDes= 0.00D+00
 Harris functional with IExCor= 2002 and IRadAn=       5 diagonalized for initial guess.
 HarFok:  IExCor= 2002 AccDes= 0.00D+00 IRadAn=         5 IDoV= 1 UseB2=F ITyADJ=14
 ICtDFT=  3500011 ScaDFX=  1.000000  1.000000  1.000000  1.000000
 FoFCou: FMM=F IPFlag=           0 FMFlag=      100000 FMFlg1=           0
         NFxFlg=           0 DoJE=T BraDBF=F KetDBF=T FulRan=T
         wScrn=  0.000000 ICntrl=       500 IOpCl=  0 I1Cent=   200000004 NGrid=           0
         NMat0=    1 NMatS0=      1 NMatT0=    0 NMatD0=    1 NMtDS0=    0 NMtDT0=    0
 Petite list used in FoFCou.
 Keep J ints in memory in canonical form, NReq=8902651.
 Requested convergence on RMS density matrix=1.00D-08 within 128 cycles.
 Requested convergence on MAX density matrix=1.00D-06.
 Requested convergence on             energy=1.00D-06.
 No special actions if energy rises.
 Inv3:  Mode=1 IEnd=     1044300.
 Iteration    1 A*A^-1 deviation from unit magnitude is 2.44D-15 for    566.
 Iteration    1 A*A^-1 deviation from orthogonality  is 1.44D-15 for    574     56.
 Iteration    1 A^-1*A deviation from unit magnitude is 2.44D-15 for    566.
 Iteration    1 A^-1*A deviation from orthogonality  is 8.31D-16 for    526     99.
 Error on total polarization charges =  0.01613
 SCF Done:  E(RO-LYP) =  -115.211392711     A.U. after   12 cycles
            NFock= 12  Conv=0.19D-08     -V/T= 2.0033

 **********************************************************************

            Population analysis using the SCF density.

 **********************************************************************

 Orbital symmetries:
       Occupied  (A) (A) (A) (A) (A) (A) (A) (A) (A)
       Virtual   (A) (A) (A) (A) (A) (A) (A) (A) (A) (A) (A) (A)
                 (A) (A) (A) (A) (A) (A) (A) (A) (A) (A) (A) (A)
                 (A) (A) (A) (A) (A) (A) (A) (A) (A) (A) (A) (A)
                 (A) (A) (A) (A) (A) (A) (A) (A) (A) (A) (A) (A)
                 (A) (A) (A) (A) (A) (A) (A) (A) (A) (A) (A) (A)
                 (A) (A) (A) (A) (A) (A) (A) (A) (A) (A) (A)
 The electronic state is 1-A.
 Alpha  occ. eigenvalues --  -18.60443  -9.87835  -0.76903  -0.51772  -0.31293
 Alpha  occ. eigenvalues --   -0.31285  -0.25592  -0.10338  -0.10335
 Alpha virt. eigenvalues --    0.05097   0.11022   0.12481   0.12484   0.22674
 Alpha virt. eigenvalues --    0.22681   0.33828   0.37892   0.43034   0.43041
 Alpha virt. eigenvalues --    0.43064   0.50355   0.53913   0.53919   0.70693
 Alpha virt. eigenvalues --    0.70708   0.78703   0.93526   0.93534   1.03387
 Alpha virt. eigenvalues --    1.39912   1.39917   1.45545   1.51278   1.59707
 Alpha virt. eigenvalues --    1.59729   1.64046   1.65188   1.65191   1.95265
 Alpha virt. eigenvalues --    1.99902   1.99945   2.02227   2.24975   2.25013
 Alpha virt. eigenvalues --    2.25213   2.39081   2.39111   2.50724   2.50755
 Alpha virt. eigenvalues --    2.77821   2.77853   2.79031   2.91084   2.97764
 Alpha virt. eigenvalues --    2.97770   3.10149   3.19179   3.38794   3.38830
 Alpha virt. eigenvalues --    3.46874   3.54261   3.54273   4.06454   4.06486
 Alpha virt. eigenvalues --    4.19432   4.39860   5.17112   5.18168   5.36427
 Alpha virt. eigenvalues --    5.36433   5.78322   5.78327   5.91325   6.33025
 Alpha virt. eigenvalues --    6.33033   6.72312   6.72324   6.90971  22.12809
 Alpha virt. eigenvalues --   43.30218
          Condensed to atoms (all electrons):
               1          2          3          4          5
     1  C    4.527725   0.558324   0.349186   0.348646   0.348974
     2  O    0.558324   8.628472  -0.103196  -0.103078  -0.103217
     3  H    0.349186  -0.103196   1.005755  -0.127610  -0.127575
     4  H    0.348646  -0.103078  -0.127610   1.006246  -0.127598
     5  H    0.348974  -0.103217  -0.127575  -0.127598   1.006091
 Mulliken charges:
               1
     1  C   -0.132855
     2  O   -0.877305
     3  H    0.003440
     4  H    0.003395
     5  H    0.003325
 Sum of Mulliken charges =  -1.00000
 Mulliken charges with hydrogens summed into heavy atoms:
               1
     1  C   -0.122695
     2  O   -0.877305
 Electronic spatial extent (au):  <R**2>=             87.7295
 Charge=             -1.0000 electrons
 Dipole moment (field-independent basis, Debye):
    X=             -3.0880    Y=              0.0002    Z=             -0.0004  Tot=              3.0880
 Quadrupole moment (field-independent basis, Debye-Ang):
   XX=            -20.3816   YY=            -16.4122   ZZ=            -16.4139
   XY=              0.0006   XZ=              0.0012   YZ=              0.0000
 Traceless Quadrupole moment (field-independent basis, Debye-Ang):
   XX=             -2.6457   YY=              1.3237   ZZ=              1.3220
   XY=              0.0006   XZ=              0.0012   YZ=              0.0000
 Octapole moment (field-independent basis, Debye-Ang**2):
  XXX=              1.0187  YYY=             -0.1722  ZZZ=             -0.1801  XYY=              1.1805
  XXY=              0.0002  XXZ=             -0.0007  XZZ=              1.1823  YZZ=              0.1725
  YYZ=              0.1777  XYZ=             -0.0001
 Hexadecapole moment (field-independent basis, Debye-Ang**3):
 XXXX=            -78.8220 YYYY=            -28.3434 ZZZZ=            -28.3448 XXXY=              0.0001
 XXXZ=              0.0027 YYYX=              0.3423 YYYZ=             -0.0000 ZZZX=              0.3567
 ZZZY=              0.0001 XXYY=            -18.7640 XXZZ=            -18.7658 YYZZ=             -9.4480
 XXYZ=              0.0001 YYXZ=             -0.3532 ZZXY=             -0.3425
 N-N= 3.387139649846D+01 E-N=-3.440278251879D+02  KE= 1.148315167758D+02
 1\1\GINC-NODE85\SP\ROLYP\def2TZVP\C1H3O1(1-)\YANZ\22-Sep-2023\0\\# scr
 f=(cpcm,solvent=water) def2tzvp olyp\\tmpdir/M2_ref_53.gjf\\-1,1\C,0,-
 1.548792,0.915792,31.48338\O,0,-1.248932,-0.06738,30.564368\H,0,-2.641
 517,1.02952,31.695842\H,0,-1.086781,0.76178,32.490826\H,0,-1.218536,1.
 942152,31.183615\\Version=ES64L-G16RevA.03\State=1-A\HF=-115.2113927\R
 MSD=1.915e-09\Dipole=-0.2642486,0.8662542,0.809835\Quadrupole=0.844469
 5,-0.5180524,-0.3264172,0.457694,0.4278126,-1.4018851\PG=C01 [X(C1H3O1
 )]\\@


 EVERYBODY NEEDS BEAUTY AS WELL AS BREAD, PLACES TO PLAY IN AND PRAY IN,
 WHERE NATURE MAY HEAL AND CHEER AND GIVE STRENGTH TO BODY AND SOUL ALIKE.

                                    -- JOHN MUIR
 Job cpu time:       0 days  0 hours  0 minutes 21.8 seconds.
 Elapsed time:       0 days  0 hours  0 minutes  5.7 seconds.
 File lengths (MBytes):  RWF=     10 Int=      0 D2E=      0 Chk=      2 Scr=      1
 Normal termination of Gaussian 16 at Fri Sep 22 16:53:13 2023.
