 Entering Gaussian System, Link 0=g16
 Initial command:
 /share/apps/gaussian/g16/l1.exe "/tmp/55608.mgr/Gau-86546.inp" -scrdir="/tmp/55608.mgr/"
 Entering Link 1 = /share/apps/gaussian/g16/l1.exe PID=     86547.
  
 Copyright (c) 1988,1990,1992,1993,1995,1998,2003,2009,2016,
            Gaussian, Inc.  All Rights Reserved.
  
 This is part of the Gaussian(R) 16 program.  It is based on
 the Gaussian(R) 09 system (copyright 2009, Gaussian, Inc.),
 the Gaussian(R) 03 system (copyright 2003, Gaussian, Inc.),
 the Gaussian(R) 98 system (copyright 1998, Gaussian, Inc.),
 the Gaussian(R) 94 system (copyright 1995, Gaussian, Inc.),
 the Gaussian 92(TM) system (copyright 1992, Gaussian, Inc.),
 the Gaussian 90(TM) system (copyright 1990, Gaussian, Inc.),
 the Gaussian 88(TM) system (copyright 1988, Gaussian, Inc.),
 the Gaussian 86(TM) system (copyright 1986, Carnegie Mellon
 University), and the Gaussian 82(TM) system (copyright 1983,
 Carnegie Mellon University). Gaussian is a federally registered
 trademark of Gaussian, Inc.
  
 This software contains proprietary and confidential information,
 including trade secrets, belonging to Gaussian, Inc.
  
 This software is provided under written license and may be
 used, copied, transmitted, or stored only in accord with that
 written license.
  
 The following legend is applicable only to US Government
 contracts under FAR:
  
                    RESTRICTED RIGHTS LEGEND
  
 Use, reproduction and disclosure by the US Government is
 subject to restrictions as set forth in subparagraphs (a)
 and (c) of the Commercial Computer Software - Restricted
 Rights clause in FAR 52.227-19.
  
 Gaussian, Inc.
 340 Quinnipiac St., Bldg. 40, Wallingford CT 06492
  
  
 ---------------------------------------------------------------
 Warning -- This program may not be used in any manner that
 competes with the business of Gaussian, Inc. or will provide
 assistance to any competitor of Gaussian, Inc.  The licensee
 of this program is prohibited from giving any competitor of
 Gaussian, Inc. access to this program.  By using this program,
 the user acknowledges that Gaussian, Inc. is engaged in the
 business of creating and licensing software in the field of
 computational chemistry and represents and warrants to the
 licensee that it is not a competitor of Gaussian, Inc. and that
 it will not use this program in any manner prohibited above.
 ---------------------------------------------------------------
  

 Cite this work as:
 Gaussian 16, Revision A.03,
 M. J. Frisch, G. W. Trucks, H. B. Schlegel, G. E. Scuseria, 
 M. A. Robb, J. R. Cheeseman, G. Scalmani, V. Barone, 
 G. A. Petersson, H. Nakatsuji, X. Li, M. Caricato, A. V. Marenich, 
 J. Bloino, B. G. Janesko, R. Gomperts, B. Mennucci, H. P. Hratchian, 
 J. V. Ortiz, A. F. Izmaylov, J. L. Sonnenberg, D. Williams-Young, 
 F. Ding, F. Lipparini, F. Egidi, J. Goings, B. Peng, A. Petrone, 
 T. Henderson, D. Ranasinghe, V. G. Zakrzewski, J. Gao, N. Rega, 
 G. Zheng, W. Liang, M. Hada, M. Ehara, K. Toyota, R. Fukuda, 
 J. Hasegawa, M. Ishida, T. Nakajima, Y. Honda, O. Kitao, H. Nakai, 
 T. Vreven, K. Throssell, J. A. Montgomery, Jr., J. E. Peralta, 
 F. Ogliaro, M. J. Bearpark, J. J. Heyd, E. N. Brothers, K. N. Kudin, 
 V. N. Staroverov, T. A. Keith, R. Kobayashi, J. Normand, 
 K. Raghavachari, A. P. Rendell, J. C. Burant, S. S. Iyengar, 
 J. Tomasi, M. Cossi, J. M. Millam, M. Klene, C. Adamo, R. Cammi, 
 J. W. Ochterski, R. L. Martin, K. Morokuma, O. Farkas, 
 J. B. Foresman, and D. J. Fox, Gaussian, Inc., Wallingford CT, 2016.
 
 ******************************************
 Gaussian 16:  ES64L-G16RevA.03 25-Dec-2016
                22-Sep-2023 
 ******************************************
 %nprocshared=4
 Will use up to    4 processors via shared memory.
 %mem=4GB
 -----------------------------------------
 # scrf=(cpcm,solvent=water) def2tzvp olyp
 -----------------------------------------
 1/38=1,172=1/1;
 2/12=2,17=6,18=5,40=1/2;
 3/5=44,7=101,11=2,25=1,30=1,70=2101,72=1,74=2002/1,2,3;
 4//1;
 5/5=2,38=5,53=1/2;
 6/7=2,8=2,9=2,10=2,28=1/1;
 99/5=1,9=1/99;
 --------------------
 tmpdir/M2_ref_30.gjf
 --------------------
 Symbolic Z-matrix:
 Charge =  0 Multiplicity = 1
 P                     3.17836  -1.70913   3.46554 
 O                     3.6254   -1.29028   4.90324 
 H                     1.80314  -1.90211   3.4726 
 O                     3.56554  -0.65644   2.47366 
 H                     3.68797  -2.93278   3.27695 
 H                     3.47039  -1.94227   5.60713 
 
                          Input orientation:                          
 ---------------------------------------------------------------------
 Center     Atomic      Atomic             Coordinates (Angstroms)
 Number     Number       Type             X           Y           Z
 ---------------------------------------------------------------------
      1         15           0        3.178357   -1.709130    3.465540
      2          8           0        3.625404   -1.290275    4.903236
      3          1           0        1.803142   -1.902107    3.472603
      4          8           0        3.565538   -0.656436    2.473662
      5          1           0        3.687966   -2.932777    3.276953
      6          1           0        3.470387   -1.942269    5.607129
 ---------------------------------------------------------------------
                    Distance matrix (angstroms):
                    1          2          3          4          5
     1  P    0.000000
     2  O    1.562773   0.000000
     3  H    1.388706   2.396182   0.000000
     4  O    1.497296   2.511606   2.378154   0.000000
     5  H    1.338872   2.312255   2.157109   2.417022   0.000000
     6  H    2.173945   0.971901   2.708785   3.388368   2.541292
                    6
     6  H    0.000000
 Stoichiometry    H3O2P
 Framework group  C1[X(H3O2P)]
 Deg. of freedom    12
 Full point group                 C1      NOp   1
 Largest Abelian subgroup         C1      NOp   1
 Largest concise Abelian subgroup C1      NOp   1
                         Standard orientation:                         
 ---------------------------------------------------------------------
 Center     Atomic      Atomic             Coordinates (Angstroms)
 Number     Number       Type             X           Y           Z
 ---------------------------------------------------------------------
      1         15           0        0.089319    0.373143   -0.006238
      2          8           0       -1.213177   -0.490136    0.016464
      3          1           0        0.083432    1.205280    1.105526
      4          8           0        1.298243   -0.510258   -0.006581
      5          1           0       -0.052119    1.203037   -1.047319
      6          1           0       -2.051630   -0.002317   -0.043706
 ---------------------------------------------------------------------
 Rotational constants (GHZ):          28.8378800           8.8233585           7.2079142
 Standard basis: def2TZVP (5D, 7F)
 There are   132 symmetry adapted cartesian basis functions of A   symmetry.
 There are   117 symmetry adapted basis functions of A   symmetry.
   117 basis functions,   195 primitive gaussians,   132 cartesian basis functions
    17 alpha electrons       17 beta electrons
       nuclear repulsion energy       125.2077507165 Hartrees.
 NAtoms=    6 NActive=    6 NUniq=    6 SFac= 1.00D+00 NAtFMM=   60 NAOKFM=F Big=F
 Integral buffers will be    131072 words long.
 Raffenetti 2 integral format.
 Two-electron integral symmetry is turned on.
 ------------------------------------------------------------------------------
 Polarizable Continuum Model (PCM)
 =================================
 Model                : C-PCM.
 Atomic radii         : UFF (Universal Force Field).
 Polarization charges : Total charges.
 Charge compensation  : None.
 Solution method      : On-the-fly selection.
 Cavity type          : Scaled VdW (van der Waals Surface) (Alpha=1.100).
 Cavity algorithm     : GePol (No added spheres)
                        Default sphere list used, NSphG=    6.
                        Lebedev-Laikov grids with approx.  5.0 points / Ang**2.
                        Smoothing algorithm: York/Karplus (Gamma=1.0000).
                        Polarization charges: spherical gaussians, with
                                              point-specific exponents (IZeta= 3).
                        Self-potential: point-specific (ISelfS= 7).
                        Self-field    : sphere-specific E.n sum rule (ISelfD= 2).
 Solvent              : Water, Eps=  78.355300 Eps(inf)=   1.777849
 ------------------------------------------------------------------------------
 Spheres list:
 ISph  on   Nord     Re0    Alpha      Xe            Ye            Ze
    1   P      1    2.0735  1.100      0.089319      0.373143     -0.006238
    2   O      2    1.7500  1.100     -1.213177     -0.490136      0.016464
    3   H      3    1.4430  1.100      0.083432      1.205280      1.105526
    4   O      4    1.7500  1.100      1.298243     -0.510258     -0.006581
    5   H      5    1.4430  1.100     -0.052119      1.203037     -1.047319
    6   H      6    1.4430  1.100     -2.051630     -0.002317     -0.043706
 ------------------------------------------------------------------------------
 One-electron integrals computed using PRISM.
   1 Symmetry operations used in ECPInt.
 ECPInt:  NShTT=    1128 NPrTT=    3744 LenC2=    1124 LenP2D=    3219.
 LDataN:  DoStor=T MaxTD1= 6 Len=  172
 NBasis=   117 RedAO= T EigKep=  2.09D-03  NBF=   117
 NBsUse=   117 1.00D-06 EigRej= -1.00D+00 NBFU=   117
 ExpMin= 9.04D-02 ExpMax= 5.24D+04 ExpMxC= 1.79D+03 IAcc=3 IRadAn=         5 AccDes= 0.00D+00
 Harris functional with IExCor= 2002 and IRadAn=       5 diagonalized for initial guess.
 HarFok:  IExCor= 2002 AccDes= 0.00D+00 IRadAn=         5 IDoV= 1 UseB2=F ITyADJ=14
 ICtDFT=  3500011 ScaDFX=  1.000000  1.000000  1.000000  1.000000
 FoFCou: FMM=F IPFlag=           0 FMFlag=      100000 FMFlg1=           0
         NFxFlg=           0 DoJE=T BraDBF=F KetDBF=T FulRan=T
         wScrn=  0.000000 ICntrl=       500 IOpCl=  0 I1Cent=   200000004 NGrid=           0
         NMat0=    1 NMatS0=      1 NMatT0=    0 NMatD0=    1 NMtDS0=    0 NMtDT0=    0
 Petite list used in FoFCou.
 Keep J ints in memory in canonical form, NReq=27663592.
 Requested convergence on RMS density matrix=1.00D-08 within 128 cycles.
 Requested convergence on MAX density matrix=1.00D-06.
 Requested convergence on             energy=1.00D-06.
 No special actions if energy rises.
 Inv3:  Mode=1 IEnd=     1705548.
 Iteration    1 A*A^-1 deviation from unit magnitude is 4.11D-15 for    741.
 Iteration    1 A*A^-1 deviation from orthogonality  is 9.63D-16 for    458    246.
 Iteration    1 A^-1*A deviation from unit magnitude is 4.11D-15 for    741.
 Iteration    1 A^-1*A deviation from orthogonality  is 8.13D-16 for    158     88.
 Error on total polarization charges =  0.00809
 SCF Done:  E(RO-LYP) =  -493.694243729     A.U. after   11 cycles
            NFock= 11  Conv=0.86D-08     -V/T= 2.0015

 **********************************************************************

            Population analysis using the SCF density.

 **********************************************************************

 Orbital symmetries:
       Occupied  (A) (A) (A) (A) (A) (A) (A) (A) (A) (A) (A) (A)
                 (A) (A) (A) (A) (A)
       Virtual   (A) (A) (A) (A) (A) (A) (A) (A) (A) (A) (A) (A)
                 (A) (A) (A) (A) (A) (A) (A) (A) (A) (A) (A) (A)
                 (A) (A) (A) (A) (A) (A) (A) (A) (A) (A) (A) (A)
                 (A) (A) (A) (A) (A) (A) (A) (A) (A) (A) (A) (A)
                 (A) (A) (A) (A) (A) (A) (A) (A) (A) (A) (A) (A)
                 (A) (A) (A) (A) (A) (A) (A) (A) (A) (A) (A) (A)
                 (A) (A) (A) (A) (A) (A) (A) (A) (A) (A) (A) (A)
                 (A) (A) (A) (A) (A) (A) (A) (A) (A) (A) (A) (A)
                 (A) (A) (A) (A)
 The electronic state is 1-A.
 Alpha  occ. eigenvalues --  -76.36711 -18.80503 -18.72170  -6.39874  -4.60931
 Alpha  occ. eigenvalues --   -4.60657  -4.60573  -0.99020  -0.87925  -0.58640
 Alpha  occ. eigenvalues --   -0.50197  -0.41915  -0.37077  -0.33206  -0.30399
 Alpha  occ. eigenvalues --   -0.26070  -0.24302
 Alpha virt. eigenvalues --   -0.00803   0.00848   0.03637   0.04852   0.08576
 Alpha virt. eigenvalues --    0.16961   0.20138   0.22396   0.27320   0.28151
 Alpha virt. eigenvalues --    0.29114   0.31005   0.35122   0.39769   0.43153
 Alpha virt. eigenvalues --    0.44762   0.46174   0.48175   0.52568   0.57680
 Alpha virt. eigenvalues --    0.59907   0.63407   0.64648   0.76174   0.77469
 Alpha virt. eigenvalues --    1.01703   1.06475   1.09934   1.10018   1.12100
 Alpha virt. eigenvalues --    1.17371   1.22836   1.25287   1.29415   1.33459
 Alpha virt. eigenvalues --    1.37653   1.39048   1.49955   1.51143   1.56035
 Alpha virt. eigenvalues --    1.57496   1.60044   1.74895   1.81138   1.84507
 Alpha virt. eigenvalues --    1.85289   1.86131   1.89248   1.98888   2.02970
 Alpha virt. eigenvalues --    2.06393   2.12701   2.15774   2.17645   2.21956
 Alpha virt. eigenvalues --    2.24785   2.38364   2.45038   2.46926   2.59104
 Alpha virt. eigenvalues --    2.66102   2.67363   2.75675   2.76826   2.79894
 Alpha virt. eigenvalues --    2.84322   2.86425   3.36374   3.63287   3.75465
 Alpha virt. eigenvalues --    4.96500   4.99454   5.02767   5.04915   5.07589
 Alpha virt. eigenvalues --    5.11148   5.16822   5.18980   5.23895   5.25834
 Alpha virt. eigenvalues --    5.27344   5.34466   5.45808   6.00501   6.17121
 Alpha virt. eigenvalues --    6.20722   6.25340   6.38405   6.42215   6.52413
 Alpha virt. eigenvalues --    6.56742   6.63326   6.73754   6.86681   7.20134
 Alpha virt. eigenvalues --    7.51666   7.88761  15.91978  43.06367  43.16494
          Condensed to atoms (all electrons):
               1          2          3          4          5          6
     1  P   12.580758   0.385910   0.365214   0.728885   0.359945  -0.000216
     2  O    0.385910   7.876868  -0.034901  -0.054524  -0.037288   0.275376
     3  H    0.365214  -0.034901   0.746151  -0.043779  -0.061627   0.000699
     4  O    0.728885  -0.054524  -0.043779   7.989723  -0.037998   0.003267
     5  H    0.359945  -0.037288  -0.061627  -0.037998   0.737346  -0.000097
     6  H   -0.000216   0.275376   0.000699   0.003267  -0.000097   0.371421
 Mulliken charges:
               1
     1  P    0.579503
     2  O   -0.411441
     3  H    0.028243
     4  O   -0.585573
     5  H    0.039718
     6  H    0.349550
 Sum of Mulliken charges =  -0.00000
 Mulliken charges with hydrogens summed into heavy atoms:
               1
     1  P    0.647464
     2  O   -0.061891
     4  O   -0.585573
 Electronic spatial extent (au):  <R**2>=            200.3960
 Charge=              0.0000 electrons
 Dipole moment (field-independent basis, Debye):
    X=             -4.9013    Y=              3.9120    Z=             -0.2171  Tot=              6.2749
 Quadrupole moment (field-independent basis, Debye-Ang):
   XX=            -24.1632   YY=            -24.9423   ZZ=            -23.9168
   XY=              0.5272   XZ=              0.3278   YZ=             -0.1257
 Traceless Quadrupole moment (field-independent basis, Debye-Ang):
   XX=              0.1776   YY=             -0.6016   ZZ=              0.4240
   XY=              0.5272   XZ=              0.3278   YZ=             -0.1257
 Octapole moment (field-independent basis, Debye-Ang**2):
  XXX=            -25.2615  YYY=              1.2705  ZZZ=             -0.3376  XYY=             -1.2230
  XXY=              4.8449  XXZ=             -0.5598  XZZ=             -1.1624  YZZ=              0.3286
  YYZ=             -0.1911  XYZ=             -0.0367
 Hexadecapole moment (field-independent basis, Debye-Ang**3):
 XXXX=           -119.3712 YYYY=            -65.4430 ZZZZ=            -35.7206 XXXY=              1.2544
 XXXZ=              1.1649 YYYX=              0.9931 YYYZ=             -0.4775 ZZZX=              0.1729
 ZZZY=             -0.3168 XXYY=            -37.0657 XXZZ=            -31.0567 YYZZ=            -16.8110
 XXYZ=             -0.1242 YYXZ=              0.1082 ZZXY=              0.3080
 N-N= 1.252077507165D+02 E-N=-1.423253924085D+03  KE= 4.929369274592D+02
 1\1\GINC-NODE85\SP\ROLYP\def2TZVP\H3O2P1\YANZ\22-Sep-2023\0\\# scrf=(c
 pcm,solvent=water) def2tzvp olyp\\tmpdir/M2_ref_30.gjf\\0,1\P,0,3.1783
 57,-1.70913,3.46554\O,0,3.625404,-1.290275,4.903236\H,0,1.80314218,-1.
 90210676,3.47260326\O,0,3.565538,-0.656436,2.473662\H,0,3.68796593,-2.
 93277725,3.27695348\H,0,3.470387,-1.942269,5.607129\\Version=ES64L-G16
 RevA.03\State=1-A\HF=-493.6942437\RMSD=8.643e-09\Dipole=-0.6058633,-1.
 8295074,1.5428731\Quadrupole=0.0837112,-0.2833031,0.1995919,-0.4550344
 ,0.3013503,0.1370284\PG=C01 [X(H3O2P1)]\\@


 IF THE FACTS DO NOT CONFORM TO THE THEORY, THEY MUST BE DISPOSED OF.
 Job cpu time:       0 days  0 hours  0 minutes 42.9 seconds.
 Elapsed time:       0 days  0 hours  0 minutes 11.4 seconds.
 File lengths (MBytes):  RWF=     16 Int=      0 D2E=      0 Chk=      2 Scr=      1
 Normal termination of Gaussian 16 at Fri Sep 22 16:52:31 2023.
