 Entering Gaussian System, Link 0=g16
 Initial command:
 /share/apps/gaussian/g16/l1.exe "/tmp/55608.mgr/Gau-85709.inp" -scrdir="/tmp/55608.mgr/"
 Entering Link 1 = /share/apps/gaussian/g16/l1.exe PID=     85715.
  
 Copyright (c) 1988,1990,1992,1993,1995,1998,2003,2009,2016,
            Gaussian, Inc.  All Rights Reserved.
  
 This is part of the Gaussian(R) 16 program.  It is based on
 the Gaussian(R) 09 system (copyright 2009, Gaussian, Inc.),
 the Gaussian(R) 03 system (copyright 2003, Gaussian, Inc.),
 the Gaussian(R) 98 system (copyright 1998, Gaussian, Inc.),
 the Gaussian(R) 94 system (copyright 1995, Gaussian, Inc.),
 the Gaussian 92(TM) system (copyright 1992, Gaussian, Inc.),
 the Gaussian 90(TM) system (copyright 1990, Gaussian, Inc.),
 the Gaussian 88(TM) system (copyright 1988, Gaussian, Inc.),
 the Gaussian 86(TM) system (copyright 1986, Carnegie Mellon
 University), and the Gaussian 82(TM) system (copyright 1983,
 Carnegie Mellon University). Gaussian is a federally registered
 trademark of Gaussian, Inc.
  
 This software contains proprietary and confidential information,
 including trade secrets, belonging to Gaussian, Inc.
  
 This software is provided under written license and may be
 used, copied, transmitted, or stored only in accord with that
 written license.
  
 The following legend is applicable only to US Government
 contracts under FAR:
  
                    RESTRICTED RIGHTS LEGEND
  
 Use, reproduction and disclosure by the US Government is
 subject to restrictions as set forth in subparagraphs (a)
 and (c) of the Commercial Computer Software - Restricted
 Rights clause in FAR 52.227-19.
  
 Gaussian, Inc.
 340 Quinnipiac St., Bldg. 40, Wallingford CT 06492
  
  
 ---------------------------------------------------------------
 Warning -- This program may not be used in any manner that
 competes with the business of Gaussian, Inc. or will provide
 assistance to any competitor of Gaussian, Inc.  The licensee
 of this program is prohibited from giving any competitor of
 Gaussian, Inc. access to this program.  By using this program,
 the user acknowledges that Gaussian, Inc. is engaged in the
 business of creating and licensing software in the field of
 computational chemistry and represents and warrants to the
 licensee that it is not a competitor of Gaussian, Inc. and that
 it will not use this program in any manner prohibited above.
 ---------------------------------------------------------------
  

 Cite this work as:
 Gaussian 16, Revision A.03,
 M. J. Frisch, G. W. Trucks, H. B. Schlegel, G. E. Scuseria, 
 M. A. Robb, J. R. Cheeseman, G. Scalmani, V. Barone, 
 G. A. Petersson, H. Nakatsuji, X. Li, M. Caricato, A. V. Marenich, 
 J. Bloino, B. G. Janesko, R. Gomperts, B. Mennucci, H. P. Hratchian, 
 J. V. Ortiz, A. F. Izmaylov, J. L. Sonnenberg, D. Williams-Young, 
 F. Ding, F. Lipparini, F. Egidi, J. Goings, B. Peng, A. Petrone, 
 T. Henderson, D. Ranasinghe, V. G. Zakrzewski, J. Gao, N. Rega, 
 G. Zheng, W. Liang, M. Hada, M. Ehara, K. Toyota, R. Fukuda, 
 J. Hasegawa, M. Ishida, T. Nakajima, Y. Honda, O. Kitao, H. Nakai, 
 T. Vreven, K. Throssell, J. A. Montgomery, Jr., J. E. Peralta, 
 F. Ogliaro, M. J. Bearpark, J. J. Heyd, E. N. Brothers, K. N. Kudin, 
 V. N. Staroverov, T. A. Keith, R. Kobayashi, J. Normand, 
 K. Raghavachari, A. P. Rendell, J. C. Burant, S. S. Iyengar, 
 J. Tomasi, M. Cossi, J. M. Millam, M. Klene, C. Adamo, R. Cammi, 
 J. W. Ochterski, R. L. Martin, K. Morokuma, O. Farkas, 
 J. B. Foresman, and D. J. Fox, Gaussian, Inc., Wallingford CT, 2016.
 
 ******************************************
 Gaussian 16:  ES64L-G16RevA.03 25-Dec-2016
                22-Sep-2023 
 ******************************************
 %nprocshared=4
 Will use up to    4 processors via shared memory.
 %mem=4GB
 -----------------------------------------
 # scrf=(cpcm,solvent=water) def2tzvp olyp
 -----------------------------------------
 1/38=1,172=1/1;
 2/12=2,17=6,18=5,40=1/2;
 3/5=44,7=101,11=2,25=1,30=1,70=2101,72=1,74=2002/1,2,3;
 4//1;
 5/5=2,38=5,53=1/2;
 6/7=2,8=2,9=2,10=2,28=1/1;
 99/5=1,9=1/99;
 -------------------
 tmpdir/M2_ref_0.gjf
 -------------------
 Symbolic Z-matrix:
 Charge =  1 Multiplicity = 1
 Mg                    2.43572   0.84584   1.83522 
 O                     1.27644   0.29201   0.38032 
 H                     0.48736   0.00888   0.41126 
 
                          Input orientation:                          
 ---------------------------------------------------------------------
 Center     Atomic      Atomic             Coordinates (Angstroms)
 Number     Number       Type             X           Y           Z
 ---------------------------------------------------------------------
      1         12           0        2.435720    0.845840    1.835215
      2          8           0        1.276440    0.292011    0.380324
      3          1           0        0.487358    0.008882    0.411264
 ---------------------------------------------------------------------
                    Distance matrix (angstroms):
                    1          2          3
     1  Mg   0.000000
     2  O    1.940970   0.000000
     3  H    2.554261   0.838910   0.000000
 Stoichiometry    HMgO(1+)
 Framework group  CS[SG(HMgO)]
 Deg. of freedom     3
 Full point group                 CS      NOp   2
 Largest Abelian subgroup         CS      NOp   2
 Largest concise Abelian subgroup C1      NOp   1
                         Standard orientation:                         
 ---------------------------------------------------------------------
 Center     Atomic      Atomic             Coordinates (Angstroms)
 Number     Number       Type             X           Y           Z
 ---------------------------------------------------------------------
      1         12           0        0.031009   -0.857029    0.000000
      2          8           0        0.031009    1.083941   -0.000000
      3          1           0       -0.620180    1.612830   -0.000000
 ---------------------------------------------------------------------
 Rotational constants (GHZ):        1307.9084986          12.9584409          12.8313114
 Standard basis: def2TZVP (5D, 7F)
 There are    55 symmetry adapted cartesian basis functions of A'  symmetry.
 There are    22 symmetry adapted cartesian basis functions of A"  symmetry.
 There are    48 symmetry adapted basis functions of A'  symmetry.
 There are    21 symmetry adapted basis functions of A"  symmetry.
    69 basis functions,   115 primitive gaussians,    77 cartesian basis functions
    10 alpha electrons       10 beta electrons
       nuclear repulsion energy        33.7054233235 Hartrees.
 NAtoms=    3 NActive=    3 NUniq=    3 SFac= 1.00D+00 NAtFMM=   60 NAOKFM=F Big=F
 Integral buffers will be    131072 words long.
 Raffenetti 2 integral format.
 Two-electron integral symmetry is turned on.
 ------------------------------------------------------------------------------
 Polarizable Continuum Model (PCM)
 =================================
 Model                : C-PCM.
 Atomic radii         : UFF (Universal Force Field).
 Polarization charges : Total charges.
 Charge compensation  : None.
 Solution method      : On-the-fly selection.
 Cavity type          : Scaled VdW (van der Waals Surface) (Alpha=1.100).
 Cavity algorithm     : GePol (No added spheres)
                        Default sphere list used, NSphG=    3.
                        Lebedev-Laikov grids with approx.  5.0 points / Ang**2.
                        Smoothing algorithm: York/Karplus (Gamma=1.0000).
                        Polarization charges: spherical gaussians, with
                                              point-specific exponents (IZeta= 3).
                        Self-potential: point-specific (ISelfS= 7).
                        Self-field    : sphere-specific E.n sum rule (ISelfD= 2).
 Solvent              : Water, Eps=  78.355300 Eps(inf)=   1.777849
 ------------------------------------------------------------------------------
 Spheres list:
 ISph  on   Nord     Re0    Alpha      Xe            Ye            Ze
    1  Mg      1    1.5105  1.100      0.031009     -0.857029      0.000000
    2   O      2    1.7500  1.100      0.031009      1.083941     -0.000000
    3   H      3    1.4430  1.100     -0.620180      1.612830     -0.000000
 ------------------------------------------------------------------------------
 One-electron integrals computed using PRISM.
   2 Symmetry operations used in ECPInt.
 ECPInt:  NShTT=     378 NPrTT=    1386 LenC2=     378 LenP2D=    1230.
 LDataN:  DoStor=T MaxTD1= 6 Len=  172
 NBasis=    69 RedAO= T EigKep=  6.12D-03  NBF=    48    21
 NBsUse=    69 1.00D-06 EigRej= -1.00D+00 NBFU=    48    21
 ExpMin= 3.69D-02 ExpMax= 3.14D+04 ExpMxC= 1.07D+03 IAcc=3 IRadAn=         5 AccDes= 0.00D+00
 Harris functional with IExCor= 2002 and IRadAn=       5 diagonalized for initial guess.
 HarFok:  IExCor= 2002 AccDes= 0.00D+00 IRadAn=         5 IDoV= 1 UseB2=F ITyADJ=14
 ICtDFT=  3500011 ScaDFX=  1.000000  1.000000  1.000000  1.000000
 FoFCou: FMM=F IPFlag=           0 FMFlag=      100000 FMFlg1=           0
         NFxFlg=           0 DoJE=T BraDBF=F KetDBF=T FulRan=T
         wScrn=  0.000000 ICntrl=       500 IOpCl=  0 I1Cent=   200000004 NGrid=           0
         NMat0=    1 NMatS0=      1 NMatT0=    0 NMatD0=    1 NMtDS0=    0 NMtDT0=    0
 Petite list used in FoFCou.
 Initial guess orbital symmetries:
       Occupied  (A') (A') (A') (A') (A') (A") (A') (A') (A') (A")
       Virtual   (A') (A') (A") (A') (A') (A') (A") (A') (A') (A")
                 (A') (A') (A") (A') (A') (A") (A') (A') (A") (A")
                 (A') (A') (A') (A') (A") (A') (A") (A') (A') (A")
                 (A') (A') (A') (A") (A') (A") (A') (A') (A') (A')
                 (A') (A") (A') (A") (A') (A") (A') (A") (A') (A")
                 (A') (A') (A") (A') (A") (A') (A') (A') (A')
 The electronic state of the initial guess is 1-A'.
 Keep J ints in memory in symmetry-blocked form, NReq=6525087.
 Requested convergence on RMS density matrix=1.00D-08 within 128 cycles.
 Requested convergence on MAX density matrix=1.00D-06.
 Requested convergence on             energy=1.00D-06.
 No special actions if energy rises.
 Inv3:  Mode=1 IEnd=      588747.
 Iteration    1 A*A^-1 deviation from unit magnitude is 4.44D-15 for    442.
 Iteration    1 A*A^-1 deviation from orthogonality  is 1.21D-15 for    442    326.
 Iteration    1 A^-1*A deviation from unit magnitude is 4.44D-15 for    442.
 Iteration    1 A^-1*A deviation from orthogonality  is 8.37D-16 for    442    326.
 Error on total polarization charges =  0.01295
 SCF Done:  E(RO-LYP) =  -275.856472877     A.U. after   10 cycles
            NFock= 10  Conv=0.43D-08     -V/T= 2.0038

 **********************************************************************

            Population analysis using the SCF density.

 **********************************************************************

 Orbital symmetries:
       Occupied  (A') (A') (A') (A') (A") (A') (A') (A') (A') (A")
       Virtual   (A') (A') (A") (A') (A') (A') (A") (A') (A') (A")
                 (A') (A') (A") (A') (A') (A') (A") (A") (A') (A")
                 (A') (A') (A') (A') (A") (A') (A") (A') (A") (A')
                 (A') (A') (A') (A") (A') (A") (A') (A') (A') (A')
                 (A') (A") (A') (A") (A') (A") (A') (A") (A') (A")
                 (A') (A") (A') (A') (A") (A') (A') (A') (A')
 The electronic state is 1-A'.
 Alpha  occ. eigenvalues --  -46.27320 -18.67926  -2.98641  -1.76944  -1.76913
 Alpha  occ. eigenvalues --   -1.76531  -0.85382  -0.37717  -0.22623  -0.21139
 Alpha virt. eigenvalues --   -0.08303   0.02178   0.02577   0.03041   0.10383
 Alpha virt. eigenvalues --    0.11678   0.14607   0.14658   0.16240   0.16245
 Alpha virt. eigenvalues --    0.21154   0.27881   0.27923   0.35476   0.46152
 Alpha virt. eigenvalues --    0.54968   0.55260   0.59223   0.59599   0.60966
 Alpha virt. eigenvalues --    0.60998   0.70845   0.72856   0.75784   1.29943
 Alpha virt. eigenvalues --    1.40785   1.53166   1.55282   1.75322   1.75421
 Alpha virt. eigenvalues --    1.76880   1.79673   2.13006   2.17600   2.28959
 Alpha virt. eigenvalues --    2.63816   2.66362   2.86682   2.94035   3.88295
 Alpha virt. eigenvalues --    4.36746   5.03618   5.04474   5.07257   5.07445
 Alpha virt. eigenvalues --    5.45042   5.49168   6.15213   6.17625   6.23317
 Alpha virt. eigenvalues --    6.23958   6.25313   6.27105   6.32020   6.34665
 Alpha virt. eigenvalues --    6.42591   6.52707   7.19252  42.97236
          Condensed to atoms (all electrons):
               1          2          3
     1  Mg  10.150733   0.301448  -0.035789
     2  O    0.301448   8.231095   0.309478
     3  H   -0.035789   0.309478   0.467897
 Mulliken charges:
               1
     1  Mg   1.583607
     2  O   -0.842021
     3  H    0.258414
 Sum of Mulliken charges =   1.00000
 Mulliken charges with hydrogens summed into heavy atoms:
               1
     1  Mg   1.583607
     2  O   -0.583607
 Electronic spatial extent (au):  <R**2>=             94.2501
 Charge=              1.0000 electrons
 Dipole moment (field-independent basis, Debye):
    X=             -0.8912    Y=            -10.4059    Z=              0.0000  Tot=             10.4440
 Quadrupole moment (field-independent basis, Debye-Ang):
   XX=             -9.8920   YY=             -3.6647   ZZ=            -11.2963
   XY=             -2.8204   XZ=              0.0000   YZ=             -0.0000
 Traceless Quadrupole moment (field-independent basis, Debye-Ang):
   XX=             -1.6077   YY=              4.6197   ZZ=             -3.0120
   XY=             -2.8204   XZ=              0.0000   YZ=             -0.0000
 Octapole moment (field-independent basis, Debye-Ang**2):
  XXX=             -0.3406  YYY=            -21.6656  ZZZ=              0.0000  XYY=             -3.8828
  XXY=             -5.0608  XXZ=              0.0000  XZZ=              0.0095  YZZ=             -6.6968
  YYZ=              0.0000  XYZ=              0.0000
 Hexadecapole moment (field-independent basis, Debye-Ang**3):
 XXXX=            -10.7544 YYYY=            -58.9752 ZZZZ=            -12.1476 XXXY=             -0.9939
 XXXZ=              0.0000 YYYX=             -6.6909 YYYZ=              0.0000 ZZZX=              0.0000
 ZZZY=              0.0000 XXYY=            -11.8793 XXZZ=             -3.8735 YYZZ=            -14.3439
 XXYZ=              0.0000 YYXZ=              0.0000 ZZXY=             -0.1074
 N-N= 3.370542332351D+01 E-N=-7.203887635311D+02  KE= 2.748075230436D+02
 Symmetry A'   KE= 2.550666442870D+02
 Symmetry A"   KE= 1.974087875666D+01
 1\1\GINC-NODE85\SP\ROLYP\def2TZVP\H1Mg1O1(1+)\YANZ\22-Sep-2023\0\\# sc
 rf=(cpcm,solvent=water) def2tzvp olyp\\tmpdir/M2_ref_0.gjf\\1,1\Mg,0,2
 .43572,0.84584,1.835215\O,0,1.27644,0.292011,0.380324\H,0,0.48735765,0
 .00888182,0.41126399\\Version=ES64L-G16RevA.03\State=1-A'\HF=-275.8564
 729\RMSD=4.278e-09\Dipole=2.1904237,1.0969717,3.2988449\Quadrupole=2.1
 561885,-1.4913648,-0.6648237,1.810074,2.3624433,1.0008603\PG=CS [SG(H1
 Mg1O1)]\\@


 THEORY:  SUPPOSITION WHICH HAS SCIENTIFIC BASIS,
          BUT NOT EXPERIMENTALLY PROVEN.
 FACT:    A THEORY WHICH HAS BEEN PROVEN BY ENOUGH 
          MONEY TO PAY FOR THE EXPERIMENTS.

                          --  THE WIZARD OF ID
 Job cpu time:       0 days  0 hours  0 minutes 12.1 seconds.
 Elapsed time:       0 days  0 hours  0 minutes  3.2 seconds.
 File lengths (MBytes):  RWF=     10 Int=      0 D2E=      0 Chk=      2 Scr=      1
 Normal termination of Gaussian 16 at Fri Sep 22 16:51:34 2023.
