 Entering Gaussian System, Link 0=g16
 Initial command:
 /share/apps/gaussian/g16/l1.exe "/tmp/55608.mgr/Gau-87375.inp" -scrdir="/tmp/55608.mgr/"
 Entering Link 1 = /share/apps/gaussian/g16/l1.exe PID=     87376.
  
 Copyright (c) 1988,1990,1992,1993,1995,1998,2003,2009,2016,
            Gaussian, Inc.  All Rights Reserved.
  
 This is part of the Gaussian(R) 16 program.  It is based on
 the Gaussian(R) 09 system (copyright 2009, Gaussian, Inc.),
 the Gaussian(R) 03 system (copyright 2003, Gaussian, Inc.),
 the Gaussian(R) 98 system (copyright 1998, Gaussian, Inc.),
 the Gaussian(R) 94 system (copyright 1995, Gaussian, Inc.),
 the Gaussian 92(TM) system (copyright 1992, Gaussian, Inc.),
 the Gaussian 90(TM) system (copyright 1990, Gaussian, Inc.),
 the Gaussian 88(TM) system (copyright 1988, Gaussian, Inc.),
 the Gaussian 86(TM) system (copyright 1986, Carnegie Mellon
 University), and the Gaussian 82(TM) system (copyright 1983,
 Carnegie Mellon University). Gaussian is a federally registered
 trademark of Gaussian, Inc.
  
 This software contains proprietary and confidential information,
 including trade secrets, belonging to Gaussian, Inc.
  
 This software is provided under written license and may be
 used, copied, transmitted, or stored only in accord with that
 written license.
  
 The following legend is applicable only to US Government
 contracts under FAR:
  
                    RESTRICTED RIGHTS LEGEND
  
 Use, reproduction and disclosure by the US Government is
 subject to restrictions as set forth in subparagraphs (a)
 and (c) of the Commercial Computer Software - Restricted
 Rights clause in FAR 52.227-19.
  
 Gaussian, Inc.
 340 Quinnipiac St., Bldg. 40, Wallingford CT 06492
  
  
 ---------------------------------------------------------------
 Warning -- This program may not be used in any manner that
 competes with the business of Gaussian, Inc. or will provide
 assistance to any competitor of Gaussian, Inc.  The licensee
 of this program is prohibited from giving any competitor of
 Gaussian, Inc. access to this program.  By using this program,
 the user acknowledges that Gaussian, Inc. is engaged in the
 business of creating and licensing software in the field of
 computational chemistry and represents and warrants to the
 licensee that it is not a competitor of Gaussian, Inc. and that
 it will not use this program in any manner prohibited above.
 ---------------------------------------------------------------
  

 Cite this work as:
 Gaussian 16, Revision A.03,
 M. J. Frisch, G. W. Trucks, H. B. Schlegel, G. E. Scuseria, 
 M. A. Robb, J. R. Cheeseman, G. Scalmani, V. Barone, 
 G. A. Petersson, H. Nakatsuji, X. Li, M. Caricato, A. V. Marenich, 
 J. Bloino, B. G. Janesko, R. Gomperts, B. Mennucci, H. P. Hratchian, 
 J. V. Ortiz, A. F. Izmaylov, J. L. Sonnenberg, D. Williams-Young, 
 F. Ding, F. Lipparini, F. Egidi, J. Goings, B. Peng, A. Petrone, 
 T. Henderson, D. Ranasinghe, V. G. Zakrzewski, J. Gao, N. Rega, 
 G. Zheng, W. Liang, M. Hada, M. Ehara, K. Toyota, R. Fukuda, 
 J. Hasegawa, M. Ishida, T. Nakajima, Y. Honda, O. Kitao, H. Nakai, 
 T. Vreven, K. Throssell, J. A. Montgomery, Jr., J. E. Peralta, 
 F. Ogliaro, M. J. Bearpark, J. J. Heyd, E. N. Brothers, K. N. Kudin, 
 V. N. Staroverov, T. A. Keith, R. Kobayashi, J. Normand, 
 K. Raghavachari, A. P. Rendell, J. C. Burant, S. S. Iyengar, 
 J. Tomasi, M. Cossi, J. M. Millam, M. Klene, C. Adamo, R. Cammi, 
 J. W. Ochterski, R. L. Martin, K. Morokuma, O. Farkas, 
 J. B. Foresman, and D. J. Fox, Gaussian, Inc., Wallingford CT, 2016.
 
 ******************************************
 Gaussian 16:  ES64L-G16RevA.03 25-Dec-2016
                22-Sep-2023 
 ******************************************
 %nprocshared=4
 Will use up to    4 processors via shared memory.
 %mem=4GB
 -----------------------------------------
 # scrf=(cpcm,solvent=water) def2tzvp olyp
 -----------------------------------------
 1/38=1,172=1/1;
 2/12=2,17=6,18=5,40=1/2;
 3/5=44,7=101,11=2,25=1,30=1,70=2101,72=1,74=2002/1,2,3;
 4//1;
 5/5=2,38=5,53=1/2;
 6/7=2,8=2,9=2,10=2,28=1/1;
 99/5=1,9=1/99;
 --------------------
 tmpdir/M2_ref_52.gjf
 --------------------
 Symbolic Z-matrix:
 Charge =  0 Multiplicity = 1
 C                    -1.54879   0.91579   31.48338 
 H                    -1.08678   0.76178   32.49083 
 H                    -2.64152   1.02952   31.69584 
 H                    -1.30258   0.10852   30.72879 
 H                    -1.21854   1.94215   31.18361 
 
                          Input orientation:                          
 ---------------------------------------------------------------------
 Center     Atomic      Atomic             Coordinates (Angstroms)
 Number     Number       Type             X           Y           Z
 ---------------------------------------------------------------------
      1          6           0       -1.548792    0.915792   31.483380
      2          1           0       -1.086781    0.761780   32.490826
      3          1           0       -2.641517    1.029520   31.695842
      4          1           0       -1.302580    0.108519   30.728788
      5          1           0       -1.218536    1.942152   31.183615
 ---------------------------------------------------------------------
                    Distance matrix (angstroms):
                    1          2          3          4          5
     1  C    0.000000
     2  H    1.118982   0.000000
     3  H    1.118983   1.766604   0.000000
     4  H    1.132130   1.891585   1.891081   0.000000
     5  H    1.119081   1.766193   1.766394   1.891068   0.000000
 Stoichiometry    CH4
 Framework group  C1[X(CH4)]
 Deg. of freedom     9
 Full point group                 C1      NOp   1
 Largest Abelian subgroup         C1      NOp   1
 Largest concise Abelian subgroup C1      NOp   1
                         Standard orientation:                         
 ---------------------------------------------------------------------
 Center     Atomic      Atomic             Coordinates (Angstroms)
 Number     Number       Type             X           Y           Z
 ---------------------------------------------------------------------
      1          6           0        0.024964   -0.000053   -0.000130
      2          1           0       -0.437721   -0.724265   -0.716762
      3          1           0       -0.434141    0.984503   -0.268447
      4          1           0        1.157092   -0.001679   -0.000847
      5          1           0       -0.435012   -0.258240    0.986838
 ---------------------------------------------------------------------
 Rotational constants (GHZ):         160.7146882         144.3497541         144.3150015
 Standard basis: def2TZVP (5D, 7F)
 There are    60 symmetry adapted cartesian basis functions of A   symmetry.
 There are    55 symmetry adapted basis functions of A   symmetry.
    55 basis functions,    83 primitive gaussians,    60 cartesian basis functions
     5 alpha electrons        5 beta electrons
       nuclear repulsion energy        13.0547723742 Hartrees.
 NAtoms=    5 NActive=    5 NUniq=    5 SFac= 1.00D+00 NAtFMM=   60 NAOKFM=F Big=F
 Integral buffers will be    131072 words long.
 Raffenetti 2 integral format.
 Two-electron integral symmetry is turned on.
 ------------------------------------------------------------------------------
 Polarizable Continuum Model (PCM)
 =================================
 Model                : C-PCM.
 Atomic radii         : UFF (Universal Force Field).
 Polarization charges : Total charges.
 Charge compensation  : None.
 Solution method      : On-the-fly selection.
 Cavity type          : Scaled VdW (van der Waals Surface) (Alpha=1.100).
 Cavity algorithm     : GePol (No added spheres)
                        Default sphere list used, NSphG=    5.
                        Lebedev-Laikov grids with approx.  5.0 points / Ang**2.
                        Smoothing algorithm: York/Karplus (Gamma=1.0000).
                        Polarization charges: spherical gaussians, with
                                              point-specific exponents (IZeta= 3).
                        Self-potential: point-specific (ISelfS= 7).
                        Self-field    : sphere-specific E.n sum rule (ISelfD= 2).
 Solvent              : Water, Eps=  78.355300 Eps(inf)=   1.777849
 ------------------------------------------------------------------------------
 Spheres list:
 ISph  on   Nord     Re0    Alpha      Xe            Ye            Ze
    1   C      1    1.9255  1.100      0.024964     -0.000053     -0.000130
    2   H      2    1.4430  1.100     -0.437721     -0.724265     -0.716762
    3   H      3    1.4430  1.100     -0.434141      0.984503     -0.268447
    4   H      4    1.4430  1.100      1.157092     -0.001679     -0.000847
    5   H      5    1.4430  1.100     -0.435012     -0.258240      0.986838
 ------------------------------------------------------------------------------
 One-electron integrals computed using PRISM.
   1 Symmetry operations used in ECPInt.
 ECPInt:  NShTT=     378 NPrTT=    1024 LenC2=     379 LenP2D=     988.
 LDataN:  DoStor=T MaxTD1= 6 Len=  172
 NBasis=    55 RedAO= T EigKep=  1.65D-03  NBF=    55
 NBsUse=    55 1.00D-06 EigRej= -1.00D+00 NBFU=    55
 ExpMin= 9.52D-02 ExpMax= 1.36D+04 ExpMxC= 4.63D+02 IAcc=3 IRadAn=         5 AccDes= 0.00D+00
 Harris functional with IExCor= 2002 and IRadAn=       5 diagonalized for initial guess.
 HarFok:  IExCor= 2002 AccDes= 0.00D+00 IRadAn=         5 IDoV= 1 UseB2=F ITyADJ=14
 ICtDFT=  3500011 ScaDFX=  1.000000  1.000000  1.000000  1.000000
 FoFCou: FMM=F IPFlag=           0 FMFlag=      100000 FMFlg1=           0
         NFxFlg=           0 DoJE=T BraDBF=F KetDBF=T FulRan=T
         wScrn=  0.000000 ICntrl=       500 IOpCl=  0 I1Cent=   200000004 NGrid=           0
         NMat0=    1 NMatS0=      1 NMatT0=    0 NMatD0=    1 NMtDS0=    0 NMtDT0=    0
 Petite list used in FoFCou.
 Keep J ints in memory in canonical form, NReq=4722199.
 Requested convergence on RMS density matrix=1.00D-08 within 128 cycles.
 Requested convergence on MAX density matrix=1.00D-06.
 Requested convergence on             energy=1.00D-06.
 No special actions if energy rises.
 Inv3:  Mode=1 IEnd=      732108.
 Iteration    1 A*A^-1 deviation from unit magnitude is 3.77D-15 for    111.
 Iteration    1 A*A^-1 deviation from orthogonality  is 1.73D-15 for    360    114.
 Iteration    1 A^-1*A deviation from unit magnitude is 3.55D-15 for    111.
 Iteration    1 A^-1*A deviation from orthogonality  is 2.22D-15 for    358    239.
 Error on total polarization charges =  0.00946
 SCF Done:  E(RO-LYP) =  -40.5053309461     A.U. after    8 cycles
            NFock=  8  Conv=0.40D-08     -V/T= 2.0080

 **********************************************************************

            Population analysis using the SCF density.

 **********************************************************************

 Orbital symmetries:
       Occupied  (A) (A) (A) (A) (A)
       Virtual   (A) (A) (A) (A) (A) (A) (A) (A) (A) (A) (A) (A)
                 (A) (A) (A) (A) (A) (A) (A) (A) (A) (A) (A) (A)
                 (A) (A) (A) (A) (A) (A) (A) (A) (A) (A) (A) (A)
                 (A) (A) (A) (A) (A) (A) (A) (A) (A) (A) (A) (A)
                 (A) (A)
 The electronic state is 1-A.
 Alpha  occ. eigenvalues --   -9.89206  -0.61816  -0.35169  -0.33106  -0.33098
 Alpha virt. eigenvalues --    0.02241   0.09462   0.09603   0.09605   0.17852
 Alpha virt. eigenvalues --    0.17853   0.18197   0.36739   0.41115   0.41123
 Alpha virt. eigenvalues --    0.41672   0.47076   0.55916   0.55921   0.88231
 Alpha virt. eigenvalues --    0.89867   0.89873   1.41189   1.41194   1.44744
 Alpha virt. eigenvalues --    1.45572   1.45585   1.47881   1.48187   1.88884
 Alpha virt. eigenvalues --    1.88913   1.90224   1.99655   2.12769   2.12818
 Alpha virt. eigenvalues --    2.14796   2.35713   2.35751   2.46972   2.47000
 Alpha virt. eigenvalues --    2.49462   2.87887   2.87889   2.89773   3.15906
 Alpha virt. eigenvalues --    3.27797   3.27856   3.31972   3.42947   3.42972
 Alpha virt. eigenvalues --    3.93874   4.08633   4.08667   4.32010  21.81450
          Condensed to atoms (all electrons):
               1          2          3          4          5
     1  C    4.917162   0.395530   0.395533   0.394718   0.395498
     2  H    0.395530   0.553607  -0.026630  -0.018845  -0.026669
     3  H    0.395533  -0.026630   0.553626  -0.018886  -0.026645
     4  H    0.394718  -0.018845  -0.018886   0.532434  -0.018879
     5  H    0.395498  -0.026669  -0.026645  -0.018879   0.553720
 Mulliken charges:
               1
     1  C   -0.498441
     2  H    0.123007
     3  H    0.123001
     4  H    0.129458
     5  H    0.122975
 Sum of Mulliken charges =  -0.00000
 Mulliken charges with hydrogens summed into heavy atoms:
               1
     1  C   -0.000000
 Electronic spatial extent (au):  <R**2>=             36.9762
 Charge=             -0.0000 electrons
 Dipole moment (field-independent basis, Debye):
    X=             -0.0945    Y=              0.0002    Z=              0.0004  Tot=              0.0945
 Quadrupole moment (field-independent basis, Debye-Ang):
   XX=             -8.1202   YY=             -8.7211   ZZ=             -8.7228
   XY=             -0.0001   XZ=              0.0002   YZ=              0.0001
 Traceless Quadrupole moment (field-independent basis, Debye-Ang):
   XX=              0.4012   YY=             -0.1997   ZZ=             -0.2015
   XY=             -0.0001   XZ=              0.0002   YZ=              0.0001
 Octapole moment (field-independent basis, Debye-Ang**2):
  XXX=              0.9599  YYY=              0.3785  ZZZ=              0.3891  XYY=             -0.5883
  XXY=             -0.0034  XXZ=             -0.0017  XZZ=             -0.5881  YZZ=             -0.3744
  YYZ=             -0.3866  XYZ=             -0.0013
 Hexadecapole moment (field-independent basis, Debye-Ang**3):
 XXXX=            -17.0273 YYYY=            -17.2130 ZZZZ=            -17.2149 XXXY=             -0.0014
 XXXZ=             -0.0000 YYYX=             -0.3027 YYYZ=             -0.0008 ZZZX=             -0.3123
 ZZZY=             -0.0005 XXYY=             -5.9693 XXZZ=             -5.9687 YYZZ=             -5.7403
 XXYZ=              0.0019 YYXZ=              0.3131 ZZXY=              0.3036
 N-N= 1.305477237420D+01 E-N=-1.193321387539D+02  KE= 4.018316785574D+01
 1\1\GINC-NODE85\SP\ROLYP\def2TZVP\C1H4\YANZ\22-Sep-2023\0\\# scrf=(cpc
 m,solvent=water) def2tzvp olyp\\tmpdir/M2_ref_52.gjf\\0,1\C,0,-1.54879
 2,0.915792,31.48338\H,0,-1.086781,0.76178,32.490826\H,0,-2.641517,1.02
 952,31.695842\H,0,-1.30257995,0.1085193,30.72878844\H,0,-1.218536,1.94
 2152,31.183615\\Version=ES64L-G16RevA.03\State=1-A\HF=-40.5053309\RMSD
 =4.038e-09\Dipole=-0.0080918,0.026612,0.0246881\Quadrupole=-0.1276384,
 0.0776454,0.049993,-0.0690911,-0.0643073,0.2130708\PG=C01 [X(C1H4)]\\@


 SIC AS THE CAWSE OF EWERY THING IS, SIC WILBE THE EFFECT.
 -- PROVERBS AND REASONS OF THE YEAR 1585
           AS REPRINTED IN PAISLEY MAGAZINE 1828.
 Job cpu time:       0 days  0 hours  0 minutes 12.0 seconds.
 Elapsed time:       0 days  0 hours  0 minutes  3.1 seconds.
 File lengths (MBytes):  RWF=     10 Int=      0 D2E=      0 Chk=      1 Scr=      1
 Normal termination of Gaussian 16 at Fri Sep 22 16:53:08 2023.
