This job is running on host node12
Current directory: /share/home/Liaoyt/system-test/bnts-ome/ynets-vs/tmpdir
Thu Mar  7 11:43:09 CST 2024
/tmp/86100.mgr/run
 Entering Gaussian System, Link 0=g16
 Initial command:
 /share/apps/gaussian/g16/l1.exe "/tmp/86100.mgr/run/Gau-221670.inp" -scrdir="/tmp/86100.mgr/run/"
 Entering Link 1 = /share/apps/gaussian/g16/l1.exe PID=    221671.
  
 Copyright (c) 1988,1990,1992,1993,1995,1998,2003,2009,2016,
            Gaussian, Inc.  All Rights Reserved.
  
 This is part of the Gaussian(R) 16 program.  It is based on
 the Gaussian(R) 09 system (copyright 2009, Gaussian, Inc.),
 the Gaussian(R) 03 system (copyright 2003, Gaussian, Inc.),
 the Gaussian(R) 98 system (copyright 1998, Gaussian, Inc.),
 the Gaussian(R) 94 system (copyright 1995, Gaussian, Inc.),
 the Gaussian 92(TM) system (copyright 1992, Gaussian, Inc.),
 the Gaussian 90(TM) system (copyright 1990, Gaussian, Inc.),
 the Gaussian 88(TM) system (copyright 1988, Gaussian, Inc.),
 the Gaussian 86(TM) system (copyright 1986, Carnegie Mellon
 University), and the Gaussian 82(TM) system (copyright 1983,
 Carnegie Mellon University). Gaussian is a federally registered
 trademark of Gaussian, Inc.
  
 This software contains proprietary and confidential information,
 including trade secrets, belonging to Gaussian, Inc.
  
 This software is provided under written license and may be
 used, copied, transmitted, or stored only in accord with that
 written license.
  
 The following legend is applicable only to US Government
 contracts under FAR:
  
                    RESTRICTED RIGHTS LEGEND
  
 Use, reproduction and disclosure by the US Government is
 subject to restrictions as set forth in subparagraphs (a)
 and (c) of the Commercial Computer Software - Restricted
 Rights clause in FAR 52.227-19.
  
 Gaussian, Inc.
 340 Quinnipiac St., Bldg. 40, Wallingford CT 06492
  
  
 ---------------------------------------------------------------
 Warning -- This program may not be used in any manner that
 competes with the business of Gaussian, Inc. or will provide
 assistance to any competitor of Gaussian, Inc.  The licensee
 of this program is prohibited from giving any competitor of
 Gaussian, Inc. access to this program.  By using this program,
 the user acknowledges that Gaussian, Inc. is engaged in the
 business of creating and licensing software in the field of
 computational chemistry and represents and warrants to the
 licensee that it is not a competitor of Gaussian, Inc. and that
 it will not use this program in any manner prohibited above.
 ---------------------------------------------------------------
  

 Cite this work as:
 Gaussian 16, Revision A.03,
 M. J. Frisch, G. W. Trucks, H. B. Schlegel, G. E. Scuseria, 
 M. A. Robb, J. R. Cheeseman, G. Scalmani, V. Barone, 
 G. A. Petersson, H. Nakatsuji, X. Li, M. Caricato, A. V. Marenich, 
 J. Bloino, B. G. Janesko, R. Gomperts, B. Mennucci, H. P. Hratchian, 
 J. V. Ortiz, A. F. Izmaylov, J. L. Sonnenberg, D. Williams-Young, 
 F. Ding, F. Lipparini, F. Egidi, J. Goings, B. Peng, A. Petrone, 
 T. Henderson, D. Ranasinghe, V. G. Zakrzewski, J. Gao, N. Rega, 
 G. Zheng, W. Liang, M. Hada, M. Ehara, K. Toyota, R. Fukuda, 
 J. Hasegawa, M. Ishida, T. Nakajima, Y. Honda, O. Kitao, H. Nakai, 
 T. Vreven, K. Throssell, J. A. Montgomery, Jr., J. E. Peralta, 
 F. Ogliaro, M. J. Bearpark, J. J. Heyd, E. N. Brothers, K. N. Kudin, 
 V. N. Staroverov, T. A. Keith, R. Kobayashi, J. Normand, 
 K. Raghavachari, A. P. Rendell, J. C. Burant, S. S. Iyengar, 
 J. Tomasi, M. Cossi, J. M. Millam, M. Klene, C. Adamo, R. Cammi, 
 J. W. Ochterski, R. L. Martin, K. Morokuma, O. Farkas, 
 J. B. Foresman, and D. J. Fox, Gaussian, Inc., Wallingford CT, 2016.
 
 ******************************************
 Gaussian 16:  ES64L-G16RevA.03 25-Dec-2016
                 7-Mar-2024 
 ******************************************
 %chk=bnts-ts-pro.chk
 %nprocshared=16
 Will use up to   16 processors via shared memory.
 %mem=16GB
 -----------------------------
 #b3lyp/6-31g(d) nosymm em=gd3
 -----------------------------
 1/38=1,172=1/1;
 2/12=2,15=1,17=6,18=5,40=1/2;
 3/5=1,6=6,7=1,11=2,25=1,30=1,74=-5,124=31/1,2,3;
 4//1;
 5/5=2,38=5/2;
 6/7=2,8=2,9=2,10=2,28=1/1;
 99/5=1,9=1/99;
 -------------------
 tmpdir/Subs_0_0.gjf
 -------------------
 Symbolic Z-matrix:
 Charge =  0 Multiplicity = 1
 C                     2.81536  -1.44992   1.20387 
 C                     1.19388   1.21002  -0.3234 
 C                     0.87873  -0.24557  -0.15339 
 C                     1.51959  -1.31472   0.45434 
 N                    -0.25773  -0.80105  -0.67695 
 N                    -0.31709  -2.12018  -0.41758 
 N                     0.75449  -2.4326    0.2576 
 C                    -1.37764  -0.1655   -1.37251 
 H                    -1.06162   0.84751  -1.6317 
 H                    -1.53747  -0.71693  -2.30311 
 C                    -2.65185  -0.13594  -0.55079 
 C                    -2.67822   0.48302   0.70582 
 C                    -3.81975  -0.71436  -1.05438 
 C                    -3.86129   0.51985   1.44202 
 H                    -1.76799   0.92501   1.0987 
 C                    -5.00646  -0.6711   -0.31919 
 H                    -3.80107  -1.20894  -2.02278 
 C                    -5.02926  -0.05374   0.93129 
 H                    -3.87246   0.99751   2.41836 
 H                    -5.90736  -1.1273   -0.72076 
 H                    -5.94982  -0.02343   1.50819 
 H                     3.73733  -1.42809   0.56911 
 H                     2.75967  -2.42375   1.70115 
 H                     2.89196  -0.69966   2.0004 
 H                     2.22609   1.48159  -0.02283 
 H                     1.07261   1.4686   -1.39113 
 H                     0.39124   1.81223   0.29539 
 
                          Input orientation:                          
 ---------------------------------------------------------------------
 Center     Atomic      Atomic             Coordinates (Angstroms)
 Number     Number       Type             X           Y           Z
 ---------------------------------------------------------------------
      1          6           0        2.815363   -1.449917    1.203873
      2          6           0        1.193882    1.210024   -0.323396
      3          6           0        0.878727   -0.245571   -0.153391
      4          6           0        1.519588   -1.314724    0.454338
      5          7           0       -0.257727   -0.801049   -0.676947
      6          7           0       -0.317094   -2.120182   -0.417583
      7          7           0        0.754488   -2.432603    0.257598
      8          6           0       -1.377644   -0.165498   -1.372512
      9          1           0       -1.061621    0.847511   -1.631702
     10          1           0       -1.537470   -0.716934   -2.303111
     11          6           0       -2.651853   -0.135942   -0.550793
     12          6           0       -2.678223    0.483020    0.705822
     13          6           0       -3.819746   -0.714363   -1.054375
     14          6           0       -3.861294    0.519854    1.442015
     15          1           0       -1.767989    0.925011    1.098701
     16          6           0       -5.006464   -0.671098   -0.319192
     17          1           0       -3.801067   -1.208941   -2.022781
     18          6           0       -5.029264   -0.053735    0.931290
     19          1           0       -3.872460    0.997511    2.418360
     20          1           0       -5.907358   -1.127296   -0.720755
     21          1           0       -5.949818   -0.023428    1.508189
     22          1           0        3.737327   -1.428085    0.569113
     23          1           0        2.759673   -2.423746    1.701153
     24          1           0        2.891963   -0.699661    2.000401
     25          1           0        2.226086    1.481588   -0.022833
     26          1           0        1.072605    1.468603   -1.391131
     27          1           0        0.391242    1.812233    0.295391
 ---------------------------------------------------------------------
                    Distance matrix (angstroms):
                    1          2          3          4          5
     1  C    0.000000
     2  C    3.469443   0.000000
     3  C    2.653898   1.498993   0.000000
     4  C    1.503035   2.661824   1.386768   0.000000
     5  N    3.660928   2.505311   1.369012   2.168529   0.000000
     6  N    3.590357   3.658168   2.239185   2.186872   1.345699
     7  N    2.471500   3.714748   2.228779   1.368846   2.135397
     8  C    5.086138   3.099266   2.565907   3.612763   1.463540
     9  H    5.324440   2.632560   2.673047   3.960993   2.067741
    10  H    5.637673   3.884935   3.268254   4.160106   2.071045
    11  C    5.890317   4.080810   3.554566   4.449802   2.487995
    12  C    5.844980   4.071980   3.731084   4.573483   3.069150
    13  C    7.047368   5.419784   4.806994   5.580783   3.583008
    14  C    6.965232   5.398872   5.059545   5.770188   4.384117
    15  H    5.163183   3.297919   3.153268   4.029861   2.900534
    16  C    8.006701   6.479423   5.902884   6.603178   4.763967
    17  H    7.365223   5.804207   5.130611   5.869981   3.812205
    18  C    7.972565   6.472934   6.009800   6.686183   5.090429
    19  H    7.224393   5.764565   5.543729   6.186921   5.087439
    20  H    8.938352   7.486559   6.866607   7.521669   5.659213
    21  H    8.885712   7.477202   7.031303   7.653109   6.146496
    22  H    1.119561   3.771645   3.176783   2.223599   4.231583
    23  H    1.094866   4.444635   3.423702   2.079011   4.170517
    24  H    1.096909   3.454042   2.982975   2.156856   4.135096
    25  H    3.231993   1.108842   2.194425   2.923388   3.436223
    26  H    4.276565   1.105273   2.123201   3.369341   2.726016
    27  H    4.164532   1.178891   2.161852   3.328106   2.862838
                    6          7          8          9         10
     6  N    0.000000
     7  N    1.304517   0.000000
     8  C    2.420216   3.513262   0.000000
     9  H    3.291748   4.198435   1.092354   0.000000
    10  H    2.648327   3.841070   1.093453   1.767685   0.000000
    11  C    3.066929   4.187040   1.516478   2.159718   2.156390
    12  C    3.689665   4.526065   2.536051   2.865358   3.434368
    13  C    3.827584   5.059371   2.523158   3.221802   2.601563
    14  C    4.794710   5.605826   3.815729   4.170523   4.577747
    15  H    3.698299   4.282980   2.729189   2.821358   3.784369
    16  C    4.909146   6.051789   3.812276   4.426132   3.996493
    17  H    3.942726   5.239328   2.717462   3.447681   2.333351
    18  C    5.319230   6.290045   4.319065   4.808676   4.805602
    19  H    5.513911   6.151685   4.684806   4.932172   5.539295
    20  H    5.685841   6.858658   4.676340   5.311389   4.665637
    21  H    6.311304   7.232968   5.405867   5.874685   5.871607
    22  H    4.229763   3.162820   5.614888   5.749072   6.048049
    23  H    3.748025   2.470768   5.627121   6.034180   6.116598
    24  H    4.261757   3.257184   5.467304   5.587194   6.175791
    25  H    4.426776   4.191078   4.185857   3.714772   4.919098
    26  H    3.969690   4.247224   2.945225   2.235744   3.524311
    27  H    4.058812   4.260517   3.134051   2.599074   4.107168
                   11         12         13         14         15
    11  C    0.000000
    12  C    1.401032   0.000000
    13  C    1.397190   2.415594   0.000000
    14  C    2.421590   1.393913   2.785136   0.000000
    15  H    2.151201   1.085466   3.396026   2.159616   0.000000
    16  C    2.425742   2.793447   1.396662   2.414877   3.878879
    17  H    2.153780   3.401292   1.087551   3.872618   4.293112
    18  C    2.802751   2.422052   2.417070   1.397855   3.409089
    19  H    3.404477   2.150277   3.872103   1.086982   2.485066
    20  H    3.407342   3.880149   2.154052   3.402507   4.965557
    21  H    3.889555   3.406408   3.403136   2.159043   4.307541
    22  H    6.614034   6.695543   7.762375   7.892748   6.010494
    23  H    6.292052   6.245853   7.335099   7.250458   5.663642
    24  H    6.128643   5.839661   7.374206   6.885165   5.016749
    25  H    5.166182   5.057700   6.514474   6.334581   4.185720
    26  H    4.141536   4.408775   5.367853   5.768033   3.816246
    27  H    3.711043   3.369996   5.092934   4.590103   2.468754
                   16         17         18         19         20
    16  C    0.000000
    17  H    2.155104   0.000000
    18  C    1.394762   3.401397   0.000000
    19  H    3.400649   4.959563   2.157473   0.000000
    20  H    1.086729   2.477579   2.157043   4.302285   0.000000
    21  H    2.156088   4.300037   1.086808   2.487196   2.487673
    22  H    8.821338   7.974542   8.881055   8.198298   9.735204
    23  H    8.213796   7.641122   8.177847   7.496971   9.091966
    24  H    8.232040   7.825727   8.019106   6.986594   9.220391
    25  H    7.551932   6.896761   7.477144   6.586806   8.570081
    26  H    6.533181   5.596508   6.704025   6.260017   7.477164
    27  H    5.973263   5.663644   5.767849   4.832176   7.024653
                   21         22         23         24         25
    21  H    0.000000
    22  H    9.833398   0.000000
    23  H    9.036260   1.796848   0.000000
    24  H    8.881253   1.814891   1.754856   0.000000
    25  H    8.453077   3.331734   4.302148   3.048724   0.000000
    26  H    7.742521   4.397056   5.249648   4.417456   1.789673
    27  H    6.711898   4.665927   5.052638   3.933227   1.891361
                   26         27
    26  H    0.000000
    27  H    1.851133   0.000000
 Symmetry turned off by external request.
 Stoichiometry    C11H13N3
 Framework group  C1[X(C11H13N3)]
 Deg. of freedom    75
 Full point group                 C1      NOp   1
 Rotational constants (GHZ):           1.5808323           0.3739363           0.3641069
 Standard basis: 6-31G(d) (6D, 7F)
   236 basis functions,   444 primitive gaussians,   236 cartesian basis functions
    50 alpha electrons       50 beta electrons
       nuclear repulsion energy       838.9704908490 Hartrees.
 NAtoms=   27 NActive=   27 NUniq=   27 SFac= 1.00D+00 NAtFMM=   60 NAOKFM=F Big=F
 Integral buffers will be    131072 words long.
 Raffenetti 2 integral format.
 Two-electron integral symmetry is turned off.
 Nuclear repulsion after empirical dispersion term =      838.9491632531 Hartrees.
 One-electron integrals computed using PRISM.
 NBasis=   236 RedAO= T EigKep=  4.67D-04  NBF=   236
 NBsUse=   236 1.00D-06 EigRej= -1.00D+00 NBFU=   236
 ExpMin= 1.61D-01 ExpMax= 4.17D+03 ExpMxC= 6.27D+02 IAcc=3 IRadAn=         5 AccDes= 0.00D+00
 Harris functional with IExCor=  402 and IRadAn=       5 diagonalized for initial guess.
 HarFok:  IExCor=  402 AccDes= 0.00D+00 IRadAn=         5 IDoV= 1 UseB2=F ITyADJ=14
 ICtDFT=  3500011 ScaDFX=  1.000000  1.000000  1.000000  1.000000
 FoFCou: FMM=F IPFlag=           0 FMFlag=      100000 FMFlg1=           0
         NFxFlg=           0 DoJE=T BraDBF=F KetDBF=T FulRan=T
         wScrn=  0.000000 ICntrl=       500 IOpCl=  0 I1Cent=   200000004 NGrid=           0
         NMat0=    1 NMatS0=      1 NMatT0=    0 NMatD0=    1 NMtDS0=    0 NMtDT0=    0
 Symmetry not used in FoFCou.
 Requested convergence on RMS density matrix=1.00D-08 within 128 cycles.
 Requested convergence on MAX density matrix=1.00D-06.
 Requested convergence on             energy=1.00D-06.
 No special actions if energy rises.
 Integral accuracy reduced to 1.0D-05 until final iterations.
 Initial convergence to 1.0D-05 achieved.  Increase integral accuracy.
 SCF Done:  E(RB3LYP) =  -591.241444598     A.U. after   15 cycles
            NFock= 15  Conv=0.53D-08     -V/T= 2.0100

 **********************************************************************

            Population analysis using the SCF density.

 **********************************************************************

 Alpha  occ. eigenvalues --  -14.41142 -14.36804 -14.33233 -10.24483 -10.22836
 Alpha  occ. eigenvalues --  -10.22005 -10.20571 -10.20278 -10.19652 -10.19586
 Alpha  occ. eigenvalues --  -10.19555 -10.19494 -10.19443 -10.18401  -1.07954
 Alpha  occ. eigenvalues --   -0.90784  -0.85808  -0.81602  -0.77829  -0.74959
 Alpha  occ. eigenvalues --   -0.73343  -0.70592  -0.68845  -0.61503  -0.60527
 Alpha  occ. eigenvalues --   -0.58248  -0.56584  -0.52267  -0.50259  -0.48087
 Alpha  occ. eigenvalues --   -0.46442  -0.45747  -0.44294  -0.42837  -0.42507
 Alpha  occ. eigenvalues --   -0.42249  -0.41348  -0.40847  -0.39933  -0.39156
 Alpha  occ. eigenvalues --   -0.37382  -0.36327  -0.35255  -0.34726  -0.31020
 Alpha  occ. eigenvalues --   -0.27303  -0.25600  -0.25388  -0.24619  -0.23191
 Alpha virt. eigenvalues --   -0.01162  -0.00480   0.00503   0.05963   0.06621
 Alpha virt. eigenvalues --    0.09389   0.10884   0.11779   0.12394   0.13209
 Alpha virt. eigenvalues --    0.14377   0.15482   0.15693   0.16445   0.17556
 Alpha virt. eigenvalues --    0.18472   0.18965   0.19300   0.21922   0.22403
 Alpha virt. eigenvalues --    0.23827   0.25172   0.27320   0.28226   0.29917
 Alpha virt. eigenvalues --    0.31434   0.31809   0.34055   0.34743   0.40947
 Alpha virt. eigenvalues --    0.42827   0.46982   0.47664   0.48991   0.51304
 Alpha virt. eigenvalues --    0.52003   0.53199   0.54418   0.55548   0.56068
 Alpha virt. eigenvalues --    0.57693   0.58321   0.59016   0.60082   0.60144
 Alpha virt. eigenvalues --    0.60463   0.61064   0.61381   0.62087   0.62921
 Alpha virt. eigenvalues --    0.64886   0.65766   0.66289   0.67832   0.69671
 Alpha virt. eigenvalues --    0.70996   0.73138   0.74212   0.74732   0.76707
 Alpha virt. eigenvalues --    0.78044   0.79319   0.80723   0.82169   0.82267
 Alpha virt. eigenvalues --    0.83432   0.83736   0.84511   0.86085   0.87301
 Alpha virt. eigenvalues --    0.88242   0.89219   0.90010   0.90647   0.91485
 Alpha virt. eigenvalues --    0.93126   0.93959   0.94409   0.94867   0.96798
 Alpha virt. eigenvalues --    0.97800   0.98913   1.00984   1.04163   1.06842
 Alpha virt. eigenvalues --    1.09581   1.10348   1.11989   1.15845   1.16934
 Alpha virt. eigenvalues --    1.22691   1.24769   1.25129   1.28341   1.30997
 Alpha virt. eigenvalues --    1.33688   1.35969   1.38314   1.40661   1.42759
 Alpha virt. eigenvalues --    1.44148   1.44835   1.46916   1.48229   1.49248
 Alpha virt. eigenvalues --    1.50717   1.52627   1.54505   1.55416   1.59105
 Alpha virt. eigenvalues --    1.61895   1.64634   1.73794   1.76356   1.78732
 Alpha virt. eigenvalues --    1.81182   1.82007   1.83289   1.86556   1.88936
 Alpha virt. eigenvalues --    1.90865   1.91286   1.93636   1.94868   1.96470
 Alpha virt. eigenvalues --    1.97152   1.97996   1.99066   2.04954   2.09502
 Alpha virt. eigenvalues --    2.10162   2.10688   2.13528   2.14338   2.15219
 Alpha virt. eigenvalues --    2.16374   2.18874   2.20696   2.22796   2.24213
 Alpha virt. eigenvalues --    2.25816   2.26873   2.29450   2.30243   2.30539
 Alpha virt. eigenvalues --    2.31742   2.34391   2.37031   2.39387   2.43776
 Alpha virt. eigenvalues --    2.47546   2.49760   2.51279   2.56107   2.58230
 Alpha virt. eigenvalues --    2.60193   2.64253   2.65149   2.70707   2.71997
 Alpha virt. eigenvalues --    2.72623   2.73816   2.75506   2.79100   2.83104
 Alpha virt. eigenvalues --    2.84606   2.88141   3.04830   3.08563   3.13451
 Alpha virt. eigenvalues --    3.19256   3.40393   3.61455   3.99986   4.04012
 Alpha virt. eigenvalues --    4.08647   4.11252   4.12753   4.17010   4.20388
 Alpha virt. eigenvalues --    4.31047   4.33138   4.36800   4.43954   4.62689
 Alpha virt. eigenvalues --    4.69812
          Condensed to atoms (all electrons):
               1          2          3          4          5          6
     1  C    5.198454  -0.002623  -0.067372   0.369386   0.005165   0.008133
     2  C   -0.002623   5.212317   0.354719  -0.055937  -0.071173   0.005264
     3  C   -0.067372   0.354719   4.830343   0.521404   0.286351  -0.086053
     4  C    0.369386  -0.055937   0.521404   4.806491  -0.031906  -0.092259
     5  N    0.005165  -0.071173   0.286351  -0.031906   6.912659   0.180278
     6  N    0.008133   0.005264  -0.086053  -0.092259   0.180278   6.774461
     7  N   -0.072352   0.006700  -0.030454   0.365244  -0.112789   0.330850
     8  C   -0.000127  -0.002171  -0.039708   0.006255   0.254203  -0.049089
     9  H   -0.000006   0.003742  -0.006803  -0.000002  -0.035799   0.003867
    10  H    0.000002   0.000020   0.003917  -0.000118  -0.034966   0.002361
    11  C    0.000002  -0.000129  -0.000333  -0.000178  -0.062537   0.002878
    12  C    0.000001  -0.000741   0.001854  -0.000172  -0.000554  -0.000059
    13  C    0.000000  -0.000001  -0.000172   0.000012  -0.000478   0.000441
    14  C    0.000000   0.000014   0.000024   0.000001   0.000080  -0.000050
    15  H   -0.000001   0.000294   0.001748   0.000056   0.001753   0.000047
    16  C    0.000000  -0.000000   0.000002  -0.000000  -0.000080  -0.000017
    17  H   -0.000000   0.000000  -0.000001  -0.000000   0.000126   0.000033
    18  C   -0.000000   0.000000   0.000001  -0.000000   0.000007   0.000003
    19  H   -0.000000  -0.000000   0.000000  -0.000000   0.000002   0.000000
    20  H   -0.000000  -0.000000  -0.000000   0.000000   0.000001   0.000000
    21  H    0.000000   0.000000   0.000000   0.000000   0.000000  -0.000000
    22  H    0.362872   0.000211  -0.001035  -0.024890   0.000030  -0.000072
    23  H    0.360355  -0.000064   0.004693  -0.030915   0.000065  -0.000159
    24  H    0.360919   0.000670  -0.001246  -0.028279   0.000021  -0.000177
    25  H    0.002176   0.367900  -0.020902  -0.004004   0.002774  -0.000074
    26  H    0.000020   0.357890  -0.029417   0.001971  -0.003932   0.000039
    27  H    0.000046   0.352290  -0.036328   0.000106  -0.002159   0.000022
               7          8          9         10         11         12
     1  C   -0.072352  -0.000127  -0.000006   0.000002   0.000002   0.000001
     2  C    0.006700  -0.002171   0.003742   0.000020  -0.000129  -0.000741
     3  C   -0.030454  -0.039708  -0.006803   0.003917  -0.000333   0.001854
     4  C    0.365244   0.006255  -0.000002  -0.000118  -0.000178  -0.000172
     5  N   -0.112789   0.254203  -0.035799  -0.034966  -0.062537  -0.000554
     6  N    0.330850  -0.049089   0.003867   0.002361   0.002878  -0.000059
     7  N    6.819086   0.007021  -0.000354   0.000069   0.000122  -0.000069
     8  C    0.007021   5.127853   0.361252   0.357585   0.338798  -0.064771
     9  H   -0.000354   0.361252   0.560648  -0.030484  -0.029776  -0.004419
    10  H    0.000069   0.357585  -0.030484   0.545716  -0.035743   0.005228
    11  C    0.000122   0.338798  -0.029776  -0.035743   4.660515   0.536651
    12  C   -0.000069  -0.064771  -0.004419   0.005228   0.536651   4.966012
    13  C   -0.000002  -0.042394   0.001546  -0.005280   0.555630  -0.044862
    14  C   -0.000002   0.005757  -0.000005  -0.000125  -0.015884   0.532996
    15  H   -0.000052  -0.009162   0.001562   0.000083  -0.047864   0.351930
    16  C    0.000000   0.006356  -0.000212   0.000127  -0.020922  -0.045085
    17  H    0.000000  -0.010865   0.000146   0.007821  -0.041876   0.006135
    18  C    0.000000   0.000408   0.000024  -0.000004  -0.034795  -0.036318
    19  H   -0.000000  -0.000188  -0.000000   0.000003   0.003527  -0.040260
    20  H   -0.000000  -0.000176   0.000003  -0.000008   0.003812   0.000825
    21  H    0.000000   0.000008  -0.000000  -0.000000   0.000733   0.004680
    22  H    0.000323   0.000003  -0.000000  -0.000000   0.000000   0.000000
    23  H    0.005975   0.000000   0.000000  -0.000000   0.000000  -0.000000
    24  H    0.002232  -0.000004   0.000001   0.000000  -0.000000  -0.000000
    25  H    0.000021   0.000158   0.000031   0.000000  -0.000006   0.000006
    26  H   -0.000182  -0.000646   0.004078   0.000097  -0.000020   0.000033
    27  H   -0.000108  -0.000060   0.000182  -0.000058   0.000102   0.000139
              13         14         15         16         17         18
     1  C    0.000000   0.000000  -0.000001   0.000000  -0.000000  -0.000000
     2  C   -0.000001   0.000014   0.000294  -0.000000   0.000000   0.000000
     3  C   -0.000172   0.000024   0.001748   0.000002  -0.000001   0.000001
     4  C    0.000012   0.000001   0.000056  -0.000000  -0.000000  -0.000000
     5  N   -0.000478   0.000080   0.001753  -0.000080   0.000126   0.000007
     6  N    0.000441  -0.000050   0.000047  -0.000017   0.000033   0.000003
     7  N   -0.000002  -0.000002  -0.000052   0.000000   0.000000   0.000000
     8  C   -0.042394   0.005757  -0.009162   0.006356  -0.010865   0.000408
     9  H    0.001546  -0.000005   0.001562  -0.000212   0.000146   0.000024
    10  H   -0.005280  -0.000125   0.000083   0.000127   0.007821  -0.000004
    11  C    0.555630  -0.015884  -0.047864  -0.020922  -0.041876  -0.034795
    12  C   -0.044862   0.532996   0.351930  -0.045085   0.006135  -0.036318
    13  C    4.944432  -0.045066   0.005799   0.525961   0.353158  -0.036365
    14  C   -0.045066   4.850892  -0.041003  -0.025951   0.000366   0.547721
    15  H    0.005799  -0.041003   0.601343   0.000417  -0.000176   0.004520
    16  C    0.525961  -0.025951   0.000417   4.857561  -0.043999   0.553227
    17  H    0.353158   0.000366  -0.000176  -0.043999   0.597238   0.004673
    18  C   -0.036365   0.547721   0.004520   0.553227   0.004673   4.848072
    19  H    0.000900   0.357503  -0.005219   0.004525   0.000017  -0.041978
    20  H   -0.039169   0.004546   0.000017   0.357552  -0.005400  -0.042659
    21  H    0.004661  -0.042565  -0.000175  -0.042694  -0.000178   0.359526
    22  H   -0.000000   0.000000   0.000000   0.000000  -0.000000   0.000000
    23  H    0.000000  -0.000000  -0.000000  -0.000000   0.000000  -0.000000
    24  H    0.000000  -0.000000   0.000000  -0.000000   0.000000   0.000000
    25  H    0.000000  -0.000000   0.000001  -0.000000  -0.000000   0.000000
    26  H    0.000001  -0.000000   0.000013  -0.000000   0.000000   0.000000
    27  H   -0.000001  -0.000003   0.003041  -0.000000  -0.000000   0.000000
              19         20         21         22         23         24
     1  C   -0.000000  -0.000000   0.000000   0.362872   0.360355   0.360919
     2  C   -0.000000  -0.000000   0.000000   0.000211  -0.000064   0.000670
     3  C    0.000000  -0.000000   0.000000  -0.001035   0.004693  -0.001246
     4  C   -0.000000   0.000000   0.000000  -0.024890  -0.030915  -0.028279
     5  N    0.000002   0.000001   0.000000   0.000030   0.000065   0.000021
     6  N    0.000000   0.000000  -0.000000  -0.000072  -0.000159  -0.000177
     7  N   -0.000000  -0.000000   0.000000   0.000323   0.005975   0.002232
     8  C   -0.000188  -0.000176   0.000008   0.000003   0.000000  -0.000004
     9  H   -0.000000   0.000003  -0.000000  -0.000000   0.000000   0.000001
    10  H    0.000003  -0.000008  -0.000000  -0.000000  -0.000000   0.000000
    11  C    0.003527   0.003812   0.000733   0.000000   0.000000  -0.000000
    12  C   -0.040260   0.000825   0.004680   0.000000  -0.000000  -0.000000
    13  C    0.000900  -0.039169   0.004661  -0.000000   0.000000   0.000000
    14  C    0.357503   0.004546  -0.042565   0.000000  -0.000000  -0.000000
    15  H   -0.005219   0.000017  -0.000175   0.000000  -0.000000   0.000000
    16  C    0.004525   0.357552  -0.042694   0.000000  -0.000000  -0.000000
    17  H    0.000017  -0.005400  -0.000178  -0.000000   0.000000   0.000000
    18  C   -0.041978  -0.042659   0.359526   0.000000  -0.000000   0.000000
    19  H    0.593238  -0.000184  -0.005475  -0.000000   0.000000   0.000000
    20  H   -0.000184   0.591511  -0.005507  -0.000000   0.000000   0.000000
    21  H   -0.005475  -0.005507   0.593163   0.000000  -0.000000  -0.000000
    22  H   -0.000000  -0.000000   0.000000   0.562786  -0.024823  -0.032150
    23  H    0.000000   0.000000  -0.000000  -0.024823   0.526709  -0.026423
    24  H    0.000000   0.000000  -0.000000  -0.032150  -0.026423   0.571530
    25  H   -0.000000   0.000000  -0.000000   0.000223  -0.000054   0.000519
    26  H    0.000000   0.000000  -0.000000   0.000052   0.000000  -0.000043
    27  H   -0.000003   0.000000  -0.000000  -0.000036   0.000006   0.000132
              25         26         27
     1  C    0.002176   0.000020   0.000046
     2  C    0.367900   0.357890   0.352290
     3  C   -0.020902  -0.029417  -0.036328
     4  C   -0.004004   0.001971   0.000106
     5  N    0.002774  -0.003932  -0.002159
     6  N   -0.000074   0.000039   0.000022
     7  N    0.000021  -0.000182  -0.000108
     8  C    0.000158  -0.000646  -0.000060
     9  H    0.000031   0.004078   0.000182
    10  H    0.000000   0.000097  -0.000058
    11  C   -0.000006  -0.000020   0.000102
    12  C    0.000006   0.000033   0.000139
    13  C    0.000000   0.000001  -0.000001
    14  C   -0.000000  -0.000000  -0.000003
    15  H    0.000001   0.000013   0.003041
    16  C   -0.000000  -0.000000  -0.000000
    17  H   -0.000000   0.000000  -0.000000
    18  C    0.000000   0.000000   0.000000
    19  H   -0.000000   0.000000  -0.000003
    20  H    0.000000   0.000000   0.000000
    21  H   -0.000000  -0.000000  -0.000000
    22  H    0.000223   0.000052  -0.000036
    23  H   -0.000054   0.000000   0.000006
    24  H    0.000519  -0.000043   0.000132
    25  H    0.519704  -0.026666  -0.020861
    26  H   -0.026666   0.556957  -0.032071
    27  H   -0.020861  -0.032071   0.580690
 Mulliken charges:
               1
     1  C   -0.525049
     2  C   -0.529192
     3  C    0.314767
     4  C    0.197734
     5  N   -0.287142
     6  N   -0.080670
     7  N   -0.321277
     8  C   -0.246297
     9  H    0.170777
    10  H    0.183757
    11  C    0.187294
    12  C   -0.169179
    13  C   -0.178751
    14  C   -0.129245
    15  H    0.131025
    16  C   -0.126769
    17  H    0.132782
    18  C   -0.126062
    19  H    0.133592
    20  H    0.134835
    21  H    0.133822
    22  H    0.156508
    23  H    0.184634
    24  H    0.152298
    25  H    0.179054
    26  H    0.171824
    27  H    0.154931
 Sum of Mulliken charges =  -0.00000
 Mulliken charges with hydrogens summed into heavy atoms:
               1
     1  C   -0.031609
     2  C   -0.023383
     3  C    0.314767
     4  C    0.197734
     5  N   -0.287142
     6  N   -0.080670
     7  N   -0.321277
     8  C    0.108237
    11  C    0.187294
    12  C   -0.038154
    13  C   -0.045969
    14  C    0.004347
    16  C    0.008066
    18  C    0.007760
 Electronic spatial extent (au):  <R**2>=           3845.7000
 Charge=             -0.0000 electrons
 Dipole moment (field-independent basis, Debye):
    X=             -0.3598    Y=              4.4241    Z=             -0.7273  Tot=              4.4979
 Quadrupole moment (field-independent basis, Debye-Ang):
   XX=            -71.1120   YY=            -94.8920   ZZ=            -76.8299
   XY=              2.0672   XZ=              0.9873   YZ=              1.8114
 Traceless Quadrupole moment (field-independent basis, Debye-Ang):
   XX=              9.8327   YY=            -13.9474   ZZ=              4.1147
   XY=              2.0672   XZ=              0.9873   YZ=              1.8114
 Octapole moment (field-independent basis, Debye-Ang**2):
  XXX=            248.4135  YYY=            163.8705  ZZZ=             -7.7740  XYY=            103.7685
  XXY=             27.5653  XXZ=              6.4749  XZZ=             86.0291  YZZ=             43.0790
  YYZ=             -2.2699  XYZ=            -11.6036
 Hexadecapole moment (field-independent basis, Debye-Ang**3):
 XXXX=          -3621.4532 YYYY=           -875.2945 ZZZZ=           -476.7079 XXXY=            124.7044
 XXXZ=            -78.4803 YYYX=             45.3617 YYYZ=             -5.1306 ZZZX=            -34.0712
 ZZZY=              7.9131 XXYY=           -818.7200 XXZZ=           -703.5862 YYZZ=           -205.0233
 XXYZ=             37.4746 YYXZ=             -3.1419 ZZXY=             10.7088
 N-N= 8.389491632531D+02 E-N=-3.048572291890D+03  KE= 5.854027262546D+02
 1\1\GINC-NODE12\SP\RB3LYP\6-31G(d)\C11H13N3\LIAOYT\07-Mar-2024\0\\#b3l
 yp/6-31g(d) nosymm em=gd3\\tmpdir/Subs_0_0.gjf\\0,1\C,0,2.815363,-1.44
 9917,1.203873\C,0,1.193882,1.210024,-0.323396\C,0,0.878727,-0.245571,-
 0.153391\C,0,1.519588,-1.314724,0.454338\N,0,-0.257727,-0.801049,-0.67
 6947\N,0,-0.317094,-2.120182,-0.417583\N,0,0.754488,-2.432603,0.257598
 \C,0,-1.377644,-0.165498,-1.372512\H,0,-1.061621,0.847511,-1.631702\H,
 0,-1.53747,-0.716934,-2.303111\C,0,-2.651853,-0.135942,-0.550793\C,0,-
 2.678223,0.48302,0.705822\C,0,-3.819746,-0.714363,-1.054375\C,0,-3.861
 294,0.519854,1.442015\H,0,-1.767989,0.925011,1.098701\C,0,-5.006464,-0
 .671098,-0.319192\H,0,-3.801067,-1.208941,-2.022781\C,0,-5.029264,-0.0
 53735,0.93129\H,0,-3.87246,0.997511,2.41836\H,0,-5.907358,-1.127296,-0
 .720755\H,0,-5.949818,-0.023428,1.508189\H,0,3.73732737,-1.42808532,0.
 56911257\H,0,2.759673,-2.423746,1.701153\H,0,2.891963,-0.699661,2.0004
 01\H,0,2.22608625,1.48158839,-0.02283274\H,0,1.072605,1.468603,-1.3911
 31\H,0,0.39124189,1.81223275,0.29539138\\Version=ES64L-G16RevA.03\HF=-
 591.2414446\RMSD=5.305e-09\Dipole=-0.1415678,1.7405582,-0.2861431\Quad
 rupole=7.3103367,-10.369523,3.0591863,1.5369049,0.734018,1.3467094\PG=
 C01 [X(C11H13N3)]\\@


 IF THERE IS ONE WAY BETTER THAN ANOTHER IT IS THE WAY OF NATURE.

                          -- ARISTOTLE
 Job cpu time:       0 days  0 hours  6 minutes 18.1 seconds.
 Elapsed time:       0 days  0 hours  0 minutes 23.9 seconds.
 File lengths (MBytes):  RWF=     36 Int=      0 D2E=      0 Chk=      4 Scr=      1
 Normal termination of Gaussian 16 at Thu Mar  7 11:43:33 2024.
Thu Mar  7 11:43:33 CST 2024
