This job is running on host node85
Current directory: /share/home/Liaoyt/system-test/bnts-ome/ynets-vs/tmpdir
Thu Mar  7 14:29:04 CST 2024
/tmp/86109.mgr/run
 Entering Gaussian System, Link 0=g16
 Initial command:
 /share/apps/gaussian/g16/l1.exe "/tmp/86109.mgr/run/Gau-179174.inp" -scrdir="/tmp/86109.mgr/run/"
 Entering Link 1 = /share/apps/gaussian/g16/l1.exe PID=    179175.
  
 Copyright (c) 1988,1990,1992,1993,1995,1998,2003,2009,2016,
            Gaussian, Inc.  All Rights Reserved.
  
 This is part of the Gaussian(R) 16 program.  It is based on
 the Gaussian(R) 09 system (copyright 2009, Gaussian, Inc.),
 the Gaussian(R) 03 system (copyright 2003, Gaussian, Inc.),
 the Gaussian(R) 98 system (copyright 1998, Gaussian, Inc.),
 the Gaussian(R) 94 system (copyright 1995, Gaussian, Inc.),
 the Gaussian 92(TM) system (copyright 1992, Gaussian, Inc.),
 the Gaussian 90(TM) system (copyright 1990, Gaussian, Inc.),
 the Gaussian 88(TM) system (copyright 1988, Gaussian, Inc.),
 the Gaussian 86(TM) system (copyright 1986, Carnegie Mellon
 University), and the Gaussian 82(TM) system (copyright 1983,
 Carnegie Mellon University). Gaussian is a federally registered
 trademark of Gaussian, Inc.
  
 This software contains proprietary and confidential information,
 including trade secrets, belonging to Gaussian, Inc.
  
 This software is provided under written license and may be
 used, copied, transmitted, or stored only in accord with that
 written license.
  
 The following legend is applicable only to US Government
 contracts under FAR:
  
                    RESTRICTED RIGHTS LEGEND
  
 Use, reproduction and disclosure by the US Government is
 subject to restrictions as set forth in subparagraphs (a)
 and (c) of the Commercial Computer Software - Restricted
 Rights clause in FAR 52.227-19.
  
 Gaussian, Inc.
 340 Quinnipiac St., Bldg. 40, Wallingford CT 06492
  
  
 ---------------------------------------------------------------
 Warning -- This program may not be used in any manner that
 competes with the business of Gaussian, Inc. or will provide
 assistance to any competitor of Gaussian, Inc.  The licensee
 of this program is prohibited from giving any competitor of
 Gaussian, Inc. access to this program.  By using this program,
 the user acknowledges that Gaussian, Inc. is engaged in the
 business of creating and licensing software in the field of
 computational chemistry and represents and warrants to the
 licensee that it is not a competitor of Gaussian, Inc. and that
 it will not use this program in any manner prohibited above.
 ---------------------------------------------------------------
  

 Cite this work as:
 Gaussian 16, Revision A.03,
 M. J. Frisch, G. W. Trucks, H. B. Schlegel, G. E. Scuseria, 
 M. A. Robb, J. R. Cheeseman, G. Scalmani, V. Barone, 
 G. A. Petersson, H. Nakatsuji, X. Li, M. Caricato, A. V. Marenich, 
 J. Bloino, B. G. Janesko, R. Gomperts, B. Mennucci, H. P. Hratchian, 
 J. V. Ortiz, A. F. Izmaylov, J. L. Sonnenberg, D. Williams-Young, 
 F. Ding, F. Lipparini, F. Egidi, J. Goings, B. Peng, A. Petrone, 
 T. Henderson, D. Ranasinghe, V. G. Zakrzewski, J. Gao, N. Rega, 
 G. Zheng, W. Liang, M. Hada, M. Ehara, K. Toyota, R. Fukuda, 
 J. Hasegawa, M. Ishida, T. Nakajima, Y. Honda, O. Kitao, H. Nakai, 
 T. Vreven, K. Throssell, J. A. Montgomery, Jr., J. E. Peralta, 
 F. Ogliaro, M. J. Bearpark, J. J. Heyd, E. N. Brothers, K. N. Kudin, 
 V. N. Staroverov, T. A. Keith, R. Kobayashi, J. Normand, 
 K. Raghavachari, A. P. Rendell, J. C. Burant, S. S. Iyengar, 
 J. Tomasi, M. Cossi, J. M. Millam, M. Klene, C. Adamo, R. Cammi, 
 J. W. Ochterski, R. L. Martin, K. Morokuma, O. Farkas, 
 J. B. Foresman, and D. J. Fox, Gaussian, Inc., Wallingford CT, 2016.
 
 ******************************************
 Gaussian 16:  ES64L-G16RevA.03 25-Dec-2016
                 7-Mar-2024 
 ******************************************
 %chk=cutopt-pro.chk
 %nprocshared=16
 Will use up to   16 processors via shared memory.
 %mem=16GB
 ------------------------
 #p b3lyp/6-31g(d) em=gd3
 ------------------------
 1/38=1,172=1/1;
 2/12=2,17=6,18=5,40=1/2;
 3/5=1,6=6,7=1,11=2,25=1,30=1,74=-5,124=31/1,2,3;
 4//1;
 5/5=2,38=5/2;
 6/7=2,8=2,9=2,10=2,28=1/1;
 99/5=1,9=1/99;
 Leave Link    1 at Thu Mar  7 14:29:05 2024, MaxMem=  2147483648 cpu:               0.9 elap:               0.1
 (Enter /share/apps/gaussian/g16/l101.exe)
 -------------------
 tmpdir/Subs_0_0.gjf
 -------------------
 Symbolic Z-matrix:
 Charge =  0 Multiplicity = 1
 C                     3.80195  -0.40788  -1.35113 
 C                     1.12945  -2.04597  -0.15946 
 C                     1.63233  -0.66014   0.07121 
 C                     2.72807   0.03561  -0.40819 
 N                     1.00668   0.23941   0.88211 
 N                     1.66319   1.42486   0.89364 
 N                     2.70447   1.29713   0.11827 
 C                    -0.25952   0.10101   1.58653 
 H                    -0.23953  -0.82288   2.17451 
 H                    -0.29624   0.94273   2.28438 
 C                    -1.44968   0.11364   0.64542 
 C                    -2.44058  -0.8681    0.73123 
 C                    -1.5644    1.12296  -0.31924 
 C                    -3.5412   -0.84014  -0.1291 
 H                    -2.35268  -1.65898   1.47325 
 C                    -2.65991   1.14909  -1.18034 
 H                    -0.78676   1.87901  -0.39193 
 C                    -3.65202   0.1683   -1.08659 
 H                    -4.30543  -1.60903  -0.05391 
 H                    -2.74053   1.93536  -1.92606 
 H                    -4.50497   0.1898   -1.75946 
 H                     3.94479  -1.49316  -1.31472 
 H                     4.75018   0.07282  -1.09279 
 H                     3.56689  -0.13753  -2.38846 
 H                     1.81417  -2.59013  -0.81518 
 H                     1.04441  -2.60896   0.77893 
 H                     0.13834  -2.0391   -0.62881 
 
 ITRead=  0  0  0  0  0  0  0  0  0  0  0  0  0  0  0  0  0  0  0  0
 ITRead=  0  0  0  0  0  0  0
 MicOpt= -1 -1 -1 -1 -1 -1 -1 -1 -1 -1 -1 -1 -1 -1 -1 -1 -1 -1 -1 -1
 MicOpt= -1 -1 -1 -1 -1 -1 -1
 NAtoms=     27 NQM=       27 NQMF=       0 NMMI=      0 NMMIF=      0
                NMic=       0 NMicF=      0.
                    Isotopes and Nuclear Properties:
 (Nuclear quadrupole moments (NQMom) in fm**2, nuclear magnetic moments (NMagM)
  in nuclear magnetons)

  Atom         1           2           3           4           5           6           7           8           9          10
 IAtWgt=          12          12          12          12          14          14          14          12           1           1
 AtmWgt=  12.0000000  12.0000000  12.0000000  12.0000000  14.0030740  14.0030740  14.0030740  12.0000000   1.0078250   1.0078250
 NucSpn=           0           0           0           0           2           2           2           0           1           1
 AtZEff=  -0.0000000  -0.0000000  -0.0000000  -0.0000000  -0.0000000  -0.0000000  -0.0000000  -0.0000000  -0.0000000  -0.0000000
 NQMom=    0.0000000   0.0000000   0.0000000   0.0000000   2.0440000   2.0440000   2.0440000   0.0000000   0.0000000   0.0000000
 NMagM=    0.0000000   0.0000000   0.0000000   0.0000000   0.4037610   0.4037610   0.4037610   0.0000000   2.7928460   2.7928460
 AtZNuc=   6.0000000   6.0000000   6.0000000   6.0000000   7.0000000   7.0000000   7.0000000   6.0000000   1.0000000   1.0000000

  Atom        11          12          13          14          15          16          17          18          19          20
 IAtWgt=          12          12          12          12           1          12           1          12           1           1
 AtmWgt=  12.0000000  12.0000000  12.0000000  12.0000000   1.0078250  12.0000000   1.0078250  12.0000000   1.0078250   1.0078250
 NucSpn=           0           0           0           0           1           0           1           0           1           1
 AtZEff=  -0.0000000  -0.0000000  -0.0000000  -0.0000000  -0.0000000  -0.0000000  -0.0000000  -0.0000000  -0.0000000  -0.0000000
 NQMom=    0.0000000   0.0000000   0.0000000   0.0000000   0.0000000   0.0000000   0.0000000   0.0000000   0.0000000   0.0000000
 NMagM=    0.0000000   0.0000000   0.0000000   0.0000000   2.7928460   0.0000000   2.7928460   0.0000000   2.7928460   2.7928460
 AtZNuc=   6.0000000   6.0000000   6.0000000   6.0000000   1.0000000   6.0000000   1.0000000   6.0000000   1.0000000   1.0000000

  Atom        21          22          23          24          25          26          27
 IAtWgt=           1           1           1           1           1           1           1
 AtmWgt=   1.0078250   1.0078250   1.0078250   1.0078250   1.0078250   1.0078250   1.0078250
 NucSpn=           1           1           1           1           1           1           1
 AtZEff=  -0.0000000  -0.0000000  -0.0000000  -0.0000000  -0.0000000  -0.0000000  -0.0000000
 NQMom=    0.0000000   0.0000000   0.0000000   0.0000000   0.0000000   0.0000000   0.0000000
 NMagM=    2.7928460   2.7928460   2.7928460   2.7928460   2.7928460   2.7928460   2.7928460
 AtZNuc=   1.0000000   1.0000000   1.0000000   1.0000000   1.0000000   1.0000000   1.0000000
 Leave Link  101 at Thu Mar  7 14:29:05 2024, MaxMem=  2147483648 cpu:               2.4 elap:               0.2
 (Enter /share/apps/gaussian/g16/l202.exe)
                          Input orientation:                          
 ---------------------------------------------------------------------
 Center     Atomic      Atomic             Coordinates (Angstroms)
 Number     Number       Type             X           Y           Z
 ---------------------------------------------------------------------
      1          6           0        3.801952   -0.407883   -1.351129
      2          6           0        1.129452   -2.045973   -0.159460
      3          6           0        1.632328   -0.660136    0.071213
      4          6           0        2.728072    0.035605   -0.408187
      5          7           0        1.006681    0.239406    0.882112
      6          7           0        1.663185    1.424861    0.893637
      7          7           0        2.704473    1.297129    0.118268
      8          6           0       -0.259524    0.101011    1.586532
      9          1           0       -0.239533   -0.822882    2.174512
     10          1           0       -0.296243    0.942731    2.284379
     11          6           0       -1.449678    0.113638    0.645423
     12          6           0       -2.440578   -0.868099    0.731230
     13          6           0       -1.564397    1.122957   -0.319236
     14          6           0       -3.541195   -0.840139   -0.129102
     15          1           0       -2.352681   -1.658975    1.473245
     16          6           0       -2.659906    1.149094   -1.180345
     17          1           0       -0.786764    1.879010   -0.391929
     18          6           0       -3.652024    0.168304   -1.086588
     19          1           0       -4.305428   -1.609034   -0.053910
     20          1           0       -2.740533    1.935361   -1.926056
     21          1           0       -4.504974    0.189795   -1.759460
     22          1           0        3.944794   -1.493162   -1.314715
     23          1           0        4.750176    0.072815   -1.092785
     24          1           0        3.566886   -0.137527   -2.388460
     25          1           0        1.814171   -2.590127   -0.815178
     26          1           0        1.044407   -2.608964    0.778933
     27          1           0        0.138339   -2.039101   -0.628810
 ---------------------------------------------------------------------
                    Distance matrix (angstroms):
                    1          2          3          4          5
     1  C    0.000000
     2  C    3.353456   0.000000
     3  C    2.606522   1.492193   0.000000
     4  C    1.496342   2.636365   1.383667   0.000000
     5  N    3.635916   2.514538   1.363146   2.160924   0.000000
     6  N    3.601701   3.666139   2.241550   2.181459   1.355151
     7  N    2.504127   3.705962   2.232173   1.367170   2.141199
     8  C    5.038295   3.096334   2.540598   3.592897   1.455553
     9  H    5.379216   2.969427   2.820322   4.026663   2.086098
    10  H    5.642365   4.115496   3.344648   4.149611   2.039272
    11  C    5.642501   3.458854   3.229118   4.309267   2.470939
    12  C    6.596757   3.863396   4.131275   5.369348   3.623938
    13  C    5.675031   4.162267   3.681158   4.428943   2.972262
    14  C    7.456675   4.823889   5.180528   6.336286   4.782379
    15  H    6.886351   3.865326   4.340930   5.676745   3.903665
    16  C    6.648981   5.060622   4.823172   5.555753   4.304082
    17  H    5.215962   4.373948   3.537481   3.968939   2.743707
    18  C    7.480891   5.350243   5.472768   6.417434   5.058099
    19  H    8.297900   5.453437   6.014400   7.231907   5.701874
    20  H    6.973195   5.826548   5.463296   5.984868   4.980330
    21  H    8.338403   6.269403   6.460667   7.359801   6.112177
    22  H    1.095244   3.092954   2.821742   2.153911   4.057136
    23  H    1.094048   4.297674   3.407798   2.135173   4.235767
    24  H    1.097453   3.814668   3.172637   2.157560   4.170536
    25  H    3.000118   1.093119   2.131577   2.809862   3.396924
    26  H    4.121405   1.097621   2.155098   3.352272   2.850488
    27  H    4.074884   1.096650   2.150251   3.325627   2.868536
                    6          7          8          9         10
     6  N    0.000000
     7  N    1.304528   0.000000
     8  C    2.435055   3.517354   0.000000
     9  H    3.211437   4.170103   1.095307   0.000000
    10  H    2.450708   3.717786   1.093998   1.769937   0.000000
    11  C    3.386862   4.351496   1.517337   2.163246   2.168867
    12  C    4.703713   5.615646   2.535293   2.632434   3.207733
    13  C    3.461140   4.294764   2.525672   3.429334   2.901639
    14  C    5.767304   6.605867   3.820802   4.025905   4.419641
    15  H    5.096388   6.012430   2.737095   2.378281   3.414052
    16  C    4.802766   5.521311   3.809976   4.582790   4.199262
    17  H    2.803780   3.575979   2.711747   3.766471   2.877473
    18  C    5.809619   6.567418   4.319624   4.823102   4.819172
    19  H    6.762152   7.590398   4.688778   4.702702   5.296477
    20  H    5.253952   5.851042   4.675310   5.538733   4.968665
    21  H    6.827188   7.531811   5.406236   5.890300   5.884978
    22  H    4.312472   3.373064   5.351160   5.489314   6.072351
    23  H    3.911958   2.674041   5.681252   6.031144   6.134194
    24  H    4.103327   3.014246   5.522579   5.981576   6.158421
    25  H    4.366117   4.095695   4.160606   4.034737   5.151911
    26  H    4.082620   4.295330   3.113907   2.605040   4.083901
    27  H    4.079465   4.274763   3.105819   3.079057   4.191283
                   11         12         13         14         15
    11  C    0.000000
    12  C    1.397517   0.000000
    13  C    1.400876   2.415673   0.000000
    14  C    2.425700   1.397251   2.792423   0.000000
    15  H    2.154730   1.088024   3.401988   2.156519   0.000000
    16  C    2.422860   2.787704   1.393676   2.416367   3.875717
    17  H    2.152230   3.397528   1.087020   3.879399   4.295149
    18  C    2.802352   2.417891   2.420409   1.394998   3.402938
    19  H    3.407635   2.154784   3.879101   1.086695   2.479499
    20  H    3.405508   3.874343   2.150620   3.401985   4.962351
    21  H    3.888971   3.403587   3.404707   2.155853   4.301244
    22  H    5.960224   6.734209   6.179502   7.607375   6.889006
    23  H    6.439039   7.477920   6.447869   8.396964   7.748173
    24  H    5.868002   6.808511   5.674555   7.491540   7.229719
    25  H    4.482902   4.843516   5.044569   5.675659   4.844232
    26  H    3.694705   3.895896   4.683916   4.998101   3.595102
    27  H    2.963065   3.141937   3.604685   3.902075   3.281511
                   16         17         18         19         20
    16  C    0.000000
    17  H    2.159407   0.000000
    18  C    1.398227   3.408633   0.000000
    19  H    3.403508   4.966055   2.156917   0.000000
    20  H    1.086647   2.484740   2.158243   4.303088   0.000000
    21  H    2.158681   4.306817   1.086620   2.486867   2.487570
    22  H    7.114888   5.883088   7.779727   8.346809   7.538044
    23  H    7.488348   5.866110   8.402745   9.268864   7.763642
    24  H    6.472084   5.196809   7.341734   8.341989   6.655390
    25  H    5.842301   5.188178   6.128776   6.244323   6.516089
    26  H    5.628828   4.986584   5.766268   5.505835   6.503355
    27  H    4.277728   4.032806   4.410108   4.501392   5.076130
                   21         22         23         24         25
    21  H    0.000000
    22  H    8.627208   0.000000
    23  H    9.279868   1.774874   0.000000
    24  H    8.102944   1.770166   1.767256   0.000000
    25  H    6.967871   2.447943   3.973468   3.400364   0.000000
    26  H    6.713577   3.747082   4.942468   4.743762   1.770334
    27  H    5.273206   3.906100   5.093575   4.297358   1.773915
                   26         27
    26  H    0.000000
    27  H    1.768458   0.000000
 Stoichiometry    C11H13N3
 Framework group  C1[X(C11H13N3)]
 Deg. of freedom    75
 Full point group                 C1      NOp   1
 Largest Abelian subgroup         C1      NOp   1
 Largest concise Abelian subgroup C1      NOp   1
                         Standard orientation:                         
 ---------------------------------------------------------------------
 Center     Atomic      Atomic             Coordinates (Angstroms)
 Number     Number       Type             X           Y           Z
 ---------------------------------------------------------------------
      1          6           0        3.801952    0.407883    1.351129
      2          6           0        1.129452    2.045973    0.159460
      3          6           0        1.632328    0.660136   -0.071213
      4          6           0        2.728072   -0.035605    0.408187
      5          7           0        1.006681   -0.239406   -0.882112
      6          7           0        1.663185   -1.424861   -0.893637
      7          7           0        2.704473   -1.297129   -0.118268
      8          6           0       -0.259524   -0.101011   -1.586532
      9          1           0       -0.239533    0.822882   -2.174512
     10          1           0       -0.296243   -0.942731   -2.284379
     11          6           0       -1.449678   -0.113638   -0.645423
     12          6           0       -2.440578    0.868099   -0.731230
     13          6           0       -1.564397   -1.122957    0.319236
     14          6           0       -3.541195    0.840139    0.129102
     15          1           0       -2.352681    1.658975   -1.473245
     16          6           0       -2.659906   -1.149094    1.180345
     17          1           0       -0.786764   -1.879010    0.391929
     18          6           0       -3.652024   -0.168304    1.086588
     19          1           0       -4.305428    1.609034    0.053910
     20          1           0       -2.740533   -1.935361    1.926056
     21          1           0       -4.504974   -0.189795    1.759460
     22          1           0        3.944794    1.493162    1.314715
     23          1           0        4.750176   -0.072815    1.092785
     24          1           0        3.566886    0.137527    2.388460
     25          1           0        1.814171    2.590127    0.815178
     26          1           0        1.044407    2.608964   -0.778933
     27          1           0        0.138339    2.039101    0.628810
 ---------------------------------------------------------------------
 Rotational constants (GHZ):           1.4724501           0.4054812           0.3917062
 Leave Link  202 at Thu Mar  7 14:29:05 2024, MaxMem=  2147483648 cpu:               0.2 elap:               0.0
 (Enter /share/apps/gaussian/g16/l301.exe)
 Standard basis: 6-31G(d) (6D, 7F)
 Ernie: Thresh=  0.10000D-02 Tol=  0.10000D-05 Strict=F.
 There are   236 symmetry adapted cartesian basis functions of A   symmetry.
 There are   236 symmetry adapted basis functions of A   symmetry.
   236 basis functions,   444 primitive gaussians,   236 cartesian basis functions
    50 alpha electrons       50 beta electrons
       nuclear repulsion energy       848.2365947407 Hartrees.
 IExCor=  402 DFT=T Ex+Corr=B3LYP ExCW=0 ScaHFX=  0.200000
 ScaDFX=  0.800000  0.720000  1.000000  0.810000 ScalE2=  1.000000  1.000000
 IRadAn=      5 IRanWt=     -1 IRanGd=            0 ICorTp=0 IEmpDi=131
 NAtoms=   27 NActive=   27 NUniq=   27 SFac= 1.00D+00 NAtFMM=   60 NAOKFM=F Big=F
 Integral buffers will be    131072 words long.
 Raffenetti 2 integral format.
 Two-electron integral symmetry is turned on.
 R6Disp:  Grimme-D3 Dispersion energy=       -0.0224592224 Hartrees.
 Nuclear repulsion after empirical dispersion term =      848.2141355183 Hartrees.
 Leave Link  301 at Thu Mar  7 14:29:06 2024, MaxMem=  2147483648 cpu:               1.2 elap:               0.1
 (Enter /share/apps/gaussian/g16/l302.exe)
 NPDir=0 NMtPBC=     1 NCelOv=     1 NCel=       1 NClECP=     1 NCelD=      1
         NCelK=      1 NCelE2=     1 NClLst=     1 CellRange=     0.0.
 One-electron integrals computed using PRISM.
 One-electron integral symmetry used in STVInt
 NBasis=   236 RedAO= T EigKep=  4.72D-04  NBF=   236
 NBsUse=   236 1.00D-06 EigRej= -1.00D+00 NBFU=   236
 Precomputing XC quadrature grid using
 IXCGrd= 4 IRadAn=           5 IRanWt=          -1 IRanGd=           0 AccXCQ= 0.00D+00.
 Generated NRdTot=       0 NPtTot=           0 NUsed=           0 NTot=          32
 NSgBfM=   236   236   236   236   236 MxSgAt=    27 MxSgA2=    27.
 Leave Link  302 at Thu Mar  7 14:29:06 2024, MaxMem=  2147483648 cpu:               4.7 elap:               0.3
 (Enter /share/apps/gaussian/g16/l303.exe)
 DipDrv:  MaxL=1.
 Leave Link  303 at Thu Mar  7 14:29:07 2024, MaxMem=  2147483648 cpu:               0.6 elap:               0.1
 (Enter /share/apps/gaussian/g16/l401.exe)
 ExpMin= 1.61D-01 ExpMax= 4.17D+03 ExpMxC= 6.27D+02 IAcc=3 IRadAn=         5 AccDes= 0.00D+00
 Harris functional with IExCor=  402 and IRadAn=       5 diagonalized for initial guess.
 HarFok:  IExCor=  402 AccDes= 0.00D+00 IRadAn=         5 IDoV= 1 UseB2=F ITyADJ=14
 ICtDFT=  3500011 ScaDFX=  1.000000  1.000000  1.000000  1.000000
 FoFCou: FMM=F IPFlag=           0 FMFlag=      100000 FMFlg1=           0
         NFxFlg=           0 DoJE=T BraDBF=F KetDBF=T FulRan=T
         wScrn=  0.000000 ICntrl=       500 IOpCl=  0 I1Cent=   200000004 NGrid=           0
         NMat0=    1 NMatS0=      1 NMatT0=    0 NMatD0=    1 NMtDS0=    0 NMtDT0=    0
 Petite list used in FoFCou.
 Harris En= -591.245205295044    
 JPrj=0 DoOrth=F DoCkMO=F.
 Leave Link  401 at Thu Mar  7 14:29:08 2024, MaxMem=  2147483648 cpu:              16.6 elap:               1.1
 (Enter /share/apps/gaussian/g16/l502.exe)
 Integral symmetry usage will be decided dynamically.
 Closed shell SCF:
 Using DIIS extrapolation, IDIIS=  1040.
 NGot=  2147483648 LenX=  2147365737 LenY=  2147309600
 Requested convergence on RMS density matrix=1.00D-08 within 128 cycles.
 Requested convergence on MAX density matrix=1.00D-06.
 Requested convergence on             energy=1.00D-06.
 No special actions if energy rises.
 Fock matrices will be formed incrementally for  20 cycles.
 Integral accuracy reduced to 1.0D-05 until final iterations.

 Cycle   1  Pass 0  IDiag  1:
 FoFJK:  IHMeth= 1 ICntrl=       0 DoSepK=F KAlg= 0 I1Cent=           0 FoldK=F
 IRaf= 880000000 NMat=       1 IRICut=       1 DoRegI=T DoRafI=F ISym2E= 0 IDoP0=0 IntGTp=1.
 FoFCou: FMM=F IPFlag=           0 FMFlag=      100000 FMFlg1=           0
         NFxFlg=           0 DoJE=F BraDBF=F KetDBF=F FulRan=T
         wScrn=  0.000000 ICntrl=         0 IOpCl=  0 I1Cent=           0 NGrid=           0
         NMat0=    1 NMatS0=      1 NMatT0=    0 NMatD0=    1 NMtDS0=    0 NMtDT0=    0
 Symmetry not used in FoFCou.
 E= -590.933521926821    
 DIIS: error= 2.74D-02 at cycle   1 NSaved=   1.
 NSaved= 1 IEnMin= 1 EnMin= -590.933521926821     IErMin= 1 ErrMin= 2.74D-02
 ErrMax= 2.74D-02  0.00D+00 EMaxC= 1.00D-01 BMatC= 3.04D-01 BMatP= 3.04D-01
 IDIUse=3 WtCom= 7.26D-01 WtEn= 2.74D-01
 Coeff-Com:  0.100D+01
 Coeff-En:   0.100D+01
 Coeff:      0.100D+01
 Gap=     0.284 Goal=   None    Shift=    0.000
 GapD=    0.284 DampG=1.000 DampE=0.500 DampFc=0.5000 IDamp=-1.
 Damping current iteration by 5.00D-01
 RMSDP=5.47D-03 MaxDP=1.33D-01              OVMax= 1.91D-01

 Cycle   2  Pass 0  IDiag  1:
 RMSU=  2.69D-03    CP:  9.79D-01
 E= -591.062486574020     Delta-E=       -0.128964647199 Rises=F Damp=T
 DIIS: error= 7.50D-03 at cycle   2 NSaved=   2.
 NSaved= 2 IEnMin= 2 EnMin= -591.062486574020     IErMin= 2 ErrMin= 7.50D-03
 ErrMax= 7.50D-03  0.00D+00 EMaxC= 1.00D-01 BMatC= 3.32D-02 BMatP= 3.04D-01
 IDIUse=3 WtCom= 9.25D-01 WtEn= 7.50D-02
 Coeff-Com:  0.110D+00 0.890D+00
 Coeff-En:   0.174D+00 0.826D+00
 Coeff:      0.115D+00 0.885D+00
 Gap=     0.266 Goal=   None    Shift=    0.000
 RMSDP=1.90D-03 MaxDP=6.65D-02 DE=-1.29D-01 OVMax= 2.01D-01

 Cycle   3  Pass 0  IDiag  1:
 RMSU=  1.78D-03    CP:  9.67D-01  7.71D-01
 E= -591.208605783021     Delta-E=       -0.146119209001 Rises=F Damp=F
 DIIS: error= 1.44D-02 at cycle   3 NSaved=   3.
 NSaved= 3 IEnMin= 3 EnMin= -591.208605783021     IErMin= 2 ErrMin= 7.50D-03
 ErrMax= 1.44D-02  0.00D+00 EMaxC= 1.00D-01 BMatC= 4.91D-02 BMatP= 3.32D-02
 IDIUse=2 WtCom= 0.00D+00 WtEn= 1.00D+00
 Coeff-En:   0.000D+00 0.000D+00 0.100D+01
 Coeff:      0.000D+00 0.000D+00 0.100D+01
 Gap=     0.224 Goal=   None    Shift=    0.000
 RMSDP=3.04D-03 MaxDP=1.13D-01 DE=-1.46D-01 OVMax= 2.86D-01

 Cycle   4  Pass 0  IDiag  1:
 RMSU=  1.71D-03    CP:  9.72D-01  1.25D+00 -2.12D-01
 E= -591.010073129664     Delta-E=        0.198532653357 Rises=F Damp=F
 DIIS: error= 3.21D-02 at cycle   4 NSaved=   4.
 NSaved= 4 IEnMin= 3 EnMin= -591.208605783021     IErMin= 2 ErrMin= 7.50D-03
 ErrMax= 3.21D-02  0.00D+00 EMaxC= 1.00D-01 BMatC= 2.71D-01 BMatP= 3.32D-02
 IDIUse=2 WtCom= 0.00D+00 WtEn= 1.00D+00
 Coeff-En:   0.000D+00 0.000D+00 0.786D+00 0.214D+00
 Coeff:      0.000D+00 0.000D+00 0.786D+00 0.214D+00
 Gap=     0.235 Goal=   None    Shift=    0.000
 RMSDP=1.58D-03 MaxDP=6.65D-02 DE= 1.99D-01 OVMax= 1.43D-01

 Cycle   5  Pass 0  IDiag  1:
 RMSU=  2.69D-04    CP:  9.70D-01  9.74D-01  3.73D-01  4.83D-01
 E= -591.235590321214     Delta-E=       -0.225517191550 Rises=F Damp=F
 DIIS: error= 9.34D-03 at cycle   5 NSaved=   5.
 NSaved= 5 IEnMin= 5 EnMin= -591.235590321214     IErMin= 2 ErrMin= 7.50D-03
 ErrMax= 9.34D-03  0.00D+00 EMaxC= 1.00D-01 BMatC= 2.01D-02 BMatP= 3.32D-02
 IDIUse=3 WtCom= 9.07D-01 WtEn= 9.34D-02
 Coeff-Com:  0.120D-02 0.145D-01 0.311D+00-0.764D-01 0.750D+00
 Coeff-En:   0.000D+00 0.000D+00 0.338D+00 0.000D+00 0.662D+00
 Coeff:      0.109D-02 0.131D-01 0.314D+00-0.692D-01 0.741D+00
 Gap=     0.221 Goal=   None    Shift=    0.000
 RMSDP=6.11D-04 MaxDP=2.27D-02 DE=-2.26D-01 OVMax= 5.00D-02

 Cycle   6  Pass 0  IDiag  1:
 RMSU=  8.82D-05    CP:  9.69D-01  8.87D-01  6.21D-01  2.89D-01  7.41D-01
 E= -591.253856265752     Delta-E=       -0.018265944538 Rises=F Damp=F
 DIIS: error= 8.75D-04 at cycle   6 NSaved=   6.
 NSaved= 6 IEnMin= 6 EnMin= -591.253856265752     IErMin= 6 ErrMin= 8.75D-04
 ErrMax= 8.75D-04  0.00D+00 EMaxC= 1.00D-01 BMatC= 1.58D-04 BMatP= 2.01D-02
 IDIUse=3 WtCom= 9.91D-01 WtEn= 8.75D-03
 Coeff-Com: -0.171D-02 0.762D-02 0.148D+00-0.680D-01 0.477D+00 0.437D+00
 Coeff-En:   0.000D+00 0.000D+00 0.000D+00 0.000D+00 0.000D+00 0.100D+01
 Coeff:     -0.169D-02 0.755D-02 0.146D+00-0.674D-01 0.473D+00 0.442D+00
 Gap=     0.219 Goal=   None    Shift=    0.000
 RMSDP=6.14D-05 MaxDP=1.91D-03 DE=-1.83D-02 OVMax= 5.50D-03

 Cycle   7  Pass 0  IDiag  1:
 RMSU=  2.67D-05    CP:  9.69D-01  8.90D-01  6.10D-01  2.88D-01  8.33D-01
                    CP:  4.91D-01
 E= -591.254000631199     Delta-E=       -0.000144365447 Rises=F Damp=F
 DIIS: error= 1.75D-04 at cycle   7 NSaved=   7.
 NSaved= 7 IEnMin= 7 EnMin= -591.254000631199     IErMin= 7 ErrMin= 1.75D-04
 ErrMax= 1.75D-04  0.00D+00 EMaxC= 1.00D-01 BMatC= 7.37D-06 BMatP= 1.58D-04
 IDIUse=3 WtCom= 9.98D-01 WtEn= 1.75D-03
 Coeff-Com: -0.817D-03 0.311D-02 0.627D-01-0.324D-01 0.214D+00 0.240D+00
 Coeff-Com:  0.514D+00
 Coeff-En:   0.000D+00 0.000D+00 0.000D+00 0.000D+00 0.000D+00 0.000D+00
 Coeff-En:   0.100D+01
 Coeff:     -0.815D-03 0.310D-02 0.626D-01-0.323D-01 0.213D+00 0.239D+00
 Coeff:      0.515D+00
 Gap=     0.219 Goal=   None    Shift=    0.000
 RMSDP=1.52D-05 MaxDP=6.32D-04 DE=-1.44D-04 OVMax= 1.46D-03

 Cycle   8  Pass 0  IDiag  1:
 RMSU=  8.60D-06    CP:  9.69D-01  8.89D-01  6.11D-01  2.90D-01  8.24D-01
                    CP:  5.28D-01  5.82D-01
 E= -591.254006063896     Delta-E=       -0.000005432698 Rises=F Damp=F
 DIIS: error= 7.11D-05 at cycle   8 NSaved=   8.
 NSaved= 8 IEnMin= 8 EnMin= -591.254006063896     IErMin= 8 ErrMin= 7.11D-05
 ErrMax= 7.11D-05  0.00D+00 EMaxC= 1.00D-01 BMatC= 1.64D-06 BMatP= 7.37D-06
 IDIUse=1 WtCom= 1.00D+00 WtEn= 0.00D+00
 Coeff-Com:  0.320D-04-0.383D-03 0.982D-02-0.518D-02 0.324D-01 0.548D-01
 Coeff-Com:  0.335D+00 0.573D+00
 Coeff:      0.320D-04-0.383D-03 0.982D-02-0.518D-02 0.324D-01 0.548D-01
 Coeff:      0.335D+00 0.573D+00
 Gap=     0.219 Goal=   None    Shift=    0.000
 RMSDP=5.43D-06 MaxDP=2.15D-04 DE=-5.43D-06 OVMax= 4.22D-04

 Initial convergence to 1.0D-05 achieved.  Increase integral accuracy.
 Cycle   9  Pass 1  IDiag  1:
 E= -591.254016154870     Delta-E=       -0.000010090974 Rises=F Damp=F
 DIIS: error= 2.13D-05 at cycle   1 NSaved=   1.
 NSaved= 1 IEnMin= 1 EnMin= -591.254016154870     IErMin= 1 ErrMin= 2.13D-05
 ErrMax= 2.13D-05  0.00D+00 EMaxC= 1.00D-01 BMatC= 1.55D-07 BMatP= 1.55D-07
 IDIUse=1 WtCom= 1.00D+00 WtEn= 0.00D+00
 Coeff-Com:  0.100D+01
 Coeff:      0.100D+01
 Gap=     0.219 Goal=   None    Shift=    0.000
 RMSDP=5.43D-06 MaxDP=2.15D-04 DE=-1.01D-05 OVMax= 2.08D-04

 Cycle  10  Pass 1  IDiag  1:
 RMSU=  1.30D-05    CP:  1.00D+00
 E= -591.254016171189     Delta-E=       -0.000000016318 Rises=F Damp=F
 DIIS: error= 1.93D-05 at cycle   2 NSaved=   2.
 NSaved= 2 IEnMin= 2 EnMin= -591.254016171189     IErMin= 2 ErrMin= 1.93D-05
 ErrMax= 1.93D-05  0.00D+00 EMaxC= 1.00D-01 BMatC= 1.30D-07 BMatP= 1.55D-07
 IDIUse=1 WtCom= 1.00D+00 WtEn= 0.00D+00
 Coeff-Com:  0.473D+00 0.527D+00
 Coeff:      0.473D+00 0.527D+00
 Gap=     0.219 Goal=   None    Shift=    0.000
 RMSDP=2.29D-06 MaxDP=9.35D-05 DE=-1.63D-08 OVMax= 1.76D-04

 Cycle  11  Pass 1  IDiag  1:
 RMSU=  2.26D-06    CP:  1.00D+00  9.71D-01
 E= -591.254016265798     Delta-E=       -0.000000094609 Rises=F Damp=F
 DIIS: error= 1.18D-05 at cycle   3 NSaved=   3.
 NSaved= 3 IEnMin= 3 EnMin= -591.254016265798     IErMin= 3 ErrMin= 1.18D-05
 ErrMax= 1.18D-05  0.00D+00 EMaxC= 1.00D-01 BMatC= 3.06D-08 BMatP= 1.30D-07
 IDIUse=1 WtCom= 1.00D+00 WtEn= 0.00D+00
 Coeff-Com:  0.998D-01 0.323D+00 0.577D+00
 Coeff:      0.998D-01 0.323D+00 0.577D+00
 Gap=     0.219 Goal=   None    Shift=    0.000
 RMSDP=9.83D-07 MaxDP=4.19D-05 DE=-9.46D-08 OVMax= 9.49D-05

 Cycle  12  Pass 1  IDiag  1:
 RMSU=  7.47D-07    CP:  1.00D+00  9.82D-01  7.24D-01
 E= -591.254016288288     Delta-E=       -0.000000022490 Rises=F Damp=F
 DIIS: error= 4.37D-06 at cycle   4 NSaved=   4.
 NSaved= 4 IEnMin= 4 EnMin= -591.254016288288     IErMin= 4 ErrMin= 4.37D-06
 ErrMax= 4.37D-06  0.00D+00 EMaxC= 1.00D-01 BMatC= 6.30D-09 BMatP= 3.06D-08
 IDIUse=1 WtCom= 1.00D+00 WtEn= 0.00D+00
 Coeff-Com: -0.107D-02 0.136D+00 0.383D+00 0.483D+00
 Coeff:     -0.107D-02 0.136D+00 0.383D+00 0.483D+00
 Gap=     0.219 Goal=   None    Shift=    0.000
 RMSDP=3.91D-07 MaxDP=1.00D-05 DE=-2.25D-08 OVMax= 2.91D-05

 Cycle  13  Pass 1  IDiag  1:
 RMSU=  9.99D-08    CP:  1.00D+00  9.85D-01  7.47D-01  5.03D-01
 E= -591.254016294324     Delta-E=       -0.000000006037 Rises=F Damp=F
 DIIS: error= 5.22D-07 at cycle   5 NSaved=   5.
 NSaved= 5 IEnMin= 5 EnMin= -591.254016294324     IErMin= 5 ErrMin= 5.22D-07
 ErrMax= 5.22D-07  0.00D+00 EMaxC= 1.00D-01 BMatC= 1.18D-10 BMatP= 6.30D-09
 IDIUse=1 WtCom= 1.00D+00 WtEn= 0.00D+00
 Coeff-Com: -0.239D-02 0.734D-01 0.214D+00 0.281D+00 0.434D+00
 Coeff:     -0.239D-02 0.734D-01 0.214D+00 0.281D+00 0.434D+00
 Gap=     0.219 Goal=   None    Shift=    0.000
 RMSDP=5.51D-08 MaxDP=1.97D-06 DE=-6.04D-09 OVMax= 3.45D-06

 Cycle  14  Pass 1  IDiag  1:
 RMSU=  3.07D-08    CP:  1.00D+00  9.86D-01  7.42D-01  5.04D-01  5.57D-01
 E= -591.254016294430     Delta-E=       -0.000000000106 Rises=F Damp=F
 DIIS: error= 1.10D-07 at cycle   6 NSaved=   6.
 NSaved= 6 IEnMin= 6 EnMin= -591.254016294430     IErMin= 6 ErrMin= 1.10D-07
 ErrMax= 1.10D-07  0.00D+00 EMaxC= 1.00D-01 BMatC= 5.42D-12 BMatP= 1.18D-10
 IDIUse=1 WtCom= 1.00D+00 WtEn= 0.00D+00
 Coeff-Com: -0.118D-02 0.277D-01 0.836D-01 0.109D+00 0.225D+00 0.556D+00
 Coeff:     -0.118D-02 0.277D-01 0.836D-01 0.109D+00 0.225D+00 0.556D+00
 Gap=     0.219 Goal=   None    Shift=    0.000
 RMSDP=1.32D-08 MaxDP=3.87D-07 DE=-1.06D-10 OVMax= 7.84D-07

 Cycle  15  Pass 1  IDiag  1:
 RMSU=  1.07D-08    CP:  1.00D+00  9.86D-01  7.43D-01  5.03D-01  5.94D-01
                    CP:  7.86D-01
 E= -591.254016294427     Delta-E=        0.000000000004 Rises=F Damp=F
 DIIS: error= 3.99D-08 at cycle   7 NSaved=   7.
 NSaved= 7 IEnMin= 6 EnMin= -591.254016294430     IErMin= 7 ErrMin= 3.99D-08
 ErrMax= 3.99D-08  0.00D+00 EMaxC= 1.00D-01 BMatC= 7.73D-13 BMatP= 5.42D-12
 IDIUse=1 WtCom= 1.00D+00 WtEn= 0.00D+00
 Coeff-Com: -0.316D-03 0.552D-02 0.185D-01 0.221D-01 0.636D-01 0.302D+00
 Coeff-Com:  0.588D+00
 Coeff:     -0.316D-03 0.552D-02 0.185D-01 0.221D-01 0.636D-01 0.302D+00
 Coeff:      0.588D+00
 Gap=     0.219 Goal=   None    Shift=    0.000
 RMSDP=5.03D-09 MaxDP=1.60D-07 DE= 3.64D-12 OVMax= 2.95D-07

 SCF Done:  E(RB3LYP) =  -591.254016294     A.U. after   15 cycles
            NFock= 15  Conv=0.50D-08     -V/T= 2.0097
 KE= 5.855853755511D+02 PE=-3.067148567772D+03 EE= 1.042095040408D+03
 Leave Link  502 at Thu Mar  7 14:29:23 2024, MaxMem=  2147483648 cpu:             231.9 elap:              14.5
 (Enter /share/apps/gaussian/g16/l601.exe)
 Copying SCF densities to generalized density rwf, IOpCl= 0 IROHF=0.

 **********************************************************************

            Population analysis using the SCF density.

 **********************************************************************

 Orbital symmetries:
       Occupied  (A) (A) (A) (A) (A) (A) (A) (A) (A) (A) (A) (A)
                 (A) (A) (A) (A) (A) (A) (A) (A) (A) (A) (A) (A)
                 (A) (A) (A) (A) (A) (A) (A) (A) (A) (A) (A) (A)
                 (A) (A) (A) (A) (A) (A) (A) (A) (A) (A) (A) (A)
                 (A) (A)
       Virtual   (A) (A) (A) (A) (A) (A) (A) (A) (A) (A) (A) (A)
                 (A) (A) (A) (A) (A) (A) (A) (A) (A) (A) (A) (A)
                 (A) (A) (A) (A) (A) (A) (A) (A) (A) (A) (A) (A)
                 (A) (A) (A) (A) (A) (A) (A) (A) (A) (A) (A) (A)
                 (A) (A) (A) (A) (A) (A) (A) (A) (A) (A) (A) (A)
                 (A) (A) (A) (A) (A) (A) (A) (A) (A) (A) (A) (A)
                 (A) (A) (A) (A) (A) (A) (A) (A) (A) (A) (A) (A)
                 (A) (A) (A) (A) (A) (A) (A) (A) (A) (A) (A) (A)
                 (A) (A) (A) (A) (A) (A) (A) (A) (A) (A) (A) (A)
                 (A) (A) (A) (A) (A) (A) (A) (A) (A) (A) (A) (A)
                 (A) (A) (A) (A) (A) (A) (A) (A) (A) (A) (A) (A)
                 (A) (A) (A) (A) (A) (A) (A) (A) (A) (A) (A) (A)
                 (A) (A) (A) (A) (A) (A) (A) (A) (A) (A) (A) (A)
                 (A) (A) (A) (A) (A) (A) (A) (A) (A) (A) (A) (A)
                 (A) (A) (A) (A) (A) (A) (A) (A) (A) (A) (A) (A)
                 (A) (A) (A) (A) (A) (A)
 The electronic state is 1-A.
 Alpha  occ. eigenvalues --  -14.41092 -14.37253 -14.33388 -10.24382 -10.22520
 Alpha  occ. eigenvalues --  -10.20812 -10.20353 -10.20267 -10.20063 -10.19912
 Alpha  occ. eigenvalues --  -10.19788 -10.19733 -10.19514 -10.18316  -1.07941
 Alpha  occ. eigenvalues --   -0.91065  -0.86046  -0.81742  -0.77949  -0.75212
 Alpha  occ. eigenvalues --   -0.73575  -0.70686  -0.69299  -0.61511  -0.60589
 Alpha  occ. eigenvalues --   -0.58903  -0.56711  -0.52565  -0.50401  -0.47986
 Alpha  occ. eigenvalues --   -0.46189  -0.45800  -0.44206  -0.43080  -0.42745
 Alpha  occ. eigenvalues --   -0.42358  -0.41697  -0.40847  -0.39682  -0.39458
 Alpha  occ. eigenvalues --   -0.38388  -0.36471  -0.35590  -0.34958  -0.31299
 Alpha  occ. eigenvalues --   -0.27476  -0.25856  -0.25356  -0.25110  -0.23367
 Alpha virt. eigenvalues --   -0.01469  -0.00922   0.01026   0.06015   0.07919
 Alpha virt. eigenvalues --    0.09246   0.10776   0.12180   0.13401   0.14376
 Alpha virt. eigenvalues --    0.14697   0.15510   0.15696   0.16681   0.17635
 Alpha virt. eigenvalues --    0.18029   0.18757   0.19966   0.20638   0.22154
 Alpha virt. eigenvalues --    0.23902   0.25242   0.27329   0.29368   0.29754
 Alpha virt. eigenvalues --    0.31164   0.31602   0.33140   0.34137   0.41851
 Alpha virt. eigenvalues --    0.44398   0.45882   0.47890   0.48288   0.50089
 Alpha virt. eigenvalues --    0.50904   0.53203   0.53453   0.54512   0.55949
 Alpha virt. eigenvalues --    0.56178   0.58702   0.58791   0.59725   0.60341
 Alpha virt. eigenvalues --    0.60772   0.61106   0.61816   0.62439   0.63316
 Alpha virt. eigenvalues --    0.65248   0.66570   0.67064   0.68276   0.68974
 Alpha virt. eigenvalues --    0.70507   0.73815   0.74635   0.75498   0.75916
 Alpha virt. eigenvalues --    0.76922   0.80045   0.80437   0.81315   0.82953
 Alpha virt. eigenvalues --    0.83547   0.84312   0.85871   0.87039   0.87072
 Alpha virt. eigenvalues --    0.87782   0.89572   0.89925   0.91402   0.92197
 Alpha virt. eigenvalues --    0.93673   0.94679   0.95280   0.95530   0.96248
 Alpha virt. eigenvalues --    0.97910   0.99945   1.00473   1.03083   1.08698
 Alpha virt. eigenvalues --    1.09070   1.12361   1.14549   1.14826   1.16640
 Alpha virt. eigenvalues --    1.20004   1.21501   1.25227   1.27452   1.29444
 Alpha virt. eigenvalues --    1.33962   1.35908   1.38062   1.41778   1.42618
 Alpha virt. eigenvalues --    1.43160   1.45630   1.46777   1.48426   1.49990
 Alpha virt. eigenvalues --    1.50533   1.52449   1.53491   1.57856   1.60547
 Alpha virt. eigenvalues --    1.61266   1.64595   1.75155   1.77977   1.78135
 Alpha virt. eigenvalues --    1.81346   1.81519   1.82935   1.84391   1.88748
 Alpha virt. eigenvalues --    1.90937   1.91266   1.93673   1.95100   1.96761
 Alpha virt. eigenvalues --    1.97054   1.98712   2.01691   2.04616   2.07283
 Alpha virt. eigenvalues --    2.10480   2.12606   2.13604   2.14513   2.14747
 Alpha virt. eigenvalues --    2.19219   2.20290   2.20784   2.22360   2.25375
 Alpha virt. eigenvalues --    2.26129   2.29015   2.30188   2.30495   2.30741
 Alpha virt. eigenvalues --    2.32251   2.34013   2.36821   2.41483   2.43141
 Alpha virt. eigenvalues --    2.48078   2.51105   2.53104   2.55889   2.58106
 Alpha virt. eigenvalues --    2.60025   2.63783   2.64792   2.70718   2.71626
 Alpha virt. eigenvalues --    2.73237   2.73632   2.75427   2.79070   2.83716
 Alpha virt. eigenvalues --    2.83776   2.87227   3.04523   3.07869   3.13004
 Alpha virt. eigenvalues --    3.19557   3.40104   3.65263   4.03510   4.05387
 Alpha virt. eigenvalues --    4.08400   4.11365   4.12764   4.19011   4.22715
 Alpha virt. eigenvalues --    4.30562   4.33658   4.36319   4.43795   4.62659
 Alpha virt. eigenvalues --    4.69391
          Condensed to atoms (all electrons):
               1          2          3          4          5          6
     1  C    5.178544  -0.005971  -0.064768   0.372299   0.006040   0.007089
     2  C   -0.005971   5.203737   0.370083  -0.056686  -0.070347   0.005403
     3  C   -0.064768   0.370083   4.774014   0.533007   0.287727  -0.082642
     4  C    0.372299  -0.056686   0.533007   4.795972  -0.024394  -0.096497
     5  N    0.006040  -0.070347   0.287727  -0.024394   6.907916   0.182654
     6  N    0.007089   0.005403  -0.082642  -0.096497   0.182654   6.774519
     7  N   -0.067201   0.006999  -0.026574   0.348424  -0.119484   0.328350
     8  C   -0.000194  -0.001496  -0.045926   0.006149   0.260160  -0.042384
     9  H   -0.000002   0.001320  -0.003239   0.000058  -0.033397   0.002688
    10  H    0.000002   0.000008   0.005667  -0.000174  -0.040282   0.009973
    11  C    0.000005  -0.001872   0.002826  -0.000262  -0.058154  -0.003468
    12  C    0.000000  -0.001031   0.000198  -0.000025   0.000569  -0.000069
    13  C    0.000001  -0.000266   0.001493  -0.000141  -0.003651  -0.000839
    14  C    0.000000  -0.000043  -0.000025   0.000000  -0.000089   0.000000
    15  H    0.000000   0.000059  -0.000026  -0.000001   0.000160  -0.000000
    16  C   -0.000000   0.000012  -0.000100  -0.000013   0.000040   0.000105
    17  H   -0.000010  -0.000077   0.000440  -0.000082  -0.000835   0.009103
    18  C   -0.000000   0.000010   0.000003   0.000001  -0.000002   0.000001
    19  H   -0.000000  -0.000001   0.000000  -0.000000   0.000001  -0.000000
    20  H    0.000000   0.000000   0.000001  -0.000000   0.000005  -0.000001
    21  H   -0.000000   0.000000  -0.000000   0.000000   0.000000   0.000000
    22  H    0.361088   0.000871  -0.001760  -0.026246   0.000013  -0.000179
    23  H    0.364321   0.000014   0.003333  -0.025498   0.000005  -0.000053
    24  H    0.367000   0.000225  -0.000689  -0.029267   0.000013  -0.000004
    25  H    0.003025   0.365110  -0.024465  -0.004666   0.003262  -0.000104
    26  H    0.000073   0.360219  -0.026648   0.001069  -0.003146   0.000011
    27  H    0.000113   0.359619  -0.025294   0.000616  -0.003191   0.000032
               7          8          9         10         11         12
     1  C   -0.067201  -0.000194  -0.000002   0.000002   0.000005   0.000000
     2  C    0.006999  -0.001496   0.001320   0.000008  -0.001872  -0.001031
     3  C   -0.026574  -0.045926  -0.003239   0.005667   0.002826   0.000198
     4  C    0.348424   0.006149   0.000058  -0.000174  -0.000262  -0.000025
     5  N   -0.119484   0.260160  -0.033397  -0.040282  -0.058154   0.000569
     6  N    0.328350  -0.042384   0.002688   0.009973  -0.003468  -0.000069
     7  N    6.851587   0.006931  -0.000297   0.000011   0.000034   0.000004
     8  C    0.006931   5.117626   0.360271   0.357459   0.333380  -0.046129
     9  H   -0.000297   0.360271   0.572017  -0.028965  -0.044169  -0.004872
    10  H    0.000011   0.357459  -0.028965   0.522859  -0.025400   0.001627
    11  C    0.000034   0.333380  -0.044169  -0.025400   4.714095   0.546611
    12  C    0.000004  -0.046129  -0.004872   0.001627   0.546611   4.968356
    13  C   -0.000202  -0.065514   0.005364  -0.004659   0.538299  -0.047025
    14  C   -0.000000   0.006199   0.000104  -0.000203  -0.020235   0.524981
    15  H   -0.000000  -0.010615   0.007369   0.000190  -0.044940   0.353057
    16  C   -0.000000   0.005722  -0.000113  -0.000034  -0.019107  -0.044794
    17  H    0.000089  -0.009438   0.000103   0.001721  -0.043809   0.005569
    18  C   -0.000000   0.000395  -0.000008   0.000033  -0.035788  -0.036757
    19  H    0.000000  -0.000165  -0.000006   0.000003   0.003867  -0.040206
    20  H   -0.000000  -0.000187   0.000003  -0.000000   0.003650   0.000888
    21  H   -0.000000   0.000008  -0.000000  -0.000000   0.000697   0.004744
    22  H    0.002873  -0.000001  -0.000001   0.000000   0.000001  -0.000000
    23  H    0.001488   0.000002  -0.000000  -0.000000   0.000000  -0.000000
    24  H   -0.000744   0.000003   0.000000  -0.000000  -0.000002   0.000000
    25  H    0.000046   0.000020  -0.000016   0.000004   0.000093   0.000035
    26  H   -0.000131   0.000820   0.002127  -0.000006  -0.000143  -0.000017
    27  H   -0.000120   0.000624  -0.000482   0.000022   0.003652   0.003552
              13         14         15         16         17         18
     1  C    0.000001   0.000000   0.000000  -0.000000  -0.000010  -0.000000
     2  C   -0.000266  -0.000043   0.000059   0.000012  -0.000077   0.000010
     3  C    0.001493  -0.000025  -0.000026  -0.000100   0.000440   0.000003
     4  C   -0.000141   0.000000  -0.000001  -0.000013  -0.000082   0.000001
     5  N   -0.003651  -0.000089   0.000160   0.000040  -0.000835  -0.000002
     6  N   -0.000839   0.000000  -0.000000   0.000105   0.009103   0.000001
     7  N   -0.000202  -0.000000  -0.000000  -0.000000   0.000089  -0.000000
     8  C   -0.065514   0.006199  -0.010615   0.005722  -0.009438   0.000395
     9  H    0.005364   0.000104   0.007369  -0.000113   0.000103  -0.000008
    10  H   -0.004659  -0.000203   0.000190  -0.000034   0.001721   0.000033
    11  C    0.538299  -0.020235  -0.044940  -0.019107  -0.043809  -0.035788
    12  C   -0.047025   0.524981   0.353057  -0.044794   0.005569  -0.036757
    13  C    4.976071  -0.045613   0.006279   0.526195   0.353632  -0.035188
    14  C   -0.045613   4.860457  -0.044507  -0.025730   0.000329   0.553243
    15  H    0.006279  -0.044507   0.607368   0.000319  -0.000160   0.004751
    16  C    0.526195  -0.025730   0.000319   4.862122  -0.038569   0.543874
    17  H    0.353632   0.000329  -0.000160  -0.038569   0.560141   0.004446
    18  C   -0.035188   0.553243   0.004751   0.543874   0.004446   4.853696
    19  H    0.000741   0.357950  -0.005482   0.004597   0.000015  -0.042380
    20  H   -0.039253   0.004513   0.000017   0.358694  -0.004958  -0.042817
    21  H    0.004666  -0.042961  -0.000178  -0.042607  -0.000161   0.359913
    22  H    0.000000  -0.000000  -0.000000  -0.000000   0.000000   0.000000
    23  H    0.000000   0.000000   0.000000  -0.000000  -0.000000   0.000000
    24  H   -0.000001  -0.000000   0.000000   0.000000   0.000003  -0.000000
    25  H    0.000007   0.000001   0.000001  -0.000001   0.000002  -0.000000
    26  H   -0.000006  -0.000001   0.000116  -0.000001  -0.000005   0.000000
    27  H    0.000477   0.000071   0.000013  -0.000046   0.000068  -0.000040
              19         20         21         22         23         24
     1  C   -0.000000   0.000000  -0.000000   0.361088   0.364321   0.367000
     2  C   -0.000001   0.000000   0.000000   0.000871   0.000014   0.000225
     3  C    0.000000   0.000001  -0.000000  -0.001760   0.003333  -0.000689
     4  C   -0.000000  -0.000000   0.000000  -0.026246  -0.025498  -0.029267
     5  N    0.000001   0.000005   0.000000   0.000013   0.000005   0.000013
     6  N   -0.000000  -0.000001   0.000000  -0.000179  -0.000053  -0.000004
     7  N    0.000000  -0.000000  -0.000000   0.002873   0.001488  -0.000744
     8  C   -0.000165  -0.000187   0.000008  -0.000001   0.000002   0.000003
     9  H   -0.000006   0.000003  -0.000000  -0.000001  -0.000000   0.000000
    10  H    0.000003  -0.000000  -0.000000   0.000000  -0.000000  -0.000000
    11  C    0.003867   0.003650   0.000697   0.000001   0.000000  -0.000002
    12  C   -0.040206   0.000888   0.004744  -0.000000  -0.000000   0.000000
    13  C    0.000741  -0.039253   0.004666   0.000000   0.000000  -0.000001
    14  C    0.357950   0.004513  -0.042961  -0.000000   0.000000  -0.000000
    15  H   -0.005482   0.000017  -0.000178  -0.000000   0.000000   0.000000
    16  C    0.004597   0.358694  -0.042607  -0.000000  -0.000000   0.000000
    17  H    0.000015  -0.004958  -0.000161   0.000000  -0.000000   0.000003
    18  C   -0.042380  -0.042817   0.359913   0.000000   0.000000  -0.000000
    19  H    0.592998  -0.000180  -0.005542  -0.000000  -0.000000   0.000000
    20  H   -0.000180   0.586855  -0.005438  -0.000000  -0.000000   0.000000
    21  H   -0.005542  -0.005438   0.592588   0.000000  -0.000000  -0.000000
    22  H   -0.000000  -0.000000   0.000000   0.567140  -0.025066  -0.032682
    23  H   -0.000000  -0.000000  -0.000000  -0.025066   0.533009  -0.028934
    24  H    0.000000   0.000000  -0.000000  -0.032682  -0.028934   0.558801
    25  H   -0.000000   0.000000  -0.000000   0.004133  -0.000106  -0.000142
    26  H    0.000000   0.000000  -0.000000   0.000063   0.000011  -0.000025
    27  H   -0.000001  -0.000001  -0.000000  -0.000119  -0.000005   0.000080
              25         26         27
     1  C    0.003025   0.000073   0.000113
     2  C    0.365110   0.360219   0.359619
     3  C   -0.024465  -0.026648  -0.025294
     4  C   -0.004666   0.001069   0.000616
     5  N    0.003262  -0.003146  -0.003191
     6  N   -0.000104   0.000011   0.000032
     7  N    0.000046  -0.000131  -0.000120
     8  C    0.000020   0.000820   0.000624
     9  H   -0.000016   0.002127  -0.000482
    10  H    0.000004  -0.000006   0.000022
    11  C    0.000093  -0.000143   0.003652
    12  C    0.000035  -0.000017   0.003552
    13  C    0.000007  -0.000006   0.000477
    14  C    0.000001  -0.000001   0.000071
    15  H    0.000001   0.000116   0.000013
    16  C   -0.000001  -0.000001  -0.000046
    17  H    0.000002  -0.000005   0.000068
    18  C   -0.000000   0.000000  -0.000040
    19  H   -0.000000   0.000000  -0.000001
    20  H    0.000000   0.000000  -0.000001
    21  H   -0.000000  -0.000000  -0.000000
    22  H    0.004133   0.000063  -0.000119
    23  H   -0.000106   0.000011  -0.000005
    24  H   -0.000142  -0.000025   0.000080
    25  H    0.531887  -0.026364  -0.024041
    26  H   -0.026364   0.561848  -0.034710
    27  H   -0.024041  -0.034710   0.534073
 Mulliken charges:
               1
     1  C   -0.521454
     2  C   -0.535896
     3  C    0.323365
     4  C    0.206357
     5  N   -0.291592
     6  N   -0.093689
     7  N   -0.332082
     8  C   -0.233718
     9  H    0.164143
    10  H    0.200145
    11  C    0.150136
    12  C   -0.189264
    13  C   -0.170865
    14  C   -0.128442
    15  H    0.126210
    16  C   -0.130564
    17  H    0.162442
    18  C   -0.127384
    19  H    0.133792
    20  H    0.138209
    21  H    0.134270
    22  H    0.149871
    23  H    0.177480
    24  H    0.166365
    25  H    0.172282
    26  H    0.164846
    27  H    0.185038
 Sum of Mulliken charges =  -0.00000
 Mulliken charges with hydrogens summed into heavy atoms:
               1
     1  C   -0.027738
     2  C   -0.013730
     3  C    0.323365
     4  C    0.206357
     5  N   -0.291592
     6  N   -0.093689
     7  N   -0.332082
     8  C    0.130570
    11  C    0.150136
    12  C   -0.063054
    13  C   -0.008423
    14  C    0.005349
    16  C    0.007645
    18  C    0.006886
 Electronic spatial extent (au):  <R**2>=           3057.2777
 Charge=             -0.0000 electrons
 Dipole moment (field-independent basis, Debye):
    X=             -2.6652    Y=              3.8173    Z=              0.4744  Tot=              4.6798
 Quadrupole moment (field-independent basis, Debye-Ang):
   XX=            -82.7370   YY=            -83.5637   ZZ=            -78.5009
   XY=              7.3695   XZ=              1.6912   YZ=             -3.9887
 Traceless Quadrupole moment (field-independent basis, Debye-Ang):
   XX=             -1.1364   YY=             -1.9632   ZZ=              3.0996
   XY=              7.3695   XZ=              1.6912   YZ=             -3.9887
 Octapole moment (field-independent basis, Debye-Ang**2):
  XXX=            -17.4734  YYY=             13.3957  ZZZ=             -4.9251  XYY=            -12.9014
  XXY=             30.2551  XXZ=             24.4705  XZZ=             -1.6605  YZZ=             -0.3397
  YYZ=              3.5121  XYZ=              4.3061
 Hexadecapole moment (field-independent basis, Debye-Ang**3):
 XXXX=          -2934.0191 YYYY=           -637.2683 ZZZZ=           -493.4769 XXXY=              6.7582
 XXXZ=            -29.7161 YYYX=             28.3709 YYYZ=            -14.9555 ZZZX=             -1.0601
 ZZZY=             -9.2490 XXYY=           -631.3259 XXZZ=           -572.1357 YYZZ=           -182.9972
 XXYZ=            -19.7368 YYXZ=              5.3716 ZZXY=             10.5131
 N-N= 8.482141355183D+02 E-N=-3.067148579357D+03  KE= 5.855853755511D+02
 No NMR shielding tensors so no spin-rotation constants.
 Leave Link  601 at Thu Mar  7 14:29:23 2024, MaxMem=  2147483648 cpu:               2.5 elap:               0.2
 (Enter /share/apps/gaussian/g16/l9999.exe)
 1\1\GINC-NODE85\SP\RB3LYP\6-31G(d)\C11H13N3\LIAOYT\07-Mar-2024\0\\#p b
 3lyp/6-31g(d) em=gd3\\tmpdir/Subs_0_0.gjf\\0,1\C,0,3.801952,-0.407883,
 -1.351129\C,0,1.129452,-2.045973,-0.15946\C,0,1.632328,-0.660136,0.071
 213\C,0,2.728072,0.035605,-0.408187\N,0,1.006681,0.239406,0.882112\N,0
 ,1.663185,1.424861,0.893637\N,0,2.704473,1.297129,0.118268\C,0,-0.2595
 24,0.101011,1.586532\H,0,-0.239533,-0.822882,2.174512\H,0,-0.296243,0.
 942731,2.284379\C,0,-1.449678,0.113638,0.645423\C,0,-2.440578,-0.86809
 9,0.73123\C,0,-1.564397,1.122957,-0.319236\C,0,-3.541195,-0.840139,-0.
 129102\H,0,-2.352681,-1.658975,1.473245\C,0,-2.659906,1.149094,-1.1803
 45\H,0,-0.786764,1.87901,-0.391929\C,0,-3.652024,0.168304,-1.086588\H,
 0,-4.305428,-1.609034,-0.05391\H,0,-2.740533,1.935361,-1.926056\H,0,-4
 .504974,0.189795,-1.75946\H,0,3.944794,-1.493162,-1.314715\H,0,4.75017
 6,0.072815,-1.092785\H,0,3.566886,-0.137527,-2.38846\H,0,1.814171,-2.5
 90127,-0.815178\H,0,1.044407,-2.608964,0.778933\H,0,0.138339,-2.039101
 ,-0.62881\\Version=ES64L-G16RevA.03\State=1-A\HF=-591.2540163\RMSD=5.0
 29e-09\Dipole=-1.0485792,-1.5018369,-0.1866494\Quadrupole=-0.8449223,-
 1.4595664,2.3044888,-5.4790695,-1.2573719,-2.9655001\PG=C01 [X(C11H13N
 3)]\\@


 TIME IS IN FACT THE HERO OF THE PLOT. THE TIME
 WITH WHICH WE HAVE TO DEAL IS OF THE ORDER OF TWO
 BILLION YEARS...GIVEN SO MUCH TIME, THE "IMPOSSIBLE"
 BECOMES POSSIBLE, THE POSSIBLE PROBABLE, THE PROBABLE
 VIRTUALLY CERTAIN.  ONE HAS ONLY TO WAIT, TIME
 ITSELF PERFORMS THE MIRACLES.
 "ORIGIN OF LIFE" LECTURES, GEORGE WALD, 1954
 Job cpu time:       0 days  0 hours  4 minutes 21.8 seconds.
 Elapsed time:       0 days  0 hours  0 minutes 16.6 seconds.
 File lengths (MBytes):  RWF=     36 Int=      0 D2E=      0 Chk=      4 Scr=      1
 Normal termination of Gaussian 16 at Thu Mar  7 14:29:23 2024.
Thu Mar  7 14:29:23 CST 2024
