This job is running on host node107
Current directory: /share/home/Liaoyt/system-test/bnts-ome/linear-fsv
Thu Jun 27 10:17:39 CST 2024
/tmp/93149.mgr
 Entering Gaussian System, Link 0=g16
 Initial command:
 /share/apps/gaussian/g16/l1.exe "/tmp/93149.mgr/Gau-279881.inp" -scrdir="/tmp/93149.mgr/"
 Entering Link 1 = /share/apps/gaussian/g16/l1.exe PID=    279882.
  
 Copyright (c) 1988,1990,1992,1993,1995,1998,2003,2009,2016,
            Gaussian, Inc.  All Rights Reserved.
  
 This is part of the Gaussian(R) 16 program.  It is based on
 the Gaussian(R) 09 system (copyright 2009, Gaussian, Inc.),
 the Gaussian(R) 03 system (copyright 2003, Gaussian, Inc.),
 the Gaussian(R) 98 system (copyright 1998, Gaussian, Inc.),
 the Gaussian(R) 94 system (copyright 1995, Gaussian, Inc.),
 the Gaussian 92(TM) system (copyright 1992, Gaussian, Inc.),
 the Gaussian 90(TM) system (copyright 1990, Gaussian, Inc.),
 the Gaussian 88(TM) system (copyright 1988, Gaussian, Inc.),
 the Gaussian 86(TM) system (copyright 1986, Carnegie Mellon
 University), and the Gaussian 82(TM) system (copyright 1983,
 Carnegie Mellon University). Gaussian is a federally registered
 trademark of Gaussian, Inc.
  
 This software contains proprietary and confidential information,
 including trade secrets, belonging to Gaussian, Inc.
  
 This software is provided under written license and may be
 used, copied, transmitted, or stored only in accord with that
 written license.
  
 The following legend is applicable only to US Government
 contracts under FAR:
  
                    RESTRICTED RIGHTS LEGEND
  
 Use, reproduction and disclosure by the US Government is
 subject to restrictions as set forth in subparagraphs (a)
 and (c) of the Commercial Computer Software - Restricted
 Rights clause in FAR 52.227-19.
  
 Gaussian, Inc.
 340 Quinnipiac St., Bldg. 40, Wallingford CT 06492
  
  
 ---------------------------------------------------------------
 Warning -- This program may not be used in any manner that
 competes with the business of Gaussian, Inc. or will provide
 assistance to any competitor of Gaussian, Inc.  The licensee
 of this program is prohibited from giving any competitor of
 Gaussian, Inc. access to this program.  By using this program,
 the user acknowledges that Gaussian, Inc. is engaged in the
 business of creating and licensing software in the field of
 computational chemistry and represents and warrants to the
 licensee that it is not a competitor of Gaussian, Inc. and that
 it will not use this program in any manner prohibited above.
 ---------------------------------------------------------------
  

 Cite this work as:
 Gaussian 16, Revision A.03,
 M. J. Frisch, G. W. Trucks, H. B. Schlegel, G. E. Scuseria, 
 M. A. Robb, J. R. Cheeseman, G. Scalmani, V. Barone, 
 G. A. Petersson, H. Nakatsuji, X. Li, M. Caricato, A. V. Marenich, 
 J. Bloino, B. G. Janesko, R. Gomperts, B. Mennucci, H. P. Hratchian, 
 J. V. Ortiz, A. F. Izmaylov, J. L. Sonnenberg, D. Williams-Young, 
 F. Ding, F. Lipparini, F. Egidi, J. Goings, B. Peng, A. Petrone, 
 T. Henderson, D. Ranasinghe, V. G. Zakrzewski, J. Gao, N. Rega, 
 G. Zheng, W. Liang, M. Hada, M. Ehara, K. Toyota, R. Fukuda, 
 J. Hasegawa, M. Ishida, T. Nakajima, Y. Honda, O. Kitao, H. Nakai, 
 T. Vreven, K. Throssell, J. A. Montgomery, Jr., J. E. Peralta, 
 F. Ogliaro, M. J. Bearpark, J. J. Heyd, E. N. Brothers, K. N. Kudin, 
 V. N. Staroverov, T. A. Keith, R. Kobayashi, J. Normand, 
 K. Raghavachari, A. P. Rendell, J. C. Burant, S. S. Iyengar, 
 J. Tomasi, M. Cossi, J. M. Millam, M. Klene, C. Adamo, R. Cammi, 
 J. W. Ochterski, R. L. Martin, K. Morokuma, O. Farkas, 
 J. B. Foresman, and D. J. Fox, Gaussian, Inc., Wallingford CT, 2016.
 
 ******************************************
 Gaussian 16:  ES64L-G16RevA.03 25-Dec-2016
                27-Jun-2024 
 ******************************************
 %chk=react.chk
 %nprocshared=24
 Will use up to   24 processors via shared memory.
 %mem=24GB
 ------------------------------------------
 #p b3lyp/6-31g(d) geom=connectivity em=gd3
 ------------------------------------------
 1/38=1,57=2,172=1/1;
 2/12=2,17=6,18=5,40=1/2;
 3/5=1,6=6,7=1,11=2,25=1,30=1,74=-5,124=31/1,2,3;
 4//1;
 5/5=2,38=5/2;
 6/7=2,8=2,9=2,10=2,28=1/1;
 99/5=1,9=1/99;
 Leave Link    1 at Thu Jun 27 10:17:39 2024, MaxMem=  3221225472 cpu:               1.4 elap:               0.1
 (Enter /share/apps/gaussian/g16/l101.exe)
 -----
 title
 -----
 Symbolic Z-matrix:
 Charge =  0 Multiplicity = 1
 N                     2.234    -0.78778  -0.10685 
 N                     2.38765   0.38371  -0.46804 
 N                     2.61107   1.42614  -0.87894 
 C                     1.17705  -0.98959   0.93111 
 H                     1.16534  -2.06934   1.09205 
 H                     1.49309  -0.51322   1.86869 
 C                    -0.18047  -0.4829    0.50364 
 C                    -0.98563  -1.24791  -0.35031 
 C                    -0.62371   0.78269   0.9042 
 C                    -2.21518  -0.75944  -0.78872 
 H                    -0.64118  -2.22737  -0.67365 
 C                    -1.8546    1.27493   0.46559 
 H                    -0.00424   1.38446   1.56554 
 C                    -2.65219   0.50414  -0.38094 
 H                    -2.83371  -1.36325  -1.44724 
 H                    -2.18884   2.25797   0.78581 
 H                    -3.61118   0.88465  -0.7219 
 C                     0.60444   0.       -20.00006 
 C                    -0.60445   0.00012  -19.99968 
 C                    -2.06599  -0.00003  -20.00009 
 H                    -2.46569   0.81949  -20.61043 
 H                    -2.46545  -0.9384   -20.40489 
 H                    -2.46614   0.11858  -18.98533 
 C                     2.06599  -0.00001  -20.00004 
 H                     2.46573  -0.90784  -20.46916 
 H                     2.46581   0.86013  -20.55163 
 H                     2.46579   0.04755  -18.97933 
 
 ITRead=  0  0  0  0  0  0  0  0  0  0  0  0  0  0  0  0  0  0  0  0
 ITRead=  0  0  0  0  0  0  0
 MicOpt= -1 -1 -1 -1 -1 -1 -1 -1 -1 -1 -1 -1 -1 -1 -1 -1 -1 -1 -1 -1
 MicOpt= -1 -1 -1 -1 -1 -1 -1
 NAtoms=     27 NQM=       27 NQMF=       0 NMMI=      0 NMMIF=      0
                NMic=       0 NMicF=      0.
                    Isotopes and Nuclear Properties:
 (Nuclear quadrupole moments (NQMom) in fm**2, nuclear magnetic moments (NMagM)
  in nuclear magnetons)

  Atom         1           2           3           4           5           6           7           8           9          10
 IAtWgt=          14          14          14          12           1           1          12          12          12          12
 AtmWgt=  14.0030740  14.0030740  14.0030740  12.0000000   1.0078250   1.0078250  12.0000000  12.0000000  12.0000000  12.0000000
 NucSpn=           2           2           2           0           1           1           0           0           0           0
 AtZEff=  -0.0000000  -0.0000000  -0.0000000  -0.0000000  -0.0000000  -0.0000000  -0.0000000  -0.0000000  -0.0000000  -0.0000000
 NQMom=    2.0440000   2.0440000   2.0440000   0.0000000   0.0000000   0.0000000   0.0000000   0.0000000   0.0000000   0.0000000
 NMagM=    0.4037610   0.4037610   0.4037610   0.0000000   2.7928460   2.7928460   0.0000000   0.0000000   0.0000000   0.0000000
 AtZNuc=   7.0000000   7.0000000   7.0000000   6.0000000   1.0000000   1.0000000   6.0000000   6.0000000   6.0000000   6.0000000

  Atom        11          12          13          14          15          16          17          18          19          20
 IAtWgt=           1          12           1          12           1           1           1          12          12          12
 AtmWgt=   1.0078250  12.0000000   1.0078250  12.0000000   1.0078250   1.0078250   1.0078250  12.0000000  12.0000000  12.0000000
 NucSpn=           1           0           1           0           1           1           1           0           0           0
 AtZEff=  -0.0000000  -0.0000000  -0.0000000  -0.0000000  -0.0000000  -0.0000000  -0.0000000  -0.0000000  -0.0000000  -0.0000000
 NQMom=    0.0000000   0.0000000   0.0000000   0.0000000   0.0000000   0.0000000   0.0000000   0.0000000   0.0000000   0.0000000
 NMagM=    2.7928460   0.0000000   2.7928460   0.0000000   2.7928460   2.7928460   2.7928460   0.0000000   0.0000000   0.0000000
 AtZNuc=   1.0000000   6.0000000   1.0000000   6.0000000   1.0000000   1.0000000   1.0000000   6.0000000   6.0000000   6.0000000

  Atom        21          22          23          24          25          26          27
 IAtWgt=           1           1           1          12           1           1           1
 AtmWgt=   1.0078250   1.0078250   1.0078250  12.0000000   1.0078250   1.0078250   1.0078250
 NucSpn=           1           1           1           0           1           1           1
 AtZEff=  -0.0000000  -0.0000000  -0.0000000  -0.0000000  -0.0000000  -0.0000000  -0.0000000
 NQMom=    0.0000000   0.0000000   0.0000000   0.0000000   0.0000000   0.0000000   0.0000000
 NMagM=    2.7928460   2.7928460   2.7928460   0.0000000   2.7928460   2.7928460   2.7928460
 AtZNuc=   1.0000000   1.0000000   1.0000000   6.0000000   1.0000000   1.0000000   1.0000000
 Leave Link  101 at Thu Jun 27 10:17:39 2024, MaxMem=  3221225472 cpu:               4.0 elap:               0.2
 (Enter /share/apps/gaussian/g16/l202.exe)
                          Input orientation:                          
 ---------------------------------------------------------------------
 Center     Atomic      Atomic             Coordinates (Angstroms)
 Number     Number       Type             X           Y           Z
 ---------------------------------------------------------------------
      1          7           0        2.234002   -0.787780   -0.106845
      2          7           0        2.387654    0.383710   -0.468037
      3          7           0        2.611074    1.426139   -0.878938
      4          6           0        1.177048   -0.989589    0.931108
      5          1           0        1.165338   -2.069343    1.092051
      6          1           0        1.493087   -0.513219    1.868691
      7          6           0       -0.180468   -0.482897    0.503640
      8          6           0       -0.985628   -1.247907   -0.350309
      9          6           0       -0.623713    0.782693    0.904200
     10          6           0       -2.215181   -0.759438   -0.788717
     11          1           0       -0.641184   -2.227372   -0.673653
     12          6           0       -1.854600    1.274933    0.465594
     13          1           0       -0.004236    1.384459    1.565543
     14          6           0       -2.652188    0.504141   -0.380941
     15          1           0       -2.833711   -1.363254   -1.447241
     16          1           0       -2.188841    2.257968    0.785807
     17          1           0       -3.611182    0.884653   -0.721904
     18          6           0        0.604438    0.000003  -20.000063
     19          6           0       -0.604450    0.000119  -19.999677
     20          6           0       -2.065989   -0.000029  -20.000091
     21          1           0       -2.465688    0.819494  -20.610431
     22          1           0       -2.465447   -0.938400  -20.404886
     23          1           0       -2.466138    0.118579  -18.985334
     24          6           0        2.065992   -0.000011  -20.000041
     25          1           0        2.465725   -0.907841  -20.469156
     26          1           0        2.465814    0.860125  -20.551633
     27          1           0        2.465792    0.047552  -18.979330
 ---------------------------------------------------------------------
                    Distance matrix (angstroms):
                    1          2          3          4          5
     1  N    0.000000
     2  N    1.235499   0.000000
     3  N    2.374815   1.142547   0.000000
     4  C    1.495067   2.304154   3.341921   0.000000
     5  H    2.054701   3.153633   4.265366   1.091746   0.000000
     6  H    2.127694   2.658012   3.544075   1.098122   1.769777
     7  C    2.509046   2.879308   3.653580   1.510733   2.161997
     8  C    3.261443   3.749009   4.512897   2.527039   2.716949
     9  C    3.413961   3.333250   3.749327   2.526746   3.371958
    10  C    4.501220   4.753495   5.298832   3.810247   4.084244
    11  H    3.265025   4.004234   4.895658   2.722744   2.531048
    12  C    4.615099   4.434260   4.666141   3.812565   4.549358
    13  H    3.539098   3.295161   3.580094   2.726544   3.677070
    14  C    5.061526   5.042033   5.366564   4.314597   4.833842
    15  H    5.273476   5.592260   6.144051   4.677858   4.789463
    16  H    5.443799   5.101889   5.148058   4.679417   5.483605
    17  H    6.110770   6.025066   6.247747   5.401146   5.901836
    18  C   19.975390  19.617011  19.278949  20.962373  21.200804
    19  C   20.109758  19.763218  19.441599  21.029765  21.266777
    20  C   20.367909  20.037049  19.736448  21.204047  21.438330
    21  H   21.096622  20.723438  20.383163  21.922140  22.192960
    22  H   20.835498  20.561579  20.313167  21.644746  21.830711
    23  H   19.475886  19.144709  18.850182  20.277216  20.520137
    24  C   19.909497  19.538421  19.181960  20.973376  21.212488
    25  H   20.363983  20.042928  19.729299  21.439185  21.631591
    26  H   20.512403  20.089398  19.681372  21.600706  21.879718
    27  H   18.892385  18.514510  18.153396  19.979041  20.224558
                    6          7          8          9         10
     6  H    0.000000
     7  C    2.159877   0.000000
     8  C    3.407016   1.400982   0.000000
     9  C    2.662794   1.399512   2.414148   0.000000
    10  C    4.568774   2.426256   1.393773   2.788711   0.000000
    11  H    3.735900   2.154407   1.087449   3.398590   2.155351
    12  C    4.046378   2.427783   2.790257   1.396337   2.417019
    13  H    2.436197   2.155392   3.400437   1.087772   3.876482
    14  C    4.824849   2.804662   2.418271   2.417414   1.397816
    15  H    5.517168   3.408909   2.152202   3.875365   1.086659
    16  H    4.733784   3.409622   3.876808   2.154084   3.403610
    17  H    5.892265   3.891266   3.402856   3.402878   2.157850
    18  C   21.892818  20.524403  19.753441  20.954932  19.432005
    19  C   21.974729  20.513388  19.692652  20.918529  19.293324
    20  C   22.162446  20.595906  19.718984  20.968600  19.226956
    21  H   22.863922  21.277275  20.419042  21.593369  19.886079
    22  H   22.626599  21.037944  20.111482  21.457663  19.618582
    23  H   21.235936  19.631764  18.743622  19.985723  18.219516
    24  C   21.882254  20.632031  19.924397  21.091098  19.697212
    25  H   22.362494  21.143346  20.415570  21.661553  20.229992
    26  H   22.483398  21.263373  20.602178  21.677268  20.374188
    27  H   20.878233  19.669016  18.990285  20.135547  18.800562
                   11         12         13         14         15
    11  H    0.000000
    12  C    3.877680   0.000000
    13  H    4.297095   2.155396   0.000000
    14  C    3.404553   1.395309   3.402265   0.000000
    15  H    2.480386   3.402591   4.963136   2.158034   0.000000
    16  H    4.964226   1.086559   2.478610   2.156826   4.302977
    17  H    4.302083   2.155934   4.300265   1.086607   2.486697
    18  C   19.494176  20.652250  21.618570  19.893962  18.917889
    19  C   19.454004  20.543012  21.617941  19.731753  18.735562
    20  C   19.506469  20.506450  21.708160  19.634380  18.618701
    21  H   20.250613  21.089800  22.319313  20.232807  19.290611
    22  H   19.857264  20.996402  22.229552  20.076707  18.965981
    23  H   18.551324  19.494864  20.736489  18.609318  17.604421
    24  C   19.641772  20.876751  21.708916  20.184759  19.237253
    25  H   20.081235  21.487053  22.290879  20.777948  19.751574
    26  H   20.354856  21.460705  22.260852  20.812916  19.950092
    27  H   18.706320  19.956887  20.735963  19.295136  18.369792
                   16         17         18         19         20
    16  H    0.000000
    17  H    2.486411   0.000000
    18  C   21.093914  19.753518   0.000000
    19  C   20.967702  19.530882   1.208888   0.000000
    20  C   20.908544  19.360237   2.670427   1.461539   0.000000
    21  H   21.446325  19.921594   3.235705   2.123347   1.097220
    22  H   21.432190  19.800404   3.235533   2.123281   1.097254
    23  H   19.888487  18.315318   3.236074   2.123395   1.097232
    24  C   21.336671  20.116150   1.461554   2.670442   4.131981
    25  H   21.987742  20.738751   2.123351   3.235858   4.645490
    26  H   21.883924  20.740025   2.123384   3.235860   4.645568
    27  H   20.425773  19.260425   2.123392   3.235698   4.645563
                   21         22         23         24         25
    21  H    0.000000
    22  H    1.769870   0.000000
    23  H    1.769809   1.769840   0.000000
    24  C    4.645459   4.645257   4.645847   0.000000
    25  H    5.227091   4.931685   5.251527   1.097274   0.000000
    26  H    4.932020   5.251053   5.227555   1.097244   1.769889
    27  H    5.251274   5.226990   4.932445   1.097248   1.769847
                   26         27
    26  H    0.000000
    27  H    1.769862   0.000000
 Stoichiometry    C11H13N3
 Framework group  C1[X(C11H13N3)]
 Deg. of freedom    75
 Full point group                 C1      NOp   1
 Largest Abelian subgroup         C1      NOp   1
 Largest concise Abelian subgroup C1      NOp   1
                         Standard orientation:                         
 ---------------------------------------------------------------------
 Center     Atomic      Atomic             Coordinates (Angstroms)
 Number     Number       Type             X           Y           Z
 ---------------------------------------------------------------------
      1          7           0        5.893155    2.234002   -0.787780
      2          7           0        5.531963    2.387654    0.383710
      3          7           0        5.121062    2.611074    1.426139
      4          6           0        6.931108    1.177048   -0.989589
      5          1           0        7.092051    1.165338   -2.069343
      6          1           0        7.868691    1.493087   -0.513219
      7          6           0        6.503640   -0.180468   -0.482897
      8          6           0        5.649691   -0.985628   -1.247907
      9          6           0        6.904200   -0.623713    0.782693
     10          6           0        5.211283   -2.215181   -0.759438
     11          1           0        5.326347   -0.641184   -2.227372
     12          6           0        6.465594   -1.854600    1.274933
     13          1           0        7.565543   -0.004236    1.384459
     14          6           0        5.619059   -2.652188    0.504141
     15          1           0        4.552759   -2.833711   -1.363254
     16          1           0        6.785807   -2.188841    2.257968
     17          1           0        5.278096   -3.611182    0.884653
     18          6           0      -14.000063    0.604438    0.000003
     19          6           0      -13.999677   -0.604450    0.000119
     20          6           0      -14.000091   -2.065989   -0.000029
     21          1           0      -14.610431   -2.465688    0.819494
     22          1           0      -14.404886   -2.465447   -0.938400
     23          1           0      -12.985334   -2.466138    0.118579
     24          6           0      -14.000041    2.065992   -0.000011
     25          1           0      -14.469156    2.465725   -0.907841
     26          1           0      -14.551633    2.465814    0.860125
     27          1           0      -12.979330    2.465792    0.047552
 ---------------------------------------------------------------------
 Rotational constants (GHZ):           0.6541071           0.0325166           0.0314850
 Leave Link  202 at Thu Jun 27 10:17:40 2024, MaxMem=  3221225472 cpu:               0.3 elap:               0.0
 (Enter /share/apps/gaussian/g16/l301.exe)
 Standard basis: 6-31G(d) (6D, 7F)
 Ernie: Thresh=  0.10000D-02 Tol=  0.10000D-05 Strict=F.
 There are   236 symmetry adapted cartesian basis functions of A   symmetry.
 There are   236 symmetry adapted basis functions of A   symmetry.
   236 basis functions,   444 primitive gaussians,   236 cartesian basis functions
    50 alpha electrons       50 beta electrons
       nuclear repulsion energy       620.3542031299 Hartrees.
 IExCor=  402 DFT=T Ex+Corr=B3LYP ExCW=0 ScaHFX=  0.200000
 ScaDFX=  0.800000  0.720000  1.000000  0.810000 ScalE2=  1.000000  1.000000
 IRadAn=      5 IRanWt=     -1 IRanGd=            0 ICorTp=0 IEmpDi=131
 NAtoms=   27 NActive=   27 NUniq=   27 SFac= 1.00D+00 NAtFMM=   60 NAOKFM=F Big=F
 Integral buffers will be    131072 words long.
 Raffenetti 2 integral format.
 Two-electron integral symmetry is turned on.
 R6Disp:  Grimme-D3 Dispersion energy=       -0.0142124500 Hartrees.
 Nuclear repulsion after empirical dispersion term =      620.3399906799 Hartrees.
 Leave Link  301 at Thu Jun 27 10:17:40 2024, MaxMem=  3221225472 cpu:               1.9 elap:               0.1
 (Enter /share/apps/gaussian/g16/l302.exe)
 NPDir=0 NMtPBC=     1 NCelOv=     1 NCel=       1 NClECP=     1 NCelD=      1
         NCelK=      1 NCelE2=     1 NClLst=     1 CellRange=     0.0.
 One-electron integrals computed using PRISM.
 One-electron integral symmetry used in STVInt
 NBasis=   236 RedAO= T EigKep=  2.44D-04  NBF=   236
 NBsUse=   236 1.00D-06 EigRej= -1.00D+00 NBFU=   236
 Precomputing XC quadrature grid using
 IXCGrd= 4 IRadAn=           5 IRanWt=          -1 IRanGd=           0 AccXCQ= 0.00D+00.
 Generated NRdTot=       0 NPtTot=           0 NUsed=           0 NTot=          32
 NSgBfM=   164   164   164   164   164 MxSgAt=    27 MxSgA2=    18.
 Leave Link  302 at Thu Jun 27 10:17:40 2024, MaxMem=  3221225472 cpu:               6.8 elap:               0.3
 (Enter /share/apps/gaussian/g16/l303.exe)
 DipDrv:  MaxL=1.
 Leave Link  303 at Thu Jun 27 10:17:40 2024, MaxMem=  3221225472 cpu:               0.9 elap:               0.1
 (Enter /share/apps/gaussian/g16/l401.exe)
 ExpMin= 1.61D-01 ExpMax= 4.17D+03 ExpMxC= 6.27D+02 IAcc=3 IRadAn=         5 AccDes= 0.00D+00
 Harris functional with IExCor=  402 and IRadAn=       5 diagonalized for initial guess.
 HarFok:  IExCor=  402 AccDes= 0.00D+00 IRadAn=         5 IDoV= 1 UseB2=F ITyADJ=14
 ICtDFT=  3500011 ScaDFX=  1.000000  1.000000  1.000000  1.000000
 FoFCou: FMM=F IPFlag=           0 FMFlag=      100000 FMFlg1=           0
         NFxFlg=           0 DoJE=T BraDBF=F KetDBF=T FulRan=T
         wScrn=  0.000000 ICntrl=       500 IOpCl=  0 I1Cent=   200000004 NGrid=           0
         NMat0=    1 NMatS0=      1 NMatT0=    0 NMatD0=    1 NMtDS0=    0 NMtDT0=    0
 Petite list used in FoFCou.
 Harris En= -591.193334422446    
 JPrj=0 DoOrth=F DoCkMO=F.
 Leave Link  401 at Thu Jun 27 10:17:41 2024, MaxMem=  3221225472 cpu:              13.5 elap:               0.6
 (Enter /share/apps/gaussian/g16/l502.exe)
 Integral symmetry usage will be decided dynamically.
 Closed shell SCF:
 Using DIIS extrapolation, IDIIS=  1040.
 NGot=  3221225472 LenX=  3221105673 LenY=  3221049536
 Requested convergence on RMS density matrix=1.00D-08 within 128 cycles.
 Requested convergence on MAX density matrix=1.00D-06.
 Requested convergence on             energy=1.00D-06.
 No special actions if energy rises.
 Fock matrices will be formed incrementally for  20 cycles.
 Integral accuracy reduced to 1.0D-05 until final iterations.

 Cycle   1  Pass 0  IDiag  1:
 FoFJK:  IHMeth= 1 ICntrl=       0 DoSepK=F KAlg= 0 I1Cent=           0 FoldK=F
 IRaf= 520000000 NMat=       1 IRICut=       1 DoRegI=T DoRafI=F ISym2E= 0 IDoP0=0 IntGTp=1.
 FoFCou: FMM=F IPFlag=           0 FMFlag=      100000 FMFlg1=           0
         NFxFlg=           0 DoJE=F BraDBF=F KetDBF=F FulRan=T
         wScrn=  0.000000 ICntrl=         0 IOpCl=  0 I1Cent=           0 NGrid=           0
         NMat0=    1 NMatS0=      1 NMatT0=    0 NMatD0=    1 NMtDS0=    0 NMtDT0=    0
 Symmetry not used in FoFCou.
 E= -590.779234251066    
 DIIS: error= 5.31D-02 at cycle   1 NSaved=   1.
 NSaved= 1 IEnMin= 1 EnMin= -590.779234251066     IErMin= 1 ErrMin= 5.31D-02
 ErrMax= 5.31D-02  0.00D+00 EMaxC= 1.00D-01 BMatC= 3.35D-01 BMatP= 3.35D-01
 IDIUse=3 WtCom= 4.69D-01 WtEn= 5.31D-01
 Coeff-Com:  0.100D+01
 Coeff-En:   0.100D+01
 Coeff:      0.100D+01
 Gap=     0.326 Goal=   None    Shift=    0.000
 GapD=    0.326 DampG=1.000 DampE=0.500 DampFc=0.5000 IDamp=-1.
 Damping current iteration by 5.00D-01
 RMSDP=5.40D-03 MaxDP=1.24D-01              OVMax= 1.67D-01

 Cycle   2  Pass 0  IDiag  1:
 RMSU=  2.65D-03    CP:  9.77D-01
 E= -590.939434241587     Delta-E=       -0.160199990521 Rises=F Damp=T
 DIIS: error= 9.19D-03 at cycle   2 NSaved=   2.
 NSaved= 2 IEnMin= 2 EnMin= -590.939434241587     IErMin= 2 ErrMin= 9.19D-03
 ErrMax= 9.19D-03  0.00D+00 EMaxC= 1.00D-01 BMatC= 2.52D-02 BMatP= 3.35D-01
 IDIUse=3 WtCom= 9.08D-01 WtEn= 9.19D-02
 Coeff-Com:  0.706D-01 0.929D+00
 Coeff-En:   0.913D-01 0.909D+00
 Coeff:      0.725D-01 0.927D+00
 Gap=     0.216 Goal=   None    Shift=    0.000
 RMSDP=1.58D-03 MaxDP=6.05D-02 DE=-1.60D-01 OVMax= 1.19D-01

 Cycle   3  Pass 0  IDiag  1:
 RMSU=  1.53D-03    CP:  9.60D-01  9.42D-01
 E= -591.119921606743     Delta-E=       -0.180487365156 Rises=F Damp=F
 DIIS: error= 1.24D-02 at cycle   3 NSaved=   3.
 NSaved= 3 IEnMin= 3 EnMin= -591.119921606743     IErMin= 2 ErrMin= 9.19D-03
 ErrMax= 1.24D-02  0.00D+00 EMaxC= 1.00D-01 BMatC= 2.32D-02 BMatP= 2.52D-02
 IDIUse=3 WtCom= 8.76D-01 WtEn= 1.24D-01
 Coeff-Com: -0.160D-01 0.492D+00 0.524D+00
 Coeff-En:   0.000D+00 0.000D+00 0.100D+01
 Coeff:     -0.140D-01 0.431D+00 0.583D+00
 Gap=     0.214 Goal=   None    Shift=    0.000
 RMSDP=6.36D-04 MaxDP=4.65D-02 DE=-1.80D-01 OVMax= 5.35D-02

 Cycle   4  Pass 0  IDiag  1:
 RMSU=  5.81D-04    CP:  9.63D-01  9.55D-01  8.38D-01
 E= -591.132280525973     Delta-E=       -0.012358919229 Rises=F Damp=F
 DIIS: error= 6.95D-03 at cycle   4 NSaved=   4.
 NSaved= 4 IEnMin= 4 EnMin= -591.132280525973     IErMin= 4 ErrMin= 6.95D-03
 ErrMax= 6.95D-03  0.00D+00 EMaxC= 1.00D-01 BMatC= 7.23D-03 BMatP= 2.32D-02
 IDIUse=3 WtCom= 9.31D-01 WtEn= 6.95D-02
 Coeff-Com: -0.920D-02 0.101D+00 0.369D+00 0.539D+00
 Coeff-En:   0.000D+00 0.000D+00 0.273D+00 0.727D+00
 Coeff:     -0.856D-02 0.941D-01 0.362D+00 0.552D+00
 Gap=     0.210 Goal=   None    Shift=    0.000
 RMSDP=3.09D-04 MaxDP=1.69D-02 DE=-1.24D-02 OVMax= 2.01D-02

 Cycle   5  Pass 0  IDiag  1:
 RMSU=  1.75D-04    CP:  9.62D-01  9.69D-01  8.38D-01  5.67D-01
 E= -591.137156430044     Delta-E=       -0.004875904071 Rises=F Damp=F
 DIIS: error= 2.57D-03 at cycle   5 NSaved=   5.
 NSaved= 5 IEnMin= 5 EnMin= -591.137156430044     IErMin= 5 ErrMin= 2.57D-03
 ErrMax= 2.57D-03  0.00D+00 EMaxC= 1.00D-01 BMatC= 8.99D-04 BMatP= 7.23D-03
 IDIUse=3 WtCom= 9.74D-01 WtEn= 2.57D-02
 Coeff-Com: -0.565D-02 0.438D-01 0.224D+00 0.382D+00 0.356D+00
 Coeff-En:   0.000D+00 0.000D+00 0.000D+00 0.599D-01 0.940D+00
 Coeff:     -0.550D-02 0.427D-01 0.218D+00 0.374D+00 0.371D+00
 Gap=     0.211 Goal=   None    Shift=    0.000
 RMSDP=1.45D-04 MaxDP=8.22D-03 DE=-4.88D-03 OVMax= 1.36D-02

 Cycle   6  Pass 0  IDiag  1:
 RMSU=  8.95D-05    CP:  9.62D-01  9.65D-01  8.49D-01  5.80D-01  3.62D-01
 E= -591.137727614085     Delta-E=       -0.000571184041 Rises=F Damp=F
 DIIS: error= 1.38D-03 at cycle   6 NSaved=   6.
 NSaved= 6 IEnMin= 6 EnMin= -591.137727614085     IErMin= 6 ErrMin= 1.38D-03
 ErrMax= 1.38D-03  0.00D+00 EMaxC= 1.00D-01 BMatC= 2.67D-04 BMatP= 8.99D-04
 IDIUse=3 WtCom= 9.86D-01 WtEn= 1.38D-02
 Coeff-Com: -0.159D-02 0.478D-02 0.772D-01 0.160D+00 0.329D+00 0.431D+00
 Coeff-En:   0.000D+00 0.000D+00 0.000D+00 0.000D+00 0.293D+00 0.707D+00
 Coeff:     -0.157D-02 0.471D-02 0.761D-01 0.158D+00 0.328D+00 0.435D+00
 Gap=     0.210 Goal=   None    Shift=    0.000
 RMSDP=5.92D-05 MaxDP=2.77D-03 DE=-5.71D-04 OVMax= 5.22D-03

 Cycle   7  Pass 0  IDiag  1:
 RMSU=  2.04D-05    CP:  9.62D-01  9.64D-01  8.54D-01  5.94D-01  5.10D-01
                    CP:  4.70D-01
 E= -591.137965212710     Delta-E=       -0.000237598625 Rises=F Damp=F
 DIIS: error= 1.30D-04 at cycle   7 NSaved=   7.
 NSaved= 7 IEnMin= 7 EnMin= -591.137965212710     IErMin= 7 ErrMin= 1.30D-04
 ErrMax= 1.30D-04  0.00D+00 EMaxC= 1.00D-01 BMatC= 3.15D-06 BMatP= 2.67D-04
 IDIUse=3 WtCom= 9.99D-01 WtEn= 1.30D-03
 Coeff-Com: -0.469D-03 0.167D-03 0.267D-01 0.604D-01 0.145D+00 0.219D+00
 Coeff-Com:  0.549D+00
 Coeff-En:   0.000D+00 0.000D+00 0.000D+00 0.000D+00 0.000D+00 0.000D+00
 Coeff-En:   0.100D+01
 Coeff:     -0.469D-03 0.166D-03 0.267D-01 0.603D-01 0.145D+00 0.219D+00
 Coeff:      0.550D+00
 Gap=     0.211 Goal=   None    Shift=    0.000
 RMSDP=1.06D-05 MaxDP=3.30D-04 DE=-2.38D-04 OVMax= 8.47D-04

 Cycle   8  Pass 0  IDiag  1:
 RMSU=  5.92D-06    CP:  9.62D-01  9.64D-01  8.56D-01  5.96D-01  5.20D-01
                    CP:  4.94D-01  6.04D-01
 E= -591.137968227247     Delta-E=       -0.000003014537 Rises=F Damp=F
 DIIS: error= 5.87D-05 at cycle   8 NSaved=   8.
 NSaved= 8 IEnMin= 8 EnMin= -591.137968227247     IErMin= 8 ErrMin= 5.87D-05
 ErrMax= 5.87D-05  0.00D+00 EMaxC= 1.00D-01 BMatC= 3.77D-07 BMatP= 3.15D-06
 IDIUse=1 WtCom= 1.00D+00 WtEn= 0.00D+00
 Coeff-Com: -0.146D-03-0.286D-03 0.985D-02 0.236D-01 0.596D-01 0.959D-01
 Coeff-Com:  0.319D+00 0.492D+00
 Coeff:     -0.146D-03-0.286D-03 0.985D-02 0.236D-01 0.596D-01 0.959D-01
 Coeff:      0.319D+00 0.492D+00
 Gap=     0.211 Goal=   None    Shift=    0.000
 RMSDP=3.56D-06 MaxDP=1.08D-04 DE=-3.01D-06 OVMax= 3.48D-04

 Initial convergence to 1.0D-05 achieved.  Increase integral accuracy.
 Cycle   9  Pass 1  IDiag  1:
 E= -591.137953646819     Delta-E=        0.000014580428 Rises=F Damp=F
 DIIS: error= 3.32D-05 at cycle   1 NSaved=   1.
 NSaved= 1 IEnMin= 1 EnMin= -591.137953646819     IErMin= 1 ErrMin= 3.32D-05
 ErrMax= 3.32D-05  0.00D+00 EMaxC= 1.00D-01 BMatC= 7.33D-08 BMatP= 7.33D-08
 IDIUse=1 WtCom= 1.00D+00 WtEn= 0.00D+00
 Coeff-Com:  0.100D+01
 Coeff:      0.100D+01
 Gap=     0.211 Goal=   None    Shift=    0.000
 RMSDP=3.56D-06 MaxDP=1.08D-04 DE= 1.46D-05 OVMax= 1.97D-04

 Cycle  10  Pass 1  IDiag  1:
 RMSU=  6.03D-06    CP:  1.00D+00
 E= -591.137953588863     Delta-E=        0.000000057956 Rises=F Damp=F
 DIIS: error= 2.74D-05 at cycle   2 NSaved=   2.
 NSaved= 2 IEnMin= 1 EnMin= -591.137953646819     IErMin= 2 ErrMin= 2.74D-05
 ErrMax= 2.74D-05  0.00D+00 EMaxC= 1.00D-01 BMatC= 1.12D-07 BMatP= 7.33D-08
 IDIUse=1 WtCom= 1.00D+00 WtEn= 0.00D+00
 Coeff-Com:  0.564D+00 0.436D+00
 Coeff:      0.564D+00 0.436D+00
 Gap=     0.211 Goal=   None    Shift=    0.000
 RMSDP=1.94D-06 MaxDP=5.43D-05 DE= 5.80D-08 OVMax= 1.69D-04

 Cycle  11  Pass 1  IDiag  1:
 RMSU=  1.83D-06    CP:  1.00D+00  8.90D-01
 E= -591.137953695589     Delta-E=       -0.000000106726 Rises=F Damp=F
 DIIS: error= 9.53D-06 at cycle   3 NSaved=   3.
 NSaved= 3 IEnMin= 3 EnMin= -591.137953695589     IErMin= 3 ErrMin= 9.53D-06
 ErrMax= 9.53D-06  0.00D+00 EMaxC= 1.00D-01 BMatC= 1.94D-08 BMatP= 7.33D-08
 IDIUse=1 WtCom= 1.00D+00 WtEn= 0.00D+00
 Coeff-Com:  0.136D+00 0.287D+00 0.578D+00
 Coeff:      0.136D+00 0.287D+00 0.578D+00
 Gap=     0.211 Goal=   None    Shift=    0.000
 RMSDP=7.61D-07 MaxDP=3.67D-05 DE=-1.07D-07 OVMax= 6.58D-05

 Cycle  12  Pass 1  IDiag  1:
 RMSU=  6.18D-07    CP:  1.00D+00  9.13D-01  7.69D-01
 E= -591.137953702036     Delta-E=       -0.000000006447 Rises=F Damp=F
 DIIS: error= 9.92D-06 at cycle   4 NSaved=   4.
 NSaved= 4 IEnMin= 4 EnMin= -591.137953702036     IErMin= 3 ErrMin= 9.53D-06
 ErrMax= 9.92D-06  0.00D+00 EMaxC= 1.00D-01 BMatC= 1.39D-08 BMatP= 1.94D-08
 IDIUse=1 WtCom= 1.00D+00 WtEn= 0.00D+00
 Coeff-Com:  0.140D-01 0.166D+00 0.489D+00 0.330D+00
 Coeff:      0.140D-01 0.166D+00 0.489D+00 0.330D+00
 Gap=     0.211 Goal=   None    Shift=    0.000
 RMSDP=4.40D-07 MaxDP=2.11D-05 DE=-6.45D-09 OVMax= 4.14D-05

 Cycle  13  Pass 1  IDiag  1:
 RMSU=  1.75D-07    CP:  1.00D+00  9.20D-01  7.61D-01  3.51D-01
 E= -591.137953714359     Delta-E=       -0.000000012323 Rises=F Damp=F
 DIIS: error= 1.17D-06 at cycle   5 NSaved=   5.
 NSaved= 5 IEnMin= 5 EnMin= -591.137953714359     IErMin= 5 ErrMin= 1.17D-06
 ErrMax= 1.17D-06  0.00D+00 EMaxC= 1.00D-01 BMatC= 4.12D-10 BMatP= 1.39D-08
 IDIUse=1 WtCom= 1.00D+00 WtEn= 0.00D+00
 Coeff-Com: -0.412D-02 0.754D-01 0.246D+00 0.209D+00 0.475D+00
 Coeff:     -0.412D-02 0.754D-01 0.246D+00 0.209D+00 0.475D+00
 Gap=     0.211 Goal=   None    Shift=    0.000
 RMSDP=9.53D-08 MaxDP=3.27D-06 DE=-1.23D-08 OVMax= 5.48D-06

 Cycle  14  Pass 1  IDiag  1:
 RMSU=  3.82D-08    CP:  1.00D+00  9.21D-01  7.68D-01  3.72D-01  5.12D-01
 E= -591.137953714791     Delta-E=       -0.000000000432 Rises=F Damp=F
 DIIS: error= 1.42D-07 at cycle   6 NSaved=   6.
 NSaved= 6 IEnMin= 6 EnMin= -591.137953714791     IErMin= 6 ErrMin= 1.42D-07
 ErrMax= 1.42D-07  0.00D+00 EMaxC= 1.00D-01 BMatC= 5.34D-12 BMatP= 4.12D-10
 IDIUse=1 WtCom= 1.00D+00 WtEn= 0.00D+00
 Coeff-Com: -0.209D-02 0.264D-01 0.874D-01 0.785D-01 0.202D+00 0.608D+00
 Coeff:     -0.209D-02 0.264D-01 0.874D-01 0.785D-01 0.202D+00 0.608D+00
 Gap=     0.211 Goal=   None    Shift=    0.000
 RMSDP=1.38D-08 MaxDP=4.64D-07 DE=-4.32D-10 OVMax= 7.12D-07

 Cycle  15  Pass 1  IDiag  1:
 RMSU=  1.21D-08    CP:  1.00D+00  9.21D-01  7.67D-01  3.74D-01  5.19D-01
                    CP:  8.56D-01
 E= -591.137953714783     Delta-E=        0.000000000008 Rises=F Damp=F
 DIIS: error= 7.74D-08 at cycle   7 NSaved=   7.
 NSaved= 7 IEnMin= 6 EnMin= -591.137953714791     IErMin= 7 ErrMin= 7.74D-08
 ErrMax= 7.74D-08  0.00D+00 EMaxC= 1.00D-01 BMatC= 1.68D-12 BMatP= 5.34D-12
 IDIUse=1 WtCom= 1.00D+00 WtEn= 0.00D+00
 Coeff-Com: -0.686D-03 0.526D-02 0.181D-01 0.181D-01 0.561D-01 0.369D+00
 Coeff-Com:  0.534D+00
 Coeff:     -0.686D-03 0.526D-02 0.181D-01 0.181D-01 0.561D-01 0.369D+00
 Coeff:      0.534D+00
 Gap=     0.211 Goal=   None    Shift=    0.000
 RMSDP=5.82D-09 MaxDP=2.67D-07 DE= 8.19D-12 OVMax= 4.20D-07

 SCF Done:  E(RB3LYP) =  -591.137953715     A.U. after   15 cycles
            NFock= 15  Conv=0.58D-08     -V/T= 2.0099
 KE= 5.853554734170D+02 PE=-2.610810956171D+03 EE= 8.139775383591D+02
 Leave Link  502 at Thu Jun 27 10:17:46 2024, MaxMem=  3221225472 cpu:             138.1 elap:               5.8
 (Enter /share/apps/gaussian/g16/l601.exe)
 Copying SCF densities to generalized density rwf, IOpCl= 0 IROHF=0.

 **********************************************************************

            Population analysis using the SCF density.

 **********************************************************************

 Orbital symmetries:
       Occupied  (A) (A) (A) (A) (A) (A) (A) (A) (A) (A) (A) (A)
                 (A) (A) (A) (A) (A) (A) (A) (A) (A) (A) (A) (A)
                 (A) (A) (A) (A) (A) (A) (A) (A) (A) (A) (A) (A)
                 (A) (A) (A) (A) (A) (A) (A) (A) (A) (A) (A) (A)
                 (A) (A)
       Virtual   (A) (A) (A) (A) (A) (A) (A) (A) (A) (A) (A) (A)
                 (A) (A) (A) (A) (A) (A) (A) (A) (A) (A) (A) (A)
                 (A) (A) (A) (A) (A) (A) (A) (A) (A) (A) (A) (A)
                 (A) (A) (A) (A) (A) (A) (A) (A) (A) (A) (A) (A)
                 (A) (A) (A) (A) (A) (A) (A) (A) (A) (A) (A) (A)
                 (A) (A) (A) (A) (A) (A) (A) (A) (A) (A) (A) (A)
                 (A) (A) (A) (A) (A) (A) (A) (A) (A) (A) (A) (A)
                 (A) (A) (A) (A) (A) (A) (A) (A) (A) (A) (A) (A)
                 (A) (A) (A) (A) (A) (A) (A) (A) (A) (A) (A) (A)
                 (A) (A) (A) (A) (A) (A) (A) (A) (A) (A) (A) (A)
                 (A) (A) (A) (A) (A) (A) (A) (A) (A) (A) (A) (A)
                 (A) (A) (A) (A) (A) (A) (A) (A) (A) (A) (A) (A)
                 (A) (A) (A) (A) (A) (A) (A) (A) (A) (A) (A) (A)
                 (A) (A) (A) (A) (A) (A) (A) (A) (A) (A) (A) (A)
                 (A) (A) (A) (A) (A) (A) (A) (A) (A) (A) (A) (A)
                 (A) (A) (A) (A) (A) (A)
 The electronic state is 1-A.
 Alpha  occ. eigenvalues --  -14.50867 -14.40388 -14.37912 -10.24312 -10.20629
 Alpha  occ. eigenvalues --  -10.19964 -10.19870 -10.19861 -10.19860 -10.19838
 Alpha  occ. eigenvalues --  -10.19801 -10.19770 -10.16905 -10.16672  -1.13551
 Alpha  occ. eigenvalues --   -0.97701  -0.86366  -0.78705  -0.77444  -0.75237
 Alpha  occ. eigenvalues --   -0.73853  -0.71426  -0.65950  -0.61487  -0.60411
 Alpha  occ. eigenvalues --   -0.54218  -0.52046  -0.51358  -0.49891  -0.47487
 Alpha  occ. eigenvalues --   -0.46644  -0.46338  -0.44331  -0.42854  -0.42773
 Alpha  occ. eigenvalues --   -0.42534  -0.42533  -0.42208  -0.41377  -0.41376
 Alpha  occ. eigenvalues --   -0.40714  -0.37081  -0.35865  -0.34975  -0.30198
 Alpha  occ. eigenvalues --   -0.26085  -0.25779  -0.24718  -0.24029  -0.24028
 Alpha virt. eigenvalues --   -0.02949  -0.01053  -0.00769   0.01628   0.06862
 Alpha virt. eigenvalues --    0.06863   0.08720   0.11428   0.11620   0.11789
 Alpha virt. eigenvalues --    0.12352   0.14490   0.15779   0.16122   0.16994
 Alpha virt. eigenvalues --    0.16998   0.17790   0.18121   0.18713   0.21188
 Alpha virt. eigenvalues --    0.21191   0.21360   0.23711   0.26743   0.27605
 Alpha virt. eigenvalues --    0.29807   0.31235   0.32581   0.33623   0.39217
 Alpha virt. eigenvalues --    0.43841   0.44029   0.46688   0.48324   0.51062
 Alpha virt. eigenvalues --    0.52804   0.53120   0.53277   0.53278   0.54724
 Alpha virt. eigenvalues --    0.55084   0.56365   0.58154   0.58722   0.59447
 Alpha virt. eigenvalues --    0.59731   0.61160   0.61213   0.61215   0.61362
 Alpha virt. eigenvalues --    0.63544   0.64971   0.66920   0.66996   0.66997
 Alpha virt. eigenvalues --    0.69302   0.70533   0.74235   0.74507   0.75802
 Alpha virt. eigenvalues --    0.75878   0.78936   0.78937   0.80008   0.80068
 Alpha virt. eigenvalues --    0.80719   0.82477   0.83254   0.83451   0.85679
 Alpha virt. eigenvalues --    0.85682   0.85852   0.86852   0.88711   0.89640
 Alpha virt. eigenvalues --    0.89644   0.90486   0.91300   0.92044   0.92540
 Alpha virt. eigenvalues --    0.93092   0.95263   0.97568   0.98438   1.00573
 Alpha virt. eigenvalues --    1.02354   1.06024   1.10625   1.13569   1.13748
 Alpha virt. eigenvalues --    1.15999   1.17651   1.24880   1.28245   1.32167
 Alpha virt. eigenvalues --    1.33986   1.38108   1.38111   1.39678   1.40152
 Alpha virt. eigenvalues --    1.42818   1.42965   1.45435   1.46346   1.46560
 Alpha virt. eigenvalues --    1.48360   1.49626   1.50339   1.51327   1.54780
 Alpha virt. eigenvalues --    1.55105   1.56237   1.56239   1.58354   1.65032
 Alpha virt. eigenvalues --    1.70279   1.70282   1.72710   1.78936   1.79279
 Alpha virt. eigenvalues --    1.81594   1.85092   1.88141   1.90565   1.91711
 Alpha virt. eigenvalues --    1.92799   1.92804   1.93332   1.96586   2.01068
 Alpha virt. eigenvalues --    2.01072   2.01662   2.03730   2.03806   2.04958
 Alpha virt. eigenvalues --    2.08756   2.10908   2.13524   2.13869   2.15160
 Alpha virt. eigenvalues --    2.20006   2.23196   2.24395   2.24397   2.24530
 Alpha virt. eigenvalues --    2.27252   2.29610   2.29614   2.29944   2.33254
 Alpha virt. eigenvalues --    2.36749   2.38696   2.42008   2.55768   2.57422
 Alpha virt. eigenvalues --    2.59058   2.65006   2.68447   2.71124   2.73084
 Alpha virt. eigenvalues --    2.73617   2.74526   2.76514   2.86118   2.87385
 Alpha virt. eigenvalues --    2.87387   2.90852   3.02902   3.04991   3.09114
 Alpha virt. eigenvalues --    3.40039   3.49808   3.52126   3.73880   4.08252
 Alpha virt. eigenvalues --    4.08800   4.10617   4.14318   4.16125   4.16703
 Alpha virt. eigenvalues --    4.31850   4.33387   4.41817   4.50460   4.69576
 Alpha virt. eigenvalues --    4.77064
          Condensed to atoms (all electrons):
               1          2          3          4          5          6
     1  N    7.049409   0.319274  -0.103913   0.244763  -0.045941  -0.036958
     2  N    0.319274   5.739269   0.578947  -0.046622   0.004906  -0.007645
     3  N   -0.103913   0.578947   6.787777  -0.000621  -0.000165   0.001498
     4  C    0.244763  -0.046622  -0.000621   5.091623   0.375350   0.349068
     5  H   -0.045941   0.004906  -0.000165   0.375350   0.550931  -0.035664
     6  H   -0.036958  -0.007645   0.001498   0.349068  -0.035664   0.593565
     7  C   -0.062395  -0.008913   0.001512   0.339487  -0.028438  -0.034775
     8  C    0.003342  -0.000626  -0.000049  -0.057023  -0.006840   0.005562
     9  C   -0.006222   0.003625   0.001582  -0.051632   0.004346  -0.006789
    10  C   -0.000067  -0.000043   0.000003   0.005810   0.000045  -0.000183
    11  H    0.001208   0.000137  -0.000005  -0.008950   0.004138   0.000127
    12  C   -0.000041  -0.000144   0.000007   0.005943  -0.000189   0.000123
    13  H   -0.000003   0.000349   0.000221  -0.009018   0.000047   0.006808
    14  C    0.000019   0.000008  -0.000001   0.000379   0.000008   0.000003
    15  H    0.000001   0.000000  -0.000000  -0.000175  -0.000004   0.000003
    16  H    0.000001   0.000001  -0.000004  -0.000172   0.000003  -0.000005
    17  H    0.000000  -0.000000   0.000000   0.000007  -0.000000  -0.000000
    18  C    0.000000   0.000000   0.000000   0.000000   0.000000   0.000000
    19  C    0.000000   0.000000   0.000000   0.000000   0.000000   0.000000
    20  C    0.000000   0.000000   0.000000   0.000000   0.000000   0.000000
    21  H    0.000000   0.000000   0.000000   0.000000   0.000000   0.000000
    22  H    0.000000   0.000000   0.000000   0.000000   0.000000   0.000000
    23  H    0.000000   0.000000   0.000000   0.000000   0.000000   0.000000
    24  C    0.000000   0.000000   0.000000   0.000000   0.000000   0.000000
    25  H    0.000000   0.000000   0.000000   0.000000   0.000000   0.000000
    26  H    0.000000   0.000000   0.000000   0.000000   0.000000   0.000000
    27  H    0.000000   0.000000   0.000000   0.000000   0.000000   0.000000
               7          8          9         10         11         12
     1  N   -0.062395   0.003342  -0.006222  -0.000067   0.001208  -0.000041
     2  N   -0.008913  -0.000626   0.003625  -0.000043   0.000137  -0.000144
     3  N    0.001512  -0.000049   0.001582   0.000003  -0.000005   0.000007
     4  C    0.339487  -0.057023  -0.051632   0.005810  -0.008950   0.005943
     5  H   -0.028438  -0.006840   0.004346   0.000045   0.004138  -0.000189
     6  H   -0.034775   0.005562  -0.006789  -0.000183   0.000127   0.000123
     7  C    4.714867   0.540268   0.543316  -0.020076  -0.045124  -0.021797
     8  C    0.540268   4.947395  -0.046490   0.530836   0.356878  -0.044072
     9  C    0.543316  -0.046490   4.964233  -0.044666   0.005799   0.526650
    10  C   -0.020076   0.530836  -0.044666   4.860485  -0.043522  -0.026679
    11  H   -0.045124   0.356878   0.005799  -0.043522   0.593940   0.000365
    12  C   -0.021797  -0.044072   0.526650  -0.026679   0.000365   4.854873
    13  H   -0.046593   0.005958   0.353902   0.000359  -0.000171  -0.041972
    14  C   -0.035338  -0.035165  -0.035929   0.546003   0.004704   0.552561
    15  H    0.003811  -0.039495   0.000820   0.357992  -0.005420   0.004514
    16  H    0.003842   0.000805  -0.039222   0.004505   0.000017   0.357846
    17  H    0.000713   0.004626   0.004703  -0.042640  -0.000175  -0.042451
    18  C    0.000000   0.000000   0.000000   0.000000   0.000000   0.000000
    19  C    0.000000   0.000000   0.000000   0.000000   0.000000   0.000000
    20  C    0.000000   0.000000   0.000000   0.000000   0.000000   0.000000
    21  H    0.000000   0.000000   0.000000   0.000000   0.000000   0.000000
    22  H    0.000000   0.000000   0.000000   0.000000   0.000000   0.000000
    23  H    0.000000   0.000000   0.000000   0.000000   0.000000   0.000000
    24  C    0.000000   0.000000   0.000000   0.000000   0.000000   0.000000
    25  H    0.000000   0.000000   0.000000   0.000000   0.000000   0.000000
    26  H    0.000000   0.000000   0.000000   0.000000   0.000000   0.000000
    27  H    0.000000   0.000000   0.000000   0.000000   0.000000   0.000000
              13         14         15         16         17         18
     1  N   -0.000003   0.000019   0.000001   0.000001   0.000000   0.000000
     2  N    0.000349   0.000008   0.000000   0.000001  -0.000000   0.000000
     3  N    0.000221  -0.000001  -0.000000  -0.000004   0.000000   0.000000
     4  C   -0.009018   0.000379  -0.000175  -0.000172   0.000007   0.000000
     5  H    0.000047   0.000008  -0.000004   0.000003  -0.000000   0.000000
     6  H    0.006808   0.000003   0.000003  -0.000005  -0.000000   0.000000
     7  C   -0.046593  -0.035338   0.003811   0.003842   0.000713   0.000000
     8  C    0.005958  -0.035165  -0.039495   0.000805   0.004626   0.000000
     9  C    0.353902  -0.035929   0.000820  -0.039222   0.004703   0.000000
    10  C    0.000359   0.546003   0.357992   0.004505  -0.042640   0.000000
    11  H   -0.000171   0.004704  -0.005420   0.000017  -0.000175   0.000000
    12  C   -0.041972   0.552561   0.004514   0.357846  -0.042451   0.000000
    13  H    0.598989   0.004705   0.000017  -0.005449  -0.000178   0.000000
    14  C    0.004705   4.849815  -0.042558  -0.042376   0.359625   0.000000
    15  H    0.000017  -0.042558   0.590235  -0.000181  -0.005451   0.000000
    16  H   -0.005449  -0.042376  -0.000181   0.589456  -0.005483   0.000000
    17  H   -0.000178   0.359625  -0.005451  -0.005483   0.591347   0.000000
    18  C    0.000000   0.000000   0.000000   0.000000   0.000000   5.079534
    19  C    0.000000   0.000000   0.000000   0.000000   0.000000   0.652380
    20  C    0.000000   0.000000   0.000000   0.000000   0.000000  -0.111512
    21  H    0.000000   0.000000   0.000000   0.000000   0.000000   0.001340
    22  H    0.000000   0.000000   0.000000   0.000000   0.000000   0.001344
    23  H    0.000000   0.000000   0.000000   0.000000   0.000000   0.001318
    24  C    0.000000   0.000000   0.000000   0.000000   0.000000   0.400629
    25  H    0.000000   0.000000   0.000000   0.000000   0.000000  -0.024344
    26  H    0.000000   0.000000   0.000000   0.000000   0.000000  -0.024321
    27  H    0.000000   0.000000   0.000000   0.000000   0.000000  -0.024276
              19         20         21         22         23         24
     1  N    0.000000   0.000000   0.000000   0.000000   0.000000   0.000000
     2  N    0.000000   0.000000   0.000000   0.000000   0.000000   0.000000
     3  N    0.000000   0.000000   0.000000   0.000000   0.000000   0.000000
     4  C    0.000000   0.000000   0.000000   0.000000   0.000000   0.000000
     5  H    0.000000   0.000000   0.000000   0.000000   0.000000   0.000000
     6  H    0.000000   0.000000   0.000000   0.000000   0.000000   0.000000
     7  C    0.000000   0.000000   0.000000   0.000000   0.000000   0.000000
     8  C    0.000000   0.000000   0.000000   0.000000   0.000000   0.000000
     9  C    0.000000   0.000000   0.000000   0.000000   0.000000   0.000000
    10  C    0.000000   0.000000   0.000000   0.000000   0.000000   0.000000
    11  H    0.000000   0.000000   0.000000   0.000000   0.000000   0.000000
    12  C    0.000000   0.000000   0.000000   0.000000   0.000000   0.000000
    13  H    0.000000   0.000000   0.000000   0.000000   0.000000   0.000000
    14  C    0.000000   0.000000   0.000000   0.000000   0.000000   0.000000
    15  H    0.000000   0.000000   0.000000   0.000000   0.000000   0.000000
    16  H    0.000000   0.000000   0.000000   0.000000   0.000000   0.000000
    17  H    0.000000   0.000000   0.000000   0.000000   0.000000   0.000000
    18  C    0.652380  -0.111512   0.001340   0.001344   0.001318   0.400629
    19  C    5.079524   0.400685  -0.024303  -0.024309  -0.024325  -0.111410
    20  C    0.400685   5.205180   0.359072   0.359051   0.359119   0.003101
    21  H   -0.024303   0.359072   0.551282  -0.031476  -0.031477  -0.000016
    22  H   -0.024309   0.359051  -0.031476   0.551351  -0.031478  -0.000016
    23  H   -0.024325   0.359119  -0.031477  -0.031478   0.551249  -0.000017
    24  C   -0.111410   0.003101  -0.000016  -0.000016  -0.000017   5.205099
    25  H    0.001315  -0.000017  -0.000004   0.000026  -0.000005   0.359114
    26  H    0.001325  -0.000017   0.000026  -0.000005  -0.000004   0.359106
    27  H    0.001349  -0.000016  -0.000005  -0.000004   0.000026   0.359082
              25         26         27
     1  N    0.000000   0.000000   0.000000
     2  N    0.000000   0.000000   0.000000
     3  N    0.000000   0.000000   0.000000
     4  C    0.000000   0.000000   0.000000
     5  H    0.000000   0.000000   0.000000
     6  H    0.000000   0.000000   0.000000
     7  C    0.000000   0.000000   0.000000
     8  C    0.000000   0.000000   0.000000
     9  C    0.000000   0.000000   0.000000
    10  C    0.000000   0.000000   0.000000
    11  H    0.000000   0.000000   0.000000
    12  C    0.000000   0.000000   0.000000
    13  H    0.000000   0.000000   0.000000
    14  C    0.000000   0.000000   0.000000
    15  H    0.000000   0.000000   0.000000
    16  H    0.000000   0.000000   0.000000
    17  H    0.000000   0.000000   0.000000
    18  C   -0.024344  -0.024321  -0.024276
    19  C    0.001315   0.001325   0.001349
    20  C   -0.000017  -0.000017  -0.000016
    21  H   -0.000004   0.000026  -0.000005
    22  H    0.000026  -0.000005  -0.000004
    23  H   -0.000005  -0.000004   0.000026
    24  C    0.359114   0.359106   0.359082
    25  H    0.551283  -0.031469  -0.031457
    26  H   -0.031469   0.551193  -0.031449
    27  H   -0.031457  -0.031449   0.550959
 Mulliken charges:
               1
     1  N   -0.362478
     2  N    0.417477
     3  N   -0.266787
     4  C   -0.238219
     5  H    0.177466
     6  H    0.165261
     7  C    0.155633
     8  C   -0.165912
     9  C   -0.178025
    10  C   -0.128159
    11  H    0.136054
    12  C   -0.125538
    13  H    0.132029
    14  C   -0.126463
    15  H    0.135890
    16  H    0.136416
    17  H    0.135357
    18  C    0.047908
    19  C    0.047770
    20  C   -0.574645
    21  H    0.175563
    22  H    0.175517
    23  H    0.175594
    24  C   -0.574671
    25  H    0.175558
    26  H    0.175615
    27  H    0.175791
 Sum of Mulliken charges =  -0.00000
 Mulliken charges with hydrogens summed into heavy atoms:
               1
     1  N   -0.362478
     2  N    0.417477
     3  N   -0.266787
     4  C    0.104508
     7  C    0.155633
     8  C   -0.029858
     9  C   -0.045996
    10  C    0.007731
    12  C    0.010877
    14  C    0.008893
    18  C    0.047908
    19  C    0.047770
    20  C   -0.047971
    24  C   -0.047707
 Electronic spatial extent (au):  <R**2>=          31842.1509
 Charge=             -0.0000 electrons
 Dipole moment (field-independent basis, Debye):
    X=              1.3092    Y=             -1.9657    Z=             -0.6729  Tot=              2.4558
 Quadrupole moment (field-independent basis, Debye-Ang):
   XX=            -66.2907   YY=            -78.1575   ZZ=            -81.5951
   XY=             -6.6036   XZ=             -1.3711   YZ=             -2.3677
 Traceless Quadrupole moment (field-independent basis, Debye-Ang):
   XX=              9.0571   YY=             -2.8098   ZZ=             -6.2473
   XY=             -6.6036   XZ=             -1.3711   YZ=             -2.3677
 Octapole moment (field-independent basis, Debye-Ang**2):
  XXX=            177.2431  YYY=            -17.4768  ZZZ=             -6.1599  XYY=            -91.8524
  XXY=             -2.2231  XXZ=              6.5304  XZZ=             17.2844  YZZ=            -10.1876
  YYZ=              2.7578  XYZ=            -15.7381
 Hexadecapole moment (field-independent basis, Debye-Ang**3):
 XXXX=         -41053.4613 YYYY=          -1751.6242 ZZZZ=           -435.3968 XXXY=            230.5142
 XXXZ=            103.3054 YYYX=            -71.5547 YYYZ=            -16.2890 ZZZX=            -20.3194
 ZZZY=            -17.7214 XXYY=          -6229.3389 XXZZ=          -6988.7174 YYZZ=           -382.2391
 XXYZ=           -104.0168 YYXZ=             29.8543 ZZXY=            -49.6538
 N-N= 6.203399906799D+02 E-N=-2.610810962949D+03  KE= 5.853554734170D+02
 No NMR shielding tensors so no spin-rotation constants.
 Leave Link  601 at Thu Jun 27 10:17:47 2024, MaxMem=  3221225472 cpu:               3.1 elap:               0.2
 (Enter /share/apps/gaussian/g16/l9999.exe)
 1\1\GINC-NODE107\SP\RB3LYP\6-31G(d)\C11H13N3\LIAOYT\27-Jun-2024\0\\#p 
 b3lyp/6-31g(d) geom=connectivity em=gd3\\title\\0,1\N,0,2.234002,-0.78
 778,-0.106845\N,0,2.387654,0.38371,-0.468037\N,0,2.611074,1.426139,-0.
 878938\C,0,1.177048,-0.989589,0.931108\H,0,1.165338,-2.069343,1.092051
 \H,0,1.493087,-0.513219,1.868691\C,0,-0.180468,-0.482897,0.50364\C,0,-
 0.985628,-1.247907,-0.350309\C,0,-0.623713,0.782693,0.9042\C,0,-2.2151
 81,-0.759438,-0.788717\H,0,-0.641184,-2.227372,-0.673653\C,0,-1.8546,1
 .274933,0.465594\H,0,-0.004236,1.384459,1.565543\C,0,-2.652188,0.50414
 1,-0.380941\H,0,-2.833711,-1.363254,-1.447241\H,0,-2.188841,2.257968,0
 .785807\H,0,-3.611182,0.884653,-0.721904\C,0,0.604438,0.000003,-20.000
 063\C,0,-0.60445,0.000119,-19.999677\C,0,-2.065989,-0.000029,-20.00009
 1\H,0,-2.465688,0.819494,-20.610431\H,0,-2.465447,-0.9384,-20.404886\H
 ,0,-2.466138,0.118579,-18.985334\C,0,2.065992,-0.000011,-20.000041\H,0
 ,2.465725,-0.907841,-20.469156\H,0,2.465814,0.860125,-20.551633\H,0,2.
 465792,0.047552,-18.97933\\Version=ES64L-G16RevA.03\State=1-A\HF=-591.
 1379537\RMSD=5.820e-09\Dipole=-0.7733724,-0.2647322,0.5150645\Quadrupo
 le=-2.0889816,-4.644726,6.7337076,-1.760332,-4.9096246,-1.019381\PG=C0
 1 [X(C11H13N3)]\\@


 THERE ARE TWO THINGS THAT EVERYBODY THINKS THEY CAN DO BETTER THAN
 ANYONE ELSE - PUNCH THE FIRE, AND EDIT A DAILY PAPER.
 -- UNCLE ESEK, "CENTURY MAGAZINE", 1885
 Job cpu time:       0 days  0 hours  2 minutes 50.6 seconds.
 Elapsed time:       0 days  0 hours  0 minutes  7.4 seconds.
 File lengths (MBytes):  RWF=     36 Int=      0 D2E=      0 Chk=      5 Scr=      1
 Normal termination of Gaussian 16 at Thu Jun 27 10:17:47 2024.
Thu Jun 27 10:17:47 CST 2024
