 Entering Gaussian System, Link 0=g16
 Initial command:
 /share/apps/gaussian/g16/l1.exe "/tmp/55646.mgr/Gau-100563.inp" -scrdir="/tmp/55646.mgr/"
 Entering Link 1 = /share/apps/gaussian/g16/l1.exe PID=    100569.
  
 Copyright (c) 1988,1990,1992,1993,1995,1998,2003,2009,2016,
            Gaussian, Inc.  All Rights Reserved.
  
 This is part of the Gaussian(R) 16 program.  It is based on
 the Gaussian(R) 09 system (copyright 2009, Gaussian, Inc.),
 the Gaussian(R) 03 system (copyright 2003, Gaussian, Inc.),
 the Gaussian(R) 98 system (copyright 1998, Gaussian, Inc.),
 the Gaussian(R) 94 system (copyright 1995, Gaussian, Inc.),
 the Gaussian 92(TM) system (copyright 1992, Gaussian, Inc.),
 the Gaussian 90(TM) system (copyright 1990, Gaussian, Inc.),
 the Gaussian 88(TM) system (copyright 1988, Gaussian, Inc.),
 the Gaussian 86(TM) system (copyright 1986, Carnegie Mellon
 University), and the Gaussian 82(TM) system (copyright 1983,
 Carnegie Mellon University). Gaussian is a federally registered
 trademark of Gaussian, Inc.
  
 This software contains proprietary and confidential information,
 including trade secrets, belonging to Gaussian, Inc.
  
 This software is provided under written license and may be
 used, copied, transmitted, or stored only in accord with that
 written license.
  
 The following legend is applicable only to US Government
 contracts under FAR:
  
                    RESTRICTED RIGHTS LEGEND
  
 Use, reproduction and disclosure by the US Government is
 subject to restrictions as set forth in subparagraphs (a)
 and (c) of the Commercial Computer Software - Restricted
 Rights clause in FAR 52.227-19.
  
 Gaussian, Inc.
 340 Quinnipiac St., Bldg. 40, Wallingford CT 06492
  
  
 ---------------------------------------------------------------
 Warning -- This program may not be used in any manner that
 competes with the business of Gaussian, Inc. or will provide
 assistance to any competitor of Gaussian, Inc.  The licensee
 of this program is prohibited from giving any competitor of
 Gaussian, Inc. access to this program.  By using this program,
 the user acknowledges that Gaussian, Inc. is engaged in the
 business of creating and licensing software in the field of
 computational chemistry and represents and warrants to the
 licensee that it is not a competitor of Gaussian, Inc. and that
 it will not use this program in any manner prohibited above.
 ---------------------------------------------------------------
  

 Cite this work as:
 Gaussian 16, Revision A.03,
 M. J. Frisch, G. W. Trucks, H. B. Schlegel, G. E. Scuseria, 
 M. A. Robb, J. R. Cheeseman, G. Scalmani, V. Barone, 
 G. A. Petersson, H. Nakatsuji, X. Li, M. Caricato, A. V. Marenich, 
 J. Bloino, B. G. Janesko, R. Gomperts, B. Mennucci, H. P. Hratchian, 
 J. V. Ortiz, A. F. Izmaylov, J. L. Sonnenberg, D. Williams-Young, 
 F. Ding, F. Lipparini, F. Egidi, J. Goings, B. Peng, A. Petrone, 
 T. Henderson, D. Ranasinghe, V. G. Zakrzewski, J. Gao, N. Rega, 
 G. Zheng, W. Liang, M. Hada, M. Ehara, K. Toyota, R. Fukuda, 
 J. Hasegawa, M. Ishida, T. Nakajima, Y. Honda, O. Kitao, H. Nakai, 
 T. Vreven, K. Throssell, J. A. Montgomery, Jr., J. E. Peralta, 
 F. Ogliaro, M. J. Bearpark, J. J. Heyd, E. N. Brothers, K. N. Kudin, 
 V. N. Staroverov, T. A. Keith, R. Kobayashi, J. Normand, 
 K. Raghavachari, A. P. Rendell, J. C. Burant, S. S. Iyengar, 
 J. Tomasi, M. Cossi, J. M. Millam, M. Klene, C. Adamo, R. Cammi, 
 J. W. Ochterski, R. L. Martin, K. Morokuma, O. Farkas, 
 J. B. Foresman, and D. J. Fox, Gaussian, Inc., Wallingford CT, 2016.
 
 ******************************************
 Gaussian 16:  ES64L-G16RevA.03 25-Dec-2016
                22-Sep-2023 
 ******************************************
 %nprocshared=4
 Will use up to    4 processors via shared memory.
 %mem=4GB
 ------------------------------------------------------
 # b3lyp/6-31+g(d,p) scrf=(iefpcm,solvent=acetonitrile)
 ------------------------------------------------------
 1/38=1,172=1/1;
 2/12=2,17=6,18=5,40=1/2;
 3/5=1,6=6,7=111,11=2,25=1,30=1,70=2201,72=2,74=-5/1,2,3;
 4//1;
 5/5=2,38=5,53=2/2;
 6/7=2,8=2,9=2,10=2,28=1/1;
 99/5=1,9=1/99;
 ----------------------
 tmpdir/M1_conf_0_1.gjf
 ----------------------
 Symbolic Z-matrix:
 Charge =  0 Multiplicity = 1
 S                    -1.10399   1.28274  -1.39062 
 O                    -1.61626   2.68671  -1.56201 
 H                    -2.07671   0.53709  -0.67766 
 H                    -0.17718   1.32845  -0.25608 
 
                          Input orientation:                          
 ---------------------------------------------------------------------
 Center     Atomic      Atomic             Coordinates (Angstroms)
 Number     Number       Type             X           Y           Z
 ---------------------------------------------------------------------
      1         16           0       -1.103988    1.282741   -1.390615
      2          8           0       -1.616255    2.686705   -1.562010
      3          1           0       -2.076707    0.537092   -0.677657
      4          1           0       -0.177184    1.328453   -0.256075
 ---------------------------------------------------------------------
                    Distance matrix (angstroms):
                    1          2          3          4
     1  S    0.000000
     2  O    1.504297   0.000000
     3  H    1.417915   2.369585   0.000000
     4  H    1.465686   2.370916   2.100517   0.000000
 Stoichiometry    H2OS
 Framework group  C1[X(H2OS)]
 Deg. of freedom     6
 Full point group                 C1      NOp   1
 Largest Abelian subgroup         C1      NOp   1
 Largest concise Abelian subgroup C1      NOp   1
                         Standard orientation:                         
 ---------------------------------------------------------------------
 Center     Atomic      Atomic             Coordinates (Angstroms)
 Number     Number       Type             X           Y           Z
 ---------------------------------------------------------------------
      1         16           0        0.418623   -0.012765   -0.120048
      2          8           0       -1.074390    0.004272    0.063059
      3          1           0        0.967237   -0.962706    0.778350
      4          1           0        0.929910    1.132780    0.637941
 ---------------------------------------------------------------------
 Rotational constants (GHZ):         138.1419552          18.5016587          17.9719085
 Standard basis: 6-31+G(d,p) (6D, 7F)
 There are    52 symmetry adapted cartesian basis functions of A   symmetry.
 There are    52 symmetry adapted basis functions of A   symmetry.
    52 basis functions,   102 primitive gaussians,    52 cartesian basis functions
    13 alpha electrons       13 beta electrons
       nuclear repulsion energy        60.5995613808 Hartrees.
 NAtoms=    4 NActive=    4 NUniq=    4 SFac= 1.00D+00 NAtFMM=   60 NAOKFM=F Big=F
 Integral buffers will be    131072 words long.
 Raffenetti 2 integral format.
 Two-electron integral symmetry is turned on.
 ------------------------------------------------------------------------------
 Polarizable Continuum Model (PCM)
 =================================
 Model                : PCM.
 Atomic radii         : UFF (Universal Force Field).
 Polarization charges : Total charges.
 Charge compensation  : None.
 Solution method      : On-the-fly selection.
 Cavity type          : Scaled VdW (van der Waals Surface) (Alpha=1.100).
 Cavity algorithm     : GePol (No added spheres)
                        Default sphere list used, NSphG=    4.
                        Lebedev-Laikov grids with approx.  5.0 points / Ang**2.
                        Smoothing algorithm: York/Karplus (Gamma=1.0000).
                        Polarization charges: spherical gaussians, with
                                              point-specific exponents (IZeta= 3).
                        Self-potential: point-specific (ISelfS= 7).
                        Self-field    : sphere-specific E.n sum rule (ISelfD= 2).
 Solvent              : Acetonitrile, Eps=  35.688000 Eps(inf)=   1.806874
 ------------------------------------------------------------------------------
 Spheres list:
 ISph  on   Nord     Re0    Alpha      Xe            Ye            Ze
    1   S      1    2.0175  1.100      0.418623     -0.012765     -0.120048
    2   O      2    1.7500  1.100     -1.074390      0.004272      0.063059
    3   H      3    1.4430  1.100      0.967237     -0.962706      0.778350
    4   H      4    1.4430  1.100      0.929910      1.132780      0.637941
 ------------------------------------------------------------------------------
 One-electron integrals computed using PRISM.
 NBasis=    52 RedAO= T EigKep=  4.55D-03  NBF=    52
 NBsUse=    52 1.00D-06 EigRej= -1.00D+00 NBFU=    52
 ExpMin= 4.05D-02 ExpMax= 2.19D+04 ExpMxC= 3.30D+03 IAcc=3 IRadAn=         5 AccDes= 0.00D+00
 Harris functional with IExCor=  402 and IRadAn=       5 diagonalized for initial guess.
 HarFok:  IExCor=  402 AccDes= 0.00D+00 IRadAn=         5 IDoV= 1 UseB2=F ITyADJ=14
 ICtDFT=  3500011 ScaDFX=  1.000000  1.000000  1.000000  1.000000
 FoFCou: FMM=F IPFlag=           0 FMFlag=      100000 FMFlg1=           0
         NFxFlg=           0 DoJE=T BraDBF=F KetDBF=T FulRan=T
         wScrn=  0.000000 ICntrl=       500 IOpCl=  0 I1Cent=   200000004 NGrid=           0
         NMat0=    1 NMatS0=      1 NMatT0=    0 NMatD0=    1 NMtDS0=    0 NMtDT0=    0
 Petite list used in FoFCou.
 Keep R1 ints in memory in canonical form, NReq=4452094.
 Requested convergence on RMS density matrix=1.00D-08 within 128 cycles.
 Requested convergence on MAX density matrix=1.00D-06.
 Requested convergence on             energy=1.00D-06.
 No special actions if energy rises.
 Inv3:  Mode=1 IEnd=     1183152.
 Iteration    1 A*A^-1 deviation from unit magnitude is 3.11D-15 for    613.
 Iteration    1 A*A^-1 deviation from orthogonality  is 1.33D-15 for    539     95.
 Iteration    1 A^-1*A deviation from unit magnitude is 2.89D-15 for    613.
 Iteration    1 A^-1*A deviation from orthogonality  is 4.86D-12 for    593    539.
 Error on total polarization charges =  0.01154
 SCF Done:  E(RB3LYP) =  -474.554440880     A.U. after   10 cycles
            NFock= 10  Conv=0.78D-08     -V/T= 2.0046

 **********************************************************************

            Population analysis using the SCF density.

 **********************************************************************

 Orbital symmetries:
       Occupied  (A) (A) (A) (A) (A) (A) (A) (A) (A) (A) (A) (A)
                 (A)
       Virtual   (A) (A) (A) (A) (A) (A) (A) (A) (A) (A) (A) (A)
                 (A) (A) (A) (A) (A) (A) (A) (A) (A) (A) (A) (A)
                 (A) (A) (A) (A) (A) (A) (A) (A) (A) (A) (A) (A)
                 (A) (A) (A)
 The electronic state is 1-A.
 Alpha  occ. eigenvalues --  -89.01455 -19.14131  -8.06231  -6.02660  -6.02491
 Alpha  occ. eigenvalues --   -6.01962  -1.03522  -0.72209  -0.49087  -0.45799
 Alpha  occ. eigenvalues --   -0.40765  -0.30070  -0.26177
 Alpha virt. eigenvalues --   -0.02911  -0.01025   0.00186   0.05080   0.05438
 Alpha virt. eigenvalues --    0.09092   0.12918   0.18449   0.19240   0.19811
 Alpha virt. eigenvalues --    0.27247   0.42597   0.46209   0.49007   0.59647
 Alpha virt. eigenvalues --    0.63434   0.65923   0.71173   0.71282   0.93195
 Alpha virt. eigenvalues --    1.06668   1.09804   1.20982   1.21449   1.23947
 Alpha virt. eigenvalues --    1.45818   1.80599   1.81880   1.88992   1.95431
 Alpha virt. eigenvalues --    1.98708   2.12337   2.12896   2.20630   2.54337
 Alpha virt. eigenvalues --    2.64361   2.77318   3.93208   4.00250
          Condensed to atoms (all electrons):
               1          2          3          4
     1  S   14.816247   0.061411   0.249884   0.271424
     2  O    0.061411   8.840825  -0.065704  -0.075873
     3  H    0.249884  -0.065704   0.759549  -0.023633
     4  H    0.271424  -0.075873  -0.023633   0.748361
 Mulliken charges:
               1
     1  S    0.601035
     2  O   -0.760659
     3  H    0.079903
     4  H    0.079721
 Sum of Mulliken charges =  -0.00000
 Mulliken charges with hydrogens summed into heavy atoms:
               1
     1  S    0.760659
     2  O   -0.760659
 Electronic spatial extent (au):  <R**2>=            106.0654
 Charge=             -0.0000 electrons
 Dipole moment (field-independent basis, Debye):
    X=              4.8145    Y=              0.0195    Z=              0.7372  Tot=              4.8706
 Quadrupole moment (field-independent basis, Debye-Ang):
   XX=            -22.2703   YY=            -17.5258   ZZ=            -19.6420
   XY=              0.0209   XZ=              1.4239   YZ=             -0.1416
 Traceless Quadrupole moment (field-independent basis, Debye-Ang):
   XX=             -2.4576   YY=              2.2869   ZZ=              0.1707
   XY=              0.0209   XZ=              1.4239   YZ=             -0.1416
 Octapole moment (field-independent basis, Debye-Ang**2):
  XXX=              7.3634  YYY=              0.0337  ZZZ=              0.5657  XYY=              1.9245
  XXY=             -0.0430  XXZ=              0.8142  XZZ=              0.4224  YZZ=             -0.0681
  YYZ=              0.5826  XYZ=             -0.1212
 Hexadecapole moment (field-independent basis, Debye-Ang**3):
 XXXX=            -88.3114 YYYY=            -28.8967 ZZZZ=            -29.7605 XXXY=             -0.2837
 XXXZ=              1.0677 YYYX=              0.0054 YYYZ=             -0.0741 ZZZX=              1.0662
 ZZZY=             -0.4064 XXYY=            -19.2821 XXZZ=            -20.5175 YYZZ=             -9.3155
 XXYZ=             -0.2089 YYXZ=              0.7860 ZZXY=             -0.0967
 N-N= 6.059956138082D+01 E-N=-1.246617042778D+03  KE= 4.723903661008D+02
 1\1\GINC-NODE85\SP\RB3LYP\6-31+G(d,p)\H2O1S1\YANZ\22-Sep-2023\0\\# b3l
 yp/6-31+g(d,p) scrf=(iefpcm,solvent=acetonitrile)\\tmpdir/M1_conf_0_1.
 gjf\\0,1\S,0,-1.103988,1.282741,-1.390615\O,0,-1.616255,2.686705,-1.56
 201\H,0,-2.07670662,0.53709206,-0.67765742\H,0,-0.1771835,1.32845268,-
 0.25607518\\Version=ES64L-G16RevA.03\State=1-A\HF=-474.5544409\RMSD=7.
 834e-09\Dipole=0.5021684,-1.7060266,0.7136742\Quadrupole=1.0325227,-1.
 576237,0.5437143,1.4352181,0.3868762,-0.3493825\PG=C01 [X(H2O1S1)]\\@


 ... THIS SEEMS PLAINLY ABSURD; BUT WHOEVER WISHES TO BECOME A 
 PHILOSOPHER MUST LEARN NOT TO BE FRIGHTENED BY ABSURDITIES.

                          -- BERTRAND RUSSELL
 Job cpu time:       0 days  0 hours  0 minutes 14.0 seconds.
 Elapsed time:       0 days  0 hours  0 minutes  3.7 seconds.
 File lengths (MBytes):  RWF=     13 Int=      0 D2E=      0 Chk=      1 Scr=      1
 Normal termination of Gaussian 16 at Fri Sep 22 16:59:17 2023.
