 Entering Gaussian System, Link 0=g16
 Initial command:
 /share/apps/gaussian/g16/l1.exe "/tmp/55646.mgr/Gau-100725.inp" -scrdir="/tmp/55646.mgr/"
 Entering Link 1 = /share/apps/gaussian/g16/l1.exe PID=    100726.
  
 Copyright (c) 1988,1990,1992,1993,1995,1998,2003,2009,2016,
            Gaussian, Inc.  All Rights Reserved.
  
 This is part of the Gaussian(R) 16 program.  It is based on
 the Gaussian(R) 09 system (copyright 2009, Gaussian, Inc.),
 the Gaussian(R) 03 system (copyright 2003, Gaussian, Inc.),
 the Gaussian(R) 98 system (copyright 1998, Gaussian, Inc.),
 the Gaussian(R) 94 system (copyright 1995, Gaussian, Inc.),
 the Gaussian 92(TM) system (copyright 1992, Gaussian, Inc.),
 the Gaussian 90(TM) system (copyright 1990, Gaussian, Inc.),
 the Gaussian 88(TM) system (copyright 1988, Gaussian, Inc.),
 the Gaussian 86(TM) system (copyright 1986, Carnegie Mellon
 University), and the Gaussian 82(TM) system (copyright 1983,
 Carnegie Mellon University). Gaussian is a federally registered
 trademark of Gaussian, Inc.
  
 This software contains proprietary and confidential information,
 including trade secrets, belonging to Gaussian, Inc.
  
 This software is provided under written license and may be
 used, copied, transmitted, or stored only in accord with that
 written license.
  
 The following legend is applicable only to US Government
 contracts under FAR:
  
                    RESTRICTED RIGHTS LEGEND
  
 Use, reproduction and disclosure by the US Government is
 subject to restrictions as set forth in subparagraphs (a)
 and (c) of the Commercial Computer Software - Restricted
 Rights clause in FAR 52.227-19.
  
 Gaussian, Inc.
 340 Quinnipiac St., Bldg. 40, Wallingford CT 06492
  
  
 ---------------------------------------------------------------
 Warning -- This program may not be used in any manner that
 competes with the business of Gaussian, Inc. or will provide
 assistance to any competitor of Gaussian, Inc.  The licensee
 of this program is prohibited from giving any competitor of
 Gaussian, Inc. access to this program.  By using this program,
 the user acknowledges that Gaussian, Inc. is engaged in the
 business of creating and licensing software in the field of
 computational chemistry and represents and warrants to the
 licensee that it is not a competitor of Gaussian, Inc. and that
 it will not use this program in any manner prohibited above.
 ---------------------------------------------------------------
  

 Cite this work as:
 Gaussian 16, Revision A.03,
 M. J. Frisch, G. W. Trucks, H. B. Schlegel, G. E. Scuseria, 
 M. A. Robb, J. R. Cheeseman, G. Scalmani, V. Barone, 
 G. A. Petersson, H. Nakatsuji, X. Li, M. Caricato, A. V. Marenich, 
 J. Bloino, B. G. Janesko, R. Gomperts, B. Mennucci, H. P. Hratchian, 
 J. V. Ortiz, A. F. Izmaylov, J. L. Sonnenberg, D. Williams-Young, 
 F. Ding, F. Lipparini, F. Egidi, J. Goings, B. Peng, A. Petrone, 
 T. Henderson, D. Ranasinghe, V. G. Zakrzewski, J. Gao, N. Rega, 
 G. Zheng, W. Liang, M. Hada, M. Ehara, K. Toyota, R. Fukuda, 
 J. Hasegawa, M. Ishida, T. Nakajima, Y. Honda, O. Kitao, H. Nakai, 
 T. Vreven, K. Throssell, J. A. Montgomery, Jr., J. E. Peralta, 
 F. Ogliaro, M. J. Bearpark, J. J. Heyd, E. N. Brothers, K. N. Kudin, 
 V. N. Staroverov, T. A. Keith, R. Kobayashi, J. Normand, 
 K. Raghavachari, A. P. Rendell, J. C. Burant, S. S. Iyengar, 
 J. Tomasi, M. Cossi, J. M. Millam, M. Klene, C. Adamo, R. Cammi, 
 J. W. Ochterski, R. L. Martin, K. Morokuma, O. Farkas, 
 J. B. Foresman, and D. J. Fox, Gaussian, Inc., Wallingford CT, 2016.
 
 ******************************************
 Gaussian 16:  ES64L-G16RevA.03 25-Dec-2016
                22-Sep-2023 
 ******************************************
 %nprocshared=4
 Will use up to    4 processors via shared memory.
 %mem=4GB
 ------------------------------------------------------
 # b3lyp/6-31+g(d,p) scrf=(iefpcm,solvent=acetonitrile)
 ------------------------------------------------------
 1/38=1,172=1/1;
 2/12=2,17=6,18=5,40=1/2;
 3/5=1,6=6,7=111,11=2,25=1,30=1,70=2201,72=2,74=-5/1,2,3;
 4//1;
 5/5=2,38=5,53=2/2;
 6/7=2,8=2,9=2,10=2,28=1/1;
 99/5=1,9=1/99;
 ----------------------
 tmpdir/M1_conf_0_6.gjf
 ----------------------
 Symbolic Z-matrix:
 Charge =  0 Multiplicity = 1
 C                    -0.0217    0.33341   0.93982 
 O                     0.59156   0.38764   2.00633 
 H                    -0.66364  -0.50235   0.67089 
 H                     0.01887   1.12355   0.1991 
 
                          Input orientation:                          
 ---------------------------------------------------------------------
 Center     Atomic      Atomic             Coordinates (Angstroms)
 Number     Number       Type             X           Y           Z
 ---------------------------------------------------------------------
      1          6           0       -0.021700    0.333409    0.939822
      2          8           0        0.591559    0.387643    2.006326
      3          1           0       -0.663644   -0.502350    0.670889
      4          1           0        0.018868    1.123553    0.199099
 ---------------------------------------------------------------------
                    Distance matrix (angstroms):
                    1          2          3          4
     1  C    0.000000
     2  O    1.231446   0.000000
     3  H    1.087616   2.037404   0.000000
     4  H    1.083810   2.033620   1.825368   0.000000
 Stoichiometry    CH2O
 Framework group  C1[X(CH2O)]
 Deg. of freedom     6
 Full point group                 C1      NOp   1
 Largest Abelian subgroup         C1      NOp   1
 Largest concise Abelian subgroup C1      NOp   1
                         Standard orientation:                         
 ---------------------------------------------------------------------
 Center     Atomic      Atomic             Coordinates (Angstroms)
 Number     Number       Type             X           Y           Z
 ---------------------------------------------------------------------
      1          6           0        0.542223   -0.000641   -0.002605
      2          8           0       -0.689218    0.000437    0.000631
      3          1           0        1.132453    0.912855    0.005282
      4          1           0        1.127956   -0.912507    0.005297
 ---------------------------------------------------------------------
 Rotational constants (GHZ):         300.9740086          37.3420217          33.2209152
 Standard basis: 6-31+G(d,p) (6D, 7F)
 There are    48 symmetry adapted cartesian basis functions of A   symmetry.
 There are    48 symmetry adapted basis functions of A   symmetry.
    48 basis functions,    78 primitive gaussians,    48 cartesian basis functions
     8 alpha electrons        8 beta electrons
       nuclear repulsion energy        30.9248636995 Hartrees.
 NAtoms=    4 NActive=    4 NUniq=    4 SFac= 1.00D+00 NAtFMM=   60 NAOKFM=F Big=F
 Integral buffers will be    131072 words long.
 Raffenetti 2 integral format.
 Two-electron integral symmetry is turned on.
 ------------------------------------------------------------------------------
 Polarizable Continuum Model (PCM)
 =================================
 Model                : PCM.
 Atomic radii         : UFF (Universal Force Field).
 Polarization charges : Total charges.
 Charge compensation  : None.
 Solution method      : On-the-fly selection.
 Cavity type          : Scaled VdW (van der Waals Surface) (Alpha=1.100).
 Cavity algorithm     : GePol (No added spheres)
                        Default sphere list used, NSphG=    4.
                        Lebedev-Laikov grids with approx.  5.0 points / Ang**2.
                        Smoothing algorithm: York/Karplus (Gamma=1.0000).
                        Polarization charges: spherical gaussians, with
                                              point-specific exponents (IZeta= 3).
                        Self-potential: point-specific (ISelfS= 7).
                        Self-field    : sphere-specific E.n sum rule (ISelfD= 2).
 Solvent              : Acetonitrile, Eps=  35.688000 Eps(inf)=   1.806874
 ------------------------------------------------------------------------------
 Spheres list:
 ISph  on   Nord     Re0    Alpha      Xe            Ye            Ze
    1   C      1    1.9255  1.100      0.542223     -0.000641     -0.002605
    2   O      2    1.7500  1.100     -0.689218      0.000437      0.000631
    3   H      3    1.4430  1.100      1.132453      0.912855      0.005282
    4   H      4    1.4430  1.100      1.127956     -0.912507      0.005297
 ------------------------------------------------------------------------------
 One-electron integrals computed using PRISM.
 NBasis=    48 RedAO= T EigKep=  6.33D-03  NBF=    48
 NBsUse=    48 1.00D-06 EigRej= -1.00D+00 NBFU=    48
 ExpMin= 4.38D-02 ExpMax= 5.48D+03 ExpMxC= 8.25D+02 IAcc=3 IRadAn=         5 AccDes= 0.00D+00
 Harris functional with IExCor=  402 and IRadAn=       5 diagonalized for initial guess.
 HarFok:  IExCor=  402 AccDes= 0.00D+00 IRadAn=         5 IDoV= 1 UseB2=F ITyADJ=14
 ICtDFT=  3500011 ScaDFX=  1.000000  1.000000  1.000000  1.000000
 FoFCou: FMM=F IPFlag=           0 FMFlag=      100000 FMFlg1=           0
         NFxFlg=           0 DoJE=T BraDBF=F KetDBF=T FulRan=T
         wScrn=  0.000000 ICntrl=       500 IOpCl=  0 I1Cent=   200000004 NGrid=           0
         NMat0=    1 NMatS0=      1 NMatT0=    0 NMatD0=    1 NMtDS0=    0 NMtDT0=    0
 Petite list used in FoFCou.
 Keep R1 ints in memory in canonical form, NReq=4177448.
 Requested convergence on RMS density matrix=1.00D-08 within 128 cycles.
 Requested convergence on MAX density matrix=1.00D-06.
 Requested convergence on             energy=1.00D-06.
 No special actions if energy rises.
 Inv3:  Mode=1 IEnd=      830028.
 Iteration    1 A*A^-1 deviation from unit magnitude is 2.44D-15 for    109.
 Iteration    1 A*A^-1 deviation from orthogonality  is 1.56D-15 for    463    140.
 Iteration    1 A^-1*A deviation from unit magnitude is 2.33D-15 for    485.
 Iteration    1 A^-1*A deviation from orthogonality  is 1.61D-15 for    446    104.
 Error on total polarization charges =  0.00700
 SCF Done:  E(RB3LYP) =  -114.516297652     A.U. after    9 cycles
            NFock=  9  Conv=0.44D-08     -V/T= 2.0097

 **********************************************************************

            Population analysis using the SCF density.

 **********************************************************************

 Orbital symmetries:
       Occupied  (A) (A) (A) (A) (A) (A) (A) (A)
       Virtual   (A) (A) (A) (A) (A) (A) (A) (A) (A) (A) (A) (A)
                 (A) (A) (A) (A) (A) (A) (A) (A) (A) (A) (A) (A)
                 (A) (A) (A) (A) (A) (A) (A) (A) (A) (A) (A) (A)
                 (A) (A) (A) (A)
 The electronic state is 1-A.
 Alpha  occ. eigenvalues --  -19.18762 -10.29638  -1.06347  -0.65055  -0.50056
 Alpha  occ. eigenvalues --   -0.46451  -0.40580  -0.28386
 Alpha virt. eigenvalues --   -0.06582   0.02077   0.03987   0.05292   0.07295
 Alpha virt. eigenvalues --    0.17082   0.18963   0.20569   0.21376   0.25643
 Alpha virt. eigenvalues --    0.25952   0.35630   0.63059   0.66362   0.71629
 Alpha virt. eigenvalues --    0.89469   0.92547   1.02451   1.17065   1.17096
 Alpha virt. eigenvalues --    1.20874   1.36451   1.44966   1.49052   1.67286
 Alpha virt. eigenvalues --    1.79680   1.82471   1.99961   2.02215   2.15999
 Alpha virt. eigenvalues --    2.24881   2.53704   2.61171   2.72620   2.87434
 Alpha virt. eigenvalues --    2.93627   3.30865   3.53982   4.04311   4.39095
          Condensed to atoms (all electrons):
               1          2          3          4
     1  C    4.728485   0.381660   0.387150   0.387383
     2  O    0.381660   8.150841  -0.064683  -0.064755
     3  H    0.387150  -0.064683   0.608188  -0.074276
     4  H    0.387383  -0.064755  -0.074276   0.607529
 Mulliken charges:
               1
     1  C    0.115322
     2  O   -0.403063
     3  H    0.143622
     4  H    0.144119
 Sum of Mulliken charges =  -0.00000
 Mulliken charges with hydrogens summed into heavy atoms:
               1
     1  C    0.403063
     2  O   -0.403063
 Electronic spatial extent (au):  <R**2>=             61.4219
 Charge=             -0.0000 electrons
 Dipole moment (field-independent basis, Debye):
    X=              3.2353    Y=             -0.0059    Z=              0.0016  Tot=              3.2354
 Quadrupole moment (field-independent basis, Debye-Ang):
   XX=            -12.1916   YY=            -11.6581   ZZ=            -11.7655
   XY=             -0.0014   XZ=              0.0064   YZ=              0.0000
 Traceless Quadrupole moment (field-independent basis, Debye-Ang):
   XX=             -0.3199   YY=              0.2136   ZZ=              0.1063
   XY=             -0.0014   XZ=              0.0064   YZ=              0.0000
 Octapole moment (field-independent basis, Debye-Ang**2):
  XXX=              1.5960  YYY=             -0.0138  ZZZ=              0.0055  XYY=              1.2075
  XXY=             -0.0027  XXZ=              0.0161  XZZ=             -0.1865  YZZ=             -0.0049
  YYZ=              0.0136  XYZ=              0.0000
 Hexadecapole moment (field-independent basis, Debye-Ang**3):
 XXXX=            -47.2630 YYYY=            -18.0666 ZZZZ=            -10.8030 XXXY=             -0.0082
 XXXZ=              0.0175 YYYX=             -0.0102 YYYZ=             -0.0000 ZZZX=             -0.0012
 ZZZY=             -0.0000 XXYY=            -10.5526 XXZZ=             -9.7687 YYZZ=             -5.0968
 XXYZ=              0.0001 YYXZ=              0.0142 ZZXY=             -0.0057
 N-N= 3.092486369952D+01 E-N=-3.301096198778D+02  KE= 1.134205685625D+02
 1\1\GINC-NODE85\SP\RB3LYP\6-31+G(d,p)\C1H2O1\YANZ\22-Sep-2023\0\\# b3l
 yp/6-31+g(d,p) scrf=(iefpcm,solvent=acetonitrile)\\tmpdir/M1_conf_0_6.
 gjf\\0,1\C,0,-0.0217,0.333409,0.939822\O,0,0.591559,0.387643,2.006326\
 H,0,-0.66364355,-0.50234996,0.67088894\H,0,0.0188676,1.12355285,0.1990
 986\\Version=ES64L-G16RevA.03\State=1-A\HF=-114.5162977\RMSD=4.376e-09
 \Dipole=-0.6365559,-0.0531787,-1.1010022\Quadrupole=0.0140688,0.141417
 9,-0.1554867,0.0181708,-0.1428565,-0.0332274\PG=C01 [X(C1H2O1)]\\@


 WE LEARN WISDOM FROM FAILURE MUCH MORE THAN FROM SUCCESS.
 WE DISCOVER WHAT WILL DO BY FINDING OUT WHAT WILL NOT DO...
 AND HE WHO NEVER MADE A MISTAKE NEVER MADE A DISCOVERY
 Job cpu time:       0 days  0 hours  0 minutes 12.0 seconds.
 Elapsed time:       0 days  0 hours  0 minutes  3.1 seconds.
 File lengths (MBytes):  RWF=     11 Int=      0 D2E=      0 Chk=      1 Scr=      1
 Normal termination of Gaussian 16 at Fri Sep 22 16:59:19 2023.
