 Entering Gaussian System, Link 0=g16
 Initial command:
 /share/apps/gaussian/g16/l1.exe "/tmp/55646.mgr/Gau-100746.inp" -scrdir="/tmp/55646.mgr/"
 Entering Link 1 = /share/apps/gaussian/g16/l1.exe PID=    100747.
  
 Copyright (c) 1988,1990,1992,1993,1995,1998,2003,2009,2016,
            Gaussian, Inc.  All Rights Reserved.
  
 This is part of the Gaussian(R) 16 program.  It is based on
 the Gaussian(R) 09 system (copyright 2009, Gaussian, Inc.),
 the Gaussian(R) 03 system (copyright 2003, Gaussian, Inc.),
 the Gaussian(R) 98 system (copyright 1998, Gaussian, Inc.),
 the Gaussian(R) 94 system (copyright 1995, Gaussian, Inc.),
 the Gaussian 92(TM) system (copyright 1992, Gaussian, Inc.),
 the Gaussian 90(TM) system (copyright 1990, Gaussian, Inc.),
 the Gaussian 88(TM) system (copyright 1988, Gaussian, Inc.),
 the Gaussian 86(TM) system (copyright 1986, Carnegie Mellon
 University), and the Gaussian 82(TM) system (copyright 1983,
 Carnegie Mellon University). Gaussian is a federally registered
 trademark of Gaussian, Inc.
  
 This software contains proprietary and confidential information,
 including trade secrets, belonging to Gaussian, Inc.
  
 This software is provided under written license and may be
 used, copied, transmitted, or stored only in accord with that
 written license.
  
 The following legend is applicable only to US Government
 contracts under FAR:
  
                    RESTRICTED RIGHTS LEGEND
  
 Use, reproduction and disclosure by the US Government is
 subject to restrictions as set forth in subparagraphs (a)
 and (c) of the Commercial Computer Software - Restricted
 Rights clause in FAR 52.227-19.
  
 Gaussian, Inc.
 340 Quinnipiac St., Bldg. 40, Wallingford CT 06492
  
  
 ---------------------------------------------------------------
 Warning -- This program may not be used in any manner that
 competes with the business of Gaussian, Inc. or will provide
 assistance to any competitor of Gaussian, Inc.  The licensee
 of this program is prohibited from giving any competitor of
 Gaussian, Inc. access to this program.  By using this program,
 the user acknowledges that Gaussian, Inc. is engaged in the
 business of creating and licensing software in the field of
 computational chemistry and represents and warrants to the
 licensee that it is not a competitor of Gaussian, Inc. and that
 it will not use this program in any manner prohibited above.
 ---------------------------------------------------------------
  

 Cite this work as:
 Gaussian 16, Revision A.03,
 M. J. Frisch, G. W. Trucks, H. B. Schlegel, G. E. Scuseria, 
 M. A. Robb, J. R. Cheeseman, G. Scalmani, V. Barone, 
 G. A. Petersson, H. Nakatsuji, X. Li, M. Caricato, A. V. Marenich, 
 J. Bloino, B. G. Janesko, R. Gomperts, B. Mennucci, H. P. Hratchian, 
 J. V. Ortiz, A. F. Izmaylov, J. L. Sonnenberg, D. Williams-Young, 
 F. Ding, F. Lipparini, F. Egidi, J. Goings, B. Peng, A. Petrone, 
 T. Henderson, D. Ranasinghe, V. G. Zakrzewski, J. Gao, N. Rega, 
 G. Zheng, W. Liang, M. Hada, M. Ehara, K. Toyota, R. Fukuda, 
 J. Hasegawa, M. Ishida, T. Nakajima, Y. Honda, O. Kitao, H. Nakai, 
 T. Vreven, K. Throssell, J. A. Montgomery, Jr., J. E. Peralta, 
 F. Ogliaro, M. J. Bearpark, J. J. Heyd, E. N. Brothers, K. N. Kudin, 
 V. N. Staroverov, T. A. Keith, R. Kobayashi, J. Normand, 
 K. Raghavachari, A. P. Rendell, J. C. Burant, S. S. Iyengar, 
 J. Tomasi, M. Cossi, J. M. Millam, M. Klene, C. Adamo, R. Cammi, 
 J. W. Ochterski, R. L. Martin, K. Morokuma, O. Farkas, 
 J. B. Foresman, and D. J. Fox, Gaussian, Inc., Wallingford CT, 2016.
 
 ******************************************
 Gaussian 16:  ES64L-G16RevA.03 25-Dec-2016
                22-Sep-2023 
 ******************************************
 %nprocshared=4
 Will use up to    4 processors via shared memory.
 %mem=4GB
 ------------------------------------------------------
 # b3lyp/6-31+g(d,p) scrf=(iefpcm,solvent=acetonitrile)
 ------------------------------------------------------
 1/38=1,172=1/1;
 2/12=2,17=6,18=5,40=1/2;
 3/5=1,6=6,7=111,11=2,25=1,30=1,70=2201,72=2,74=-5/1,2,3;
 4//1;
 5/5=2,38=5,53=2/2;
 6/7=2,8=2,9=2,10=2,28=1/1;
 99/5=1,9=1/99;
 ----------------------
 tmpdir/M1_conf_0_7.gjf
 ----------------------
 Symbolic Z-matrix:
 Charge =  0 Multiplicity = 2
 C                    -0.9085   -0.82114   0.56831 
 H                    -0.26656   0.01462   0.83724 
 H                    -1.4273   -1.29489   1.40376 
 H                    -0.54248  -1.49565  -0.20838 
 
                          Input orientation:                          
 ---------------------------------------------------------------------
 Center     Atomic      Atomic             Coordinates (Angstroms)
 Number     Number       Type             X           Y           Z
 ---------------------------------------------------------------------
      1          6           0       -0.908502   -0.821136    0.568309
      2          1           0       -0.266558    0.014623    0.837242
      3          1           0       -1.427296   -1.294885    1.403762
      4          1           0       -0.542480   -1.495652   -0.208384
 ---------------------------------------------------------------------
                    Distance matrix (angstroms):
                    1          2          3          4
     1  C    0.000000
     2  H    1.087616   0.000000
     3  H    1.091590   1.839312   0.000000
     4  H    1.091877   1.857524   1.849925   0.000000
 Stoichiometry    CH3(2)
 Framework group  C1[X(CH3)]
 Deg. of freedom     6
 Full point group                 C1      NOp   1
 Largest Abelian subgroup         C1      NOp   1
 Largest concise Abelian subgroup C1      NOp   1
                         Standard orientation:                         
 ---------------------------------------------------------------------
 Center     Atomic      Atomic             Coordinates (Angstroms)
 Number     Number       Type             X           Y           Z
 ---------------------------------------------------------------------
      1          6           0       -0.001008   -0.002000   -0.074031
      2          1           0        0.723994   -0.781523    0.148740
      3          1           0        0.329110    1.014899    0.146213
      4          1           0       -1.047059   -0.221375    0.149232
 ---------------------------------------------------------------------
 Rotational constants (GHZ):         277.3470189         271.4936279         146.6815539
 Standard basis: 6-31+G(d,p) (6D, 7F)
 There are    34 symmetry adapted cartesian basis functions of A   symmetry.
 There are    34 symmetry adapted basis functions of A   symmetry.
    34 basis functions,    53 primitive gaussians,    34 cartesian basis functions
     5 alpha electrons        4 beta electrons
       nuclear repulsion energy         9.5944811979 Hartrees.
 NAtoms=    4 NActive=    4 NUniq=    4 SFac= 1.00D+00 NAtFMM=   60 NAOKFM=F Big=F
 Integral buffers will be    131072 words long.
 Raffenetti 2 integral format.
 Two-electron integral symmetry is turned on.
 ------------------------------------------------------------------------------
 Polarizable Continuum Model (PCM)
 =================================
 Model                : PCM.
 Atomic radii         : UFF (Universal Force Field).
 Polarization charges : Total charges.
 Charge compensation  : None.
 Solution method      : On-the-fly selection.
 Cavity type          : Scaled VdW (van der Waals Surface) (Alpha=1.100).
 Cavity algorithm     : GePol (No added spheres)
                        Default sphere list used, NSphG=    4.
                        Lebedev-Laikov grids with approx.  5.0 points / Ang**2.
                        Smoothing algorithm: York/Karplus (Gamma=1.0000).
                        Polarization charges: spherical gaussians, with
                                              point-specific exponents (IZeta= 3).
                        Self-potential: point-specific (ISelfS= 7).
                        Self-field    : sphere-specific E.n sum rule (ISelfD= 2).
 Solvent              : Acetonitrile, Eps=  35.688000 Eps(inf)=   1.806874
 ------------------------------------------------------------------------------
 Spheres list:
 ISph  on   Nord     Re0    Alpha      Xe            Ye            Ze
    1   C      1    1.9255  1.100     -0.001008     -0.002000     -0.074031
    2   H      2    1.4430  1.100      0.723994     -0.781523      0.148740
    3   H      3    1.4430  1.100      0.329110      1.014899      0.146213
    4   H      4    1.4430  1.100     -1.047059     -0.221375      0.149232
 ------------------------------------------------------------------------------
 One-electron integrals computed using PRISM.
 NBasis=    34 RedAO= T EigKep=  2.30D-02  NBF=    34
 NBsUse=    34 1.00D-06 EigRej= -1.00D+00 NBFU=    34
 ExpMin= 4.38D-02 ExpMax= 3.05D+03 ExpMxC= 4.57D+02 IAcc=3 IRadAn=         5 AccDes= 0.00D+00
 Harris functional with IExCor=  402 and IRadAn=       5 diagonalized for initial guess.
 HarFok:  IExCor=  402 AccDes= 0.00D+00 IRadAn=         5 IDoV= 1 UseB2=F ITyADJ=14
 ICtDFT=  3500011 ScaDFX=  1.000000  1.000000  1.000000  1.000000
 FoFCou: FMM=F IPFlag=           0 FMFlag=      100000 FMFlg1=           0
         NFxFlg=           0 DoJE=T BraDBF=F KetDBF=T FulRan=T
         wScrn=  0.000000 ICntrl=       500 IOpCl=  0 I1Cent=   200000004 NGrid=           0
         NMat0=    1 NMatS0=      1 NMatT0=    0 NMatD0=    1 NMtDS0=    0 NMtDT0=    0
 Petite list used in FoFCou.
 Initial guess <Sx>= 0.0000 <Sy>= 0.0000 <Sz>= 0.5000 <S**2>= 0.7500 S= 0.5000
 Keep R1 and R2 ints in memory in canonical form, NReq=3805400.
 Requested convergence on RMS density matrix=1.00D-08 within 128 cycles.
 Requested convergence on MAX density matrix=1.00D-06.
 Requested convergence on             energy=1.00D-06.
 No special actions if energy rises.
 Inv3:  Mode=1 IEnd=      596748.
 Iteration    1 A*A^-1 deviation from unit magnitude is 3.11D-15 for    436.
 Iteration    1 A*A^-1 deviation from orthogonality  is 1.48D-15 for    284    188.
 Iteration    1 A^-1*A deviation from unit magnitude is 3.55D-15 for    436.
 Iteration    1 A^-1*A deviation from orthogonality  is 1.16D-15 for    440    352.
 Error on total polarization charges =  0.01098
 SCF Done:  E(UB3LYP) =  -39.8449850198     A.U. after   10 cycles
            NFock= 10  Conv=0.21D-08     -V/T= 2.0113
 <Sx>= 0.0000 <Sy>= 0.0000 <Sz>= 0.5000 <S**2>= 0.7528 S= 0.5014
 <L.S>= 0.000000000000E+00
 Annihilation of the first spin contaminant:
 S**2 before annihilation     0.7528,   after     0.7500

 **********************************************************************

            Population analysis using the SCF density.

 **********************************************************************

 Orbital symmetries:
 Alpha Orbitals:
       Occupied  (A) (A) (A) (A) (A)
       Virtual   (A) (A) (A) (A) (A) (A) (A) (A) (A) (A) (A) (A)
                 (A) (A) (A) (A) (A) (A) (A) (A) (A) (A) (A) (A)
                 (A) (A) (A) (A) (A)
 Beta  Orbitals:
       Occupied  (A) (A) (A) (A)
       Virtual   (A) (A) (A) (A) (A) (A) (A) (A) (A) (A) (A) (A)
                 (A) (A) (A) (A) (A) (A) (A) (A) (A) (A) (A) (A)
                 (A) (A) (A) (A) (A) (A)
 The electronic state is 2-A.
 Alpha  occ. eigenvalues --  -10.20681  -0.68988  -0.41848  -0.41533  -0.24813
 Alpha virt. eigenvalues --    0.02006   0.06149   0.06175   0.07200   0.18696
 Alpha virt. eigenvalues --    0.19014   0.20742   0.63136   0.63205   0.64613
 Alpha virt. eigenvalues --    0.84757   0.92058   0.92624   0.98140   1.40840
 Alpha virt. eigenvalues --    1.41243   1.85183   1.97543   1.98632   2.01215
 Alpha virt. eigenvalues --    2.41441   2.42259   2.42805   2.77737   2.79100
 Alpha virt. eigenvalues --    3.21531   3.39924   3.41062   4.27158
  Beta  occ. eigenvalues --  -10.19292  -0.65221  -0.40807  -0.40489
  Beta virt. eigenvalues --   -0.08570   0.02498   0.06143   0.06167   0.09657
  Beta virt. eigenvalues --    0.19469   0.19792   0.22266   0.64093   0.64167
  Beta virt. eigenvalues --    0.71308   0.87136   0.92540   0.93119   1.00087
  Beta virt. eigenvalues --    1.44704   1.45146   1.92035   1.98174   1.99228
  Beta virt. eigenvalues --    2.00978   2.43585   2.44225   2.44945   2.78691
  Beta virt. eigenvalues --    2.80052   3.22361   3.40907   3.42058   4.30861
          Condensed to atoms (all electrons):
               1          2          3          4
     1  C    5.326068   0.384189   0.383471   0.384068
     2  H    0.384189   0.511913  -0.028577  -0.027188
     3  H    0.383471  -0.028577   0.514554  -0.027910
     4  H    0.384068  -0.027188  -0.027910   0.511360
          Atomic-Atomic Spin Densities.
               1          2          3          4
     1  C    1.145909  -0.009491  -0.009460  -0.009467
     2  H   -0.009491  -0.033015   0.001737   0.001686
     3  H   -0.009460   0.001737  -0.033368   0.001711
     4  H   -0.009467   0.001686   0.001711  -0.032956
 Mulliken charges and spin densities:
               1          2
     1  C   -0.477796   1.117491
     2  H    0.159663  -0.039083
     3  H    0.158463  -0.039381
     4  H    0.159670  -0.039027
 Sum of Mulliken charges =  -0.00000   1.00000
 Mulliken charges and spin densities with hydrogens summed into heavy atoms:
               1          2
     1  C   -0.000000   1.000000
 Electronic spatial extent (au):  <R**2>=             30.4171
 Charge=             -0.0000 electrons
 Dipole moment (field-independent basis, Debye):
    X=              0.0058    Y=              0.0047    Z=              0.5644  Tot=              0.5645
 Quadrupole moment (field-independent basis, Debye-Ang):
   XX=             -7.3840   YY=             -7.4562   ZZ=             -9.1775
   XY=             -0.0063   XZ=              0.0000   YZ=             -0.0013
 Traceless Quadrupole moment (field-independent basis, Debye-Ang):
   XX=              0.6219   YY=              0.5497   ZZ=             -1.1716
   XY=             -0.0063   XZ=              0.0000   YZ=             -0.0013
 Octapole moment (field-independent basis, Debye-Ang**2):
  XXX=             -0.6214  YYY=              0.4772  ZZZ=              1.0251  XYY=              0.6357
  XXY=             -0.4709  XXZ=              0.5537  XZZ=              0.0069  YZZ=              0.0011
  YYZ=              0.5421  XYZ=             -0.0009
 Hexadecapole moment (field-independent basis, Debye-Ang**3):
 XXXX=            -15.9026 YYYY=            -15.9213 ZZZZ=            -13.9485 XXXY=             -0.0245
 XXXZ=             -0.1634 YYYX=             -0.0015 YYYZ=              0.1152 ZZZX=              0.0004
 ZZZY=             -0.0059 XXYY=             -5.3072 XXZZ=             -5.2402 YYZZ=             -5.2294
 XXYZ=             -0.1231 YYXZ=              0.1616 ZZXY=             -0.0049
 N-N= 9.594481197905D+00 E-N=-1.108596556121D+02  KE= 3.939970803082D+01
                          Isotropic Fermi Contact Couplings
        Atom                 a.u.       MegaHertz       Gauss      10(-4) cm-1
     1  C(13)              0.18545     208.48363      74.39214      69.54265
     2  H(1)              -0.01016     -45.39911     -16.19953     -15.14351
     3  H(1)              -0.01024     -45.76429     -16.32984     -15.26533
     4  H(1)              -0.01015     -45.37303     -16.19023     -15.13481
 --------------------------------------------------------
       Center         ----  Spin Dipole Couplings  ----
                      3XX-RR        3YY-RR        3ZZ-RR
 --------------------------------------------------------
     1   Atom       -0.503958     -0.503142      1.007100
     2   Atom       -0.004826      0.004907     -0.000081
     3   Atom       -0.054151      0.054533     -0.000382
     4   Atom        0.061625     -0.061215     -0.000410
 --------------------------------------------------------
                        XY            XZ            YZ
 --------------------------------------------------------
     1   Atom        0.000193      0.000682      0.002206
     2   Atom       -0.067285      0.011793     -0.012486
     3   Atom        0.039447      0.005281      0.016246
     4   Atom        0.026936     -0.016717     -0.003380
 --------------------------------------------------------


 ---------------------------------------------------------------------------------
              Anisotropic Spin Dipole Couplings in Principal Axis System
 ---------------------------------------------------------------------------------

       Atom             a.u.   MegaHertz   Gauss  10(-4) cm-1        Axes

              Baa    -0.5040   -67.632   -24.133   -22.560  0.9757 -0.2189 -0.0001
     1 C(13)  Bbb    -0.5031   -67.511   -24.090   -22.519  0.2189  0.9757 -0.0015
              Bcc     1.0071   135.144    48.223    45.079  0.0005  0.0015  1.0000
 
              Baa    -0.0674   -35.973   -12.836   -11.999  0.7323  0.6809 -0.0020
     2 H(1)   Bbb    -0.0042    -2.238    -0.799    -0.746 -0.1572  0.1719  0.9725
              Bcc     0.0716    38.210    13.634    12.746 -0.6625  0.7119 -0.2330
 
              Baa    -0.0670   -35.726   -12.748   -11.917  0.9511 -0.3088 -0.0001
     3 H(1)   Bbb    -0.0044    -2.373    -0.847    -0.792 -0.0714 -0.2202  0.9728
              Bcc     0.0714    38.099    13.595    12.708  0.3004  0.9253  0.2315
 
              Baa    -0.0669   -35.674   -12.730   -11.900 -0.2054  0.9787 -0.0019
     4 H(1)   Bbb    -0.0045    -2.382    -0.850    -0.794  0.2260  0.0493  0.9729
              Bcc     0.0713    38.056    13.579    12.694  0.9522  0.1994 -0.2313
 

 ---------------------------------------------------------------------------------

 1\1\GINC-NODE85\SP\UB3LYP\6-31+G(d,p)\C1H3(2)\YANZ\22-Sep-2023\0\\# b3
 lyp/6-31+g(d,p) scrf=(iefpcm,solvent=acetonitrile)\\tmpdir/M1_conf_0_7
 .gjf\\0,2\C,0,-0.908502,-0.821136,0.568309\H,0,-0.26655845,0.01462296,
 0.83724206\H,0,-1.42729589,-1.29488536,1.40376248\H,0,-0.5424799,-1.49
 565153,-0.20838376\\Version=ES64L-G16RevA.03\State=2-A\HF=-39.844985\S
 2=0.752802\S2-1=0.\S2A=0.750005\RMSD=2.137e-09\Dipole=0.1658059,-0.102
 2308,0.1066592\Quadrupole=-0.3154312,0.1621712,0.1532601,0.4455325,-0.
 4512183,0.3050289\PG=C01 [X(C1H3)]\\@


 WE LEARN WISDOM FROM FAILURE MUCH MORE THAN FROM SUCCESS.
 WE DISCOVER WHAT WILL DO BY FINDING OUT WHAT WILL NOT DO...
 AND HE WHO NEVER MADE A MISTAKE NEVER MADE A DISCOVERY
 Job cpu time:       0 days  0 hours  0 minutes 10.3 seconds.
 Elapsed time:       0 days  0 hours  0 minutes  2.7 seconds.
 File lengths (MBytes):  RWF=     10 Int=      0 D2E=      0 Chk=      1 Scr=      1
 Normal termination of Gaussian 16 at Fri Sep 22 16:59:19 2023.
