 Entering Gaussian System, Link 0=g16
 Initial command:
 /share/apps/gaussian/g16/l1.exe "/tmp/55646.mgr/Gau-100464.inp" -scrdir="/tmp/55646.mgr/"
 Entering Link 1 = /share/apps/gaussian/g16/l1.exe PID=    100465.
  
 Copyright (c) 1988,1990,1992,1993,1995,1998,2003,2009,2016,
            Gaussian, Inc.  All Rights Reserved.
  
 This is part of the Gaussian(R) 16 program.  It is based on
 the Gaussian(R) 09 system (copyright 2009, Gaussian, Inc.),
 the Gaussian(R) 03 system (copyright 2003, Gaussian, Inc.),
 the Gaussian(R) 98 system (copyright 1998, Gaussian, Inc.),
 the Gaussian(R) 94 system (copyright 1995, Gaussian, Inc.),
 the Gaussian 92(TM) system (copyright 1992, Gaussian, Inc.),
 the Gaussian 90(TM) system (copyright 1990, Gaussian, Inc.),
 the Gaussian 88(TM) system (copyright 1988, Gaussian, Inc.),
 the Gaussian 86(TM) system (copyright 1986, Carnegie Mellon
 University), and the Gaussian 82(TM) system (copyright 1983,
 Carnegie Mellon University). Gaussian is a federally registered
 trademark of Gaussian, Inc.
  
 This software contains proprietary and confidential information,
 including trade secrets, belonging to Gaussian, Inc.
  
 This software is provided under written license and may be
 used, copied, transmitted, or stored only in accord with that
 written license.
  
 The following legend is applicable only to US Government
 contracts under FAR:
  
                    RESTRICTED RIGHTS LEGEND
  
 Use, reproduction and disclosure by the US Government is
 subject to restrictions as set forth in subparagraphs (a)
 and (c) of the Commercial Computer Software - Restricted
 Rights clause in FAR 52.227-19.
  
 Gaussian, Inc.
 340 Quinnipiac St., Bldg. 40, Wallingford CT 06492
  
  
 ---------------------------------------------------------------
 Warning -- This program may not be used in any manner that
 competes with the business of Gaussian, Inc. or will provide
 assistance to any competitor of Gaussian, Inc.  The licensee
 of this program is prohibited from giving any competitor of
 Gaussian, Inc. access to this program.  By using this program,
 the user acknowledges that Gaussian, Inc. is engaged in the
 business of creating and licensing software in the field of
 computational chemistry and represents and warrants to the
 licensee that it is not a competitor of Gaussian, Inc. and that
 it will not use this program in any manner prohibited above.
 ---------------------------------------------------------------
  

 Cite this work as:
 Gaussian 16, Revision A.03,
 M. J. Frisch, G. W. Trucks, H. B. Schlegel, G. E. Scuseria, 
 M. A. Robb, J. R. Cheeseman, G. Scalmani, V. Barone, 
 G. A. Petersson, H. Nakatsuji, X. Li, M. Caricato, A. V. Marenich, 
 J. Bloino, B. G. Janesko, R. Gomperts, B. Mennucci, H. P. Hratchian, 
 J. V. Ortiz, A. F. Izmaylov, J. L. Sonnenberg, D. Williams-Young, 
 F. Ding, F. Lipparini, F. Egidi, J. Goings, B. Peng, A. Petrone, 
 T. Henderson, D. Ranasinghe, V. G. Zakrzewski, J. Gao, N. Rega, 
 G. Zheng, W. Liang, M. Hada, M. Ehara, K. Toyota, R. Fukuda, 
 J. Hasegawa, M. Ishida, T. Nakajima, Y. Honda, O. Kitao, H. Nakai, 
 T. Vreven, K. Throssell, J. A. Montgomery, Jr., J. E. Peralta, 
 F. Ogliaro, M. J. Bearpark, J. J. Heyd, E. N. Brothers, K. N. Kudin, 
 V. N. Staroverov, T. A. Keith, R. Kobayashi, J. Normand, 
 K. Raghavachari, A. P. Rendell, J. C. Burant, S. S. Iyengar, 
 J. Tomasi, M. Cossi, J. M. Millam, M. Klene, C. Adamo, R. Cammi, 
 J. W. Ochterski, R. L. Martin, K. Morokuma, O. Farkas, 
 J. B. Foresman, and D. J. Fox, Gaussian, Inc., Wallingford CT, 2016.
 
 ******************************************
 Gaussian 16:  ES64L-G16RevA.03 25-Dec-2016
                22-Sep-2023 
 ******************************************
 %nprocshared=4
 Will use up to    4 processors via shared memory.
 %mem=4GB
 ------------------------------------------------------
 # b3lyp/6-31+g(d,p) scrf=(iefpcm,solvent=acetonitrile)
 ------------------------------------------------------
 1/38=1,172=1/1;
 2/12=2,17=6,18=5,40=1/2;
 3/5=1,6=6,7=111,11=2,25=1,30=1,70=2201,72=2,74=-5/1,2,3;
 4//1;
 5/5=2,38=5,53=2/2;
 6/7=2,8=2,9=2,10=2,28=1/1;
 99/5=1,9=1/99;
 --------------------
 tmpdir/M1_ref_10.gjf
 --------------------
 Symbolic Z-matrix:
 Charge =  0 Multiplicity = 1
 S                    -3.83661   0.70238   0.57894 
 O                    -3.61698   1.92367  -0.22715 
 O                    -4.26549   0.85346   1.99073 
 H                    -2.65149  -0.08631   0.56569 
 H                    -4.75312  -0.08576  -0.06594 
 
                          Input orientation:                          
 ---------------------------------------------------------------------
 Center     Atomic      Atomic             Coordinates (Angstroms)
 Number     Number       Type             X           Y           Z
 ---------------------------------------------------------------------
      1         16           0       -3.836607    0.702377    0.578940
      2          8           0       -3.616977    1.923666   -0.227148
      3          8           0       -4.265488    0.853458    1.990729
      4          1           0       -2.651488   -0.086307    0.565691
      5          1           0       -4.753120   -0.085763   -0.065939
 ---------------------------------------------------------------------
                    Distance matrix (angstroms):
                    1          2          3          4          5
     1  S    0.000000
     2  O    1.479717   0.000000
     3  O    1.483210   2.546545   0.000000
     4  H    1.423624   2.366591   2.349231   0.000000
     5  H    1.370047   2.314003   2.312964   2.194496   0.000000
 Stoichiometry    H2O2S
 Framework group  C1[X(H2O2S)]
 Deg. of freedom     9
 Full point group                 C1      NOp   1
 Largest Abelian subgroup         C1      NOp   1
 Largest concise Abelian subgroup C1      NOp   1
                         Standard orientation:                         
 ---------------------------------------------------------------------
 Center     Atomic      Atomic             Coordinates (Angstroms)
 Number     Number       Type             X           Y           Z
 ---------------------------------------------------------------------
      1         16           0        0.001406    0.305461    0.006293
      2          8           0        1.273070   -0.451007   -0.007452
      3          8           0       -1.273474   -0.452465   -0.005638
      4          1           0       -0.018001    1.207939   -1.094553
      5          1           0       -0.001266    1.132461    1.098581
 ---------------------------------------------------------------------
 Rotational constants (GHZ):          34.5708269           9.3090866           7.8896606
 Standard basis: 6-31+G(d,p) (6D, 7F)
 There are    71 symmetry adapted cartesian basis functions of A   symmetry.
 There are    71 symmetry adapted basis functions of A   symmetry.
    71 basis functions,   134 primitive gaussians,    71 cartesian basis functions
    17 alpha electrons       17 beta electrons
       nuclear repulsion energy       124.3615150915 Hartrees.
 NAtoms=    5 NActive=    5 NUniq=    5 SFac= 1.00D+00 NAtFMM=   60 NAOKFM=F Big=F
 Integral buffers will be    131072 words long.
 Raffenetti 2 integral format.
 Two-electron integral symmetry is turned on.
 ------------------------------------------------------------------------------
 Polarizable Continuum Model (PCM)
 =================================
 Model                : PCM.
 Atomic radii         : UFF (Universal Force Field).
 Polarization charges : Total charges.
 Charge compensation  : None.
 Solution method      : On-the-fly selection.
 Cavity type          : Scaled VdW (van der Waals Surface) (Alpha=1.100).
 Cavity algorithm     : GePol (No added spheres)
                        Default sphere list used, NSphG=    5.
                        Lebedev-Laikov grids with approx.  5.0 points / Ang**2.
                        Smoothing algorithm: York/Karplus (Gamma=1.0000).
                        Polarization charges: spherical gaussians, with
                                              point-specific exponents (IZeta= 3).
                        Self-potential: point-specific (ISelfS= 7).
                        Self-field    : sphere-specific E.n sum rule (ISelfD= 2).
 Solvent              : Acetonitrile, Eps=  35.688000 Eps(inf)=   1.806874
 ------------------------------------------------------------------------------
 Spheres list:
 ISph  on   Nord     Re0    Alpha      Xe            Ye            Ze
    1   S      1    2.0175  1.100      0.001406      0.305461      0.006293
    2   O      2    1.7500  1.100      1.273070     -0.451007     -0.007452
    3   O      3    1.7500  1.100     -1.273474     -0.452465     -0.005638
    4   H      4    1.4430  1.100     -0.018001      1.207939     -1.094553
    5   H      5    1.4430  1.100     -0.001266      1.132461      1.098581
 ------------------------------------------------------------------------------
 One-electron integrals computed using PRISM.
 NBasis=    71 RedAO= T EigKep=  3.42D-03  NBF=    71
 NBsUse=    71 1.00D-06 EigRej= -1.00D+00 NBFU=    71
 ExpMin= 4.05D-02 ExpMax= 2.19D+04 ExpMxC= 3.30D+03 IAcc=3 IRadAn=         5 AccDes= 0.00D+00
 Harris functional with IExCor=  402 and IRadAn=       5 diagonalized for initial guess.
 HarFok:  IExCor=  402 AccDes= 0.00D+00 IRadAn=         5 IDoV= 1 UseB2=F ITyADJ=14
 ICtDFT=  3500011 ScaDFX=  1.000000  1.000000  1.000000  1.000000
 FoFCou: FMM=F IPFlag=           0 FMFlag=      100000 FMFlg1=           0
         NFxFlg=           0 DoJE=T BraDBF=F KetDBF=T FulRan=T
         wScrn=  0.000000 ICntrl=       500 IOpCl=  0 I1Cent=   200000004 NGrid=           0
         NMat0=    1 NMatS0=      1 NMatT0=    0 NMatD0=    1 NMtDS0=    0 NMtDT0=    0
 Petite list used in FoFCou.
 Keep R1 ints in memory in canonical form, NReq=6837010.
 Requested convergence on RMS density matrix=1.00D-08 within 128 cycles.
 Requested convergence on MAX density matrix=1.00D-06.
 Requested convergence on             energy=1.00D-06.
 No special actions if energy rises.
 Inv3:  Mode=1 IEnd=     1525107.
 Iteration    1 A*A^-1 deviation from unit magnitude is 3.33D-15 for    708.
 Iteration    1 A*A^-1 deviation from orthogonality  is 1.95D-15 for    668    280.
 Iteration    1 A^-1*A deviation from unit magnitude is 3.33D-15 for    708.
 Iteration    1 A^-1*A deviation from orthogonality  is 1.33D-15 for    705    639.
 Error on total polarization charges =  0.00943
 SCF Done:  E(RB3LYP) =  -549.762291844     A.U. after   11 cycles
            NFock= 11  Conv=0.28D-08     -V/T= 2.0055

 **********************************************************************

            Population analysis using the SCF density.

 **********************************************************************

 Orbital symmetries:
       Occupied  (A) (A) (A) (A) (A) (A) (A) (A) (A) (A) (A) (A)
                 (A) (A) (A) (A) (A)
       Virtual   (A) (A) (A) (A) (A) (A) (A) (A) (A) (A) (A) (A)
                 (A) (A) (A) (A) (A) (A) (A) (A) (A) (A) (A) (A)
                 (A) (A) (A) (A) (A) (A) (A) (A) (A) (A) (A) (A)
                 (A) (A) (A) (A) (A) (A) (A) (A) (A) (A) (A) (A)
                 (A) (A) (A) (A) (A) (A)
 The electronic state is 1-A.
 Alpha  occ. eigenvalues --  -89.12791 -19.17901 -19.17724  -8.15848  -6.12273
 Alpha  occ. eigenvalues --   -6.12199  -6.12141  -1.12412  -1.02353  -0.72801
 Alpha  occ. eigenvalues --   -0.56761  -0.51339  -0.47790  -0.36289  -0.34987
 Alpha  occ. eigenvalues --   -0.33439  -0.32675
 Alpha virt. eigenvalues --   -0.02914  -0.00343   0.00553   0.01630   0.07179
 Alpha virt. eigenvalues --    0.08694   0.09910   0.10085   0.15722   0.17957
 Alpha virt. eigenvalues --    0.18528   0.21122   0.21478   0.24765   0.25171
 Alpha virt. eigenvalues --    0.30415   0.42386   0.43908   0.54863   0.62236
 Alpha virt. eigenvalues --    0.63628   0.65106   0.66322   0.82470   1.01755
 Alpha virt. eigenvalues --    1.06288   1.10738   1.16586   1.18529   1.20455
 Alpha virt. eigenvalues --    1.22135   1.22969   1.24721   1.43173   1.49400
 Alpha virt. eigenvalues --    1.76752   1.78484   1.78650   1.78957   1.80742
 Alpha virt. eigenvalues --    1.84681   1.86246   2.11992   2.18654   2.19236
 Alpha virt. eigenvalues --    2.19800   2.25659   2.52877   2.71774   2.77919
 Alpha virt. eigenvalues --    2.81169   3.89539   3.97081   4.02729
          Condensed to atoms (all electrons):
               1          2          3          4          5
     1  S   13.950484   0.183749   0.186532   0.319742   0.306891
     2  O    0.183749   8.697859  -0.133732  -0.059688  -0.058187
     3  O    0.186532  -0.133732   8.705128  -0.061448  -0.058613
     4  H    0.319742  -0.059688  -0.061448   0.753552  -0.058684
     5  H    0.306891  -0.058187  -0.058613  -0.058684   0.759852
 Mulliken charges:
               1
     1  S    1.052602
     2  O   -0.630001
     3  O   -0.637866
     4  H    0.106525
     5  H    0.108741
 Sum of Mulliken charges =  -0.00000
 Mulliken charges with hydrogens summed into heavy atoms:
               1
     1  S    1.267868
     2  O   -0.630001
     3  O   -0.637866
 Electronic spatial extent (au):  <R**2>=            185.6262
 Charge=              0.0000 electrons
 Dipole moment (field-independent basis, Debye):
    X=              0.0376    Y=              5.1523    Z=              0.1145  Tot=              5.1537
 Quadrupole moment (field-independent basis, Debye-Ang):
   XX=            -33.0624   YY=            -22.7209   ZZ=            -21.7160
   XY=             -0.0452   XZ=              0.0268   YZ=             -0.0225
 Traceless Quadrupole moment (field-independent basis, Debye-Ang):
   XX=             -7.2293   YY=              3.1122   ZZ=              4.1171
   XY=             -0.0452   XZ=              0.0268   YZ=             -0.0225
 Octapole moment (field-independent basis, Debye-Ang**2):
  XXX=              0.1516  YYY=              5.8387  ZZZ=              0.2548  XYY=              0.0282
  XXY=              4.4671  XXZ=              0.1295  XZZ=              0.0130  YZZ=              3.2976
  YYZ=             -0.0043  XYZ=              0.0139
 Hexadecapole moment (field-independent basis, Debye-Ang**3):
 XXXX=           -157.1909 YYYY=            -53.6495 ZZZZ=            -30.0216 XXXY=             -0.0669
 XXXZ=              0.0216 YYYX=             -0.0869 YYYZ=             -0.0210 ZZZX=              0.0385
 ZZZY=              0.0931 XXYY=            -34.3767 XXZZ=            -30.4942 YYZZ=            -12.4406
 XXYZ=              0.0554 YYXZ=              0.0369 ZZXY=             -0.0546
 N-N= 1.243615150915D+02 E-N=-1.550074732386D+03  KE= 5.467303702188D+02
 1\1\GINC-NODE85\SP\RB3LYP\6-31+G(d,p)\H2O2S1\YANZ\22-Sep-2023\0\\# b3l
 yp/6-31+g(d,p) scrf=(iefpcm,solvent=acetonitrile)\\tmpdir/M1_ref_10.gj
 f\\0,1\S,0,-3.836607,0.702377,0.57894\O,0,-3.616977,1.923666,-0.227148
 \O,0,-4.265488,0.853458,1.990729\H,0,-2.65148816,-0.08630702,0.5656908
 8\H,0,-4.75311986,-0.0857625,-0.06593886\\Version=ES64L-G16RevA.03\Sta
 te=1-A\HF=-549.7622918\RMSD=2.761e-09\Dipole=0.2725681,-1.8329371,-0.8
 230193\Quadrupole=2.4921435,0.9776269,-3.4697704,-0.8140088,1.9279062,
 2.7974091\PG=C01 [X(H2O2S1)]\\@


 Everywhere is walking distance if you have the time.
                                    -- Steven Wright
 Job cpu time:       0 days  0 hours  0 minutes 20.2 seconds.
 Elapsed time:       0 days  0 hours  0 minutes  5.2 seconds.
 File lengths (MBytes):  RWF=     15 Int=      0 D2E=      0 Chk=      2 Scr=      1
 Normal termination of Gaussian 16 at Fri Sep 22 16:59:05 2023.
