 Entering Gaussian System, Link 0=g16
 Initial command:
 /share/apps/gaussian/g16/l1.exe "/tmp/55646.mgr/Gau-100183.inp" -scrdir="/tmp/55646.mgr/"
 Entering Link 1 = /share/apps/gaussian/g16/l1.exe PID=    100190.
  
 Copyright (c) 1988,1990,1992,1993,1995,1998,2003,2009,2016,
            Gaussian, Inc.  All Rights Reserved.
  
 This is part of the Gaussian(R) 16 program.  It is based on
 the Gaussian(R) 09 system (copyright 2009, Gaussian, Inc.),
 the Gaussian(R) 03 system (copyright 2003, Gaussian, Inc.),
 the Gaussian(R) 98 system (copyright 1998, Gaussian, Inc.),
 the Gaussian(R) 94 system (copyright 1995, Gaussian, Inc.),
 the Gaussian 92(TM) system (copyright 1992, Gaussian, Inc.),
 the Gaussian 90(TM) system (copyright 1990, Gaussian, Inc.),
 the Gaussian 88(TM) system (copyright 1988, Gaussian, Inc.),
 the Gaussian 86(TM) system (copyright 1986, Carnegie Mellon
 University), and the Gaussian 82(TM) system (copyright 1983,
 Carnegie Mellon University). Gaussian is a federally registered
 trademark of Gaussian, Inc.
  
 This software contains proprietary and confidential information,
 including trade secrets, belonging to Gaussian, Inc.
  
 This software is provided under written license and may be
 used, copied, transmitted, or stored only in accord with that
 written license.
  
 The following legend is applicable only to US Government
 contracts under FAR:
  
                    RESTRICTED RIGHTS LEGEND
  
 Use, reproduction and disclosure by the US Government is
 subject to restrictions as set forth in subparagraphs (a)
 and (c) of the Commercial Computer Software - Restricted
 Rights clause in FAR 52.227-19.
  
 Gaussian, Inc.
 340 Quinnipiac St., Bldg. 40, Wallingford CT 06492
  
  
 ---------------------------------------------------------------
 Warning -- This program may not be used in any manner that
 competes with the business of Gaussian, Inc. or will provide
 assistance to any competitor of Gaussian, Inc.  The licensee
 of this program is prohibited from giving any competitor of
 Gaussian, Inc. access to this program.  By using this program,
 the user acknowledges that Gaussian, Inc. is engaged in the
 business of creating and licensing software in the field of
 computational chemistry and represents and warrants to the
 licensee that it is not a competitor of Gaussian, Inc. and that
 it will not use this program in any manner prohibited above.
 ---------------------------------------------------------------
  

 Cite this work as:
 Gaussian 16, Revision A.03,
 M. J. Frisch, G. W. Trucks, H. B. Schlegel, G. E. Scuseria, 
 M. A. Robb, J. R. Cheeseman, G. Scalmani, V. Barone, 
 G. A. Petersson, H. Nakatsuji, X. Li, M. Caricato, A. V. Marenich, 
 J. Bloino, B. G. Janesko, R. Gomperts, B. Mennucci, H. P. Hratchian, 
 J. V. Ortiz, A. F. Izmaylov, J. L. Sonnenberg, D. Williams-Young, 
 F. Ding, F. Lipparini, F. Egidi, J. Goings, B. Peng, A. Petrone, 
 T. Henderson, D. Ranasinghe, V. G. Zakrzewski, J. Gao, N. Rega, 
 G. Zheng, W. Liang, M. Hada, M. Ehara, K. Toyota, R. Fukuda, 
 J. Hasegawa, M. Ishida, T. Nakajima, Y. Honda, O. Kitao, H. Nakai, 
 T. Vreven, K. Throssell, J. A. Montgomery, Jr., J. E. Peralta, 
 F. Ogliaro, M. J. Bearpark, J. J. Heyd, E. N. Brothers, K. N. Kudin, 
 V. N. Staroverov, T. A. Keith, R. Kobayashi, J. Normand, 
 K. Raghavachari, A. P. Rendell, J. C. Burant, S. S. Iyengar, 
 J. Tomasi, M. Cossi, J. M. Millam, M. Klene, C. Adamo, R. Cammi, 
 J. W. Ochterski, R. L. Martin, K. Morokuma, O. Farkas, 
 J. B. Foresman, and D. J. Fox, Gaussian, Inc., Wallingford CT, 2016.
 
 ******************************************
 Gaussian 16:  ES64L-G16RevA.03 25-Dec-2016
                22-Sep-2023 
 ******************************************
 %nprocshared=4
 Will use up to    4 processors via shared memory.
 %mem=4GB
 ------------------------------------------------------
 # b3lyp/6-31+g(d,p) scrf=(iefpcm,solvent=acetonitrile)
 ------------------------------------------------------
 1/38=1,172=1/1;
 2/12=2,17=6,18=5,40=1/2;
 3/5=1,6=6,7=111,11=2,25=1,30=1,70=2201,72=2,74=-5/1,2,3;
 4//1;
 5/5=2,38=5,53=2/2;
 6/7=2,8=2,9=2,10=2,28=1/1;
 99/5=1,9=1/99;
 -------------------
 tmpdir/M1_ref_2.gjf
 -------------------
 Symbolic Z-matrix:
 Charge =  0 Multiplicity = 1
 C                     3.16165  -1.04264   0.85348 
 C                     4.51482  -0.71564   0.93181 
 C                     2.73512  -2.20513   0.20378 
 C                     5.45064  -1.55467   0.32379 
 H                     4.82478   0.17845   1.46245 
 C                     3.68325  -3.03143  -0.39849 
 H                     1.681    -2.46535   0.16134 
 C                     5.05368  -2.72183  -0.34813 
 H                     6.50545  -1.29901   0.37566 
 H                     3.3548   -3.93225  -0.90957 
 H                     2.391    -0.40895   1.38698 
 H                     5.79205  -3.38892  -0.79952 
 
                          Input orientation:                          
 ---------------------------------------------------------------------
 Center     Atomic      Atomic             Coordinates (Angstroms)
 Number     Number       Type             X           Y           Z
 ---------------------------------------------------------------------
      1          6           0        3.161650   -1.042641    0.853483
      2          6           0        4.514820   -0.715643    0.931809
      3          6           0        2.735119   -2.205131    0.203778
      4          6           0        5.450644   -1.554672    0.323793
      5          1           0        4.824778    0.178450    1.462445
      6          6           0        3.683245   -3.031431   -0.398492
      7          1           0        1.681001   -2.465345    0.161342
      8          6           0        5.053677   -2.721825   -0.348130
      9          1           0        6.505451   -1.299006    0.375655
     10          1           0        3.354800   -3.932251   -0.909566
     11          1           0        2.390995   -0.408954    1.386985
     12          1           0        5.792045   -3.388921   -0.799521
 ---------------------------------------------------------------------
                    Distance matrix (angstroms):
                    1          2          3          4          5
     1  C    0.000000
     2  C    1.394321   0.000000
     3  C    1.398366   2.432270   0.000000
     4  C    2.404629   1.396216   2.794920   0.000000
     5  H    2.151254   1.084920   3.410627   2.166091   0.000000
     6  C    2.407237   2.797158   1.394433   2.413755   3.881948
     7  H    2.166903   3.418422   1.086590   3.881485   4.308811
     8  C    2.800589   2.439954   2.438706   1.404033   3.426685
     9  H    3.387484   2.147611   3.881496   1.086588   2.487700
    10  H    3.390501   3.883668   2.146272   3.400973   4.968414
    11  H    1.131412   2.193599   2.178222   3.435768   2.504803
    12  H    3.893126   3.431505   3.428231   2.177811   4.333386
                    6          7          8          9         10
     6  C    0.000000
     7  H    2.154727   0.000000
     8  C    1.405872   3.420568   0.000000
     9  H    3.400801   4.968057   2.157760   0.000000
    10  H    1.086531   2.469870   2.160214   4.302601   0.000000
    11  H    3.425671   2.497005   3.930632   4.329403   4.314706
    12  H    2.176157   4.321682   1.092684   2.501546   2.499496
                   11         12
    11  H    0.000000
    12  H    5.022764   0.000000
 Stoichiometry    C6H6
 Framework group  C1[X(C6H6)]
 Deg. of freedom    30
 Full point group                 C1      NOp   1
 Largest Abelian subgroup         C1      NOp   1
 Largest concise Abelian subgroup C1      NOp   1
                         Standard orientation:                         
 ---------------------------------------------------------------------
 Center     Atomic      Atomic             Coordinates (Angstroms)
 Number     Number       Type             X           Y           Z
 ---------------------------------------------------------------------
      1          6           0        1.379016    0.156667   -0.012994
      2          6           0        0.837622   -1.128188    0.000175
      3          6           0        0.557019    1.287842    0.000835
      4          6           0       -0.550503   -1.278277   -0.001367
      5          1           0        1.494810   -1.991295    0.014298
      6          6           0       -0.827222    1.119564   -0.001367
      7          1           0        0.983745    2.287097    0.009224
      8          6           0       -1.403260   -0.162878   -0.001479
      9          1           0       -0.976279   -2.277969    0.000680
     10          1           0       -1.468943    1.996333    0.003051
     11          1           0        2.499376    0.303021    0.045876
     12          1           0       -2.488734   -0.285567    0.024053
 ---------------------------------------------------------------------
 Rotational constants (GHZ):           5.6703183           5.6561100           2.8317588
 Standard basis: 6-31+G(d,p) (6D, 7F)
 There are   144 symmetry adapted cartesian basis functions of A   symmetry.
 There are   144 symmetry adapted basis functions of A   symmetry.
   144 basis functions,   234 primitive gaussians,   144 cartesian basis functions
    21 alpha electrons       21 beta electrons
       nuclear repulsion energy       202.7064163599 Hartrees.
 NAtoms=   12 NActive=   12 NUniq=   12 SFac= 1.00D+00 NAtFMM=   60 NAOKFM=F Big=F
 Integral buffers will be    131072 words long.
 Raffenetti 2 integral format.
 Two-electron integral symmetry is turned on.
 ------------------------------------------------------------------------------
 Polarizable Continuum Model (PCM)
 =================================
 Model                : PCM.
 Atomic radii         : UFF (Universal Force Field).
 Polarization charges : Total charges.
 Charge compensation  : None.
 Solution method      : On-the-fly selection.
 Cavity type          : Scaled VdW (van der Waals Surface) (Alpha=1.100).
 Cavity algorithm     : GePol (No added spheres)
                        Default sphere list used, NSphG=   12.
                        Lebedev-Laikov grids with approx.  5.0 points / Ang**2.
                        Smoothing algorithm: York/Karplus (Gamma=1.0000).
                        Polarization charges: spherical gaussians, with
                                              point-specific exponents (IZeta= 3).
                        Self-potential: point-specific (ISelfS= 7).
                        Self-field    : sphere-specific E.n sum rule (ISelfD= 2).
 Solvent              : Acetonitrile, Eps=  35.688000 Eps(inf)=   1.806874
 ------------------------------------------------------------------------------
 Spheres list:
 ISph  on   Nord     Re0    Alpha      Xe            Ye            Ze
    1   C      1    1.9255  1.100      1.379016      0.156667     -0.012994
    2   C      2    1.9255  1.100      0.837622     -1.128188      0.000175
    3   C      3    1.9255  1.100      0.557019      1.287842      0.000835
    4   C      4    1.9255  1.100     -0.550503     -1.278277     -0.001367
    5   H      5    1.4430  1.100      1.494810     -1.991295      0.014298
    6   C      6    1.9255  1.100     -0.827222      1.119564     -0.001367
    7   H      7    1.4430  1.100      0.983745      2.287097      0.009224
    8   C      8    1.9255  1.100     -1.403260     -0.162878     -0.001479
    9   H      9    1.4430  1.100     -0.976279     -2.277969      0.000680
   10   H     10    1.4430  1.100     -1.468943      1.996333      0.003051
   11   H     11    1.4430  1.100      2.499376      0.303021      0.045876
   12   H     12    1.4430  1.100     -2.488734     -0.285567      0.024053
 ------------------------------------------------------------------------------
 One-electron integrals computed using PRISM.
 NBasis=   144 RedAO= T EigKep=  6.65D-06  NBF=   144
 NBsUse=   144 1.00D-06 EigRej= -1.00D+00 NBFU=   144
 ExpMin= 4.38D-02 ExpMax= 3.05D+03 ExpMxC= 4.57D+02 IAcc=3 IRadAn=         5 AccDes= 0.00D+00
 Harris functional with IExCor=  402 and IRadAn=       5 diagonalized for initial guess.
 HarFok:  IExCor=  402 AccDes= 0.00D+00 IRadAn=         5 IDoV= 1 UseB2=F ITyADJ=14
 ICtDFT=  3500011 ScaDFX=  1.000000  1.000000  1.000000  1.000000
 FoFCou: FMM=F IPFlag=           0 FMFlag=      100000 FMFlg1=           0
         NFxFlg=           0 DoJE=T BraDBF=F KetDBF=T FulRan=T
         wScrn=  0.000000 ICntrl=       500 IOpCl=  0 I1Cent=   200000004 NGrid=           0
         NMat0=    1 NMatS0=      1 NMatT0=    0 NMatD0=    1 NMtDS0=    0 NMtDT0=    0
 Petite list used in FoFCou.
 Keep R1 ints in memory in canonical form, NReq=58386664.
 Requested convergence on RMS density matrix=1.00D-08 within 128 cycles.
 Requested convergence on MAX density matrix=1.00D-06.
 Requested convergence on             energy=1.00D-06.
 No special actions if energy rises.
 Inv3:  Mode=1 IEnd=     3564300.
 Iteration    1 A*A^-1 deviation from unit magnitude is 2.66D-15 for    663.
 Iteration    1 A*A^-1 deviation from orthogonality  is 1.41D-15 for   1073    988.
 Iteration    1 A^-1*A deviation from unit magnitude is 2.89D-15 for    663.
 Iteration    1 A^-1*A deviation from orthogonality  is 1.17D-15 for   1059    167.
 Error on total polarization charges =  0.01606
 SCF Done:  E(RB3LYP) =  -232.269201494     A.U. after   10 cycles
            NFock= 10  Conv=0.97D-08     -V/T= 2.0105

 **********************************************************************

            Population analysis using the SCF density.

 **********************************************************************

 Orbital symmetries:
       Occupied  (A) (A) (A) (A) (A) (A) (A) (A) (A) (A) (A) (A)
                 (A) (A) (A) (A) (A) (A) (A) (A) (A)
       Virtual   (A) (A) (A) (A) (A) (A) (A) (A) (A) (A) (A) (A)
                 (A) (A) (A) (A) (A) (A) (A) (A) (A) (A) (A) (A)
                 (A) (A) (A) (A) (A) (A) (A) (A) (A) (A) (A) (A)
                 (A) (A) (A) (A) (A) (A) (A) (A) (A) (A) (A) (A)
                 (A) (A) (A) (A) (A) (A) (A) (A) (A) (A) (A) (A)
                 (A) (A) (A) (A) (A) (A) (A) (A) (A) (A) (A) (A)
                 (A) (A) (A) (A) (A) (A) (A) (A) (A) (A) (A) (A)
                 (A) (A) (A) (A) (A) (A) (A) (A) (A) (A) (A) (A)
                 (A) (A) (A) (A) (A) (A) (A) (A) (A) (A) (A) (A)
                 (A) (A) (A) (A) (A) (A) (A) (A) (A) (A) (A) (A)
                 (A) (A) (A)
 The electronic state is 1-A.
 Alpha  occ. eigenvalues --  -10.20332 -10.20208 -10.20045 -10.20000 -10.19956
 Alpha  occ. eigenvalues --  -10.19926  -0.85934  -0.75246  -0.74976  -0.60704
 Alpha  occ. eigenvalues --   -0.60603  -0.52542  -0.46360  -0.45026  -0.42670
 Alpha  occ. eigenvalues --   -0.42366  -0.37395  -0.34830  -0.34743  -0.26183
 Alpha  occ. eigenvalues --   -0.26067
 Alpha virt. eigenvalues --   -0.01940  -0.01791   0.01067   0.02985   0.03031
 Alpha virt. eigenvalues --    0.05032   0.05061   0.05896   0.06994   0.08330
 Alpha virt. eigenvalues --    0.08860   0.08878   0.10341   0.12325   0.14172
 Alpha virt. eigenvalues --    0.14225   0.14825   0.14856   0.14875   0.14902
 Alpha virt. eigenvalues --    0.19404   0.19962   0.20035   0.20449   0.21080
 Alpha virt. eigenvalues --    0.21087   0.23550   0.24457   0.24747   0.27023
 Alpha virt. eigenvalues --    0.27449   0.27914   0.32174   0.34343   0.34470
 Alpha virt. eigenvalues --    0.35117   0.35338   0.55375   0.57682   0.59521
 Alpha virt. eigenvalues --    0.62450   0.65352   0.71207   0.71226   0.71683
 Alpha virt. eigenvalues --    0.71824   0.74175   0.74267   0.76448   0.76546
 Alpha virt. eigenvalues --    0.79631   0.82366   0.87793   0.90633   0.91702
 Alpha virt. eigenvalues --    0.94784   0.95025   0.97519   1.01966   1.06698
 Alpha virt. eigenvalues --    1.06861   1.11806   1.11963   1.16390   1.16618
 Alpha virt. eigenvalues --    1.24844   1.28463   1.30943   1.39293   1.39354
 Alpha virt. eigenvalues --    1.39991   1.41627   1.43181   1.44687   1.72880
 Alpha virt. eigenvalues --    1.78393   1.83514   1.87209   1.92339   1.93845
 Alpha virt. eigenvalues --    1.97834   1.97924   2.00169   2.00498   2.02973
 Alpha virt. eigenvalues --    2.06769   2.07470   2.28096   2.28759   2.35031
 Alpha virt. eigenvalues --    2.36137   2.37262   2.39509   2.39724   2.40783
 Alpha virt. eigenvalues --    2.47127   2.47554   2.50451   2.50960   2.57333
 Alpha virt. eigenvalues --    2.59070   2.59143   2.61734   2.64537   2.74978
 Alpha virt. eigenvalues --    2.79975   2.80529   3.02234   3.05039   3.16572
 Alpha virt. eigenvalues --    3.22397   3.25808   3.27673   3.36586   3.49461
 Alpha virt. eigenvalues --    3.52111   3.92911   4.26893   4.28413   4.28544
 Alpha virt. eigenvalues --    4.48180   4.48385   4.84132
          Condensed to atoms (all electrons):
               1          2          3          4          5          6
     1  C    4.981870   0.529895   0.530491  -0.085993   0.007692  -0.088708
     2  C    0.529895   4.887001  -0.037850   0.541421   0.290638  -0.041056
     3  C    0.530491  -0.037850   4.896054  -0.040450   0.006760   0.533702
     4  C   -0.085993   0.541421  -0.040450   4.957104   0.005531  -0.087663
     5  H    0.007692   0.290638   0.006760   0.005531   0.554504  -0.003130
     6  C   -0.088708  -0.041056   0.533702  -0.087663  -0.003130   4.966677
     7  H    0.007910   0.005669   0.286864  -0.002410  -0.000142   0.008527
     8  C   -0.048440  -0.040314  -0.043838   0.543589   0.005463   0.543013
     9  H    0.008047   0.003567  -0.003724   0.293463  -0.005788   0.007367
    10  H    0.008336  -0.003114   0.006651   0.006904   0.000013   0.290153
    11  H    0.271913   0.011732   0.014510   0.004817  -0.005463   0.006741
    12  H   -0.003327   0.006641   0.006862   0.005238  -0.000131   0.005598
               7          8          9         10         11         12
     1  C    0.007910  -0.048440   0.008047   0.008336   0.271913  -0.003327
     2  C    0.005669  -0.040314   0.003567  -0.003114   0.011732   0.006641
     3  C    0.286864  -0.043838  -0.003724   0.006651   0.014510   0.006862
     4  C   -0.002410   0.543589   0.293463   0.006904   0.004817   0.005238
     5  H   -0.000142   0.005463  -0.005788   0.000013  -0.005463  -0.000131
     6  C    0.008527   0.543013   0.007367   0.290153   0.006741   0.005598
     7  H    0.555398   0.006154   0.000013  -0.006028  -0.005536  -0.000136
     8  C    0.006154   4.883050   0.001688   0.001257  -0.001112   0.292351
     9  H    0.000013   0.001688   0.560592  -0.000156  -0.000145  -0.005405
    10  H   -0.006028   0.001257  -0.000156   0.561327  -0.000151  -0.005411
    11  H   -0.005536  -0.001112  -0.000145  -0.000151   0.560814   0.000012
    12  H   -0.000136   0.292351  -0.005405  -0.005411   0.000012   0.552464
 Mulliken charges:
               1
     1  C   -0.119687
     2  C   -0.154231
     3  C   -0.156032
     4  C   -0.141550
     5  H    0.144053
     6  C   -0.141221
     7  H    0.143716
     8  C   -0.142862
     9  H    0.140482
    10  H    0.140218
    11  H    0.141869
    12  H    0.145245
 Sum of Mulliken charges =  -0.00000
 Mulliken charges with hydrogens summed into heavy atoms:
               1
     1  C    0.022183
     2  C   -0.010178
     3  C   -0.012316
     4  C   -0.001069
     6  C   -0.001003
     8  C    0.002383
 Electronic spatial extent (au):  <R**2>=            461.9941
 Charge=             -0.0000 electrons
 Dipole moment (field-independent basis, Debye):
    X=             -0.0275    Y=              0.0079    Z=              0.0943  Tot=              0.0985
 Quadrupole moment (field-independent basis, Debye-Ang):
   XX=            -31.7082   YY=            -31.6221   ZZ=            -40.5652
   XY=             -0.0107   XZ=              0.0955   YZ=              0.0048
 Traceless Quadrupole moment (field-independent basis, Debye-Ang):
   XX=              2.9236   YY=              3.0098   ZZ=             -5.9334
   XY=             -0.0107   XZ=              0.0955   YZ=              0.0048
 Octapole moment (field-independent basis, Debye-Ang**2):
  XXX=             -0.7810  YYY=              0.2462  ZZZ=              0.1761  XYY=              0.4011
  XXY=             -0.1618  XXZ=              0.6136  XZZ=             -0.0476  YZZ=             -0.0109
  YYZ=              0.1817  XYZ=              0.0286
 Hexadecapole moment (field-independent basis, Debye-Ang**3):
 XXXX=           -276.8949 YYYY=           -274.7912 ZZZZ=            -52.8905 XXXY=              0.0694
 XXXZ=              0.6202 YYYX=             -0.2064 YYYZ=              0.0165 ZZZX=              0.1479
 ZZZY=              0.0052 XXYY=            -92.1957 XXZZ=            -67.0383 YYZZ=            -66.4256
 XXYZ=              0.0218 YYXZ=              0.1734 ZZXY=             -0.0628
 N-N= 2.027064163599D+02 E-N=-9.424540113619D+02  KE= 2.298535860114D+02
 1\1\GINC-NODE85\SP\RB3LYP\6-31+G(d,p)\C6H6\YANZ\22-Sep-2023\0\\# b3lyp
 /6-31+g(d,p) scrf=(iefpcm,solvent=acetonitrile)\\tmpdir/M1_ref_2.gjf\\
 0,1\C,0,3.16165,-1.042641,0.853483\C,0,4.51482,-0.715643,0.931809\C,0,
 2.735119,-2.205131,0.203778\C,0,5.450644,-1.554672,0.323793\H,0,4.8247
 78,0.17845,1.462445\C,0,3.683245,-3.031431,-0.398492\H,0,1.681001,-2.4
 65345,0.161342\C,0,5.053677,-2.721825,-0.34813\H,0,6.505451,-1.299006,
 0.375655\H,0,3.3548,-3.932251,-0.909566\H,0,2.39099503,-0.40895372,1.3
 8698451\H,0,5.79204506,-3.38892142,-0.7995207\\Version=ES64L-G16RevA.0
 3\State=1-A\HF=-232.2692015\RMSD=9.729e-09\Dipole=0.0070513,-0.0280861
 ,0.025758\Quadrupole=2.1514198,0.3788288,-2.5302486,0.3498559,-0.50148
 97,2.9393826\PG=C01 [X(C6H6)]\\@


 I WISH TO HAVE NO CONNECTION WITH ANY SHIP THAT DOES NOT SAIL FAST,
 FOR I INTEND TO GO IN HARM'S WAY.
     -- JOHN PAUL JONES, USN 1747-1792
 Job cpu time:       0 days  0 hours  1 minutes 12.9 seconds.
 Elapsed time:       0 days  0 hours  0 minutes 19.3 seconds.
 File lengths (MBytes):  RWF=     32 Int=      0 D2E=      0 Chk=      3 Scr=      1
 Normal termination of Gaussian 16 at Fri Sep 22 16:59:13 2023.
