 Entering Gaussian System, Link 0=g16
 Initial command:
 /share/apps/gaussian/g16/l1.exe "/tmp/55646.mgr/Gau-100182.inp" -scrdir="/tmp/55646.mgr/"
 Entering Link 1 = /share/apps/gaussian/g16/l1.exe PID=    100188.
  
 Copyright (c) 1988,1990,1992,1993,1995,1998,2003,2009,2016,
            Gaussian, Inc.  All Rights Reserved.
  
 This is part of the Gaussian(R) 16 program.  It is based on
 the Gaussian(R) 09 system (copyright 2009, Gaussian, Inc.),
 the Gaussian(R) 03 system (copyright 2003, Gaussian, Inc.),
 the Gaussian(R) 98 system (copyright 1998, Gaussian, Inc.),
 the Gaussian(R) 94 system (copyright 1995, Gaussian, Inc.),
 the Gaussian 92(TM) system (copyright 1992, Gaussian, Inc.),
 the Gaussian 90(TM) system (copyright 1990, Gaussian, Inc.),
 the Gaussian 88(TM) system (copyright 1988, Gaussian, Inc.),
 the Gaussian 86(TM) system (copyright 1986, Carnegie Mellon
 University), and the Gaussian 82(TM) system (copyright 1983,
 Carnegie Mellon University). Gaussian is a federally registered
 trademark of Gaussian, Inc.
  
 This software contains proprietary and confidential information,
 including trade secrets, belonging to Gaussian, Inc.
  
 This software is provided under written license and may be
 used, copied, transmitted, or stored only in accord with that
 written license.
  
 The following legend is applicable only to US Government
 contracts under FAR:
  
                    RESTRICTED RIGHTS LEGEND
  
 Use, reproduction and disclosure by the US Government is
 subject to restrictions as set forth in subparagraphs (a)
 and (c) of the Commercial Computer Software - Restricted
 Rights clause in FAR 52.227-19.
  
 Gaussian, Inc.
 340 Quinnipiac St., Bldg. 40, Wallingford CT 06492
  
  
 ---------------------------------------------------------------
 Warning -- This program may not be used in any manner that
 competes with the business of Gaussian, Inc. or will provide
 assistance to any competitor of Gaussian, Inc.  The licensee
 of this program is prohibited from giving any competitor of
 Gaussian, Inc. access to this program.  By using this program,
 the user acknowledges that Gaussian, Inc. is engaged in the
 business of creating and licensing software in the field of
 computational chemistry and represents and warrants to the
 licensee that it is not a competitor of Gaussian, Inc. and that
 it will not use this program in any manner prohibited above.
 ---------------------------------------------------------------
  

 Cite this work as:
 Gaussian 16, Revision A.03,
 M. J. Frisch, G. W. Trucks, H. B. Schlegel, G. E. Scuseria, 
 M. A. Robb, J. R. Cheeseman, G. Scalmani, V. Barone, 
 G. A. Petersson, H. Nakatsuji, X. Li, M. Caricato, A. V. Marenich, 
 J. Bloino, B. G. Janesko, R. Gomperts, B. Mennucci, H. P. Hratchian, 
 J. V. Ortiz, A. F. Izmaylov, J. L. Sonnenberg, D. Williams-Young, 
 F. Ding, F. Lipparini, F. Egidi, J. Goings, B. Peng, A. Petrone, 
 T. Henderson, D. Ranasinghe, V. G. Zakrzewski, J. Gao, N. Rega, 
 G. Zheng, W. Liang, M. Hada, M. Ehara, K. Toyota, R. Fukuda, 
 J. Hasegawa, M. Ishida, T. Nakajima, Y. Honda, O. Kitao, H. Nakai, 
 T. Vreven, K. Throssell, J. A. Montgomery, Jr., J. E. Peralta, 
 F. Ogliaro, M. J. Bearpark, J. J. Heyd, E. N. Brothers, K. N. Kudin, 
 V. N. Staroverov, T. A. Keith, R. Kobayashi, J. Normand, 
 K. Raghavachari, A. P. Rendell, J. C. Burant, S. S. Iyengar, 
 J. Tomasi, M. Cossi, J. M. Millam, M. Klene, C. Adamo, R. Cammi, 
 J. W. Ochterski, R. L. Martin, K. Morokuma, O. Farkas, 
 J. B. Foresman, and D. J. Fox, Gaussian, Inc., Wallingford CT, 2016.
 
 ******************************************
 Gaussian 16:  ES64L-G16RevA.03 25-Dec-2016
                22-Sep-2023 
 ******************************************
 %nprocshared=4
 Will use up to    4 processors via shared memory.
 %mem=4GB
 ------------------------------------------------------
 # b3lyp/6-31+g(d,p) scrf=(iefpcm,solvent=acetonitrile)
 ------------------------------------------------------
 1/38=1,172=1/1;
 2/12=2,17=6,18=5,40=1/2;
 3/5=1,6=6,7=111,11=2,25=1,30=1,70=2201,72=2,74=-5/1,2,3;
 4//1;
 5/5=2,38=5,53=2/2;
 6/7=2,8=2,9=2,10=2,28=1/1;
 99/5=1,9=1/99;
 -------------------
 tmpdir/M1_ref_4.gjf
 -------------------
 Symbolic Z-matrix:
 Charge =  0 Multiplicity = 1
 N                     1.2699    0.87148   0.31974 
 H                     1.66364   0.33343   1.14877 
 H                     1.90173   1.34223  -0.30756 
 H                     0.32285   0.76966   0.08069 
 
                          Input orientation:                          
 ---------------------------------------------------------------------
 Center     Atomic      Atomic             Coordinates (Angstroms)
 Number     Number       Type             X           Y           Z
 ---------------------------------------------------------------------
      1          7           0        1.269902    0.871483    0.319741
      2          1           0        1.663637    0.333425    1.148773
      3          1           0        1.901732    1.342230   -0.307563
      4          1           0        0.322853    0.769664    0.080691
 ---------------------------------------------------------------------
                    Distance matrix (angstroms):
                    1          2          3          4
     1  N    0.000000
     2  H    1.063874   0.000000
     3  H    1.007135   1.787537   0.000000
     4  H    0.982046   1.768844   1.723784   0.000000
 Stoichiometry    H3N
 Framework group  C1[X(H3N)]
 Deg. of freedom     6
 Full point group                 C1      NOp   1
 Largest Abelian subgroup         C1      NOp   1
 Largest concise Abelian subgroup C1      NOp   1
                         Standard orientation:                         
 ---------------------------------------------------------------------
 Center     Atomic      Atomic             Coordinates (Angstroms)
 Number     Number       Type             X           Y           Z
 ---------------------------------------------------------------------
      1          7           0       -0.007231    0.003535   -0.017229
      2          1           0        1.044197   -0.148957    0.038217
      3          1           0       -0.624325   -0.790298    0.040605
      4          1           0       -0.369252    0.914509    0.041781
 ---------------------------------------------------------------------
 Rotational constants (GHZ):         336.2384697         308.5499451         161.7451639
 Standard basis: 6-31+G(d,p) (6D, 7F)
 There are    34 symmetry adapted cartesian basis functions of A   symmetry.
 There are    34 symmetry adapted basis functions of A   symmetry.
    34 basis functions,    53 primitive gaussians,    34 cartesian basis functions
     5 alpha electrons        5 beta electrons
       nuclear repulsion energy        11.8339902277 Hartrees.
 NAtoms=    4 NActive=    4 NUniq=    4 SFac= 1.00D+00 NAtFMM=   60 NAOKFM=F Big=F
 Integral buffers will be    131072 words long.
 Raffenetti 2 integral format.
 Two-electron integral symmetry is turned on.
 ------------------------------------------------------------------------------
 Polarizable Continuum Model (PCM)
 =================================
 Model                : PCM.
 Atomic radii         : UFF (Universal Force Field).
 Polarization charges : Total charges.
 Charge compensation  : None.
 Solution method      : On-the-fly selection.
 Cavity type          : Scaled VdW (van der Waals Surface) (Alpha=1.100).
 Cavity algorithm     : GePol (No added spheres)
                        Default sphere list used, NSphG=    4.
                        Lebedev-Laikov grids with approx.  5.0 points / Ang**2.
                        Smoothing algorithm: York/Karplus (Gamma=1.0000).
                        Polarization charges: spherical gaussians, with
                                              point-specific exponents (IZeta= 3).
                        Self-potential: point-specific (ISelfS= 7).
                        Self-field    : sphere-specific E.n sum rule (ISelfD= 2).
 Solvent              : Acetonitrile, Eps=  35.688000 Eps(inf)=   1.806874
 ------------------------------------------------------------------------------
 Spheres list:
 ISph  on   Nord     Re0    Alpha      Xe            Ye            Ze
    1   N      1    1.8300  1.100     -0.007231      0.003535     -0.017229
    2   H      2    1.4430  1.100      1.044197     -0.148957      0.038217
    3   H      3    1.4430  1.100     -0.624325     -0.790298      0.040605
    4   H      4    1.4430  1.100     -0.369252      0.914509      0.041781
 ------------------------------------------------------------------------------
 One-electron integrals computed using PRISM.
 NBasis=    34 RedAO= T EigKep=  2.14D-02  NBF=    34
 NBsUse=    34 1.00D-06 EigRej= -1.00D+00 NBFU=    34
 ExpMin= 6.39D-02 ExpMax= 4.17D+03 ExpMxC= 6.27D+02 IAcc=3 IRadAn=         5 AccDes= 0.00D+00
 Harris functional with IExCor=  402 and IRadAn=       5 diagonalized for initial guess.
 HarFok:  IExCor=  402 AccDes= 0.00D+00 IRadAn=         5 IDoV= 1 UseB2=F ITyADJ=14
 ICtDFT=  3500011 ScaDFX=  1.000000  1.000000  1.000000  1.000000
 FoFCou: FMM=F IPFlag=           0 FMFlag=      100000 FMFlg1=           0
         NFxFlg=           0 DoJE=T BraDBF=F KetDBF=T FulRan=T
         wScrn=  0.000000 ICntrl=       500 IOpCl=  0 I1Cent=   200000004 NGrid=           0
         NMat0=    1 NMatS0=      1 NMatT0=    0 NMatD0=    1 NMtDS0=    0 NMtDT0=    0
 Petite list used in FoFCou.
 Keep R1 ints in memory in canonical form, NReq=3628090.
 Requested convergence on RMS density matrix=1.00D-08 within 128 cycles.
 Requested convergence on MAX density matrix=1.00D-06.
 Requested convergence on             energy=1.00D-06.
 No special actions if energy rises.
 Inv3:  Mode=1 IEnd=      583443.
 Iteration    1 A*A^-1 deviation from unit magnitude is 3.55D-15 for    436.
 Iteration    1 A*A^-1 deviation from orthogonality  is 3.11D-15 for    422    127.
 Iteration    1 A^-1*A deviation from unit magnitude is 3.55D-15 for    436.
 Iteration    1 A^-1*A deviation from orthogonality  is 1.28D-15 for    425    101.
 Error on total polarization charges =  0.01283
 SCF Done:  E(RB3LYP) =  -56.5619190049     A.U. after    8 cycles
            NFock=  8  Conv=0.15D-08     -V/T= 2.0121

 **********************************************************************

            Population analysis using the SCF density.

 **********************************************************************

 Orbital symmetries:
       Occupied  (A) (A) (A) (A) (A)
       Virtual   (A) (A) (A) (A) (A) (A) (A) (A) (A) (A) (A) (A)
                 (A) (A) (A) (A) (A) (A) (A) (A) (A) (A) (A) (A)
                 (A) (A) (A) (A) (A)
 The electronic state is 1-A.
 Alpha  occ. eigenvalues --  -14.32166  -0.83977  -0.48967  -0.47378  -0.24852
 Alpha virt. eigenvalues --    0.02482   0.08758   0.08843   0.10808   0.19095
 Alpha virt. eigenvalues --    0.21422   0.22483   0.81724   0.82242   0.87426
 Alpha virt. eigenvalues --    0.93876   0.96221   0.97941   1.07154   1.46148
 Alpha virt. eigenvalues --    1.46272   2.01406   2.03228   2.10172   2.13008
 Alpha virt. eigenvalues --    2.37394   2.60758   2.67103   2.85194   2.86242
 Alpha virt. eigenvalues --    3.27447   3.44661   3.46915   4.01973
          Condensed to atoms (all electrons):
               1          2          3          4
     1  N    6.898892   0.349462   0.357223   0.360719
     2  H    0.349462   0.370266  -0.020557  -0.020729
     3  H    0.357223  -0.020557   0.362231  -0.021366
     4  H    0.360719  -0.020729  -0.021366   0.359108
 Mulliken charges:
               1
     1  N   -0.966297
     2  H    0.321558
     3  H    0.322469
     4  H    0.322269
 Sum of Mulliken charges =   0.00000
 Mulliken charges with hydrogens summed into heavy atoms:
               1
     1  N    0.000000
 Electronic spatial extent (au):  <R**2>=             27.5618
 Charge=              0.0000 electrons
 Dipole moment (field-independent basis, Debye):
    X=              0.0676    Y=             -0.0344    Z=              0.3737  Tot=              0.3813
 Quadrupole moment (field-independent basis, Debye-Ang):
   XX=             -5.6716   YY=             -5.8601   ZZ=            -10.6166
   XY=             -0.0007   XZ=             -0.0137   YZ=              0.0071
 Traceless Quadrupole moment (field-independent basis, Debye-Ang):
   XX=              1.7112   YY=              1.5226   ZZ=             -3.2338
   XY=             -0.0007   XZ=             -0.0137   YZ=              0.0071
 Octapole moment (field-independent basis, Debye-Ang**2):
  XXX=              1.3945  YYY=              0.5086  ZZZ=              0.4563  XYY=             -1.2159
  XXY=             -0.5945  XXZ=              0.2212  XZZ=             -0.0262  YZZ=              0.0110
  YYZ=              0.2175  XYZ=             -0.0001
 Hexadecapole moment (field-independent basis, Debye-Ang**3):
 XXXX=            -10.2932 YYYY=            -10.1208 ZZZZ=            -15.9878 XXXY=             -0.0587
 XXXZ=              0.0419 YYYX=              0.0543 YYYZ=              0.0402 ZZZX=             -0.0284
 ZZZY=              0.0145 XXYY=             -3.4673 XXZZ=             -4.8854 YYZZ=             -4.7542
 XXYZ=             -0.0252 YYXZ=             -0.0708 ZZXY=             -0.0003
 N-N= 1.183399022774D+01 E-N=-1.552994788634D+02  KE= 5.588337204342D+01
 1\1\GINC-NODE85\SP\RB3LYP\6-31+G(d,p)\H3N1\YANZ\22-Sep-2023\0\\# b3lyp
 /6-31+g(d,p) scrf=(iefpcm,solvent=acetonitrile)\\tmpdir/M1_ref_4.gjf\\
 0,1\N,0,1.269902,0.871483,0.319741\H,0,1.66363747,0.33342543,1.1487734
 7\H,0,1.90173155,1.34222987,-0.30756253\H,0,0.32285297,0.76966432,0.08
 069087\\Version=ES64L-G16RevA.03\State=1-A\HF=-56.561919\RMSD=1.533e-0
 9\Dipole=0.0430685,-0.130893,-0.0593444\Quadrupole=1.0423935,-1.231027
 2,0.1886337,0.4662644,0.3446685,-1.6387322\PG=C01 [X(H3N1)]\\@


 It takes a long time to grow an old friend.
                            -- John Leonard
 Job cpu time:       0 days  0 hours  0 minutes 10.0 seconds.
 Elapsed time:       0 days  0 hours  0 minutes  2.7 seconds.
 File lengths (MBytes):  RWF=     10 Int=      0 D2E=      0 Chk=      1 Scr=      1
 Normal termination of Gaussian 16 at Fri Sep 22 16:58:57 2023.
