 Entering Gaussian System, Link 0=g16
 Initial command:
 /share/apps/gaussian/g16/l1.exe "/tmp/55646.mgr/Gau-100184.inp" -scrdir="/tmp/55646.mgr/"
 Entering Link 1 = /share/apps/gaussian/g16/l1.exe PID=    100192.
  
 Copyright (c) 1988,1990,1992,1993,1995,1998,2003,2009,2016,
            Gaussian, Inc.  All Rights Reserved.
  
 This is part of the Gaussian(R) 16 program.  It is based on
 the Gaussian(R) 09 system (copyright 2009, Gaussian, Inc.),
 the Gaussian(R) 03 system (copyright 2003, Gaussian, Inc.),
 the Gaussian(R) 98 system (copyright 1998, Gaussian, Inc.),
 the Gaussian(R) 94 system (copyright 1995, Gaussian, Inc.),
 the Gaussian 92(TM) system (copyright 1992, Gaussian, Inc.),
 the Gaussian 90(TM) system (copyright 1990, Gaussian, Inc.),
 the Gaussian 88(TM) system (copyright 1988, Gaussian, Inc.),
 the Gaussian 86(TM) system (copyright 1986, Carnegie Mellon
 University), and the Gaussian 82(TM) system (copyright 1983,
 Carnegie Mellon University). Gaussian is a federally registered
 trademark of Gaussian, Inc.
  
 This software contains proprietary and confidential information,
 including trade secrets, belonging to Gaussian, Inc.
  
 This software is provided under written license and may be
 used, copied, transmitted, or stored only in accord with that
 written license.
  
 The following legend is applicable only to US Government
 contracts under FAR:
  
                    RESTRICTED RIGHTS LEGEND
  
 Use, reproduction and disclosure by the US Government is
 subject to restrictions as set forth in subparagraphs (a)
 and (c) of the Commercial Computer Software - Restricted
 Rights clause in FAR 52.227-19.
  
 Gaussian, Inc.
 340 Quinnipiac St., Bldg. 40, Wallingford CT 06492
  
  
 ---------------------------------------------------------------
 Warning -- This program may not be used in any manner that
 competes with the business of Gaussian, Inc. or will provide
 assistance to any competitor of Gaussian, Inc.  The licensee
 of this program is prohibited from giving any competitor of
 Gaussian, Inc. access to this program.  By using this program,
 the user acknowledges that Gaussian, Inc. is engaged in the
 business of creating and licensing software in the field of
 computational chemistry and represents and warrants to the
 licensee that it is not a competitor of Gaussian, Inc. and that
 it will not use this program in any manner prohibited above.
 ---------------------------------------------------------------
  

 Cite this work as:
 Gaussian 16, Revision A.03,
 M. J. Frisch, G. W. Trucks, H. B. Schlegel, G. E. Scuseria, 
 M. A. Robb, J. R. Cheeseman, G. Scalmani, V. Barone, 
 G. A. Petersson, H. Nakatsuji, X. Li, M. Caricato, A. V. Marenich, 
 J. Bloino, B. G. Janesko, R. Gomperts, B. Mennucci, H. P. Hratchian, 
 J. V. Ortiz, A. F. Izmaylov, J. L. Sonnenberg, D. Williams-Young, 
 F. Ding, F. Lipparini, F. Egidi, J. Goings, B. Peng, A. Petrone, 
 T. Henderson, D. Ranasinghe, V. G. Zakrzewski, J. Gao, N. Rega, 
 G. Zheng, W. Liang, M. Hada, M. Ehara, K. Toyota, R. Fukuda, 
 J. Hasegawa, M. Ishida, T. Nakajima, Y. Honda, O. Kitao, H. Nakai, 
 T. Vreven, K. Throssell, J. A. Montgomery, Jr., J. E. Peralta, 
 F. Ogliaro, M. J. Bearpark, J. J. Heyd, E. N. Brothers, K. N. Kudin, 
 V. N. Staroverov, T. A. Keith, R. Kobayashi, J. Normand, 
 K. Raghavachari, A. P. Rendell, J. C. Burant, S. S. Iyengar, 
 J. Tomasi, M. Cossi, J. M. Millam, M. Klene, C. Adamo, R. Cammi, 
 J. W. Ochterski, R. L. Martin, K. Morokuma, O. Farkas, 
 J. B. Foresman, and D. J. Fox, Gaussian, Inc., Wallingford CT, 2016.
 
 ******************************************
 Gaussian 16:  ES64L-G16RevA.03 25-Dec-2016
                22-Sep-2023 
 ******************************************
 %nprocshared=4
 Will use up to    4 processors via shared memory.
 %mem=4GB
 ------------------------------------------------------
 # b3lyp/6-31+g(d,p) scrf=(iefpcm,solvent=acetonitrile)
 ------------------------------------------------------
 1/38=1,172=1/1;
 2/12=2,17=6,18=5,40=1/2;
 3/5=1,6=6,7=111,11=2,25=1,30=1,70=2201,72=2,74=-5/1,2,3;
 4//1;
 5/5=2,38=5,53=2/2;
 6/7=2,8=2,9=2,10=2,28=1/1;
 99/5=1,9=1/99;
 -------------------
 tmpdir/M1_ref_5.gjf
 -------------------
 Symbolic Z-matrix:
 Charge =  0 Multiplicity = 1
 C                     2.17227   1.5438   -0.57617 
 C                     2.64941   2.80929  -0.21645 
 C                     2.58085   0.94662  -1.77545 
 C                     3.54116   3.47905  -1.05996 
 H                     2.31761   3.25887   0.71297 
 C                     3.463     1.62538  -2.61765 
 H                     2.20392  -0.03358  -2.0441 
 C                     3.94665   2.88967  -2.26059 
 H                     3.9117    4.46046  -0.77997 
 H                     3.77392   1.1665   -3.55134 
 H                     4.63497   3.41274  -2.91775 
 H                     1.463     1.01535   0.12803 
 
                          Input orientation:                          
 ---------------------------------------------------------------------
 Center     Atomic      Atomic             Coordinates (Angstroms)
 Number     Number       Type             X           Y           Z
 ---------------------------------------------------------------------
      1          6           0        2.172272    1.543797   -0.576165
      2          6           0        2.649409    2.809285   -0.216445
      3          6           0        2.580847    0.946621   -1.775450
      4          6           0        3.541156    3.479054   -1.059960
      5          1           0        2.317607    3.258866    0.712967
      6          6           0        3.462995    1.625383   -2.617646
      7          1           0        2.203919   -0.033582   -2.044101
      8          6           0        3.946649    2.889672   -2.260594
      9          1           0        3.911703    4.460463   -0.779971
     10          1           0        3.773922    1.166503   -3.551336
     11          1           0        4.634973    3.412738   -2.917751
     12          1           0        1.462999    1.015351    0.128027
 ---------------------------------------------------------------------
                    Distance matrix (angstroms):
                    1          2          3          4          5
     1  C    0.000000
     2  C    1.399471   0.000000
     3  C    1.400656   2.429962   0.000000
     4  C    2.419322   1.398328   2.801310   0.000000
     5  H    2.150452   1.084446   3.407050   2.165369   0.000000
     6  C    2.416664   2.798091   1.395778   2.422517   3.882417
     7  H    2.154985   3.408912   1.083995   3.885273   4.295877
     8  C    2.792328   2.422362   2.424093   1.397611   3.410593
     9  H    3.402073   2.153448   3.887061   1.085754   2.492758
    10  H    3.399894   3.883910   2.150709   3.407202   4.968211
    11  H    3.878255   3.406417   3.406761   2.156901   4.309985
    12  H    1.130579   2.178171   2.208514   3.435096   2.471006
                    6          7          8          9         10
     6  C    0.000000
     7  H    2.160183   0.000000
     8  C    1.399941   3.410189   0.000000
     9  H    3.408235   4.971015   2.158900   0.000000
    10  H    1.085828   2.485331   2.159898   4.306927   0.000000
    11  H    2.158294   4.307019   1.085930   2.488162   2.487652
    12  H    3.451209   2.523363   3.922640   4.323125   4.347519
                   11         12
    11  H    0.000000
    12  H    5.008557   0.000000
 Stoichiometry    C6H6
 Framework group  C1[X(C6H6)]
 Deg. of freedom    30
 Full point group                 C1      NOp   1
 Largest Abelian subgroup         C1      NOp   1
 Largest concise Abelian subgroup C1      NOp   1
                         Standard orientation:                         
 ---------------------------------------------------------------------
 Center     Atomic      Atomic             Coordinates (Angstroms)
 Number     Number       Type             X           Y           Z
 ---------------------------------------------------------------------
      1          6           0       -1.106990    0.845928    0.001222
      2          6           0       -1.290873   -0.541409    0.002119
      3          6           0        0.183661    1.390026   -0.002776
      4          6           0       -0.177851   -1.387859   -0.003159
      5          1           0       -2.297393   -0.944961    0.011300
      6          6           0        1.290131    0.539208    0.002565
      7          1           0        0.313835    2.466177   -0.002499
      8          6           0        1.111838   -0.849329   -0.000822
      9          1           0       -0.321091   -2.464123   -0.003345
     10          1           0        2.290974    0.960292    0.007558
     11          1           0        1.975737   -1.507295    0.000555
     12          1           0       -2.021556    1.510521   -0.008462
 ---------------------------------------------------------------------
 Rotational constants (GHZ):           5.6727432           5.6601247           2.8332339
 Standard basis: 6-31+G(d,p) (6D, 7F)
 There are   144 symmetry adapted cartesian basis functions of A   symmetry.
 There are   144 symmetry adapted basis functions of A   symmetry.
   144 basis functions,   234 primitive gaussians,   144 cartesian basis functions
    21 alpha electrons       21 beta electrons
       nuclear repulsion energy       202.7835911413 Hartrees.
 NAtoms=   12 NActive=   12 NUniq=   12 SFac= 1.00D+00 NAtFMM=   60 NAOKFM=F Big=F
 Integral buffers will be    131072 words long.
 Raffenetti 2 integral format.
 Two-electron integral symmetry is turned on.
 ------------------------------------------------------------------------------
 Polarizable Continuum Model (PCM)
 =================================
 Model                : PCM.
 Atomic radii         : UFF (Universal Force Field).
 Polarization charges : Total charges.
 Charge compensation  : None.
 Solution method      : On-the-fly selection.
 Cavity type          : Scaled VdW (van der Waals Surface) (Alpha=1.100).
 Cavity algorithm     : GePol (No added spheres)
                        Default sphere list used, NSphG=   12.
                        Lebedev-Laikov grids with approx.  5.0 points / Ang**2.
                        Smoothing algorithm: York/Karplus (Gamma=1.0000).
                        Polarization charges: spherical gaussians, with
                                              point-specific exponents (IZeta= 3).
                        Self-potential: point-specific (ISelfS= 7).
                        Self-field    : sphere-specific E.n sum rule (ISelfD= 2).
 Solvent              : Acetonitrile, Eps=  35.688000 Eps(inf)=   1.806874
 ------------------------------------------------------------------------------
 Spheres list:
 ISph  on   Nord     Re0    Alpha      Xe            Ye            Ze
    1   C      1    1.9255  1.100     -1.106990      0.845928      0.001222
    2   C      2    1.9255  1.100     -1.290873     -0.541409      0.002119
    3   C      3    1.9255  1.100      0.183661      1.390026     -0.002776
    4   C      4    1.9255  1.100     -0.177851     -1.387859     -0.003159
    5   H      5    1.4430  1.100     -2.297393     -0.944961      0.011300
    6   C      6    1.9255  1.100      1.290131      0.539208      0.002565
    7   H      7    1.4430  1.100      0.313835      2.466177     -0.002499
    8   C      8    1.9255  1.100      1.111838     -0.849329     -0.000822
    9   H      9    1.4430  1.100     -0.321091     -2.464123     -0.003345
   10   H     10    1.4430  1.100      2.290974      0.960292      0.007558
   11   H     11    1.4430  1.100      1.975737     -1.507295      0.000555
   12   H     12    1.4430  1.100     -2.021556      1.510521     -0.008462
 ------------------------------------------------------------------------------
 One-electron integrals computed using PRISM.
 NBasis=   144 RedAO= T EigKep=  6.53D-06  NBF=   144
 NBsUse=   144 1.00D-06 EigRej= -1.00D+00 NBFU=   144
 ExpMin= 4.38D-02 ExpMax= 3.05D+03 ExpMxC= 4.57D+02 IAcc=3 IRadAn=         5 AccDes= 0.00D+00
 Harris functional with IExCor=  402 and IRadAn=       5 diagonalized for initial guess.
 HarFok:  IExCor=  402 AccDes= 0.00D+00 IRadAn=         5 IDoV= 1 UseB2=F ITyADJ=14
 ICtDFT=  3500011 ScaDFX=  1.000000  1.000000  1.000000  1.000000
 FoFCou: FMM=F IPFlag=           0 FMFlag=      100000 FMFlg1=           0
         NFxFlg=           0 DoJE=T BraDBF=F KetDBF=T FulRan=T
         wScrn=  0.000000 ICntrl=       500 IOpCl=  0 I1Cent=   200000004 NGrid=           0
         NMat0=    1 NMatS0=      1 NMatT0=    0 NMatD0=    1 NMtDS0=    0 NMtDT0=    0
 Petite list used in FoFCou.
 Keep R1 ints in memory in canonical form, NReq=58386664.
 Requested convergence on RMS density matrix=1.00D-08 within 128 cycles.
 Requested convergence on MAX density matrix=1.00D-06.
 Requested convergence on             energy=1.00D-06.
 No special actions if energy rises.
 Inv3:  Mode=1 IEnd=     3499200.
 Iteration    1 A*A^-1 deviation from unit magnitude is 3.89D-15 for   1066.
 Iteration    1 A*A^-1 deviation from orthogonality  is 1.58D-15 for    507     22.
 Iteration    1 A^-1*A deviation from unit magnitude is 3.89D-15 for   1066.
 Iteration    1 A^-1*A deviation from orthogonality  is 1.45D-15 for   1061     93.
 Error on total polarization charges =  0.01603
 SCF Done:  E(RB3LYP) =  -232.269830068     A.U. after   10 cycles
            NFock= 10  Conv=0.44D-08     -V/T= 2.0104

 **********************************************************************

            Population analysis using the SCF density.

 **********************************************************************

 Orbital symmetries:
       Occupied  (A) (A) (A) (A) (A) (A) (A) (A) (A) (A) (A) (A)
                 (A) (A) (A) (A) (A) (A) (A) (A) (A)
       Virtual   (A) (A) (A) (A) (A) (A) (A) (A) (A) (A) (A) (A)
                 (A) (A) (A) (A) (A) (A) (A) (A) (A) (A) (A) (A)
                 (A) (A) (A) (A) (A) (A) (A) (A) (A) (A) (A) (A)
                 (A) (A) (A) (A) (A) (A) (A) (A) (A) (A) (A) (A)
                 (A) (A) (A) (A) (A) (A) (A) (A) (A) (A) (A) (A)
                 (A) (A) (A) (A) (A) (A) (A) (A) (A) (A) (A) (A)
                 (A) (A) (A) (A) (A) (A) (A) (A) (A) (A) (A) (A)
                 (A) (A) (A) (A) (A) (A) (A) (A) (A) (A) (A) (A)
                 (A) (A) (A) (A) (A) (A) (A) (A) (A) (A) (A) (A)
                 (A) (A) (A) (A) (A) (A) (A) (A) (A) (A) (A) (A)
                 (A) (A) (A)
 The electronic state is 1-A.
 Alpha  occ. eigenvalues --  -10.20374 -10.20030 -10.20006 -10.19973 -10.19946
 Alpha  occ. eigenvalues --  -10.19919  -0.85935  -0.75231  -0.75012  -0.60799
 Alpha  occ. eigenvalues --   -0.60559  -0.52577  -0.46418  -0.45034  -0.42703
 Alpha  occ. eigenvalues --   -0.42326  -0.37380  -0.34940  -0.34733  -0.26165
 Alpha  occ. eigenvalues --   -0.26076
 Alpha virt. eigenvalues --   -0.01858  -0.01838   0.01087   0.02985   0.03042
 Alpha virt. eigenvalues --    0.05038   0.05068   0.05908   0.07010   0.08322
 Alpha virt. eigenvalues --    0.08865   0.08884   0.10354   0.12362   0.14193
 Alpha virt. eigenvalues --    0.14217   0.14807   0.14865   0.14897   0.14909
 Alpha virt. eigenvalues --    0.19484   0.19996   0.20063   0.20475   0.21083
 Alpha virt. eigenvalues --    0.21091   0.23653   0.24443   0.24799   0.27139
 Alpha virt. eigenvalues --    0.27588   0.27915   0.32310   0.34622   0.34762
 Alpha virt. eigenvalues --    0.34898   0.35070   0.56149   0.56900   0.59975
 Alpha virt. eigenvalues --    0.62015   0.65347   0.71226   0.71230   0.71725
 Alpha virt. eigenvalues --    0.71793   0.74217   0.74261   0.76487   0.76545
 Alpha virt. eigenvalues --    0.79702   0.82326   0.87984   0.90957   0.91733
 Alpha virt. eigenvalues --    0.94755   0.95196   0.97595   1.02082   1.06789
 Alpha virt. eigenvalues --    1.06806   1.11757   1.12198   1.16321   1.16651
 Alpha virt. eigenvalues --    1.24831   1.29330   1.30957   1.39408   1.39658
 Alpha virt. eigenvalues --    1.41521   1.41735   1.42541   1.42929   1.73624
 Alpha virt. eigenvalues --    1.78342   1.83552   1.87928   1.92672   1.94207
 Alpha virt. eigenvalues --    1.97818   1.97931   2.00010   2.00376   2.02671
 Alpha virt. eigenvalues --    2.06813   2.07384   2.28313   2.28717   2.35677
 Alpha virt. eigenvalues --    2.36131   2.37624   2.39634   2.39941   2.40802
 Alpha virt. eigenvalues --    2.46923   2.47322   2.50663   2.51008   2.57490
 Alpha virt. eigenvalues --    2.59344   2.59675   2.62287   2.64071   2.75391
 Alpha virt. eigenvalues --    2.80017   2.80920   3.02812   3.05044   3.17136
 Alpha virt. eigenvalues --    3.22695   3.26609   3.27773   3.37219   3.49817
 Alpha virt. eigenvalues --    3.52475   3.93545   4.26960   4.28390   4.28463
 Alpha virt. eigenvalues --    4.48180   4.48407   4.84447
          Condensed to atoms (all electrons):
               1          2          3          4          5          6
     1  C    4.927903   0.529369   0.539710  -0.073423   0.009814  -0.067211
     2  C    0.529369   4.904614  -0.053013   0.541944   0.288945  -0.029826
     3  C    0.539710  -0.053013   4.899371  -0.031729   0.007257   0.541788
     4  C   -0.073423   0.541944  -0.031729   4.913144   0.003252  -0.066695
     5  H    0.009814   0.288945   0.007257   0.003252   0.557346  -0.002592
     6  C   -0.067211  -0.029826   0.541788  -0.066695  -0.002592   4.905425
     7  H    0.005074   0.006980   0.291944  -0.003175  -0.000151   0.004772
     8  C   -0.036452  -0.054741  -0.055376   0.543103   0.005388   0.542065
     9  H    0.007877   0.005699  -0.002989   0.290455  -0.005628   0.006447
    10  H    0.007318  -0.003335   0.004923   0.006501   0.000013   0.292379
    11  H   -0.003620   0.006754   0.007026   0.004316  -0.000146   0.004388
    12  H    0.272072   0.017860   0.010089   0.006914  -0.005834   0.003591
               7          8          9         10         11         12
     1  C    0.005074  -0.036452   0.007877   0.007318  -0.003620   0.272072
     2  C    0.006980  -0.054741   0.005699  -0.003335   0.006754   0.017860
     3  C    0.291944  -0.055376  -0.002989   0.004923   0.007026   0.010089
     4  C   -0.003175   0.543103   0.290455   0.006501   0.004316   0.006914
     5  H   -0.000151   0.005388  -0.005628   0.000013  -0.000146  -0.005834
     6  C    0.004772   0.542065   0.006447   0.292379   0.004388   0.003591
     7  H    0.556524   0.006411   0.000013  -0.005761  -0.000147  -0.005160
     8  C    0.006411   4.896630   0.003660   0.003771   0.293093  -0.000738
     9  H    0.000013   0.003660   0.558653  -0.000148  -0.005701  -0.000145
    10  H   -0.005761   0.003771  -0.000148   0.558158  -0.005685  -0.000135
    11  H   -0.000147   0.293093  -0.005701  -0.005685   0.557457   0.000012
    12  H   -0.005160  -0.000738  -0.000145  -0.000135   0.000012   0.557917
 Mulliken charges:
               1
     1  C   -0.118430
     2  C   -0.161250
     3  C   -0.159000
     4  C   -0.134606
     5  H    0.142336
     6  C   -0.134530
     7  H    0.142676
     8  C   -0.146814
     9  H    0.141807
    10  H    0.142002
    11  H    0.142253
    12  H    0.143557
 Sum of Mulliken charges =  -0.00000
 Mulliken charges with hydrogens summed into heavy atoms:
               1
     1  C    0.025127
     2  C   -0.018915
     3  C   -0.016324
     4  C    0.007201
     6  C    0.007472
     8  C   -0.004561
 Electronic spatial extent (au):  <R**2>=            461.6863
 Charge=             -0.0000 electrons
 Dipole moment (field-independent basis, Debye):
    X=              0.0143    Y=             -0.0218    Z=              0.0051  Tot=              0.0266
 Quadrupole moment (field-independent basis, Debye-Ang):
   XX=            -31.6044   YY=            -31.6993   ZZ=            -40.5530
   XY=              0.0599   XZ=              0.0120   YZ=             -0.0186
 Traceless Quadrupole moment (field-independent basis, Debye-Ang):
   XX=              3.0145   YY=              2.9196   ZZ=             -5.9341
   XY=              0.0599   XZ=              0.0120   YZ=             -0.0186
 Octapole moment (field-independent basis, Debye-Ang**2):
  XXX=             -0.0730  YYY=             -0.1450  ZZZ=              0.0108  XYY=              0.2041
  XXY=             -0.0802  XXZ=              0.0628  XZZ=              0.1124  YZZ=             -0.0835
  YYZ=             -0.0216  XYZ=              0.0647
 Hexadecapole moment (field-independent basis, Debye-Ang**3):
 XXXX=           -275.3364 YYYY=           -275.7506 ZZZZ=            -52.8530 XXXY=              0.1179
 XXXZ=              0.0498 YYYX=              0.5810 YYYZ=             -0.0532 ZZZX=              0.0183
 ZZZY=             -0.0301 XXYY=            -92.0743 XXZZ=            -66.7321 YYZZ=            -66.5844
 XXYZ=             -0.1022 YYXZ=              0.0507 ZZXY=              0.1960
 N-N= 2.027835911413D+02 E-N=-9.426253989853D+02  KE= 2.298728317529D+02
 1\1\GINC-NODE85\SP\RB3LYP\6-31+G(d,p)\C6H6\YANZ\22-Sep-2023\0\\# b3lyp
 /6-31+g(d,p) scrf=(iefpcm,solvent=acetonitrile)\\tmpdir/M1_ref_5.gjf\\
 0,1\C,0,2.172272,1.543797,-0.576165\C,0,2.649409,2.809285,-0.216445\C,
 0,2.580847,0.946621,-1.77545\C,0,3.541156,3.479054,-1.05996\H,0,2.3176
 07,3.258866,0.712967\C,0,3.462995,1.625383,-2.617646\H,0,2.203919,-0.0
 33582,-2.044101\C,0,3.946649,2.889672,-2.260594\H,0,3.911703,4.460463,
 -0.779971\H,0,3.773922,1.166503,-3.551336\H,0,4.634973,3.412738,-2.917
 751\H,0,1.46299925,1.0153508,0.12802697\\Version=ES64L-G16RevA.03\Stat
 e=1-A\HF=-232.2698301\RMSD=4.430e-09\Dipole=0.004705,0.0081436,-0.0046
 195\Quadrupole=-1.7693679,0.9936789,0.775689,2.1387803,-2.4148787,1.35
 50273\PG=C01 [X(C6H6)]\\@


 I WISH TO HAVE NO CONNECTION WITH ANY SHIP THAT DOES NOT SAIL FAST,
 FOR I INTEND TO GO IN HARM'S WAY.
     -- JOHN PAUL JONES, USN 1747-1792
 Job cpu time:       0 days  0 hours  1 minutes 13.0 seconds.
 Elapsed time:       0 days  0 hours  0 minutes 19.3 seconds.
 File lengths (MBytes):  RWF=     32 Int=      0 D2E=      0 Chk=      3 Scr=      1
 Normal termination of Gaussian 16 at Fri Sep 22 16:59:13 2023.
