 Entering Gaussian System, Link 0=g16
 Initial command:
 /share/apps/gaussian/g16/l1.exe "/tmp/55647.mgr/Gau-3503.inp" -scrdir="/tmp/55647.mgr/"
 Entering Link 1 = /share/apps/gaussian/g16/l1.exe PID=      3504.
  
 Copyright (c) 1988,1990,1992,1993,1995,1998,2003,2009,2016,
            Gaussian, Inc.  All Rights Reserved.
  
 This is part of the Gaussian(R) 16 program.  It is based on
 the Gaussian(R) 09 system (copyright 2009, Gaussian, Inc.),
 the Gaussian(R) 03 system (copyright 2003, Gaussian, Inc.),
 the Gaussian(R) 98 system (copyright 1998, Gaussian, Inc.),
 the Gaussian(R) 94 system (copyright 1995, Gaussian, Inc.),
 the Gaussian 92(TM) system (copyright 1992, Gaussian, Inc.),
 the Gaussian 90(TM) system (copyright 1990, Gaussian, Inc.),
 the Gaussian 88(TM) system (copyright 1988, Gaussian, Inc.),
 the Gaussian 86(TM) system (copyright 1986, Carnegie Mellon
 University), and the Gaussian 82(TM) system (copyright 1983,
 Carnegie Mellon University). Gaussian is a federally registered
 trademark of Gaussian, Inc.
  
 This software contains proprietary and confidential information,
 including trade secrets, belonging to Gaussian, Inc.
  
 This software is provided under written license and may be
 used, copied, transmitted, or stored only in accord with that
 written license.
  
 The following legend is applicable only to US Government
 contracts under FAR:
  
                    RESTRICTED RIGHTS LEGEND
  
 Use, reproduction and disclosure by the US Government is
 subject to restrictions as set forth in subparagraphs (a)
 and (c) of the Commercial Computer Software - Restricted
 Rights clause in FAR 52.227-19.
  
 Gaussian, Inc.
 340 Quinnipiac St., Bldg. 40, Wallingford CT 06492
  
  
 ---------------------------------------------------------------
 Warning -- This program may not be used in any manner that
 competes with the business of Gaussian, Inc. or will provide
 assistance to any competitor of Gaussian, Inc.  The licensee
 of this program is prohibited from giving any competitor of
 Gaussian, Inc. access to this program.  By using this program,
 the user acknowledges that Gaussian, Inc. is engaged in the
 business of creating and licensing software in the field of
 computational chemistry and represents and warrants to the
 licensee that it is not a competitor of Gaussian, Inc. and that
 it will not use this program in any manner prohibited above.
 ---------------------------------------------------------------
  

 Cite this work as:
 Gaussian 16, Revision A.03,
 M. J. Frisch, G. W. Trucks, H. B. Schlegel, G. E. Scuseria, 
 M. A. Robb, J. R. Cheeseman, G. Scalmani, V. Barone, 
 G. A. Petersson, H. Nakatsuji, X. Li, M. Caricato, A. V. Marenich, 
 J. Bloino, B. G. Janesko, R. Gomperts, B. Mennucci, H. P. Hratchian, 
 J. V. Ortiz, A. F. Izmaylov, J. L. Sonnenberg, D. Williams-Young, 
 F. Ding, F. Lipparini, F. Egidi, J. Goings, B. Peng, A. Petrone, 
 T. Henderson, D. Ranasinghe, V. G. Zakrzewski, J. Gao, N. Rega, 
 G. Zheng, W. Liang, M. Hada, M. Ehara, K. Toyota, R. Fukuda, 
 J. Hasegawa, M. Ishida, T. Nakajima, Y. Honda, O. Kitao, H. Nakai, 
 T. Vreven, K. Throssell, J. A. Montgomery, Jr., J. E. Peralta, 
 F. Ogliaro, M. J. Bearpark, J. J. Heyd, E. N. Brothers, K. N. Kudin, 
 V. N. Staroverov, T. A. Keith, R. Kobayashi, J. Normand, 
 K. Raghavachari, A. P. Rendell, J. C. Burant, S. S. Iyengar, 
 J. Tomasi, M. Cossi, J. M. Millam, M. Klene, C. Adamo, R. Cammi, 
 J. W. Ochterski, R. L. Martin, K. Morokuma, O. Farkas, 
 J. B. Foresman, and D. J. Fox, Gaussian, Inc., Wallingford CT, 2016.
 
 ******************************************
 Gaussian 16:  ES64L-G16RevA.03 25-Dec-2016
                22-Sep-2023 
 ******************************************
 %nprocshared=2
 Will use up to    2 processors via shared memory.
 %mem=2GB
 ------------------------------------------------------
 # b3lyp/6-31+g(d,p) scrf=(iefpcm,solvent=acetonitrile)
 ------------------------------------------------------
 1/38=1,172=1/1;
 2/12=2,17=6,18=5,40=1/2;
 3/5=1,6=6,7=111,11=2,25=1,30=1,70=2201,72=2,74=-5/1,2,3;
 4//1;
 5/5=2,38=5,53=2/2;
 6/7=2,8=2,9=2,10=2,28=1/1;
 99/5=1,9=1/99;
 ------------------------
 tmpdir/M2_conf_0_127.gjf
 ------------------------
 Symbolic Z-matrix:
 Charge =  0 Multiplicity = 1
 C                     0.        0.        0. 
 C                     1.3981    0.        0. 
 C                     2.0699    0.        1.22452 
 H                    -0.54688  -0.01063  -0.9825 
 O                    -0.65177  -0.00128   1.0463 
 H                     1.9475    0.01322  -0.93483 
 H                     1.5467   -0.00122   2.09149 
 H                     3.15505   0.00576   1.2412 
 
                          Input orientation:                          
 ---------------------------------------------------------------------
 Center     Atomic      Atomic             Coordinates (Angstroms)
 Number     Number       Type             X           Y           Z
 ---------------------------------------------------------------------
      1          6           0        0.000000    0.000000    0.000000
      2          6           0        1.398100    0.000000    0.000000
      3          6           0        2.069900    0.000000    1.224520
      4          1           0       -0.546880   -0.010630   -0.982500
      5          8           0       -0.651770   -0.001280    1.046300
      6          1           0        1.947500    0.013220   -0.934830
      7          1           0        1.546700   -0.001220    2.091490
      8          1           0        3.155050    0.005760    1.241200
 ---------------------------------------------------------------------
                    Distance matrix (angstroms):
                    1          2          3          4          5
     1  C    0.000000
     2  C    1.398100   0.000000
     3  C    2.404981   1.396698   0.000000
     4  H    1.124499   2.179075   3.423242   0.000000
     5  O    1.232700   2.301459   2.727499   2.031531   0.000000
     6  H    2.160287   1.084399   2.162857   2.494949   3.268224
     7  H    2.601271   2.096763   1.012609   3.719218   2.434275
     8  H    3.390420   2.151159   1.085293   4.318495   3.811812
                    6          7          8
     6  H    0.000000
     7  H    3.052779   0.000000
     8  H    2.488642   1.819294   0.000000
 Stoichiometry    C3H4O
 Framework group  C1[X(C3H4O)]
 Deg. of freedom    18
 Full point group                 C1      NOp   1
 Largest Abelian subgroup         C1      NOp   1
 Largest concise Abelian subgroup C1      NOp   1
                         Standard orientation:                         
 ---------------------------------------------------------------------
 Center     Atomic      Atomic             Coordinates (Angstroms)
 Number     Number       Type             X           Y           Z
 ---------------------------------------------------------------------
      1          6           0       -0.787517    0.478535    0.000736
      2          6           0        0.600124    0.649215   -0.001247
      3          6           0        1.416390   -0.484132   -0.001357
      4          1           0       -1.450264    1.386914   -0.009795
      5          8           0       -1.306679   -0.639508    0.001102
      6          1           0        1.031307    1.644135    0.010549
      7          1           0        1.002942   -1.408490   -0.001237
      8          1           0        2.495466   -0.368207    0.002875
 ---------------------------------------------------------------------
 Rotational constants (GHZ):          21.2343864           6.8670219           5.1889859
 Standard basis: 6-31+G(d,p) (6D, 7F)
 There are    96 symmetry adapted cartesian basis functions of A   symmetry.
 There are    96 symmetry adapted basis functions of A   symmetry.
    96 basis functions,   156 primitive gaussians,    96 cartesian basis functions
    15 alpha electrons       15 beta electrons
       nuclear repulsion energy       105.8065453718 Hartrees.
 NAtoms=    8 NActive=    8 NUniq=    8 SFac= 1.00D+00 NAtFMM=   60 NAOKFM=F Big=F
 Integral buffers will be    131072 words long.
 Raffenetti 2 integral format.
 Two-electron integral symmetry is turned on.
 ------------------------------------------------------------------------------
 Polarizable Continuum Model (PCM)
 =================================
 Model                : PCM.
 Atomic radii         : UFF (Universal Force Field).
 Polarization charges : Total charges.
 Charge compensation  : None.
 Solution method      : On-the-fly selection.
 Cavity type          : Scaled VdW (van der Waals Surface) (Alpha=1.100).
 Cavity algorithm     : GePol (No added spheres)
                        Default sphere list used, NSphG=    8.
                        Lebedev-Laikov grids with approx.  5.0 points / Ang**2.
                        Smoothing algorithm: York/Karplus (Gamma=1.0000).
                        Polarization charges: spherical gaussians, with
                                              point-specific exponents (IZeta= 3).
                        Self-potential: point-specific (ISelfS= 7).
                        Self-field    : sphere-specific E.n sum rule (ISelfD= 2).
 Solvent              : Acetonitrile, Eps=  35.688000 Eps(inf)=   1.806874
 ------------------------------------------------------------------------------
 Spheres list:
 ISph  on   Nord     Re0    Alpha      Xe            Ye            Ze
    1   C      1    1.9255  1.100     -0.787517      0.478535      0.000736
    2   C      2    1.9255  1.100      0.600124      0.649215     -0.001247
    3   C      3    1.9255  1.100      1.416390     -0.484132     -0.001357
    4   H      4    1.4430  1.100     -1.450264      1.386914     -0.009795
    5   O      5    1.7500  1.100     -1.306679     -0.639508      0.001102
    6   H      6    1.4430  1.100      1.031307      1.644135      0.010549
    7   H      7    1.4430  1.100      1.002942     -1.408490     -0.001237
    8   H      8    1.4430  1.100      2.495466     -0.368207      0.002875
 ------------------------------------------------------------------------------
 One-electron integrals computed using PRISM.
 NBasis=    96 RedAO= T EigKep=  1.29D-04  NBF=    96
 NBsUse=    96 1.00D-06 EigRej= -1.00D+00 NBFU=    96
 ExpMin= 4.38D-02 ExpMax= 5.48D+03 ExpMxC= 8.25D+02 IAcc=3 IRadAn=         5 AccDes= 0.00D+00
 Harris functional with IExCor=  402 and IRadAn=       5 diagonalized for initial guess.
 HarFok:  IExCor=  402 AccDes= 0.00D+00 IRadAn=         5 IDoV= 1 UseB2=F ITyADJ=14
 ICtDFT=  3500011 ScaDFX=  1.000000  1.000000  1.000000  1.000000
 FoFCou: FMM=F IPFlag=           0 FMFlag=      100000 FMFlg1=           0
         NFxFlg=           0 DoJE=T BraDBF=F KetDBF=T FulRan=T
         wScrn=  0.000000 ICntrl=       500 IOpCl=  0 I1Cent=   200000004 NGrid=           0
         NMat0=    1 NMatS0=      1 NMatT0=    0 NMatD0=    1 NMtDS0=    0 NMtDT0=    0
 Petite list used in FoFCou.
 Keep R1 ints in memory in canonical form, NReq=12684406.
 Requested convergence on RMS density matrix=1.00D-08 within 128 cycles.
 Requested convergence on MAX density matrix=1.00D-06.
 Requested convergence on             energy=1.00D-06.
 No special actions if energy rises.
 Inv3:  Mode=1 IEnd=     2111763.
 Iteration    1 A*A^-1 deviation from unit magnitude is 3.55D-15 for    811.
 Iteration    1 A*A^-1 deviation from orthogonality  is 3.48D-15 for    828    681.
 Iteration    1 A^-1*A deviation from unit magnitude is 3.33D-15 for    810.
 Iteration    1 A^-1*A deviation from orthogonality  is 4.08D-15 for    801    318.
 Error on total polarization charges =  0.01117
 SCF Done:  E(RB3LYP) =  -191.920639329     A.U. after   12 cycles
            NFock= 12  Conv=0.15D-08     -V/T= 2.0091

 **********************************************************************

            Population analysis using the SCF density.

 **********************************************************************

 Orbital symmetries:
       Occupied  (A) (A) (A) (A) (A) (A) (A) (A) (A) (A) (A) (A)
                 (A) (A) (A)
       Virtual   (A) (A) (A) (A) (A) (A) (A) (A) (A) (A) (A) (A)
                 (A) (A) (A) (A) (A) (A) (A) (A) (A) (A) (A) (A)
                 (A) (A) (A) (A) (A) (A) (A) (A) (A) (A) (A) (A)
                 (A) (A) (A) (A) (A) (A) (A) (A) (A) (A) (A) (A)
                 (A) (A) (A) (A) (A) (A) (A) (A) (A) (A) (A) (A)
                 (A) (A) (A) (A) (A) (A) (A) (A) (A) (A) (A) (A)
                 (A) (A) (A) (A) (A) (A) (A) (A) (A)
 The electronic state is 1-A.
 Alpha  occ. eigenvalues --  -19.15936 -10.28412 -10.22515 -10.21327  -1.05090
 Alpha  occ. eigenvalues --   -0.80163  -0.67772  -0.55253  -0.52307  -0.46235
 Alpha  occ. eigenvalues --   -0.42300  -0.41102  -0.40048  -0.28725  -0.27366
 Alpha virt. eigenvalues --   -0.09721   0.01378   0.03037   0.03942   0.04180
 Alpha virt. eigenvalues --    0.06199   0.06521   0.07532   0.09661   0.09777
 Alpha virt. eigenvalues --    0.12153   0.12357   0.14237   0.16425   0.19804
 Alpha virt. eigenvalues --    0.21732   0.23366   0.24450   0.26060   0.26620
 Alpha virt. eigenvalues --    0.29239   0.31595   0.32408   0.40865   0.46301
 Alpha virt. eigenvalues --    0.62717   0.64845   0.68052   0.68448   0.70922
 Alpha virt. eigenvalues --    0.71865   0.76672   0.85951   0.90128   0.91694
 Alpha virt. eigenvalues --    0.94992   1.03324   1.07239   1.10055   1.16312
 Alpha virt. eigenvalues --    1.20356   1.24974   1.27130   1.29523   1.32023
 Alpha virt. eigenvalues --    1.33002   1.43935   1.48071   1.58540   1.75184
 Alpha virt. eigenvalues --    1.78243   1.81256   1.86858   1.92622   2.01863
 Alpha virt. eigenvalues --    2.02325   2.06297   2.09040   2.17285   2.19576
 Alpha virt. eigenvalues --    2.35509   2.35677   2.44326   2.46915   2.49193
 Alpha virt. eigenvalues --    2.50428   2.65914   2.68070   2.75580   2.80308
 Alpha virt. eigenvalues --    2.90282   3.08487   3.14155   3.23670   3.36813
 Alpha virt. eigenvalues --    3.56865   3.76073   4.12829   4.27733   4.36061
 Alpha virt. eigenvalues --    4.59588
          Condensed to atoms (all electrons):
               1          2          3          4          5          6
     1  C    4.865379   0.094000   0.046538   0.455835   0.451395   0.013623
     2  C    0.094000   5.466825   0.510180  -0.162935  -0.204165   0.297408
     3  C    0.046538   0.510180   4.911509   0.018832   0.012497   0.000391
     4  H    0.455835  -0.162935   0.018832   0.626415  -0.070664   0.000045
     5  O    0.451395  -0.204165   0.012497  -0.070664   8.302142   0.006003
     6  H    0.013623   0.297408   0.000391   0.000045   0.006003   0.521885
     7  H   -0.005444  -0.056055   0.420691   0.000074   0.001256   0.003959
     8  H    0.017454  -0.022887   0.361876  -0.000081   0.001172  -0.004624
               7          8
     1  C   -0.005444   0.017454
     2  C   -0.056055  -0.022887
     3  C    0.420691   0.361876
     4  H    0.000074  -0.000081
     5  O    0.001256   0.001172
     6  H    0.003959  -0.004624
     7  H    0.490358  -0.032332
     8  H   -0.032332   0.507402
 Mulliken charges:
               1
     1  C    0.061218
     2  C    0.077630
     3  C   -0.282514
     4  H    0.132480
     5  O   -0.499635
     6  H    0.161311
     7  H    0.177493
     8  H    0.172018
 Sum of Mulliken charges =  -0.00000
 Mulliken charges with hydrogens summed into heavy atoms:
               1
     1  C    0.193698
     2  C    0.238941
     3  C    0.066997
     5  O   -0.499635
 Electronic spatial extent (au):  <R**2>=            258.0787
 Charge=             -0.0000 electrons
 Dipole moment (field-independent basis, Debye):
    X=              3.0832    Y=              2.2958    Z=              0.0078  Tot=              3.8440
 Quadrupole moment (field-independent basis, Debye-Ang):
   XX=            -24.2432   YY=            -22.4206   ZZ=            -25.2102
   XY=             -3.8759   XZ=              0.0308   YZ=              0.0183
 Traceless Quadrupole moment (field-independent basis, Debye-Ang):
   XX=             -0.2852   YY=              1.5374   ZZ=             -1.2522
   XY=             -3.8759   XZ=              0.0308   YZ=              0.0183
 Octapole moment (field-independent basis, Debye-Ang**2):
  XXX=             10.5819  YYY=              0.9843  ZZZ=              0.0262  XYY=              1.6676
  XXY=              3.7038  XXZ=              0.0278  XZZ=             -2.8700  YZZ=             -0.8714
  YYZ=              0.0278  XYZ=              0.0252
 Hexadecapole moment (field-independent basis, Debye-Ang**3):
 XXXX=           -212.2691 YYYY=            -88.7431 ZZZZ=            -28.3294 XXXY=             -8.3117
 XXXZ=              0.1263 YYYX=              0.0227 YYYZ=              0.0614 ZZZX=              0.0330
 ZZZY=              0.0209 XXYY=            -51.5247 XXZZ=            -44.0586 YYZZ=            -21.2839
 XXYZ=              0.0034 YYXZ=              0.0744 ZZXY=             -0.0183
 N-N= 1.058065453718D+02 E-N=-6.589244506462D+02  KE= 1.901881057559D+02
 1\1\GINC-NODE62\SP\RB3LYP\6-31+G(d,p)\C3H4O1\YANZ\22-Sep-2023\0\\# b3l
 yp/6-31+g(d,p) scrf=(iefpcm,solvent=acetonitrile)\\tmpdir/M2_conf_0_12
 7.gjf\\0,1\C,0,0.,0.,0.\C,0,1.3981,0.,0.\C,0,2.0699,0.,1.22452\H,0,-0.
 54688,-0.01063,-0.9825\O,0,-0.65177,-0.00128,1.0463\H,0,1.9475,0.01322
 ,-0.93483\H,0,1.5467,-0.00122,2.09149\H,0,3.15505,0.00576,1.2412\\Vers
 ion=ES64L-G16RevA.03\State=1-A\HF=-191.9206393\RMSD=1.473e-09\Dipole=1
 .3141973,0.0054336,-0.7483978\Quadrupole=-0.8902183,-0.930921,1.821139
 3,0.0226641,2.6316063,-0.0088728\PG=C01 [X(C3H4O1)]\\@


 WHAT, THEN, IS TIME?  IF NO ONE ASKS ME, I KNOW WHAT IT IS.
 IF I WISH TO EXPLAIN WHAT IT IS TO HIM WHO ASKS ME, I DO NOT KNOW.
                                   -- ST. AUGUSTINE (FIFTH CENTURY)
 Job cpu time:       0 days  0 hours  0 minutes 39.6 seconds.
 Elapsed time:       0 days  0 hours  0 minutes 20.2 seconds.
 File lengths (MBytes):  RWF=     19 Int=      0 D2E=      0 Chk=      2 Scr=      1
 Normal termination of Gaussian 16 at Fri Sep 22 17:12:18 2023.
