 Entering Gaussian System, Link 0=g16
 Initial command:
 /share/apps/gaussian/g16/l1.exe "/tmp/55647.mgr/Gau-2434.inp" -scrdir="/tmp/55647.mgr/"
 Entering Link 1 = /share/apps/gaussian/g16/l1.exe PID=      2435.
  
 Copyright (c) 1988,1990,1992,1993,1995,1998,2003,2009,2016,
            Gaussian, Inc.  All Rights Reserved.
  
 This is part of the Gaussian(R) 16 program.  It is based on
 the Gaussian(R) 09 system (copyright 2009, Gaussian, Inc.),
 the Gaussian(R) 03 system (copyright 2003, Gaussian, Inc.),
 the Gaussian(R) 98 system (copyright 1998, Gaussian, Inc.),
 the Gaussian(R) 94 system (copyright 1995, Gaussian, Inc.),
 the Gaussian 92(TM) system (copyright 1992, Gaussian, Inc.),
 the Gaussian 90(TM) system (copyright 1990, Gaussian, Inc.),
 the Gaussian 88(TM) system (copyright 1988, Gaussian, Inc.),
 the Gaussian 86(TM) system (copyright 1986, Carnegie Mellon
 University), and the Gaussian 82(TM) system (copyright 1983,
 Carnegie Mellon University). Gaussian is a federally registered
 trademark of Gaussian, Inc.
  
 This software contains proprietary and confidential information,
 including trade secrets, belonging to Gaussian, Inc.
  
 This software is provided under written license and may be
 used, copied, transmitted, or stored only in accord with that
 written license.
  
 The following legend is applicable only to US Government
 contracts under FAR:
  
                    RESTRICTED RIGHTS LEGEND
  
 Use, reproduction and disclosure by the US Government is
 subject to restrictions as set forth in subparagraphs (a)
 and (c) of the Commercial Computer Software - Restricted
 Rights clause in FAR 52.227-19.
  
 Gaussian, Inc.
 340 Quinnipiac St., Bldg. 40, Wallingford CT 06492
  
  
 ---------------------------------------------------------------
 Warning -- This program may not be used in any manner that
 competes with the business of Gaussian, Inc. or will provide
 assistance to any competitor of Gaussian, Inc.  The licensee
 of this program is prohibited from giving any competitor of
 Gaussian, Inc. access to this program.  By using this program,
 the user acknowledges that Gaussian, Inc. is engaged in the
 business of creating and licensing software in the field of
 computational chemistry and represents and warrants to the
 licensee that it is not a competitor of Gaussian, Inc. and that
 it will not use this program in any manner prohibited above.
 ---------------------------------------------------------------
  

 Cite this work as:
 Gaussian 16, Revision A.03,
 M. J. Frisch, G. W. Trucks, H. B. Schlegel, G. E. Scuseria, 
 M. A. Robb, J. R. Cheeseman, G. Scalmani, V. Barone, 
 G. A. Petersson, H. Nakatsuji, X. Li, M. Caricato, A. V. Marenich, 
 J. Bloino, B. G. Janesko, R. Gomperts, B. Mennucci, H. P. Hratchian, 
 J. V. Ortiz, A. F. Izmaylov, J. L. Sonnenberg, D. Williams-Young, 
 F. Ding, F. Lipparini, F. Egidi, J. Goings, B. Peng, A. Petrone, 
 T. Henderson, D. Ranasinghe, V. G. Zakrzewski, J. Gao, N. Rega, 
 G. Zheng, W. Liang, M. Hada, M. Ehara, K. Toyota, R. Fukuda, 
 J. Hasegawa, M. Ishida, T. Nakajima, Y. Honda, O. Kitao, H. Nakai, 
 T. Vreven, K. Throssell, J. A. Montgomery, Jr., J. E. Peralta, 
 F. Ogliaro, M. J. Bearpark, J. J. Heyd, E. N. Brothers, K. N. Kudin, 
 V. N. Staroverov, T. A. Keith, R. Kobayashi, J. Normand, 
 K. Raghavachari, A. P. Rendell, J. C. Burant, S. S. Iyengar, 
 J. Tomasi, M. Cossi, J. M. Millam, M. Klene, C. Adamo, R. Cammi, 
 J. W. Ochterski, R. L. Martin, K. Morokuma, O. Farkas, 
 J. B. Foresman, and D. J. Fox, Gaussian, Inc., Wallingford CT, 2016.
 
 ******************************************
 Gaussian 16:  ES64L-G16RevA.03 25-Dec-2016
                22-Sep-2023 
 ******************************************
 %nprocshared=2
 Will use up to    2 processors via shared memory.
 %mem=2GB
 ------------------------------------------------------
 # b3lyp/6-31+g(d,p) scrf=(iefpcm,solvent=acetonitrile)
 ------------------------------------------------------
 1/38=1,172=1/1;
 2/12=2,17=6,18=5,40=1/2;
 3/5=1,6=6,7=111,11=2,25=1,30=1,70=2201,72=2,74=-5/1,2,3;
 4//1;
 5/5=2,38=5,53=2/2;
 6/7=2,8=2,9=2,10=2,28=1/1;
 99/5=1,9=1/99;
 -----------------------
 tmpdir/M2_conf_0_20.gjf
 -----------------------
 Symbolic Z-matrix:
 Charge =  0 Multiplicity = 1
 C                     0.        0.        0. 
 C                     1.3984    0.        0. 
 H                     1.93923   0.        0.94244 
 O                    -0.63571   0.02112  -1.05195 
 H                    -0.53968   0.06123   0.9925 
 O                     1.99574  -0.0045   -1.07452 
 
                          Input orientation:                          
 ---------------------------------------------------------------------
 Center     Atomic      Atomic             Coordinates (Angstroms)
 Number     Number       Type             X           Y           Z
 ---------------------------------------------------------------------
      1          6           0        0.000000    0.000000    0.000000
      2          6           0        1.398400    0.000000    0.000000
      3          1           0        1.939230    0.000000    0.942440
      4          8           0       -0.635710    0.021120   -1.051950
      5          1           0       -0.539680    0.061230    0.992500
      6          8           0        1.995740   -0.004500   -1.074520
 ---------------------------------------------------------------------
                    Distance matrix (angstroms):
                    1          2          3          4          5
     1  C    0.000000
     2  C    1.398400   0.000000
     3  H    2.156109   1.086596   0.000000
     4  O    1.229297   2.290120   3.257047   0.000000
     5  H    1.131397   2.178293   2.480171   2.047097   0.000000
     6  O    2.266626   1.229402   2.017756   2.631672   3.271887
                    6
     6  O    0.000000
 Stoichiometry    C2H2O2
 Framework group  C1[X(C2H2O2)]
 Deg. of freedom    12
 Full point group                 C1      NOp   1
 Largest Abelian subgroup         C1      NOp   1
 Largest concise Abelian subgroup C1      NOp   1
                         Standard orientation:                         
 ---------------------------------------------------------------------
 Center     Atomic      Atomic             Coordinates (Angstroms)
 Number     Number       Type             X           Y           Z
 ---------------------------------------------------------------------
      1          6           0        0.691515    0.498956   -0.013713
      2          6           0       -0.706803    0.506238   -0.000511
      3          1           0       -1.242707    1.451481    0.003217
      4          8           0        1.321924   -0.556259    0.002943
      5          1           0        1.236898    1.488718    0.040966
      6          8           0       -1.309732   -0.565162    0.002202
 ---------------------------------------------------------------------
 Rotational constants (GHZ):          24.8517110           7.1966796           5.5810968
 Standard basis: 6-31+G(d,p) (6D, 7F)
 There are    86 symmetry adapted cartesian basis functions of A   symmetry.
 There are    86 symmetry adapted basis functions of A   symmetry.
    86 basis functions,   142 primitive gaussians,    86 cartesian basis functions
    15 alpha electrons       15 beta electrons
       nuclear repulsion energy       105.7448956308 Hartrees.
 NAtoms=    6 NActive=    6 NUniq=    6 SFac= 1.00D+00 NAtFMM=   60 NAOKFM=F Big=F
 Integral buffers will be    131072 words long.
 Raffenetti 2 integral format.
 Two-electron integral symmetry is turned on.
 ------------------------------------------------------------------------------
 Polarizable Continuum Model (PCM)
 =================================
 Model                : PCM.
 Atomic radii         : UFF (Universal Force Field).
 Polarization charges : Total charges.
 Charge compensation  : None.
 Solution method      : On-the-fly selection.
 Cavity type          : Scaled VdW (van der Waals Surface) (Alpha=1.100).
 Cavity algorithm     : GePol (No added spheres)
                        Default sphere list used, NSphG=    6.
                        Lebedev-Laikov grids with approx.  5.0 points / Ang**2.
                        Smoothing algorithm: York/Karplus (Gamma=1.0000).
                        Polarization charges: spherical gaussians, with
                                              point-specific exponents (IZeta= 3).
                        Self-potential: point-specific (ISelfS= 7).
                        Self-field    : sphere-specific E.n sum rule (ISelfD= 2).
 Solvent              : Acetonitrile, Eps=  35.688000 Eps(inf)=   1.806874
 ------------------------------------------------------------------------------
 Spheres list:
 ISph  on   Nord     Re0    Alpha      Xe            Ye            Ze
    1   C      1    1.9255  1.100      0.691515      0.498956     -0.013713
    2   C      2    1.9255  1.100     -0.706803      0.506238     -0.000511
    3   H      3    1.4430  1.100     -1.242707      1.451481      0.003217
    4   O      4    1.7500  1.100      1.321924     -0.556259      0.002943
    5   H      5    1.4430  1.100      1.236898      1.488718      0.040966
    6   O      6    1.7500  1.100     -1.309732     -0.565162      0.002202
 ------------------------------------------------------------------------------
 One-electron integrals computed using PRISM.
 NBasis=    86 RedAO= T EigKep=  1.31D-04  NBF=    86
 NBsUse=    86 1.00D-06 EigRej= -1.00D+00 NBFU=    86
 ExpMin= 4.38D-02 ExpMax= 5.48D+03 ExpMxC= 8.25D+02 IAcc=3 IRadAn=         5 AccDes= 0.00D+00
 Harris functional with IExCor=  402 and IRadAn=       5 diagonalized for initial guess.
 HarFok:  IExCor=  402 AccDes= 0.00D+00 IRadAn=         5 IDoV= 1 UseB2=F ITyADJ=14
 ICtDFT=  3500011 ScaDFX=  1.000000  1.000000  1.000000  1.000000
 FoFCou: FMM=F IPFlag=           0 FMFlag=      100000 FMFlg1=           0
         NFxFlg=           0 DoJE=T BraDBF=F KetDBF=T FulRan=T
         wScrn=  0.000000 ICntrl=       500 IOpCl=  0 I1Cent=   200000004 NGrid=           0
         NMat0=    1 NMatS0=      1 NMatT0=    0 NMatD0=    1 NMtDS0=    0 NMtDT0=    0
 Petite list used in FoFCou.
 Keep R1 ints in memory in canonical form, NReq=8817431.
 Requested convergence on RMS density matrix=1.00D-08 within 128 cycles.
 Requested convergence on MAX density matrix=1.00D-06.
 Requested convergence on             energy=1.00D-06.
 No special actions if energy rises.
 Inv3:  Mode=1 IEnd=     1710075.
 Iteration    1 A*A^-1 deviation from unit magnitude is 2.89D-15 for    752.
 Iteration    1 A*A^-1 deviation from orthogonality  is 1.96D-15 for    529    289.
 Iteration    1 A^-1*A deviation from unit magnitude is 3.00D-15 for    744.
 Iteration    1 A^-1*A deviation from orthogonality  is 1.17D-14 for    668    643.
 Error on total polarization charges =  0.00794
 SCF Done:  E(RB3LYP) =  -227.825770177     A.U. after   11 cycles
            NFock= 11  Conv=0.48D-08     -V/T= 2.0086

 **********************************************************************

            Population analysis using the SCF density.

 **********************************************************************

 Orbital symmetries:
       Occupied  (A) (A) (A) (A) (A) (A) (A) (A) (A) (A) (A) (A)
                 (A) (A) (A)
       Virtual   (A) (A) (A) (A) (A) (A) (A) (A) (A) (A) (A) (A)
                 (A) (A) (A) (A) (A) (A) (A) (A) (A) (A) (A) (A)
                 (A) (A) (A) (A) (A) (A) (A) (A) (A) (A) (A) (A)
                 (A) (A) (A) (A) (A) (A) (A) (A) (A) (A) (A) (A)
                 (A) (A) (A) (A) (A) (A) (A) (A) (A) (A) (A) (A)
                 (A) (A) (A) (A) (A) (A) (A) (A) (A) (A) (A)
 The electronic state is 1-A.
 Alpha  occ. eigenvalues --  -19.20285 -19.20268 -10.30938 -10.30680  -1.10326
 Alpha  occ. eigenvalues --   -1.06548  -0.75789  -0.57660  -0.55448  -0.48894
 Alpha  occ. eigenvalues --   -0.46267  -0.45669  -0.39160  -0.32011  -0.29272
 Alpha virt. eigenvalues --   -0.14495   0.01273   0.02216   0.03370   0.03818
 Alpha virt. eigenvalues --    0.06053   0.07232   0.08876   0.10189   0.15292
 Alpha virt. eigenvalues --    0.15761   0.19729   0.20056   0.21353   0.23674
 Alpha virt. eigenvalues --    0.24026   0.25236   0.26346   0.28334   0.32373
 Alpha virt. eigenvalues --    0.34988   0.40009   0.52707   0.61693   0.61803
 Alpha virt. eigenvalues --    0.66387   0.75660   0.77595   0.81084   0.87903
 Alpha virt. eigenvalues --    0.99639   1.12261   1.12457   1.12863   1.14993
 Alpha virt. eigenvalues --    1.20068   1.20417   1.25620   1.26589   1.30970
 Alpha virt. eigenvalues --    1.37717   1.45942   1.48764   1.63334   1.64829
 Alpha virt. eigenvalues --    1.71126   1.73810   1.80124   1.84717   1.97725
 Alpha virt. eigenvalues --    1.99167   2.05287   2.08193   2.19898   2.23743
 Alpha virt. eigenvalues --    2.30032   2.42576   2.45112   2.55282   2.68057
 Alpha virt. eigenvalues --    2.75766   2.79785   2.90706   3.10843   3.16564
 Alpha virt. eigenvalues --    3.22279   3.62174   3.99407   4.26169   4.30361
 Alpha virt. eigenvalues --    4.57224
          Condensed to atoms (all electrons):
               1          2          3          4          5          6
     1  C    5.095599   0.050880  -0.085009   0.499002   0.391165  -0.170013
     2  C    0.050880   5.083297   0.394204  -0.166999  -0.086804   0.499089
     3  H   -0.085009   0.394204   0.564755   0.005157   0.007312  -0.055986
     4  O    0.499002  -0.166999   0.005157   8.110086  -0.057797  -0.001286
     5  H    0.391165  -0.086804   0.007312  -0.057797   0.577839   0.005888
     6  O   -0.170013   0.499089  -0.055986  -0.001286   0.005888   8.110816
 Mulliken charges:
               1
     1  C    0.218376
     2  C    0.226333
     3  H    0.169566
     4  O   -0.388164
     5  H    0.162397
     6  O   -0.388508
 Sum of Mulliken charges =   0.00000
 Mulliken charges with hydrogens summed into heavy atoms:
               1
     1  C    0.380773
     2  C    0.395899
     4  O   -0.388164
     6  O   -0.388508
 Electronic spatial extent (au):  <R**2>=            227.1324
 Charge=              0.0000 electrons
 Dipole moment (field-independent basis, Debye):
    X=             -0.1158    Y=              4.9006    Z=             -0.0111  Tot=              4.9020
 Quadrupole moment (field-independent basis, Debye-Ang):
   XX=            -27.0680   YY=            -21.5948   ZZ=            -21.3275
   XY=             -0.1449   XZ=              0.0231   YZ=              0.0198
 Traceless Quadrupole moment (field-independent basis, Debye-Ang):
   XX=             -3.7379   YY=              1.7353   ZZ=              2.0026
   XY=             -0.1449   XZ=              0.0231   YZ=              0.0198
 Octapole moment (field-independent basis, Debye-Ang**2):
  XXX=             -0.3817  YYY=              3.1134  ZZZ=              0.0040  XYY=             -0.1616
  XXY=              6.9365  XXZ=             -0.0263  XZZ=             -0.0830  YZZ=             -0.5630
  YYZ=              0.0926  XYZ=              0.0474
 Hexadecapole moment (field-independent basis, Debye-Ang**3):
 XXXX=           -199.0077 YYYY=            -72.9966 ZZZZ=            -18.9289 XXXY=             -0.5901
 XXXZ=              0.1051 YYYX=             -0.3505 YYYZ=              0.0892 ZZZX=              0.0245
 ZZZY=             -0.0402 XXYY=            -40.4184 XXZZ=            -32.8961 YYZZ=            -15.8771
 XXYZ=              0.1162 YYXZ=              0.1348 ZZXY=             -0.1179
 N-N= 1.057448956308D+02 E-N=-7.453550473739D+02  KE= 2.258860166568D+02
 1\1\GINC-NODE62\SP\RB3LYP\6-31+G(d,p)\C2H2O2\YANZ\22-Sep-2023\0\\# b3l
 yp/6-31+g(d,p) scrf=(iefpcm,solvent=acetonitrile)\\tmpdir/M2_conf_0_20
 .gjf\\0,1\C,0,0.,0.,0.\C,0,1.3984,0.,0.\H,0,1.93923,0.,0.94244\O,0,-0.
 63571,0.02112,-1.05195\H,0,-0.53968,0.06123,0.9925\O,0,1.99574,-0.0045
 ,-1.07452\\Version=ES64L-G16RevA.03\State=1-A\HF=-227.8257702\RMSD=4.8
 08e-09\Dipole=0.0555474,-0.0020512,1.9277863\Quadrupole=-2.7777646,1.4
 888839,1.2888806,0.0233678,0.1290513,0.0133293\PG=C01 [X(C2H2O2)]\\@


 CURIOUSER AND CURIOUSER

                  -- ALICE, IN WONDERLAND
 Job cpu time:       0 days  0 hours  0 minutes 23.7 seconds.
 Elapsed time:       0 days  0 hours  0 minutes 12.0 seconds.
 File lengths (MBytes):  RWF=     16 Int=      0 D2E=      0 Chk=      2 Scr=      1
 Normal termination of Gaussian 16 at Fri Sep 22 17:10:38 2023.
