 Entering Gaussian System, Link 0=g16
 Initial command:
 /share/apps/gaussian/g16/l1.exe "/tmp/55647.mgr/Gau-3353.inp" -scrdir="/tmp/55647.mgr/"
 Entering Link 1 = /share/apps/gaussian/g16/l1.exe PID=      3354.
  
 Copyright (c) 1988,1990,1992,1993,1995,1998,2003,2009,2016,
            Gaussian, Inc.  All Rights Reserved.
  
 This is part of the Gaussian(R) 16 program.  It is based on
 the Gaussian(R) 09 system (copyright 2009, Gaussian, Inc.),
 the Gaussian(R) 03 system (copyright 2003, Gaussian, Inc.),
 the Gaussian(R) 98 system (copyright 1998, Gaussian, Inc.),
 the Gaussian(R) 94 system (copyright 1995, Gaussian, Inc.),
 the Gaussian 92(TM) system (copyright 1992, Gaussian, Inc.),
 the Gaussian 90(TM) system (copyright 1990, Gaussian, Inc.),
 the Gaussian 88(TM) system (copyright 1988, Gaussian, Inc.),
 the Gaussian 86(TM) system (copyright 1986, Carnegie Mellon
 University), and the Gaussian 82(TM) system (copyright 1983,
 Carnegie Mellon University). Gaussian is a federally registered
 trademark of Gaussian, Inc.
  
 This software contains proprietary and confidential information,
 including trade secrets, belonging to Gaussian, Inc.
  
 This software is provided under written license and may be
 used, copied, transmitted, or stored only in accord with that
 written license.
  
 The following legend is applicable only to US Government
 contracts under FAR:
  
                    RESTRICTED RIGHTS LEGEND
  
 Use, reproduction and disclosure by the US Government is
 subject to restrictions as set forth in subparagraphs (a)
 and (c) of the Commercial Computer Software - Restricted
 Rights clause in FAR 52.227-19.
  
 Gaussian, Inc.
 340 Quinnipiac St., Bldg. 40, Wallingford CT 06492
  
  
 ---------------------------------------------------------------
 Warning -- This program may not be used in any manner that
 competes with the business of Gaussian, Inc. or will provide
 assistance to any competitor of Gaussian, Inc.  The licensee
 of this program is prohibited from giving any competitor of
 Gaussian, Inc. access to this program.  By using this program,
 the user acknowledges that Gaussian, Inc. is engaged in the
 business of creating and licensing software in the field of
 computational chemistry and represents and warrants to the
 licensee that it is not a competitor of Gaussian, Inc. and that
 it will not use this program in any manner prohibited above.
 ---------------------------------------------------------------
  

 Cite this work as:
 Gaussian 16, Revision A.03,
 M. J. Frisch, G. W. Trucks, H. B. Schlegel, G. E. Scuseria, 
 M. A. Robb, J. R. Cheeseman, G. Scalmani, V. Barone, 
 G. A. Petersson, H. Nakatsuji, X. Li, M. Caricato, A. V. Marenich, 
 J. Bloino, B. G. Janesko, R. Gomperts, B. Mennucci, H. P. Hratchian, 
 J. V. Ortiz, A. F. Izmaylov, J. L. Sonnenberg, D. Williams-Young, 
 F. Ding, F. Lipparini, F. Egidi, J. Goings, B. Peng, A. Petrone, 
 T. Henderson, D. Ranasinghe, V. G. Zakrzewski, J. Gao, N. Rega, 
 G. Zheng, W. Liang, M. Hada, M. Ehara, K. Toyota, R. Fukuda, 
 J. Hasegawa, M. Ishida, T. Nakajima, Y. Honda, O. Kitao, H. Nakai, 
 T. Vreven, K. Throssell, J. A. Montgomery, Jr., J. E. Peralta, 
 F. Ogliaro, M. J. Bearpark, J. J. Heyd, E. N. Brothers, K. N. Kudin, 
 V. N. Staroverov, T. A. Keith, R. Kobayashi, J. Normand, 
 K. Raghavachari, A. P. Rendell, J. C. Burant, S. S. Iyengar, 
 J. Tomasi, M. Cossi, J. M. Millam, M. Klene, C. Adamo, R. Cammi, 
 J. W. Ochterski, R. L. Martin, K. Morokuma, O. Farkas, 
 J. B. Foresman, and D. J. Fox, Gaussian, Inc., Wallingford CT, 2016.
 
 ******************************************
 Gaussian 16:  ES64L-G16RevA.03 25-Dec-2016
                22-Sep-2023 
 ******************************************
 %nprocshared=2
 Will use up to    2 processors via shared memory.
 %mem=2GB
 ------------------------------------------------------
 # b3lyp/6-31+g(d,p) scrf=(iefpcm,solvent=acetonitrile)
 ------------------------------------------------------
 1/38=1,172=1/1;
 2/12=2,17=6,18=5,40=1/2;
 3/5=1,6=6,7=111,11=2,25=1,30=1,70=2201,72=2,74=-5/1,2,3;
 4//1;
 5/5=2,38=5,53=2/2;
 6/7=2,8=2,9=2,10=2,28=1/1;
 99/5=1,9=1/99;
 ------------------------
 tmpdir/M2_conf_0_114.gjf
 ------------------------
 Symbolic Z-matrix:
 Charge =  0 Multiplicity = 1
 O                     0.        0.        0. 
 S                     1.4832    0.        0. 
 C                     2.04479   0.        1.7091 
 H                     1.91886   1.26203  -0.49408 
 O                     2.18948  -1.07746  -0.72785 
 O                     3.15964  -0.4559    1.97144 
 H                     1.44128   0.38323   2.42552 
 
                          Input orientation:                          
 ---------------------------------------------------------------------
 Center     Atomic      Atomic             Coordinates (Angstroms)
 Number     Number       Type             X           Y           Z
 ---------------------------------------------------------------------
      1          8           0        0.000000    0.000000    0.000000
      2         16           0        1.483200    0.000000    0.000000
      3          6           0        2.044790    0.000000    1.709100
      4          1           0        1.918860    1.262030   -0.494080
      5          8           0        2.189480   -1.077460   -0.727850
      6          8           0        3.159640   -0.455900    1.971440
      7          1           0        1.441280    0.383230    2.425520
 ---------------------------------------------------------------------
                    Distance matrix (angstroms):
                    1          2          3          4          5
     1  O    0.000000
     2  S    1.483200   0.000000
     3  C    2.664993   1.799001   0.000000
     4  H    2.349225   1.423599   2.542161   0.000000
     5  O    2.546470   1.479702   2.668442   2.366664   0.000000
     6  O    3.752032   2.627712   1.232703   3.251093   2.934913
     7  H    2.847332   2.455966   1.012100   3.086169   3.554878
                    6          7
     6  O    0.000000
     7  H    1.965474   0.000000
 Stoichiometry    CH2O3S
 Framework group  C1[X(CH2O3S)]
 Deg. of freedom    15
 Full point group                 C1      NOp   1
 Largest Abelian subgroup         C1      NOp   1
 Largest concise Abelian subgroup C1      NOp   1
                         Standard orientation:                         
 ---------------------------------------------------------------------
 Center     Atomic      Atomic             Coordinates (Angstroms)
 Number     Number       Type             X           Y           Z
 ---------------------------------------------------------------------
      1          8           0       -1.504415   -0.908504   -0.319813
      2         16           0       -0.505292    0.034405    0.239258
      3          6           0        1.133021   -0.657819   -0.031231
      4          1           0       -0.641769    0.024140    1.656263
      5          8           0       -0.510034    1.434423   -0.239746
      6          8           0        2.101151    0.103197   -0.087224
      7          1           0        1.234702   -1.660632   -0.122735
 ---------------------------------------------------------------------
 Rotational constants (GHZ):           8.2206137           3.5140529           2.6491529
 Standard basis: 6-31+G(d,p) (6D, 7F)
 There are   109 symmetry adapted cartesian basis functions of A   symmetry.
 There are   109 symmetry adapted basis functions of A   symmetry.
   109 basis functions,   198 primitive gaussians,   109 cartesian basis functions
    24 alpha electrons       24 beta electrons
       nuclear repulsion energy       242.6575072081 Hartrees.
 NAtoms=    7 NActive=    7 NUniq=    7 SFac= 1.00D+00 NAtFMM=   60 NAOKFM=F Big=F
 Integral buffers will be    131072 words long.
 Raffenetti 2 integral format.
 Two-electron integral symmetry is turned on.
 ------------------------------------------------------------------------------
 Polarizable Continuum Model (PCM)
 =================================
 Model                : PCM.
 Atomic radii         : UFF (Universal Force Field).
 Polarization charges : Total charges.
 Charge compensation  : None.
 Solution method      : On-the-fly selection.
 Cavity type          : Scaled VdW (van der Waals Surface) (Alpha=1.100).
 Cavity algorithm     : GePol (No added spheres)
                        Default sphere list used, NSphG=    7.
                        Lebedev-Laikov grids with approx.  5.0 points / Ang**2.
                        Smoothing algorithm: York/Karplus (Gamma=1.0000).
                        Polarization charges: spherical gaussians, with
                                              point-specific exponents (IZeta= 3).
                        Self-potential: point-specific (ISelfS= 7).
                        Self-field    : sphere-specific E.n sum rule (ISelfD= 2).
 Solvent              : Acetonitrile, Eps=  35.688000 Eps(inf)=   1.806874
 ------------------------------------------------------------------------------
 Spheres list:
 ISph  on   Nord     Re0    Alpha      Xe            Ye            Ze
    1   O      1    1.7500  1.100     -1.504415     -0.908504     -0.319813
    2   S      2    2.0175  1.100     -0.505292      0.034405      0.239258
    3   C      3    1.9255  1.100      1.133021     -0.657819     -0.031231
    4   H      4    1.4430  1.100     -0.641769      0.024140      1.656263
    5   O      5    1.7500  1.100     -0.510034      1.434423     -0.239746
    6   O      6    1.7500  1.100      2.101151      0.103197     -0.087224
    7   H      7    1.4430  1.100      1.234702     -1.660632     -0.122735
 ------------------------------------------------------------------------------
 One-electron integrals computed using PRISM.
 NBasis=   109 RedAO= T EigKep=  5.10D-04  NBF=   109
 NBsUse=   109 1.00D-06 EigRej= -1.00D+00 NBFU=   109
 ExpMin= 4.05D-02 ExpMax= 2.19D+04 ExpMxC= 3.30D+03 IAcc=3 IRadAn=         5 AccDes= 0.00D+00
 Harris functional with IExCor=  402 and IRadAn=       5 diagonalized for initial guess.
 HarFok:  IExCor=  402 AccDes= 0.00D+00 IRadAn=         5 IDoV= 1 UseB2=F ITyADJ=14
 ICtDFT=  3500011 ScaDFX=  1.000000  1.000000  1.000000  1.000000
 FoFCou: FMM=F IPFlag=           0 FMFlag=      100000 FMFlg1=           0
         NFxFlg=           0 DoJE=T BraDBF=F KetDBF=T FulRan=T
         wScrn=  0.000000 ICntrl=       500 IOpCl=  0 I1Cent=   200000004 NGrid=           0
         NMat0=    1 NMatS0=      1 NMatT0=    0 NMatD0=    1 NMtDS0=    0 NMtDT0=    0
 Petite list used in FoFCou.
 Keep R1 ints in memory in canonical form, NReq=19840810.
 Requested convergence on RMS density matrix=1.00D-08 within 128 cycles.
 Requested convergence on MAX density matrix=1.00D-06.
 Requested convergence on             energy=1.00D-06.
 No special actions if energy rises.
 Inv3:  Mode=1 IEnd=     2617068.
 Iteration    1 A*A^-1 deviation from unit magnitude is 3.77D-15 for    924.
 Iteration    1 A*A^-1 deviation from orthogonality  is 1.86D-15 for    919    154.
 Iteration    1 A^-1*A deviation from unit magnitude is 3.77D-15 for    924.
 Iteration    1 A^-1*A deviation from orthogonality  is 1.39D-15 for    791    345.
 Error on total polarization charges =  0.00938
 SCF Done:  E(RB3LYP) =  -663.071480120     A.U. after   13 cycles
            NFock= 13  Conv=0.43D-08     -V/T= 2.0060

 **********************************************************************

            Population analysis using the SCF density.

 **********************************************************************

 Orbital symmetries:
       Occupied  (A) (A) (A) (A) (A) (A) (A) (A) (A) (A) (A) (A)
                 (A) (A) (A) (A) (A) (A) (A) (A) (A) (A) (A) (A)
       Virtual   (A) (A) (A) (A) (A) (A) (A) (A) (A) (A) (A) (A)
                 (A) (A) (A) (A) (A) (A) (A) (A) (A) (A) (A) (A)
                 (A) (A) (A) (A) (A) (A) (A) (A) (A) (A) (A) (A)
                 (A) (A) (A) (A) (A) (A) (A) (A) (A) (A) (A) (A)
                 (A) (A) (A) (A) (A) (A) (A) (A) (A) (A) (A) (A)
                 (A) (A) (A) (A) (A) (A) (A) (A) (A) (A) (A) (A)
                 (A) (A) (A) (A) (A) (A) (A) (A) (A) (A) (A) (A)
                 (A)
 The electronic state is 1-A.
 Alpha  occ. eigenvalues --  -89.13206 -19.23776 -19.18678 -19.18548 -10.34758
 Alpha  occ. eigenvalues --   -8.16361  -6.12766  -6.12703  -6.12652  -1.13838
 Alpha  occ. eigenvalues --   -1.10593  -1.03089  -0.77653  -0.65994  -0.57960
 Alpha  occ. eigenvalues --   -0.52841  -0.51404  -0.48025  -0.44689  -0.38932
 Alpha  occ. eigenvalues --   -0.36108  -0.35620  -0.33973  -0.30954
 Alpha virt. eigenvalues --   -0.12800  -0.01904   0.00101   0.01358   0.02455
 Alpha virt. eigenvalues --    0.04830   0.06520   0.07317   0.08226   0.09099
 Alpha virt. eigenvalues --    0.09501   0.11653   0.14048   0.15476   0.17399
 Alpha virt. eigenvalues --    0.19868   0.21750   0.22532   0.23642   0.24280
 Alpha virt. eigenvalues --    0.25629   0.25943   0.26534   0.28214   0.30005
 Alpha virt. eigenvalues --    0.32521   0.37503   0.42858   0.48115   0.53218
 Alpha virt. eigenvalues --    0.60364   0.61339   0.65859   0.69419   0.73697
 Alpha virt. eigenvalues --    0.77457   0.90225   0.93240   0.94742   1.02688
 Alpha virt. eigenvalues --    1.08354   1.08553   1.15476   1.17120   1.19252
 Alpha virt. eigenvalues --    1.20024   1.22653   1.23728   1.25169   1.26158
 Alpha virt. eigenvalues --    1.27588   1.40474   1.47052   1.49852   1.53205
 Alpha virt. eigenvalues --    1.55454   1.71421   1.77606   1.78026   1.78691
 Alpha virt. eigenvalues --    1.79665   1.81155   1.81218   1.86804   1.95479
 Alpha virt. eigenvalues --    1.97980   2.04486   2.14212   2.16926   2.20148
 Alpha virt. eigenvalues --    2.29657   2.38651   2.47757   2.58281   2.59611
 Alpha virt. eigenvalues --    2.75351   2.81367   2.90728   2.97113   3.52145
 Alpha virt. eigenvalues --    3.91972   3.97910   4.01994   4.13708   4.30876
          Condensed to atoms (all electrons):
               1          2          3          4          5          6
     1  O    8.716549   0.131031  -0.045495  -0.069728  -0.134668   0.010418
     2  S    0.131031  14.280328   0.027308   0.332432   0.226619  -0.097114
     3  C   -0.045495   0.027308   5.367538  -0.041124  -0.100808   0.401197
     4  H   -0.069728   0.332432  -0.041124   0.729066  -0.068473  -0.002576
     5  O   -0.134668   0.226619  -0.100808  -0.068473   8.670898   0.016865
     6  O    0.010418  -0.097114   0.401197  -0.002576   0.016865   8.015151
     7  H    0.004858  -0.039109   0.344572   0.002305   0.007614  -0.049202
               7
     1  O    0.004858
     2  S   -0.039109
     3  C    0.344572
     4  H    0.002305
     5  O    0.007614
     6  O   -0.049202
     7  H    0.506630
 Mulliken charges:
               1
     1  O   -0.612964
     2  S    1.138505
     3  C    0.046813
     4  H    0.118099
     5  O   -0.618048
     6  O   -0.294738
     7  H    0.222333
 Sum of Mulliken charges =  -0.00000
 Mulliken charges with hydrogens summed into heavy atoms:
               1
     1  O   -0.612964
     2  S    1.256604
     3  C    0.269145
     5  O   -0.618048
     6  O   -0.294738
 Electronic spatial extent (au):  <R**2>=            451.8113
 Charge=             -0.0000 electrons
 Dipole moment (field-independent basis, Debye):
    X=              1.7466    Y=             -3.3671    Z=              3.4512  Tot=              5.1282
 Quadrupole moment (field-independent basis, Debye-Ang):
   XX=            -43.4200   YY=            -39.1347   ZZ=            -31.5163
   XY=             -5.0548   XZ=             -2.7407   YZ=              0.3571
 Traceless Quadrupole moment (field-independent basis, Debye-Ang):
   XX=             -5.3963   YY=             -1.1110   ZZ=              6.5074
   XY=             -5.0548   XZ=             -2.7407   YZ=              0.3571
 Octapole moment (field-independent basis, Debye-Ang**2):
  XXX=             -4.5131  YYY=             -9.8161  ZZZ=              5.6096  XYY=              9.1998
  XXY=              0.5247  XXZ=              4.2462  XZZ=             -0.4286  YZZ=             -0.0694
  YYZ=              1.8642  XYZ=              0.6160
 Hexadecapole moment (field-independent basis, Debye-Ang**3):
 XXXX=           -377.4682 YYYY=           -164.6452 ZZZZ=            -47.0611 XXXY=            -12.1148
 XXXZ=             -2.5693 YYYX=             -5.9863 YYYZ=              0.8802 ZZZX=             -4.5741
 ZZZY=              0.2473 XXYY=            -84.0418 XXZZ=            -62.5355 YYZZ=            -36.2068
 XXYZ=             -0.5515 YYXZ=             -1.9874 ZZXY=             -0.7153
 N-N= 2.426575072081D+02 E-N=-2.051726562923D+03  KE= 6.591390762341D+02
 1\1\GINC-NODE62\SP\RB3LYP\6-31+G(d,p)\C1H2O3S1\YANZ\22-Sep-2023\0\\# b
 3lyp/6-31+g(d,p) scrf=(iefpcm,solvent=acetonitrile)\\tmpdir/M2_conf_0_
 114.gjf\\0,1\O,0,0.,0.,0.\S,0,1.4832,0.,0.\C,0,2.04479,0.,1.7091\H,0,1
 .91886,1.26203,-0.49408\O,0,2.18948,-1.07746,-0.72785\O,0,3.15964,-0.4
 559,1.97144\H,0,1.44128,0.38323,2.42552\\Version=ES64L-G16RevA.03\Stat
 e=1-A\HF=-663.0714801\RMSD=4.275e-09\Dipole=0.1325449,1.7820002,0.9368
 121\Quadrupole=-5.5933394,3.3587368,2.2346026,2.2353354,-2.6798044,-1.
 5751061\PG=C01 [X(C1H2O3S1)]\\@


 I WISH TO HAVE NO CONNECTION WITH ANY SHIP THAT DOES NOT SAIL FAST,
 FOR I INTEND TO GO IN HARM'S WAY.
     -- JOHN PAUL JONES, USN 1747-1792
 Job cpu time:       0 days  0 hours  0 minutes 46.3 seconds.
 Elapsed time:       0 days  0 hours  0 minutes 23.7 seconds.
 File lengths (MBytes):  RWF=     26 Int=      0 D2E=      0 Chk=      2 Scr=      1
 Normal termination of Gaussian 16 at Fri Sep 22 17:12:07 2023.
