 Entering Gaussian System, Link 0=g16
 Initial command:
 /share/apps/gaussian/g16/l1.exe "/tmp/55647.mgr/Gau-3400.inp" -scrdir="/tmp/55647.mgr/"
 Entering Link 1 = /share/apps/gaussian/g16/l1.exe PID=      3401.
  
 Copyright (c) 1988,1990,1992,1993,1995,1998,2003,2009,2016,
            Gaussian, Inc.  All Rights Reserved.
  
 This is part of the Gaussian(R) 16 program.  It is based on
 the Gaussian(R) 09 system (copyright 2009, Gaussian, Inc.),
 the Gaussian(R) 03 system (copyright 2003, Gaussian, Inc.),
 the Gaussian(R) 98 system (copyright 1998, Gaussian, Inc.),
 the Gaussian(R) 94 system (copyright 1995, Gaussian, Inc.),
 the Gaussian 92(TM) system (copyright 1992, Gaussian, Inc.),
 the Gaussian 90(TM) system (copyright 1990, Gaussian, Inc.),
 the Gaussian 88(TM) system (copyright 1988, Gaussian, Inc.),
 the Gaussian 86(TM) system (copyright 1986, Carnegie Mellon
 University), and the Gaussian 82(TM) system (copyright 1983,
 Carnegie Mellon University). Gaussian is a federally registered
 trademark of Gaussian, Inc.
  
 This software contains proprietary and confidential information,
 including trade secrets, belonging to Gaussian, Inc.
  
 This software is provided under written license and may be
 used, copied, transmitted, or stored only in accord with that
 written license.
  
 The following legend is applicable only to US Government
 contracts under FAR:
  
                    RESTRICTED RIGHTS LEGEND
  
 Use, reproduction and disclosure by the US Government is
 subject to restrictions as set forth in subparagraphs (a)
 and (c) of the Commercial Computer Software - Restricted
 Rights clause in FAR 52.227-19.
  
 Gaussian, Inc.
 340 Quinnipiac St., Bldg. 40, Wallingford CT 06492
  
  
 ---------------------------------------------------------------
 Warning -- This program may not be used in any manner that
 competes with the business of Gaussian, Inc. or will provide
 assistance to any competitor of Gaussian, Inc.  The licensee
 of this program is prohibited from giving any competitor of
 Gaussian, Inc. access to this program.  By using this program,
 the user acknowledges that Gaussian, Inc. is engaged in the
 business of creating and licensing software in the field of
 computational chemistry and represents and warrants to the
 licensee that it is not a competitor of Gaussian, Inc. and that
 it will not use this program in any manner prohibited above.
 ---------------------------------------------------------------
  

 Cite this work as:
 Gaussian 16, Revision A.03,
 M. J. Frisch, G. W. Trucks, H. B. Schlegel, G. E. Scuseria, 
 M. A. Robb, J. R. Cheeseman, G. Scalmani, V. Barone, 
 G. A. Petersson, H. Nakatsuji, X. Li, M. Caricato, A. V. Marenich, 
 J. Bloino, B. G. Janesko, R. Gomperts, B. Mennucci, H. P. Hratchian, 
 J. V. Ortiz, A. F. Izmaylov, J. L. Sonnenberg, D. Williams-Young, 
 F. Ding, F. Lipparini, F. Egidi, J. Goings, B. Peng, A. Petrone, 
 T. Henderson, D. Ranasinghe, V. G. Zakrzewski, J. Gao, N. Rega, 
 G. Zheng, W. Liang, M. Hada, M. Ehara, K. Toyota, R. Fukuda, 
 J. Hasegawa, M. Ishida, T. Nakajima, Y. Honda, O. Kitao, H. Nakai, 
 T. Vreven, K. Throssell, J. A. Montgomery, Jr., J. E. Peralta, 
 F. Ogliaro, M. J. Bearpark, J. J. Heyd, E. N. Brothers, K. N. Kudin, 
 V. N. Staroverov, T. A. Keith, R. Kobayashi, J. Normand, 
 K. Raghavachari, A. P. Rendell, J. C. Burant, S. S. Iyengar, 
 J. Tomasi, M. Cossi, J. M. Millam, M. Klene, C. Adamo, R. Cammi, 
 J. W. Ochterski, R. L. Martin, K. Morokuma, O. Farkas, 
 J. B. Foresman, and D. J. Fox, Gaussian, Inc., Wallingford CT, 2016.
 
 ******************************************
 Gaussian 16:  ES64L-G16RevA.03 25-Dec-2016
                22-Sep-2023 
 ******************************************
 %nprocshared=2
 Will use up to    2 processors via shared memory.
 %mem=2GB
 ------------------------------------------------------
 # b3lyp/6-31+g(d,p) scrf=(iefpcm,solvent=acetonitrile)
 ------------------------------------------------------
 1/38=1,172=1/1;
 2/12=2,17=6,18=5,40=1/2;
 3/5=1,6=6,7=111,11=2,25=1,30=1,70=2201,72=2,74=-5/1,2,3;
 4//1;
 5/5=2,38=5,53=2/2;
 6/7=2,8=2,9=2,10=2,28=1/1;
 99/5=1,9=1/99;
 ------------------------
 tmpdir/M2_conf_0_123.gjf
 ------------------------
 Symbolic Z-matrix:
 Charge =  0 Multiplicity = 1
 C                     0.        0.        0. 
 C                     1.3982    0.        0. 
 H                     1.9452    0.        0.93645 
 H                    -0.54483  -0.02335   0.98342 
 H                    -0.53513   0.01005  -0.859 
 H                     1.88381   0.01207  -0.88654 
 
                          Input orientation:                          
 ---------------------------------------------------------------------
 Center     Atomic      Atomic             Coordinates (Angstroms)
 Number     Number       Type             X           Y           Z
 ---------------------------------------------------------------------
      1          6           0        0.000000    0.000000    0.000000
      2          6           0        1.398200    0.000000    0.000000
      3          1           0        1.945200    0.000000    0.936450
      4          1           0       -0.544830   -0.023350    0.983420
      5          1           0       -0.535130    0.010050   -0.859000
      6          1           0        1.883810    0.012070   -0.886540
 ---------------------------------------------------------------------
                    Distance matrix (angstroms):
                    1          2          3          4          5
     1  C    0.000000
     2  C    1.398200   0.000000
     3  H    2.158875   1.084503   0.000000
     4  H    1.124500   2.177849   2.490582   0.000000
     5  H    1.012100   2.115596   3.061989   1.842748   0.000000
     6  H    2.082028   1.010899   1.824063   3.065338   2.419098
                    6
     6  H    0.000000
 Stoichiometry    C2H4
 Framework group  C1[X(C2H4)]
 Deg. of freedom    12
 Full point group                 C1      NOp   1
 Largest Abelian subgroup         C1      NOp   1
 Largest concise Abelian subgroup C1      NOp   1
                         Standard orientation:                         
 ---------------------------------------------------------------------
 Center     Atomic      Atomic             Coordinates (Angstroms)
 Number     Number       Type             X           Y           Z
 ---------------------------------------------------------------------
      1          6           0        0.696069   -0.014680    0.001718
      2          6           0       -0.702106   -0.007079   -0.001852
      3          1           0       -1.244035    0.932258    0.008482
      4          1           0        1.246265    0.965978   -0.007921
      5          1           0        1.226521   -0.876636    0.002373
      6          1           0       -1.192530   -0.891047   -0.002128
 ---------------------------------------------------------------------
 Rotational constants (GHZ):         148.9153755          28.3852799          23.8413581
 Standard basis: 6-31+G(d,p) (6D, 7F)
 There are    58 symmetry adapted cartesian basis functions of A   symmetry.
 There are    58 symmetry adapted basis functions of A   symmetry.
    58 basis functions,    92 primitive gaussians,    58 cartesian basis functions
     8 alpha electrons        8 beta electrons
       nuclear repulsion energy        32.9623874114 Hartrees.
 NAtoms=    6 NActive=    6 NUniq=    6 SFac= 1.00D+00 NAtFMM=   60 NAOKFM=F Big=F
 Integral buffers will be    131072 words long.
 Raffenetti 2 integral format.
 Two-electron integral symmetry is turned on.
 ------------------------------------------------------------------------------
 Polarizable Continuum Model (PCM)
 =================================
 Model                : PCM.
 Atomic radii         : UFF (Universal Force Field).
 Polarization charges : Total charges.
 Charge compensation  : None.
 Solution method      : On-the-fly selection.
 Cavity type          : Scaled VdW (van der Waals Surface) (Alpha=1.100).
 Cavity algorithm     : GePol (No added spheres)
                        Default sphere list used, NSphG=    6.
                        Lebedev-Laikov grids with approx.  5.0 points / Ang**2.
                        Smoothing algorithm: York/Karplus (Gamma=1.0000).
                        Polarization charges: spherical gaussians, with
                                              point-specific exponents (IZeta= 3).
                        Self-potential: point-specific (ISelfS= 7).
                        Self-field    : sphere-specific E.n sum rule (ISelfD= 2).
 Solvent              : Acetonitrile, Eps=  35.688000 Eps(inf)=   1.806874
 ------------------------------------------------------------------------------
 Spheres list:
 ISph  on   Nord     Re0    Alpha      Xe            Ye            Ze
    1   C      1    1.9255  1.100      0.696069     -0.014680      0.001718
    2   C      2    1.9255  1.100     -0.702106     -0.007079     -0.001852
    3   H      3    1.4430  1.100     -1.244035      0.932258      0.008482
    4   H      4    1.4430  1.100      1.246265      0.965978     -0.007921
    5   H      5    1.4430  1.100      1.226521     -0.876636      0.002373
    6   H      6    1.4430  1.100     -1.192530     -0.891047     -0.002128
 ------------------------------------------------------------------------------
 One-electron integrals computed using PRISM.
 NBasis=    58 RedAO= T EigKep=  2.84D-04  NBF=    58
 NBsUse=    58 1.00D-06 EigRej= -1.00D+00 NBFU=    58
 ExpMin= 4.38D-02 ExpMax= 3.05D+03 ExpMxC= 4.57D+02 IAcc=3 IRadAn=         5 AccDes= 0.00D+00
 Harris functional with IExCor=  402 and IRadAn=       5 diagonalized for initial guess.
 HarFok:  IExCor=  402 AccDes= 0.00D+00 IRadAn=         5 IDoV= 1 UseB2=F ITyADJ=14
 ICtDFT=  3500011 ScaDFX=  1.000000  1.000000  1.000000  1.000000
 FoFCou: FMM=F IPFlag=           0 FMFlag=      100000 FMFlg1=           0
         NFxFlg=           0 DoJE=T BraDBF=F KetDBF=T FulRan=T
         wScrn=  0.000000 ICntrl=       500 IOpCl=  0 I1Cent=   200000004 NGrid=           0
         NMat0=    1 NMatS0=      1 NMatT0=    0 NMatD0=    1 NMtDS0=    0 NMtDT0=    0
 Petite list used in FoFCou.
 Keep R1 ints in memory in canonical form, NReq=3224596.
 Requested convergence on RMS density matrix=1.00D-08 within 128 cycles.
 Requested convergence on MAX density matrix=1.00D-06.
 Requested convergence on             energy=1.00D-06.
 No special actions if energy rises.
 Inv3:  Mode=1 IEnd=     1168128.
 Iteration    1 A*A^-1 deviation from unit magnitude is 3.33D-15 for    615.
 Iteration    1 A*A^-1 deviation from orthogonality  is 1.33D-15 for    474    217.
 Iteration    1 A^-1*A deviation from unit magnitude is 3.44D-15 for    624.
 Iteration    1 A^-1*A deviation from orthogonality  is 1.80D-15 for    343    156.
 Error on total polarization charges =  0.01290
 SCF Done:  E(RB3LYP) =  -78.5876275334     A.U. after    9 cycles
            NFock=  9  Conv=0.59D-08     -V/T= 2.0105

 **********************************************************************

            Population analysis using the SCF density.

 **********************************************************************

 Orbital symmetries:
       Occupied  (A) (A) (A) (A) (A) (A) (A) (A)
       Virtual   (A) (A) (A) (A) (A) (A) (A) (A) (A) (A) (A) (A)
                 (A) (A) (A) (A) (A) (A) (A) (A) (A) (A) (A) (A)
                 (A) (A) (A) (A) (A) (A) (A) (A) (A) (A) (A) (A)
                 (A) (A) (A) (A) (A) (A) (A) (A) (A) (A) (A) (A)
                 (A) (A)
 The electronic state is 1-A.
 Alpha  occ. eigenvalues --  -10.19942 -10.19590  -0.75759  -0.59712  -0.47908
 Alpha  occ. eigenvalues --   -0.41332  -0.37536  -0.27114
 Alpha virt. eigenvalues --   -0.02242   0.02523   0.03679   0.05164   0.06688
 Alpha virt. eigenvalues --    0.08780   0.09059   0.12397   0.15911   0.17661
 Alpha virt. eigenvalues --    0.21918   0.25129   0.32515   0.35320   0.58365
 Alpha virt. eigenvalues --    0.63475   0.67707   0.71504   0.72020   0.81356
 Alpha virt. eigenvalues --    0.90541   0.92626   0.97992   1.02148   1.13030
 Alpha virt. eigenvalues --    1.20263   1.36971   1.38303   1.50252   1.85035
 Alpha virt. eigenvalues --    1.91961   1.96929   1.99442   2.09342   2.11626
 Alpha virt. eigenvalues --    2.24924   2.35674   2.50597   2.50668   2.55926
 Alpha virt. eigenvalues --    2.72530   2.75749   2.77235   2.99442   3.22048
 Alpha virt. eigenvalues --    3.47220   3.56575   3.78537   4.20314   4.49804
          Condensed to atoms (all electrons):
               1          2          3          4          5          6
     1  C    4.917560   0.660937  -0.030770   0.384958   0.400118  -0.035485
     2  C    0.660937   4.904400   0.393133  -0.028578  -0.032510   0.402911
     3  H   -0.030770   0.393133   0.523429  -0.007143   0.004120  -0.034662
     4  H    0.384958  -0.028578  -0.007143   0.534389  -0.034370   0.004213
     5  H    0.400118  -0.032510   0.004120  -0.034370   0.519425  -0.007573
     6  H   -0.035485   0.402911  -0.034662   0.004213  -0.007573   0.522196
 Mulliken charges:
               1
     1  C   -0.297318
     2  C   -0.300293
     3  H    0.151893
     4  H    0.146531
     5  H    0.150788
     6  H    0.148399
 Sum of Mulliken charges =  -0.00000
 Mulliken charges with hydrogens summed into heavy atoms:
               1
     1  C    0.000001
     2  C   -0.000001
 Electronic spatial extent (au):  <R**2>=             84.7895
 Charge=             -0.0000 electrons
 Dipole moment (field-independent basis, Debye):
    X=             -0.0112    Y=             -0.0535    Z=              0.0012  Tot=              0.0547
 Quadrupole moment (field-independent basis, Debye-Ang):
   XX=            -12.3102   YY=            -12.2157   ZZ=            -16.2291
   XY=             -0.0916   XZ=             -0.0179   YZ=              0.0004
 Traceless Quadrupole moment (field-independent basis, Debye-Ang):
   XX=              1.2748   YY=              1.3693   ZZ=             -2.6442
   XY=             -0.0916   XZ=             -0.0179   YZ=              0.0004
 Octapole moment (field-independent basis, Debye-Ang**2):
  XXX=             -0.0738  YYY=             -0.1990  ZZZ=              0.0030  XYY=             -0.0473
  XXY=             -0.0915  XXZ=              0.0033  XZZ=             -0.0562  YZZ=             -0.1760
  YYZ=              0.0012  XYZ=             -0.0342
 Hexadecapole moment (field-independent basis, Debye-Ang**3):
 XXXX=            -72.5112 YYYY=            -27.2147 ZZZZ=            -23.7597 XXXY=             -0.4697
 XXXZ=             -0.0486 YYYX=             -0.1382 YYYZ=              0.0007 ZZZX=             -0.0223
 ZZZY=              0.0011 XXYY=            -13.9881 XXZZ=            -17.1420 YYZZ=             -9.1580
 XXYZ=              0.0003 YYXZ=             -0.0275 ZZXY=             -0.0781
 N-N= 3.296238741145D+01 E-N=-2.471509924863D+02  KE= 7.777168265309D+01
 1\1\GINC-NODE62\SP\RB3LYP\6-31+G(d,p)\C2H4\YANZ\22-Sep-2023\0\\# b3lyp
 /6-31+g(d,p) scrf=(iefpcm,solvent=acetonitrile)\\tmpdir/M2_conf_0_123.
 gjf\\0,1\C,0,0.,0.,0.\C,0,1.3982,0.,0.\H,0,1.9452,0.,0.93645\H,0,-0.54
 483,-0.02335,0.98342\H,0,-0.53513,0.01005,-0.859\H,0,1.88381,0.01207,-
 0.88654\\Version=ES64L-G16RevA.03\State=1-A\HF=-78.5876275\RMSD=5.859e
 -09\Dipole=0.0042723,0.0007566,-0.0210768\Quadrupole=0.948465,-1.96531
 65,1.0168515,0.0198673,0.0687224,-0.0369875\PG=C01 [X(C2H4)]\\@


 IF GOD HAD MEANT MAN TO SEE THE SUN RISE, HE
 WOULD HAVE SCHEDULED IT FOR A LATER HOUR.
 Job cpu time:       0 days  0 hours  0 minutes 12.2 seconds.
 Elapsed time:       0 days  0 hours  0 minutes  6.2 seconds.
 File lengths (MBytes):  RWF=     13 Int=      0 D2E=      0 Chk=      2 Scr=      1
 Normal termination of Gaussian 16 at Fri Sep 22 17:11:53 2023.
