 Entering Gaussian System, Link 0=g16
 Initial command:
 /share/apps/gaussian/g16/l1.exe "/tmp/55647.mgr/Gau-2059.inp" -scrdir="/tmp/55647.mgr/"
 Entering Link 1 = /share/apps/gaussian/g16/l1.exe PID=      2070.
  
 Copyright (c) 1988,1990,1992,1993,1995,1998,2003,2009,2016,
            Gaussian, Inc.  All Rights Reserved.
  
 This is part of the Gaussian(R) 16 program.  It is based on
 the Gaussian(R) 09 system (copyright 2009, Gaussian, Inc.),
 the Gaussian(R) 03 system (copyright 2003, Gaussian, Inc.),
 the Gaussian(R) 98 system (copyright 1998, Gaussian, Inc.),
 the Gaussian(R) 94 system (copyright 1995, Gaussian, Inc.),
 the Gaussian 92(TM) system (copyright 1992, Gaussian, Inc.),
 the Gaussian 90(TM) system (copyright 1990, Gaussian, Inc.),
 the Gaussian 88(TM) system (copyright 1988, Gaussian, Inc.),
 the Gaussian 86(TM) system (copyright 1986, Carnegie Mellon
 University), and the Gaussian 82(TM) system (copyright 1983,
 Carnegie Mellon University). Gaussian is a federally registered
 trademark of Gaussian, Inc.
  
 This software contains proprietary and confidential information,
 including trade secrets, belonging to Gaussian, Inc.
  
 This software is provided under written license and may be
 used, copied, transmitted, or stored only in accord with that
 written license.
  
 The following legend is applicable only to US Government
 contracts under FAR:
  
                    RESTRICTED RIGHTS LEGEND
  
 Use, reproduction and disclosure by the US Government is
 subject to restrictions as set forth in subparagraphs (a)
 and (c) of the Commercial Computer Software - Restricted
 Rights clause in FAR 52.227-19.
  
 Gaussian, Inc.
 340 Quinnipiac St., Bldg. 40, Wallingford CT 06492
  
  
 ---------------------------------------------------------------
 Warning -- This program may not be used in any manner that
 competes with the business of Gaussian, Inc. or will provide
 assistance to any competitor of Gaussian, Inc.  The licensee
 of this program is prohibited from giving any competitor of
 Gaussian, Inc. access to this program.  By using this program,
 the user acknowledges that Gaussian, Inc. is engaged in the
 business of creating and licensing software in the field of
 computational chemistry and represents and warrants to the
 licensee that it is not a competitor of Gaussian, Inc. and that
 it will not use this program in any manner prohibited above.
 ---------------------------------------------------------------
  

 Cite this work as:
 Gaussian 16, Revision A.03,
 M. J. Frisch, G. W. Trucks, H. B. Schlegel, G. E. Scuseria, 
 M. A. Robb, J. R. Cheeseman, G. Scalmani, V. Barone, 
 G. A. Petersson, H. Nakatsuji, X. Li, M. Caricato, A. V. Marenich, 
 J. Bloino, B. G. Janesko, R. Gomperts, B. Mennucci, H. P. Hratchian, 
 J. V. Ortiz, A. F. Izmaylov, J. L. Sonnenberg, D. Williams-Young, 
 F. Ding, F. Lipparini, F. Egidi, J. Goings, B. Peng, A. Petrone, 
 T. Henderson, D. Ranasinghe, V. G. Zakrzewski, J. Gao, N. Rega, 
 G. Zheng, W. Liang, M. Hada, M. Ehara, K. Toyota, R. Fukuda, 
 J. Hasegawa, M. Ishida, T. Nakajima, Y. Honda, O. Kitao, H. Nakai, 
 T. Vreven, K. Throssell, J. A. Montgomery, Jr., J. E. Peralta, 
 F. Ogliaro, M. J. Bearpark, J. J. Heyd, E. N. Brothers, K. N. Kudin, 
 V. N. Staroverov, T. A. Keith, R. Kobayashi, J. Normand, 
 K. Raghavachari, A. P. Rendell, J. C. Burant, S. S. Iyengar, 
 J. Tomasi, M. Cossi, J. M. Millam, M. Klene, C. Adamo, R. Cammi, 
 J. W. Ochterski, R. L. Martin, K. Morokuma, O. Farkas, 
 J. B. Foresman, and D. J. Fox, Gaussian, Inc., Wallingford CT, 2016.
 
 ******************************************
 Gaussian 16:  ES64L-G16RevA.03 25-Dec-2016
                22-Sep-2023 
 ******************************************
 %nprocshared=2
 Will use up to    2 processors via shared memory.
 %mem=2GB
 ------------------------------------------------------
 # b3lyp/6-31+g(d,p) scrf=(iefpcm,solvent=acetonitrile)
 ------------------------------------------------------
 1/38=1,172=1/1;
 2/12=2,17=6,18=5,40=1/2;
 3/5=1,6=6,7=111,11=2,25=1,30=1,70=2201,72=2,74=-5/1,2,3;
 4//1;
 5/5=2,38=5,53=2/2;
 6/7=2,8=2,9=2,10=2,28=1/1;
 99/5=1,9=1/99;
 -----------------------
 tmpdir/M2_conf_0_21.gjf
 -----------------------
 Symbolic Z-matrix:
 Charge =  0 Multiplicity = 1
 C                     0.        0.        0. 
 C                     1.3944    0.        0. 
 H                     1.93046   0.        0.94517 
 H                    -0.52598  -0.00775  -0.8712 
 H                    -0.53122   0.00232   0.94778 
 H                     1.88625   0.00371  -0.88477 
 
                          Input orientation:                          
 ---------------------------------------------------------------------
 Center     Atomic      Atomic             Coordinates (Angstroms)
 Number     Number       Type             X           Y           Z
 ---------------------------------------------------------------------
      1          6           0        0.000000    0.000000    0.000000
      2          6           0        1.394400    0.000000    0.000000
      3          1           0        1.930460    0.000000    0.945170
      4          1           0       -0.525980   -0.007750   -0.871200
      5          1           0       -0.531220    0.002320    0.947780
      6          1           0        1.886250    0.003710   -0.884770
 ---------------------------------------------------------------------
                    Distance matrix (angstroms):
                    1          2          3          4          5
     1  C    0.000000
     2  C    1.394400   0.000000
     3  H    2.149424   1.086603   0.000000
     4  H    1.017696   2.108770   3.055054   0.000000
     5  H    1.086502   2.146230   2.461682   1.819015   0.000000
     6  H    2.083452   1.012298   1.830478   2.412295   3.033546
                    6
     6  H    0.000000
 Stoichiometry    C2H4
 Framework group  C1[X(C2H4)]
 Deg. of freedom    12
 Full point group                 C1      NOp   1
 Largest Abelian subgroup         C1      NOp   1
 Largest concise Abelian subgroup C1      NOp   1
                         Standard orientation:                         
 ---------------------------------------------------------------------
 Center     Atomic      Atomic             Coordinates (Angstroms)
 Number     Number       Type             X           Y           Z
 ---------------------------------------------------------------------
      1          6           0       -0.695383   -0.007306   -0.000772
      2          6           0        0.699014   -0.009823    0.000532
      3          1           0        1.236777    0.934377    0.002641
      4          1           0       -1.222941   -0.877567    0.005003
      5          1           0       -1.224891    0.941434   -0.001977
      6          1           0        1.189271   -0.895472   -0.004223
 ---------------------------------------------------------------------
 Rotational constants (GHZ):         150.4596086          28.6291562          24.0526393
 Standard basis: 6-31+G(d,p) (6D, 7F)
 There are    58 symmetry adapted cartesian basis functions of A   symmetry.
 There are    58 symmetry adapted basis functions of A   symmetry.
    58 basis functions,    92 primitive gaussians,    58 cartesian basis functions
     8 alpha electrons        8 beta electrons
       nuclear repulsion energy        33.1108169494 Hartrees.
 NAtoms=    6 NActive=    6 NUniq=    6 SFac= 1.00D+00 NAtFMM=   60 NAOKFM=F Big=F
 Integral buffers will be    131072 words long.
 Raffenetti 2 integral format.
 Two-electron integral symmetry is turned on.
 ------------------------------------------------------------------------------
 Polarizable Continuum Model (PCM)
 =================================
 Model                : PCM.
 Atomic radii         : UFF (Universal Force Field).
 Polarization charges : Total charges.
 Charge compensation  : None.
 Solution method      : On-the-fly selection.
 Cavity type          : Scaled VdW (van der Waals Surface) (Alpha=1.100).
 Cavity algorithm     : GePol (No added spheres)
                        Default sphere list used, NSphG=    6.
                        Lebedev-Laikov grids with approx.  5.0 points / Ang**2.
                        Smoothing algorithm: York/Karplus (Gamma=1.0000).
                        Polarization charges: spherical gaussians, with
                                              point-specific exponents (IZeta= 3).
                        Self-potential: point-specific (ISelfS= 7).
                        Self-field    : sphere-specific E.n sum rule (ISelfD= 2).
 Solvent              : Acetonitrile, Eps=  35.688000 Eps(inf)=   1.806874
 ------------------------------------------------------------------------------
 Spheres list:
 ISph  on   Nord     Re0    Alpha      Xe            Ye            Ze
    1   C      1    1.9255  1.100     -0.695383     -0.007306     -0.000772
    2   C      2    1.9255  1.100      0.699014     -0.009823      0.000532
    3   H      3    1.4430  1.100      1.236777      0.934377      0.002641
    4   H      4    1.4430  1.100     -1.222941     -0.877567      0.005003
    5   H      5    1.4430  1.100     -1.224891      0.941434     -0.001977
    6   H      6    1.4430  1.100      1.189271     -0.895472     -0.004223
 ------------------------------------------------------------------------------
 One-electron integrals computed using PRISM.
 NBasis=    58 RedAO= T EigKep=  2.79D-04  NBF=    58
 NBsUse=    58 1.00D-06 EigRej= -1.00D+00 NBFU=    58
 ExpMin= 4.38D-02 ExpMax= 3.05D+03 ExpMxC= 4.57D+02 IAcc=3 IRadAn=         5 AccDes= 0.00D+00
 Harris functional with IExCor=  402 and IRadAn=       5 diagonalized for initial guess.
 HarFok:  IExCor=  402 AccDes= 0.00D+00 IRadAn=         5 IDoV= 1 UseB2=F ITyADJ=14
 ICtDFT=  3500011 ScaDFX=  1.000000  1.000000  1.000000  1.000000
 FoFCou: FMM=F IPFlag=           0 FMFlag=      100000 FMFlg1=           0
         NFxFlg=           0 DoJE=T BraDBF=F KetDBF=T FulRan=T
         wScrn=  0.000000 ICntrl=       500 IOpCl=  0 I1Cent=   200000004 NGrid=           0
         NMat0=    1 NMatS0=      1 NMatT0=    0 NMatD0=    1 NMtDS0=    0 NMtDT0=    0
 Petite list used in FoFCou.
 Keep R1 ints in memory in canonical form, NReq=3224596.
 Requested convergence on RMS density matrix=1.00D-08 within 128 cycles.
 Requested convergence on MAX density matrix=1.00D-06.
 Requested convergence on             energy=1.00D-06.
 No special actions if energy rises.
 Inv3:  Mode=1 IEnd=     1179387.
 Iteration    1 A*A^-1 deviation from unit magnitude is 4.11D-15 for    621.
 Iteration    1 A*A^-1 deviation from orthogonality  is 1.97D-15 for    405    133.
 Iteration    1 A^-1*A deviation from unit magnitude is 3.89D-15 for    621.
 Iteration    1 A^-1*A deviation from orthogonality  is 1.18D-15 for    511    207.
 Error on total polarization charges =  0.01282
 SCF Done:  E(RB3LYP) =  -78.5896981002     A.U. after    9 cycles
            NFock=  9  Conv=0.33D-08     -V/T= 2.0099

 **********************************************************************

            Population analysis using the SCF density.

 **********************************************************************

 Orbital symmetries:
       Occupied  (A) (A) (A) (A) (A) (A) (A) (A)
       Virtual   (A) (A) (A) (A) (A) (A) (A) (A) (A) (A) (A) (A)
                 (A) (A) (A) (A) (A) (A) (A) (A) (A) (A) (A) (A)
                 (A) (A) (A) (A) (A) (A) (A) (A) (A) (A) (A) (A)
                 (A) (A) (A) (A) (A) (A) (A) (A) (A) (A) (A) (A)
                 (A) (A)
 The electronic state is 1-A.
 Alpha  occ. eigenvalues --  -10.19559 -10.19498  -0.75892  -0.59755  -0.48124
 Alpha  occ. eigenvalues --   -0.41274  -0.37775  -0.27136
 Alpha virt. eigenvalues --   -0.02150   0.02550   0.03720   0.05189   0.06693
 Alpha virt. eigenvalues --    0.08800   0.09085   0.12435   0.15995   0.18089
 Alpha virt. eigenvalues --    0.22014   0.25546   0.32702   0.35441   0.58283
 Alpha virt. eigenvalues --    0.63398   0.67729   0.71592   0.72263   0.81232
 Alpha virt. eigenvalues --    0.91758   0.92785   0.97864   1.02139   1.13120
 Alpha virt. eigenvalues --    1.20915   1.37131   1.38032   1.50086   1.87140
 Alpha virt. eigenvalues --    1.92522   1.96341   2.00051   2.09427   2.12091
 Alpha virt. eigenvalues --    2.25978   2.36701   2.51072   2.51716   2.56182
 Alpha virt. eigenvalues --    2.73200   2.77397   2.78552   3.00745   3.26197
 Alpha virt. eigenvalues --    3.46433   3.58900   3.78664   4.20306   4.50367
          Condensed to atoms (all electrons):
               1          2          3          4          5          6
     1  C    4.911797   0.661738  -0.031165   0.400527   0.391104  -0.035518
     2  C    0.661738   4.903467   0.392770  -0.032626  -0.030228   0.403018
     3  H   -0.031165   0.392770   0.525549   0.004242  -0.007539  -0.034420
     4  H    0.400527  -0.032626   0.004242   0.521508  -0.035395  -0.007845
     5  H    0.391104  -0.030228  -0.007539  -0.035395   0.529243   0.004456
     6  H   -0.035518   0.403018  -0.034420  -0.007845   0.004456   0.522196
 Mulliken charges:
               1
     1  C   -0.298484
     2  C   -0.298139
     3  H    0.150563
     4  H    0.149588
     5  H    0.148359
     6  H    0.148113
 Sum of Mulliken charges =  -0.00000
 Mulliken charges with hydrogens summed into heavy atoms:
               1
     1  C   -0.000536
     2  C    0.000536
 Electronic spatial extent (au):  <R**2>=             84.2012
 Charge=             -0.0000 electrons
 Dipole moment (field-independent basis, Debye):
    X=             -0.0070    Y=             -0.0364    Z=              0.0019  Tot=              0.0371
 Quadrupole moment (field-independent basis, Debye-Ang):
   XX=            -12.3305   YY=            -12.1877   ZZ=            -16.1814
   XY=              0.0496   XZ=             -0.0067   YZ=              0.0001
 Traceless Quadrupole moment (field-independent basis, Debye-Ang):
   XX=              1.2360   YY=              1.3789   ZZ=             -2.6149
   XY=              0.0496   XZ=             -0.0067   YZ=              0.0001
 Octapole moment (field-independent basis, Debye-Ang**2):
  XXX=             -0.0905  YYY=             -0.1392  ZZZ=              0.0039  XYY=              0.0443
  XXY=             -0.0743  XXZ=              0.0049  XZZ=             -0.0012  YZZ=             -0.1324
  YYZ=              0.0024  XYZ=              0.0220
 Hexadecapole moment (field-independent basis, Debye-Ang**3):
 XXXX=            -71.8683 YYYY=            -26.9075 ZZZZ=            -23.6489 XXXY=              0.2432
 XXXZ=             -0.0188 YYYX=              0.0334 YYYZ=              0.0002 ZZZX=             -0.0107
 ZZZY=             -0.0001 XXYY=            -13.9070 XXZZ=            -16.9692 YYZZ=             -9.0747
 XXYZ=             -0.0002 YYXZ=             -0.0087 ZZXY=              0.0097
 N-N= 3.311081694937D+01 E-N=-2.474860281019D+02  KE= 7.781627541934D+01
 1\1\GINC-NODE62\SP\RB3LYP\6-31+G(d,p)\C2H4\YANZ\22-Sep-2023\0\\# b3lyp
 /6-31+g(d,p) scrf=(iefpcm,solvent=acetonitrile)\\tmpdir/M2_conf_0_21.g
 jf\\0,1\C,0,0.,0.,0.\C,0,1.3944,0.,0.\H,0,1.93046,0.,0.94517\H,0,-0.52
 598,-0.00775,-0.8712\H,0,-0.53122,0.00232,0.94778\H,0,1.88625,0.00371,
 -0.88477\\Version=ES64L-G16RevA.03\State=1-A\HF=-78.5896981\RMSD=3.324
 e-09\Dipole=-0.0027084,-0.0007654,-0.0143297\Quadrupole=0.9188097,-1.9
 440809,1.0252712,0.0077514,0.0366577,0.0050376\PG=C01 [X(C2H4)]\\@


 ... THE UNIVERSE IS NOT ONLY QUEERER THAN WE SUPPOSE,
 BUT QUEERER THAN WE CAN SUPPOSE ... 

                                   -- J. B. S. HALDANE
 Job cpu time:       0 days  0 hours  0 minutes 13.7 seconds.
 Elapsed time:       0 days  0 hours  0 minutes  7.0 seconds.
 File lengths (MBytes):  RWF=     13 Int=      0 D2E=      0 Chk=      2 Scr=      1
 Normal termination of Gaussian 16 at Fri Sep 22 17:10:08 2023.
