 Entering Gaussian System, Link 0=g16
 Initial command:
 /share/apps/gaussian/g16/l1.exe "/tmp/55647.mgr/Gau-3846.inp" -scrdir="/tmp/55647.mgr/"
 Entering Link 1 = /share/apps/gaussian/g16/l1.exe PID=      3847.
  
 Copyright (c) 1988,1990,1992,1993,1995,1998,2003,2009,2016,
            Gaussian, Inc.  All Rights Reserved.
  
 This is part of the Gaussian(R) 16 program.  It is based on
 the Gaussian(R) 09 system (copyright 2009, Gaussian, Inc.),
 the Gaussian(R) 03 system (copyright 2003, Gaussian, Inc.),
 the Gaussian(R) 98 system (copyright 1998, Gaussian, Inc.),
 the Gaussian(R) 94 system (copyright 1995, Gaussian, Inc.),
 the Gaussian 92(TM) system (copyright 1992, Gaussian, Inc.),
 the Gaussian 90(TM) system (copyright 1990, Gaussian, Inc.),
 the Gaussian 88(TM) system (copyright 1988, Gaussian, Inc.),
 the Gaussian 86(TM) system (copyright 1986, Carnegie Mellon
 University), and the Gaussian 82(TM) system (copyright 1983,
 Carnegie Mellon University). Gaussian is a federally registered
 trademark of Gaussian, Inc.
  
 This software contains proprietary and confidential information,
 including trade secrets, belonging to Gaussian, Inc.
  
 This software is provided under written license and may be
 used, copied, transmitted, or stored only in accord with that
 written license.
  
 The following legend is applicable only to US Government
 contracts under FAR:
  
                    RESTRICTED RIGHTS LEGEND
  
 Use, reproduction and disclosure by the US Government is
 subject to restrictions as set forth in subparagraphs (a)
 and (c) of the Commercial Computer Software - Restricted
 Rights clause in FAR 52.227-19.
  
 Gaussian, Inc.
 340 Quinnipiac St., Bldg. 40, Wallingford CT 06492
  
  
 ---------------------------------------------------------------
 Warning -- This program may not be used in any manner that
 competes with the business of Gaussian, Inc. or will provide
 assistance to any competitor of Gaussian, Inc.  The licensee
 of this program is prohibited from giving any competitor of
 Gaussian, Inc. access to this program.  By using this program,
 the user acknowledges that Gaussian, Inc. is engaged in the
 business of creating and licensing software in the field of
 computational chemistry and represents and warrants to the
 licensee that it is not a competitor of Gaussian, Inc. and that
 it will not use this program in any manner prohibited above.
 ---------------------------------------------------------------
  

 Cite this work as:
 Gaussian 16, Revision A.03,
 M. J. Frisch, G. W. Trucks, H. B. Schlegel, G. E. Scuseria, 
 M. A. Robb, J. R. Cheeseman, G. Scalmani, V. Barone, 
 G. A. Petersson, H. Nakatsuji, X. Li, M. Caricato, A. V. Marenich, 
 J. Bloino, B. G. Janesko, R. Gomperts, B. Mennucci, H. P. Hratchian, 
 J. V. Ortiz, A. F. Izmaylov, J. L. Sonnenberg, D. Williams-Young, 
 F. Ding, F. Lipparini, F. Egidi, J. Goings, B. Peng, A. Petrone, 
 T. Henderson, D. Ranasinghe, V. G. Zakrzewski, J. Gao, N. Rega, 
 G. Zheng, W. Liang, M. Hada, M. Ehara, K. Toyota, R. Fukuda, 
 J. Hasegawa, M. Ishida, T. Nakajima, Y. Honda, O. Kitao, H. Nakai, 
 T. Vreven, K. Throssell, J. A. Montgomery, Jr., J. E. Peralta, 
 F. Ogliaro, M. J. Bearpark, J. J. Heyd, E. N. Brothers, K. N. Kudin, 
 V. N. Staroverov, T. A. Keith, R. Kobayashi, J. Normand, 
 K. Raghavachari, A. P. Rendell, J. C. Burant, S. S. Iyengar, 
 J. Tomasi, M. Cossi, J. M. Millam, M. Klene, C. Adamo, R. Cammi, 
 J. W. Ochterski, R. L. Martin, K. Morokuma, O. Farkas, 
 J. B. Foresman, and D. J. Fox, Gaussian, Inc., Wallingford CT, 2016.
 
 ******************************************
 Gaussian 16:  ES64L-G16RevA.03 25-Dec-2016
                22-Sep-2023 
 ******************************************
 %nprocshared=2
 Will use up to    2 processors via shared memory.
 %mem=2GB
 ------------------------------------------------------
 # b3lyp/6-31+g(d,p) scrf=(iefpcm,solvent=acetonitrile)
 ------------------------------------------------------
 1/38=1,172=1/1;
 2/12=2,17=6,18=5,40=1/2;
 3/5=1,6=6,7=111,11=2,25=1,30=1,70=2201,72=2,74=-5/1,2,3;
 4//1;
 5/5=2,38=5,53=2/2;
 6/7=2,8=2,9=2,10=2,28=1/1;
 99/5=1,9=1/99;
 ------------------------
 tmpdir/M2_conf_0_142.gjf
 ------------------------
 Symbolic Z-matrix:
 Charge =  0 Multiplicity = 1
 C                     0.        0.        0. 
 C                     1.399     0.        0. 
 H                     1.93884   0.        0.94186 
 H                    -0.50728   0.00061  -0.8744 
 H                    -0.54675   0.00327   0.93751 
 H                     1.91171   0.00335  -0.8732 
 
                          Input orientation:                          
 ---------------------------------------------------------------------
 Center     Atomic      Atomic             Coordinates (Angstroms)
 Number     Number       Type             X           Y           Z
 ---------------------------------------------------------------------
      1          6           0        0.000000    0.000000    0.000000
      2          6           0        1.399000    0.000000    0.000000
      3          1           0        1.938840    0.000000    0.941860
      4          1           0       -0.507280    0.000610   -0.874400
      5          1           0       -0.546750    0.003270    0.937510
      6          1           0        1.911710    0.003350   -0.873200
 ---------------------------------------------------------------------
                    Distance matrix (angstroms):
                    1          2          3          4          5
     1  C    0.000000
     2  C    1.399000   0.000000
     3  H    2.155505   1.085600   0.000000
     4  H    1.010895   2.097255   3.046687   0.000000
     5  H    1.085298   2.159833   2.485596   1.812342   0.000000
     6  H    2.101696   1.012601   1.815266   2.418992   3.053309
                    6
     6  H    0.000000
 Stoichiometry    C2H4
 Framework group  C1[X(C2H4)]
 Deg. of freedom    12
 Full point group                 C1      NOp   1
 Largest Abelian subgroup         C1      NOp   1
 Largest concise Abelian subgroup C1      NOp   1
                         Standard orientation:                         
 ---------------------------------------------------------------------
 Center     Atomic      Atomic             Coordinates (Angstroms)
 Number     Number       Type             X           Y           Z
 ---------------------------------------------------------------------
      1          6           0        0.699403   -0.008591   -0.000497
      2          6           0       -0.699597   -0.007880   -0.000409
      3          1           0       -1.238958    0.934254   -0.000245
      4          1           0        1.206239   -0.883249   -0.000039
      5          1           0        1.246630    0.928641    0.002867
      6          1           0       -1.212750   -0.880820    0.002853
 ---------------------------------------------------------------------
 Rotational constants (GHZ):         152.3034534          28.3838381          23.9251190
 Standard basis: 6-31+G(d,p) (6D, 7F)
 There are    58 symmetry adapted cartesian basis functions of A   symmetry.
 There are    58 symmetry adapted basis functions of A   symmetry.
    58 basis functions,    92 primitive gaussians,    58 cartesian basis functions
     8 alpha electrons        8 beta electrons
       nuclear repulsion energy        33.0736074376 Hartrees.
 NAtoms=    6 NActive=    6 NUniq=    6 SFac= 1.00D+00 NAtFMM=   60 NAOKFM=F Big=F
 Integral buffers will be    131072 words long.
 Raffenetti 2 integral format.
 Two-electron integral symmetry is turned on.
 ------------------------------------------------------------------------------
 Polarizable Continuum Model (PCM)
 =================================
 Model                : PCM.
 Atomic radii         : UFF (Universal Force Field).
 Polarization charges : Total charges.
 Charge compensation  : None.
 Solution method      : On-the-fly selection.
 Cavity type          : Scaled VdW (van der Waals Surface) (Alpha=1.100).
 Cavity algorithm     : GePol (No added spheres)
                        Default sphere list used, NSphG=    6.
                        Lebedev-Laikov grids with approx.  5.0 points / Ang**2.
                        Smoothing algorithm: York/Karplus (Gamma=1.0000).
                        Polarization charges: spherical gaussians, with
                                              point-specific exponents (IZeta= 3).
                        Self-potential: point-specific (ISelfS= 7).
                        Self-field    : sphere-specific E.n sum rule (ISelfD= 2).
 Solvent              : Acetonitrile, Eps=  35.688000 Eps(inf)=   1.806874
 ------------------------------------------------------------------------------
 Spheres list:
 ISph  on   Nord     Re0    Alpha      Xe            Ye            Ze
    1   C      1    1.9255  1.100      0.699403     -0.008591     -0.000497
    2   C      2    1.9255  1.100     -0.699597     -0.007880     -0.000409
    3   H      3    1.4430  1.100     -1.238958      0.934254     -0.000245
    4   H      4    1.4430  1.100      1.206239     -0.883249     -0.000039
    5   H      5    1.4430  1.100      1.246630      0.928641      0.002867
    6   H      6    1.4430  1.100     -1.212750     -0.880820      0.002853
 ------------------------------------------------------------------------------
 One-electron integrals computed using PRISM.
 NBasis=    58 RedAO= T EigKep=  2.85D-04  NBF=    58
 NBsUse=    58 1.00D-06 EigRej= -1.00D+00 NBFU=    58
 ExpMin= 4.38D-02 ExpMax= 3.05D+03 ExpMxC= 4.57D+02 IAcc=3 IRadAn=         5 AccDes= 0.00D+00
 Harris functional with IExCor=  402 and IRadAn=       5 diagonalized for initial guess.
 HarFok:  IExCor=  402 AccDes= 0.00D+00 IRadAn=         5 IDoV= 1 UseB2=F ITyADJ=14
 ICtDFT=  3500011 ScaDFX=  1.000000  1.000000  1.000000  1.000000
 FoFCou: FMM=F IPFlag=           0 FMFlag=      100000 FMFlg1=           0
         NFxFlg=           0 DoJE=T BraDBF=F KetDBF=T FulRan=T
         wScrn=  0.000000 ICntrl=       500 IOpCl=  0 I1Cent=   200000004 NGrid=           0
         NMat0=    1 NMatS0=      1 NMatT0=    0 NMatD0=    1 NMtDS0=    0 NMtDT0=    0
 Petite list used in FoFCou.
 Keep R1 ints in memory in canonical form, NReq=3224596.
 Requested convergence on RMS density matrix=1.00D-08 within 128 cycles.
 Requested convergence on MAX density matrix=1.00D-06.
 Requested convergence on             energy=1.00D-06.
 No special actions if energy rises.
 Inv3:  Mode=1 IEnd=     1156923.
 Iteration    1 A*A^-1 deviation from unit magnitude is 2.66D-15 for    621.
 Iteration    1 A*A^-1 deviation from orthogonality  is 1.77D-15 for    525    266.
 Iteration    1 A^-1*A deviation from unit magnitude is 2.66D-15 for    621.
 Iteration    1 A^-1*A deviation from orthogonality  is 1.65D-15 for    498    312.
 Error on total polarization charges =  0.01284
 SCF Done:  E(RB3LYP) =  -78.5886849382     A.U. after    9 cycles
            NFock=  9  Conv=0.31D-08     -V/T= 2.0099

 **********************************************************************

            Population analysis using the SCF density.

 **********************************************************************

 Orbital symmetries:
       Occupied  (A) (A) (A) (A) (A) (A) (A) (A)
       Virtual   (A) (A) (A) (A) (A) (A) (A) (A) (A) (A) (A) (A)
                 (A) (A) (A) (A) (A) (A) (A) (A) (A) (A) (A) (A)
                 (A) (A) (A) (A) (A) (A) (A) (A) (A) (A) (A) (A)
                 (A) (A) (A) (A) (A) (A) (A) (A) (A) (A) (A) (A)
                 (A) (A)
 The electronic state is 1-A.
 Alpha  occ. eigenvalues --  -10.19608 -10.19548  -0.75816  -0.59960  -0.48006
 Alpha  occ. eigenvalues --   -0.41410  -0.37818  -0.27081
 Alpha virt. eigenvalues --   -0.02252   0.02535   0.03701   0.05223   0.06702
 Alpha virt. eigenvalues --    0.08824   0.09086   0.12404   0.16010   0.18269
 Alpha virt. eigenvalues --    0.21967   0.25645   0.32482   0.35438   0.58406
 Alpha virt. eigenvalues --    0.63184   0.67760   0.71550   0.71879   0.81189
 Alpha virt. eigenvalues --    0.91829   0.92761   0.98256   1.02445   1.12951
 Alpha virt. eigenvalues --    1.19787   1.36931   1.38182   1.50111   1.87374
 Alpha virt. eigenvalues --    1.91660   1.97346   2.00976   2.09618   2.11489
 Alpha virt. eigenvalues --    2.25250   2.37161   2.50766   2.51796   2.56711
 Alpha virt. eigenvalues --    2.72985   2.77412   2.79049   3.02309   3.26041
 Alpha virt. eigenvalues --    3.47512   3.58340   3.79707   4.20139   4.49917
          Condensed to atoms (all electrons):
               1          2          3          4          5          6
     1  C    4.907300   0.661640  -0.030326   0.401848   0.391832  -0.033669
     2  C    0.661640   4.907160   0.391776  -0.033819  -0.029944   0.401761
     3  H   -0.030326   0.391776   0.527480   0.004312  -0.007179  -0.035583
     4  H    0.401848  -0.033819   0.004312   0.522519  -0.035762  -0.007733
     5  H    0.391832  -0.029944  -0.007179  -0.035762   0.526894   0.004246
     6  H   -0.033669   0.401761  -0.035583  -0.007733   0.004246   0.521849
 Mulliken charges:
               1
     1  C   -0.298625
     2  C   -0.298574
     3  H    0.149520
     4  H    0.148636
     5  H    0.149914
     6  H    0.149129
 Sum of Mulliken charges =  -0.00000
 Mulliken charges with hydrogens summed into heavy atoms:
               1
     1  C   -0.000075
     2  C    0.000075
 Electronic spatial extent (au):  <R**2>=             84.4389
 Charge=             -0.0000 electrons
 Dipole moment (field-independent basis, Debye):
    X=              0.0017    Y=             -0.0396    Z=              0.0070  Tot=              0.0403
 Quadrupole moment (field-independent basis, Debye-Ang):
   XX=            -12.2444   YY=            -12.2352   ZZ=            -16.1882
   XY=              0.0144   XZ=              0.0004   YZ=             -0.0002
 Traceless Quadrupole moment (field-independent basis, Debye-Ang):
   XX=              1.3116   YY=              1.3207   ZZ=             -2.6323
   XY=              0.0144   XZ=              0.0004   YZ=             -0.0002
 Octapole moment (field-independent basis, Debye-Ang**2):
  XXX=              0.0192  YYY=             -0.1631  ZZZ=              0.0150  XYY=             -0.0028
  XXY=             -0.0436  XXZ=              0.0161  XZZ=              0.0035  YZZ=             -0.1376
  YYZ=              0.0096  XYZ=              0.0096
 Hexadecapole moment (field-independent basis, Debye-Ang**3):
 XXXX=            -71.9845 YYYY=            -26.8436 ZZZZ=            -23.7086 XXXY=              0.0756
 XXXZ=              0.0010 YYYX=              0.0064 YYYZ=             -0.0006 ZZZX=             -0.0000
 ZZZY=             -0.0009 XXYY=            -13.9328 XXZZ=            -17.0462 YYZZ=             -9.0555
 XXYZ=              0.0000 YYXZ=              0.0009 ZZXY=              0.0030
 N-N= 3.307360743758D+01 E-N=-2.474066553013D+02  KE= 7.781759849235D+01
 1\1\GINC-NODE62\SP\RB3LYP\6-31+G(d,p)\C2H4\YANZ\22-Sep-2023\0\\# b3lyp
 /6-31+g(d,p) scrf=(iefpcm,solvent=acetonitrile)\\tmpdir/M2_conf_0_142.
 gjf\\0,1\C,0,0.,0.,0.\C,0,1.399,0.,0.\H,0,1.93884,0.,0.94186\H,0,-0.50
 728,0.00061,-0.8744\H,0,-0.54675,0.00327,0.93751\H,0,1.91171,0.00335,-
 0.8732\\Version=ES64L-G16RevA.03\State=1-A\HF=-78.5886849\RMSD=3.131e-
 09\Dipole=-0.0006945,0.0027751,-0.0155937\Quadrupole=0.9751156,-1.9570
 294,0.9819138,-0.0004724,-0.0106828,-0.0005445\PG=C01 [X(C2H4)]\\@


 IN THE LONG RUN, DIGGING FOR TRUTH HAS ALWAYS PROVED NOT ONLY 
 MORE INTERESTING BUT MORE PROFITABLE THAN DIGGING FOR GOLD.

                             -- GEORGE R. HARRISON
 Job cpu time:       0 days  0 hours  0 minutes 12.9 seconds.
 Elapsed time:       0 days  0 hours  0 minutes  6.6 seconds.
 File lengths (MBytes):  RWF=     13 Int=      0 D2E=      0 Chk=      2 Scr=      1
 Normal termination of Gaussian 16 at Fri Sep 22 17:12:42 2023.
