 Entering Gaussian System, Link 0=g16
 Initial command:
 /share/apps/gaussian/g16/l1.exe "/tmp/55647.mgr/Gau-2470.inp" -scrdir="/tmp/55647.mgr/"
 Entering Link 1 = /share/apps/gaussian/g16/l1.exe PID=      2471.
  
 Copyright (c) 1988,1990,1992,1993,1995,1998,2003,2009,2016,
            Gaussian, Inc.  All Rights Reserved.
  
 This is part of the Gaussian(R) 16 program.  It is based on
 the Gaussian(R) 09 system (copyright 2009, Gaussian, Inc.),
 the Gaussian(R) 03 system (copyright 2003, Gaussian, Inc.),
 the Gaussian(R) 98 system (copyright 1998, Gaussian, Inc.),
 the Gaussian(R) 94 system (copyright 1995, Gaussian, Inc.),
 the Gaussian 92(TM) system (copyright 1992, Gaussian, Inc.),
 the Gaussian 90(TM) system (copyright 1990, Gaussian, Inc.),
 the Gaussian 88(TM) system (copyright 1988, Gaussian, Inc.),
 the Gaussian 86(TM) system (copyright 1986, Carnegie Mellon
 University), and the Gaussian 82(TM) system (copyright 1983,
 Carnegie Mellon University). Gaussian is a federally registered
 trademark of Gaussian, Inc.
  
 This software contains proprietary and confidential information,
 including trade secrets, belonging to Gaussian, Inc.
  
 This software is provided under written license and may be
 used, copied, transmitted, or stored only in accord with that
 written license.
  
 The following legend is applicable only to US Government
 contracts under FAR:
  
                    RESTRICTED RIGHTS LEGEND
  
 Use, reproduction and disclosure by the US Government is
 subject to restrictions as set forth in subparagraphs (a)
 and (c) of the Commercial Computer Software - Restricted
 Rights clause in FAR 52.227-19.
  
 Gaussian, Inc.
 340 Quinnipiac St., Bldg. 40, Wallingford CT 06492
  
  
 ---------------------------------------------------------------
 Warning -- This program may not be used in any manner that
 competes with the business of Gaussian, Inc. or will provide
 assistance to any competitor of Gaussian, Inc.  The licensee
 of this program is prohibited from giving any competitor of
 Gaussian, Inc. access to this program.  By using this program,
 the user acknowledges that Gaussian, Inc. is engaged in the
 business of creating and licensing software in the field of
 computational chemistry and represents and warrants to the
 licensee that it is not a competitor of Gaussian, Inc. and that
 it will not use this program in any manner prohibited above.
 ---------------------------------------------------------------
  

 Cite this work as:
 Gaussian 16, Revision A.03,
 M. J. Frisch, G. W. Trucks, H. B. Schlegel, G. E. Scuseria, 
 M. A. Robb, J. R. Cheeseman, G. Scalmani, V. Barone, 
 G. A. Petersson, H. Nakatsuji, X. Li, M. Caricato, A. V. Marenich, 
 J. Bloino, B. G. Janesko, R. Gomperts, B. Mennucci, H. P. Hratchian, 
 J. V. Ortiz, A. F. Izmaylov, J. L. Sonnenberg, D. Williams-Young, 
 F. Ding, F. Lipparini, F. Egidi, J. Goings, B. Peng, A. Petrone, 
 T. Henderson, D. Ranasinghe, V. G. Zakrzewski, J. Gao, N. Rega, 
 G. Zheng, W. Liang, M. Hada, M. Ehara, K. Toyota, R. Fukuda, 
 J. Hasegawa, M. Ishida, T. Nakajima, Y. Honda, O. Kitao, H. Nakai, 
 T. Vreven, K. Throssell, J. A. Montgomery, Jr., J. E. Peralta, 
 F. Ogliaro, M. J. Bearpark, J. J. Heyd, E. N. Brothers, K. N. Kudin, 
 V. N. Staroverov, T. A. Keith, R. Kobayashi, J. Normand, 
 K. Raghavachari, A. P. Rendell, J. C. Burant, S. S. Iyengar, 
 J. Tomasi, M. Cossi, J. M. Millam, M. Klene, C. Adamo, R. Cammi, 
 J. W. Ochterski, R. L. Martin, K. Morokuma, O. Farkas, 
 J. B. Foresman, and D. J. Fox, Gaussian, Inc., Wallingford CT, 2016.
 
 ******************************************
 Gaussian 16:  ES64L-G16RevA.03 25-Dec-2016
                22-Sep-2023 
 ******************************************
 %nprocshared=2
 Will use up to    2 processors via shared memory.
 %mem=2GB
 ------------------------------------------------------
 # b3lyp/6-31+g(d,p) scrf=(iefpcm,solvent=acetonitrile)
 ------------------------------------------------------
 1/38=1,172=1/1;
 2/12=2,17=6,18=5,40=1/2;
 3/5=1,6=6,7=111,11=2,25=1,30=1,70=2201,72=2,74=-5/1,2,3;
 4//1;
 5/5=2,38=5,53=2/2;
 6/7=2,8=2,9=2,10=2,28=1/1;
 99/5=1,9=1/99;
 ----------------------
 tmpdir/M2_conf_0_2.gjf
 ----------------------
 Symbolic Z-matrix:
 Charge =  0 Multiplicity = 2
 C                     0.        0.        0. 
 C                     1.5084    0.        0. 
 H                    -0.46535   0.       -0.96006 
 H                    -0.52904  -0.08815   0.94133 
 H                     1.91885   0.19572  -0.99117 
 H                     1.91449   0.70849   0.73009 
 H                     1.98814  -1.01321   0.3296 
 
                          Input orientation:                          
 ---------------------------------------------------------------------
 Center     Atomic      Atomic             Coordinates (Angstroms)
 Number     Number       Type             X           Y           Z
 ---------------------------------------------------------------------
      1          6           0        0.000000    0.000000    0.000000
      2          6           0        1.508400    0.000000    0.000000
      3          1           0       -0.465350    0.000000   -0.960060
      4          1           0       -0.529040   -0.088150    0.941330
      5          1           0        1.918850    0.195720   -0.991170
      6          1           0        1.914490    0.708490    0.730090
      7          1           0        1.988140   -1.013210    0.329600
 ---------------------------------------------------------------------
                    Distance matrix (angstroms):
                    1          2          3          4          5
     1  C    0.000000
     2  C    1.508400   0.000000
     3  H    1.066895   2.194859   0.000000
     4  H    1.083400   2.246115   1.904498   0.000000
     5  H    2.168573   1.090501   2.392422   3.131662   0.000000
     6  H    2.168009   1.095399   3.003698   2.578778   1.796020
     7  H    2.255644   1.168495   2.951174   2.750663   1.791856
                    6          7
     6  H    0.000000
     7  H    1.769200   0.000000
 Stoichiometry    C2H5(2)
 Framework group  C1[X(C2H5)]
 Deg. of freedom    15
 Full point group                 C1      NOp   1
 Largest Abelian subgroup         C1      NOp   1
 Largest concise Abelian subgroup C1      NOp   1
                         Standard orientation:                         
 ---------------------------------------------------------------------
 Center     Atomic      Atomic             Coordinates (Angstroms)
 Number     Number       Type             X           Y           Z
 ---------------------------------------------------------------------
      1          6           0        0.816381   -0.001305   -0.006765
      2          6           0       -0.691968    0.007575   -0.015398
      3          1           0        1.287088    0.954815    0.043595
      4          1           0        1.339607   -0.948949    0.037536
      5          1           0       -1.095682    1.009639   -0.163979
      6          1           0       -1.097872   -0.684036   -0.761597
      7          1           0       -1.179624   -0.369092    0.977424
 ---------------------------------------------------------------------
 Rotational constants (GHZ):         100.1997669          22.3514026          20.6334532
 Standard basis: 6-31+G(d,p) (6D, 7F)
 There are    63 symmetry adapted cartesian basis functions of A   symmetry.
 There are    63 symmetry adapted basis functions of A   symmetry.
    63 basis functions,    99 primitive gaussians,    63 cartesian basis functions
     9 alpha electrons        8 beta electrons
       nuclear repulsion energy        36.5700635857 Hartrees.
 NAtoms=    7 NActive=    7 NUniq=    7 SFac= 1.00D+00 NAtFMM=   60 NAOKFM=F Big=F
 Integral buffers will be    131072 words long.
 Raffenetti 2 integral format.
 Two-electron integral symmetry is turned on.
 ------------------------------------------------------------------------------
 Polarizable Continuum Model (PCM)
 =================================
 Model                : PCM.
 Atomic radii         : UFF (Universal Force Field).
 Polarization charges : Total charges.
 Charge compensation  : None.
 Solution method      : On-the-fly selection.
 Cavity type          : Scaled VdW (van der Waals Surface) (Alpha=1.100).
 Cavity algorithm     : GePol (No added spheres)
                        Default sphere list used, NSphG=    7.
                        Lebedev-Laikov grids with approx.  5.0 points / Ang**2.
                        Smoothing algorithm: York/Karplus (Gamma=1.0000).
                        Polarization charges: spherical gaussians, with
                                              point-specific exponents (IZeta= 3).
                        Self-potential: point-specific (ISelfS= 7).
                        Self-field    : sphere-specific E.n sum rule (ISelfD= 2).
 Solvent              : Acetonitrile, Eps=  35.688000 Eps(inf)=   1.806874
 ------------------------------------------------------------------------------
 Spheres list:
 ISph  on   Nord     Re0    Alpha      Xe            Ye            Ze
    1   C      1    1.9255  1.100      0.816381     -0.001305     -0.006765
    2   C      2    1.9255  1.100     -0.691968      0.007575     -0.015398
    3   H      3    1.4430  1.100      1.287088      0.954815      0.043595
    4   H      4    1.4430  1.100      1.339607     -0.948949      0.037536
    5   H      5    1.4430  1.100     -1.095682      1.009639     -0.163979
    6   H      6    1.4430  1.100     -1.097872     -0.684036     -0.761597
    7   H      7    1.4430  1.100     -1.179624     -0.369092      0.977424
 ------------------------------------------------------------------------------
 One-electron integrals computed using PRISM.
 NBasis=    63 RedAO= T EigKep=  3.68D-04  NBF=    63
 NBsUse=    63 1.00D-06 EigRej= -1.00D+00 NBFU=    63
 ExpMin= 4.38D-02 ExpMax= 3.05D+03 ExpMxC= 4.57D+02 IAcc=3 IRadAn=         5 AccDes= 0.00D+00
 Harris functional with IExCor=  402 and IRadAn=       5 diagonalized for initial guess.
 HarFok:  IExCor=  402 AccDes= 0.00D+00 IRadAn=         5 IDoV= 1 UseB2=F ITyADJ=14
 ICtDFT=  3500011 ScaDFX=  1.000000  1.000000  1.000000  1.000000
 FoFCou: FMM=F IPFlag=           0 FMFlag=      100000 FMFlg1=           0
         NFxFlg=           0 DoJE=T BraDBF=F KetDBF=T FulRan=T
         wScrn=  0.000000 ICntrl=       500 IOpCl=  0 I1Cent=   200000004 NGrid=           0
         NMat0=    1 NMatS0=      1 NMatT0=    0 NMatD0=    1 NMtDS0=    0 NMtDT0=    0
 Petite list used in FoFCou.
 Initial guess <Sx>= 0.0000 <Sy>= 0.0000 <Sz>= 0.5000 <S**2>= 0.7500 S= 0.5000
 Keep R1 and R2 ints in memory in canonical form, NReq=5834809.
 Requested convergence on RMS density matrix=1.00D-08 within 128 cycles.
 Requested convergence on MAX density matrix=1.00D-06.
 Requested convergence on             energy=1.00D-06.
 No special actions if energy rises.
 Inv3:  Mode=1 IEnd=     1338672.
 Iteration    1 A*A^-1 deviation from unit magnitude is 3.55D-15 for    652.
 Iteration    1 A*A^-1 deviation from orthogonality  is 1.46D-15 for    541    108.
 Iteration    1 A^-1*A deviation from unit magnitude is 3.55D-15 for    652.
 Iteration    1 A^-1*A deviation from orthogonality  is 1.24D-15 for    553    213.
 Error on total polarization charges =  0.01282
 SCF Done:  E(UB3LYP) =  -79.1665623976     A.U. after   12 cycles
            NFock= 12  Conv=0.27D-08     -V/T= 2.0116
 <Sx>= 0.0000 <Sy>= 0.0000 <Sz>= 0.5000 <S**2>= 0.7540 S= 0.5020
 <L.S>= 0.000000000000E+00
 Annihilation of the first spin contaminant:
 S**2 before annihilation     0.7540,   after     0.7500

 **********************************************************************

            Population analysis using the SCF density.

 **********************************************************************

 Orbital symmetries:
 Alpha Orbitals:
       Occupied  (A) (A) (A) (A) (A) (A) (A) (A) (A)
       Virtual   (A) (A) (A) (A) (A) (A) (A) (A) (A) (A) (A) (A)
                 (A) (A) (A) (A) (A) (A) (A) (A) (A) (A) (A) (A)
                 (A) (A) (A) (A) (A) (A) (A) (A) (A) (A) (A) (A)
                 (A) (A) (A) (A) (A) (A) (A) (A) (A) (A) (A) (A)
                 (A) (A) (A) (A) (A) (A)
 Beta  Orbitals:
       Occupied  (A) (A) (A) (A) (A) (A) (A) (A)
       Virtual   (A) (A) (A) (A) (A) (A) (A) (A) (A) (A) (A) (A)
                 (A) (A) (A) (A) (A) (A) (A) (A) (A) (A) (A) (A)
                 (A) (A) (A) (A) (A) (A) (A) (A) (A) (A) (A) (A)
                 (A) (A) (A) (A) (A) (A) (A) (A) (A) (A) (A) (A)
                 (A) (A) (A) (A) (A) (A) (A)
 The electronic state is 2-A.
 Alpha  occ. eigenvalues --  -10.19834 -10.19029  -0.75382  -0.60992  -0.46041
 Alpha  occ. eigenvalues --   -0.40057  -0.38626  -0.36615  -0.20704
 Alpha virt. eigenvalues --    0.02034   0.03150   0.05350   0.05936   0.08360
 Alpha virt. eigenvalues --    0.08936   0.09850   0.14746   0.16589   0.19151
 Alpha virt. eigenvalues --    0.20862   0.26509   0.29173   0.30623   0.61365
 Alpha virt. eigenvalues --    0.63574   0.65752   0.68318   0.68749   0.73862
 Alpha virt. eigenvalues --    0.88051   0.88867   0.92268   0.96580   1.03391
 Alpha virt. eigenvalues --    1.07186   1.27963   1.33819   1.42553   1.57041
 Alpha virt. eigenvalues --    1.80631   1.86045   1.90286   1.96694   2.02271
 Alpha virt. eigenvalues --    2.07671   2.14010   2.24772   2.30387   2.40951
 Alpha virt. eigenvalues --    2.45548   2.55412   2.62012   2.66935   2.79916
 Alpha virt. eigenvalues --    2.81488   2.84316   3.15051   3.33403   3.41149
 Alpha virt. eigenvalues --    3.44912   3.52465   4.25810   4.51953
  Beta  occ. eigenvalues --  -10.19120 -10.18500  -0.73655  -0.58724  -0.45365
  Beta  occ. eigenvalues --   -0.38550  -0.37818  -0.36155
  Beta virt. eigenvalues --   -0.06130   0.02177   0.03373   0.05356   0.06353
  Beta virt. eigenvalues --    0.08333   0.08915   0.11210   0.15020   0.17368
  Beta virt. eigenvalues --    0.19881   0.22137   0.27592   0.29627   0.30993
  Beta virt. eigenvalues --    0.61858   0.63825   0.67647   0.69241   0.73266
  Beta virt. eigenvalues --    0.74478   0.89505   0.90065   0.92552   0.98184
  Beta virt. eigenvalues --    1.03619   1.07682   1.29167   1.35453   1.46723
  Beta virt. eigenvalues --    1.57233   1.83897   1.87379   1.90598   2.00217
  Beta virt. eigenvalues --    2.02944   2.08985   2.14521   2.24974   2.31117
  Beta virt. eigenvalues --    2.42864   2.47775   2.56808   2.63641   2.67403
  Beta virt. eigenvalues --    2.80427   2.82062   2.84604   3.15780   3.33857
  Beta virt. eigenvalues --    3.41610   3.45630   3.52972   4.27997   4.53008
          Condensed to atoms (all electrons):
               1          2          3          4          5          6
     1  C    5.337750   0.275504   0.399409   0.388607  -0.048383  -0.054777
     2  C    0.275504   5.119949  -0.038692  -0.030300   0.410490   0.402424
     3  H    0.399409  -0.038692   0.516395  -0.027281  -0.006967   0.003293
     4  H    0.388607  -0.030300  -0.027281   0.519171   0.003458  -0.002953
     5  H   -0.048383   0.410490  -0.006967   0.003458   0.537974  -0.024713
     6  H   -0.054777   0.402424   0.003293  -0.002953  -0.024713   0.550177
     7  H   -0.041304   0.375864   0.001618  -0.001409  -0.029949  -0.035401
               7
     1  C   -0.041304
     2  C    0.375864
     3  H    0.001618
     4  H   -0.001409
     5  H   -0.029949
     6  H   -0.035401
     7  H    0.581505
          Atomic-Atomic Spin Densities.
               1          2          3          4          5          6
     1  C    1.293479  -0.112496   0.003101   0.005099  -0.004488  -0.028993
     2  C   -0.112496  -0.052502  -0.007934  -0.009363   0.005610   0.022615
     3  H    0.003101  -0.007934  -0.046530   0.001003   0.000734   0.000113
     4  H    0.005099  -0.009363   0.001003  -0.045770  -0.000069   0.000685
     5  H   -0.004488   0.005610   0.000734  -0.000069   0.004133   0.002296
     6  H   -0.028993   0.022615   0.000113   0.000685   0.002296   0.054979
     7  H   -0.027050   0.012854  -0.000288  -0.000212  -0.004463  -0.017315
               7
     1  C   -0.027050
     2  C    0.012854
     3  H   -0.000288
     4  H   -0.000212
     5  H   -0.004463
     6  H   -0.017315
     7  H    0.109332
 Mulliken charges and spin densities:
               1          2
     1  C   -0.256806   1.128652
     2  C   -0.515240  -0.141216
     3  H    0.152225  -0.049801
     4  H    0.150706  -0.048626
     5  H    0.158090   0.003753
     6  H    0.161950   0.034380
     7  H    0.149076   0.072859
 Sum of Mulliken charges =  -0.00000   1.00000
 Mulliken charges and spin densities with hydrogens summed into heavy atoms:
               1          2
     1  C    0.046124   1.030225
     2  C   -0.046124  -0.030225
 Electronic spatial extent (au):  <R**2>=            101.1038
 Charge=             -0.0000 electrons
 Dipole moment (field-independent basis, Debye):
    X=             -0.3420    Y=             -0.0072    Z=              0.0727  Tot=              0.3497
 Quadrupole moment (field-independent basis, Debye-Ang):
   XX=            -14.7508   YY=            -13.5096   ZZ=            -15.8731
   XY=             -0.0303   XZ=              0.1260   YZ=              0.0709
 Traceless Quadrupole moment (field-independent basis, Debye-Ang):
   XX=             -0.0396   YY=              1.2015   ZZ=             -1.1619
   XY=             -0.0303   XZ=              0.1260   YZ=              0.0709
 Octapole moment (field-independent basis, Debye-Ang**2):
  XXX=             -0.7855  YYY=              0.6181  ZZZ=              0.2594  XYY=              0.5997
  XXY=             -0.1352  XXZ=              0.2502  XZZ=             -1.8967  YZZ=             -0.4511
  YYZ=             -0.2435  XYZ=             -0.0401
 Hexadecapole moment (field-independent basis, Debye-Ang**3):
 XXXX=            -92.6592 YYYY=            -29.7715 ZZZZ=            -28.5715 XXXY=             -0.3245
 XXXZ=              0.5377 YYYX=             -0.7088 YYYZ=              0.2206 ZZZX=              0.1221
 ZZZY=              0.1299 XXYY=            -18.0509 XXZZ=            -21.1788 YYZZ=            -10.1054
 XXYZ=              0.0626 YYXZ=              0.5890 ZZXY=              0.5824
 N-N= 3.657006358573D+01 E-N=-2.555047283346D+02  KE= 7.825766999067D+01
                          Isotropic Fermi Contact Couplings
        Atom                 a.u.       MegaHertz       Gauss      10(-4) cm-1
     1  C(13)              0.10576     118.89031      42.42302      39.65754
     2  C(13)             -0.02805     -31.52908     -11.25036     -10.51697
     3  H(1)              -0.01466     -65.50815     -23.37494     -21.85117
     4  H(1)              -0.01459     -65.23444     -23.27727     -21.75987
     5  H(1)               0.00165       7.37477       2.63150       2.45996
     6  H(1)               0.01850      82.70440      29.51099      27.58722
     7  H(1)               0.03330     148.83907      53.10948      49.64737
 --------------------------------------------------------
       Center         ----  Spin Dipole Couplings  ----
                      3XX-RR        3YY-RR        3ZZ-RR
 --------------------------------------------------------
     1   Atom       -0.516348     -0.516140      1.032488
     2   Atom        0.015187     -0.015816      0.000630
     3   Atom       -0.046172      0.044540      0.001633
     4   Atom       -0.038755      0.039051     -0.000296
     5   Atom        0.010861     -0.003789     -0.007073
     6   Atom        0.011998     -0.005257     -0.006741
     7   Atom        0.011142     -0.007395     -0.003748
 --------------------------------------------------------
                        XY            XZ            YZ
 --------------------------------------------------------
     1   Atom        0.000490     -0.037663     -0.006488
     2   Atom       -0.000125      0.000995      0.004326
     3   Atom        0.056043      0.000210      0.004380
     4   Atom       -0.058297      0.000115     -0.004083
     5   Atom       -0.009753      0.000685     -0.000218
     6   Atom        0.007721      0.006274      0.003584
     7   Atom        0.003549     -0.007606     -0.002592
 --------------------------------------------------------


 ---------------------------------------------------------------------------------
              Anisotropic Spin Dipole Couplings in Principal Axis System
 ---------------------------------------------------------------------------------

       Atom             a.u.   MegaHertz   Gauss  10(-4) cm-1        Axes

              Baa    -0.5174   -69.424   -24.772   -23.157  0.9629 -0.2689  0.0223
     1 C(13)  Bbb    -0.5161   -69.252   -24.711   -23.100  0.2687  0.9632  0.0106
              Bcc     1.0334   138.677    49.483    46.258 -0.0243 -0.0042  0.9997
 
              Baa    -0.0169    -2.266    -0.809    -0.756  0.0112  0.9706 -0.2403
     2 C(13)  Bbb     0.0016     0.219     0.078     0.073 -0.0689  0.2405  0.9682
              Bcc     0.0153     2.047     0.730     0.683  0.9976  0.0057  0.0695
 
              Baa    -0.0730   -38.924   -13.889   -12.984  0.9020 -0.4311  0.0228
     3 H(1)   Bbb     0.0014     0.767     0.274     0.256 -0.0454 -0.0423  0.9981
              Bcc     0.0715    38.157    13.615    12.728  0.4293  0.9013  0.0578
 
              Baa    -0.0700   -37.341   -13.324   -12.456  0.8812  0.4721  0.0262
     4 H(1)   Bbb    -0.0004    -0.233    -0.083    -0.078 -0.0475  0.0332  0.9983
              Bcc     0.0704    37.574    13.407    12.533 -0.4704  0.8809 -0.0516
 
              Baa    -0.0087    -4.625    -1.650    -1.543  0.4476  0.8915 -0.0700
     5 H(1)   Bbb    -0.0071    -3.781    -1.349    -1.261  0.0035  0.0765  0.9971
              Bcc     0.0158     8.407     3.000     2.804  0.8942 -0.4466  0.0311
 
              Baa    -0.0097    -5.154    -1.839    -1.719  0.0011 -0.6325  0.7745
     6 H(1)   Bbb    -0.0074    -3.966    -1.415    -1.323 -0.4558  0.6891  0.5634
              Bcc     0.0171     9.120     3.254     3.042  0.8901  0.3536  0.2875
 
              Baa    -0.0088    -4.671    -1.667    -1.558  0.0401  0.8612  0.5068
     7 H(1)   Bbb    -0.0064    -3.414    -1.218    -1.139  0.4293 -0.4728  0.7695
              Bcc     0.0152     8.085     2.885     2.697  0.9023  0.1867 -0.3887
 

 ---------------------------------------------------------------------------------

 1\1\GINC-NODE62\SP\UB3LYP\6-31+G(d,p)\C2H5(2)\YANZ\22-Sep-2023\0\\# b3
 lyp/6-31+g(d,p) scrf=(iefpcm,solvent=acetonitrile)\\tmpdir/M2_conf_0_2
 .gjf\\0,2\C,0,0.,0.,0.\C,0,1.5084,0.,0.\H,0,-0.46535,0.,-0.96006\H,0,-
 0.52904,-0.08815,0.94133\H,0,1.91885,0.19572,-0.99117\H,0,1.91449,0.70
 849,0.73009\H,0,1.98814,-1.01321,0.3296\\Version=ES64L-G16RevA.03\Stat
 e=2-A\HF=-79.1665624\S2=0.753958\S2-1=0.\S2A=0.750011\RMSD=2.670e-09\D
 ipole=0.134378,-0.0295121,0.0021419\Quadrupole=-0.0281277,-0.8658446,0
 .8939723,0.089842,-0.0231878,-0.0340394\PG=C01 [X(C2H5)]\\@


 VIRTUE IS LEARNED AT YOUR MOTHER'S KNEE,
 VICES ARE PICKED UP AT SOME OTHER JOINT.
 Job cpu time:       0 days  0 hours  0 minutes 28.4 seconds.
 Elapsed time:       0 days  0 hours  0 minutes 14.4 seconds.
 File lengths (MBytes):  RWF=     14 Int=      0 D2E=      0 Chk=      2 Scr=      1
 Normal termination of Gaussian 16 at Fri Sep 22 17:10:45 2023.
