 Entering Gaussian System, Link 0=g16
 Initial command:
 /share/apps/gaussian/g16/l1.exe "/tmp/55647.mgr/Gau-2399.inp" -scrdir="/tmp/55647.mgr/"
 Entering Link 1 = /share/apps/gaussian/g16/l1.exe PID=      2400.
  
 Copyright (c) 1988,1990,1992,1993,1995,1998,2003,2009,2016,
            Gaussian, Inc.  All Rights Reserved.
  
 This is part of the Gaussian(R) 16 program.  It is based on
 the Gaussian(R) 09 system (copyright 2009, Gaussian, Inc.),
 the Gaussian(R) 03 system (copyright 2003, Gaussian, Inc.),
 the Gaussian(R) 98 system (copyright 1998, Gaussian, Inc.),
 the Gaussian(R) 94 system (copyright 1995, Gaussian, Inc.),
 the Gaussian 92(TM) system (copyright 1992, Gaussian, Inc.),
 the Gaussian 90(TM) system (copyright 1990, Gaussian, Inc.),
 the Gaussian 88(TM) system (copyright 1988, Gaussian, Inc.),
 the Gaussian 86(TM) system (copyright 1986, Carnegie Mellon
 University), and the Gaussian 82(TM) system (copyright 1983,
 Carnegie Mellon University). Gaussian is a federally registered
 trademark of Gaussian, Inc.
  
 This software contains proprietary and confidential information,
 including trade secrets, belonging to Gaussian, Inc.
  
 This software is provided under written license and may be
 used, copied, transmitted, or stored only in accord with that
 written license.
  
 The following legend is applicable only to US Government
 contracts under FAR:
  
                    RESTRICTED RIGHTS LEGEND
  
 Use, reproduction and disclosure by the US Government is
 subject to restrictions as set forth in subparagraphs (a)
 and (c) of the Commercial Computer Software - Restricted
 Rights clause in FAR 52.227-19.
  
 Gaussian, Inc.
 340 Quinnipiac St., Bldg. 40, Wallingford CT 06492
  
  
 ---------------------------------------------------------------
 Warning -- This program may not be used in any manner that
 competes with the business of Gaussian, Inc. or will provide
 assistance to any competitor of Gaussian, Inc.  The licensee
 of this program is prohibited from giving any competitor of
 Gaussian, Inc. access to this program.  By using this program,
 the user acknowledges that Gaussian, Inc. is engaged in the
 business of creating and licensing software in the field of
 computational chemistry and represents and warrants to the
 licensee that it is not a competitor of Gaussian, Inc. and that
 it will not use this program in any manner prohibited above.
 ---------------------------------------------------------------
  

 Cite this work as:
 Gaussian 16, Revision A.03,
 M. J. Frisch, G. W. Trucks, H. B. Schlegel, G. E. Scuseria, 
 M. A. Robb, J. R. Cheeseman, G. Scalmani, V. Barone, 
 G. A. Petersson, H. Nakatsuji, X. Li, M. Caricato, A. V. Marenich, 
 J. Bloino, B. G. Janesko, R. Gomperts, B. Mennucci, H. P. Hratchian, 
 J. V. Ortiz, A. F. Izmaylov, J. L. Sonnenberg, D. Williams-Young, 
 F. Ding, F. Lipparini, F. Egidi, J. Goings, B. Peng, A. Petrone, 
 T. Henderson, D. Ranasinghe, V. G. Zakrzewski, J. Gao, N. Rega, 
 G. Zheng, W. Liang, M. Hada, M. Ehara, K. Toyota, R. Fukuda, 
 J. Hasegawa, M. Ishida, T. Nakajima, Y. Honda, O. Kitao, H. Nakai, 
 T. Vreven, K. Throssell, J. A. Montgomery, Jr., J. E. Peralta, 
 F. Ogliaro, M. J. Bearpark, J. J. Heyd, E. N. Brothers, K. N. Kudin, 
 V. N. Staroverov, T. A. Keith, R. Kobayashi, J. Normand, 
 K. Raghavachari, A. P. Rendell, J. C. Burant, S. S. Iyengar, 
 J. Tomasi, M. Cossi, J. M. Millam, M. Klene, C. Adamo, R. Cammi, 
 J. W. Ochterski, R. L. Martin, K. Morokuma, O. Farkas, 
 J. B. Foresman, and D. J. Fox, Gaussian, Inc., Wallingford CT, 2016.
 
 ******************************************
 Gaussian 16:  ES64L-G16RevA.03 25-Dec-2016
                22-Sep-2023 
 ******************************************
 %nprocshared=2
 Will use up to    2 processors via shared memory.
 %mem=2GB
 ------------------------------------------------------
 # b3lyp/6-31+g(d,p) scrf=(iefpcm,solvent=acetonitrile)
 ------------------------------------------------------
 1/38=1,172=1/1;
 2/12=2,17=6,18=5,40=1/2;
 3/5=1,6=6,7=111,11=2,25=1,30=1,70=2201,72=2,74=-5/1,2,3;
 4//1;
 5/5=2,38=5,53=2/2;
 6/7=2,8=2,9=2,10=2,28=1/1;
 99/5=1,9=1/99;
 ----------------------
 tmpdir/M2_conf_0_8.gjf
 ----------------------
 Symbolic Z-matrix:
 Charge =  0 Multiplicity = 1
 C                     0.        0.        0. 
 S                     1.8618    0.        0. 
 O                    -0.61855   0.       -1.06235 
 H                    -0.48287  -0.07182   0.88681 
 O                     2.27575  -0.19672  -1.43981 
 H                     2.10622   1.39438   0.33656 
 
                          Input orientation:                          
 ---------------------------------------------------------------------
 Center     Atomic      Atomic             Coordinates (Angstroms)
 Number     Number       Type             X           Y           Z
 ---------------------------------------------------------------------
      1          6           0        0.000000    0.000000    0.000000
      2         16           0        1.861800    0.000000    0.000000
      3          8           0       -0.618550    0.000000   -1.062350
      4          1           0       -0.482870   -0.071820    0.886810
      5          8           0        2.275750   -0.196720   -1.439810
      6          1           0        2.106220    1.394380    0.336560
 ---------------------------------------------------------------------
                    Distance matrix (angstroms):
                    1          2          3          4          5
     1  C    0.000000
     2  S    1.861800   0.000000
     3  O    1.229305   2.698282   0.000000
     4  H    1.012301   2.507801   1.955196   0.000000
     5  O    2.700146   1.510995   2.925431   3.610920   0.000000
     6  H    2.548280   1.455098   3.365355   3.025873   2.390780
                    6
     6  H    0.000000
 Stoichiometry    CH2O2S
 Framework group  C1[X(CH2O2S)]
 Deg. of freedom    12
 Full point group                 C1      NOp   1
 Largest Abelian subgroup         C1      NOp   1
 Largest concise Abelian subgroup C1      NOp   1
                         Standard orientation:                         
 ---------------------------------------------------------------------
 Center     Atomic      Atomic             Coordinates (Angstroms)
 Number     Number       Type             X           Y           Z
 ---------------------------------------------------------------------
      1          6           0       -1.112956   -0.472632   -0.076558
      2         16           0        0.748752   -0.459631   -0.063360
      3          8           0       -1.739999    0.571800    0.088277
      4          1           0       -1.588264   -1.340019   -0.292140
      5          8           0        1.152287    0.995984   -0.025284
      6          1           0        0.987654   -1.012353    1.261304
 ---------------------------------------------------------------------
 Rotational constants (GHZ):          14.3290547           4.6804240           3.6272192
 Standard basis: 6-31+G(d,p) (6D, 7F)
 There are    90 symmetry adapted cartesian basis functions of A   symmetry.
 There are    90 symmetry adapted basis functions of A   symmetry.
    90 basis functions,   166 primitive gaussians,    90 cartesian basis functions
    20 alpha electrons       20 beta electrons
       nuclear repulsion energy       158.9817125496 Hartrees.
 NAtoms=    6 NActive=    6 NUniq=    6 SFac= 1.00D+00 NAtFMM=   60 NAOKFM=F Big=F
 Integral buffers will be    131072 words long.
 Raffenetti 2 integral format.
 Two-electron integral symmetry is turned on.
 ------------------------------------------------------------------------------
 Polarizable Continuum Model (PCM)
 =================================
 Model                : PCM.
 Atomic radii         : UFF (Universal Force Field).
 Polarization charges : Total charges.
 Charge compensation  : None.
 Solution method      : On-the-fly selection.
 Cavity type          : Scaled VdW (van der Waals Surface) (Alpha=1.100).
 Cavity algorithm     : GePol (No added spheres)
                        Default sphere list used, NSphG=    6.
                        Lebedev-Laikov grids with approx.  5.0 points / Ang**2.
                        Smoothing algorithm: York/Karplus (Gamma=1.0000).
                        Polarization charges: spherical gaussians, with
                                              point-specific exponents (IZeta= 3).
                        Self-potential: point-specific (ISelfS= 7).
                        Self-field    : sphere-specific E.n sum rule (ISelfD= 2).
 Solvent              : Acetonitrile, Eps=  35.688000 Eps(inf)=   1.806874
 ------------------------------------------------------------------------------
 Spheres list:
 ISph  on   Nord     Re0    Alpha      Xe            Ye            Ze
    1   C      1    1.9255  1.100     -1.112956     -0.472632     -0.076558
    2   S      2    2.0175  1.100      0.748752     -0.459631     -0.063360
    3   O      3    1.7500  1.100     -1.739999      0.571800      0.088277
    4   H      4    1.4430  1.100     -1.588264     -1.340019     -0.292140
    5   O      5    1.7500  1.100      1.152287      0.995984     -0.025284
    6   H      6    1.4430  1.100      0.987654     -1.012353      1.261304
 ------------------------------------------------------------------------------
 One-electron integrals computed using PRISM.
 NBasis=    90 RedAO= T EigKep=  6.61D-04  NBF=    90
 NBsUse=    90 1.00D-06 EigRej= -1.00D+00 NBFU=    90
 ExpMin= 4.05D-02 ExpMax= 2.19D+04 ExpMxC= 3.30D+03 IAcc=3 IRadAn=         5 AccDes= 0.00D+00
 Harris functional with IExCor=  402 and IRadAn=       5 diagonalized for initial guess.
 HarFok:  IExCor=  402 AccDes= 0.00D+00 IRadAn=         5 IDoV= 1 UseB2=F ITyADJ=14
 ICtDFT=  3500011 ScaDFX=  1.000000  1.000000  1.000000  1.000000
 FoFCou: FMM=F IPFlag=           0 FMFlag=      100000 FMFlg1=           0
         NFxFlg=           0 DoJE=T BraDBF=F KetDBF=T FulRan=T
         wScrn=  0.000000 ICntrl=       500 IOpCl=  0 I1Cent=   200000004 NGrid=           0
         NMat0=    1 NMatS0=      1 NMatT0=    0 NMatD0=    1 NMtDS0=    0 NMtDT0=    0
 Petite list used in FoFCou.
 Keep R1 ints in memory in canonical form, NReq=10212883.
 Requested convergence on RMS density matrix=1.00D-08 within 128 cycles.
 Requested convergence on MAX density matrix=1.00D-06.
 Requested convergence on             energy=1.00D-06.
 No special actions if energy rises.
 Inv3:  Mode=1 IEnd=     2137008.
 Iteration    1 A*A^-1 deviation from unit magnitude is 2.22D-15 for    824.
 Iteration    1 A*A^-1 deviation from orthogonality  is 1.14D-15 for    605    141.
 Iteration    1 A^-1*A deviation from unit magnitude is 2.22D-15 for    824.
 Iteration    1 A^-1*A deviation from orthogonality  is 1.28D-15 for    550     91.
 Error on total polarization charges =  0.01102
 SCF Done:  E(RB3LYP) =  -587.871363001     A.U. after   13 cycles
            NFock= 13  Conv=0.26D-08     -V/T= 2.0053

 **********************************************************************

            Population analysis using the SCF density.

 **********************************************************************

 Orbital symmetries:
       Occupied  (A) (A) (A) (A) (A) (A) (A) (A) (A) (A) (A) (A)
                 (A) (A) (A) (A) (A) (A) (A) (A)
       Virtual   (A) (A) (A) (A) (A) (A) (A) (A) (A) (A) (A) (A)
                 (A) (A) (A) (A) (A) (A) (A) (A) (A) (A) (A) (A)
                 (A) (A) (A) (A) (A) (A) (A) (A) (A) (A) (A) (A)
                 (A) (A) (A) (A) (A) (A) (A) (A) (A) (A) (A) (A)
                 (A) (A) (A) (A) (A) (A) (A) (A) (A) (A) (A) (A)
                 (A) (A) (A) (A) (A) (A) (A) (A) (A) (A)
 The electronic state is 1-A.
 Alpha  occ. eigenvalues --  -89.02072 -19.21510 -19.15135 -10.32884  -8.06953
 Alpha  occ. eigenvalues --   -6.03362  -6.03214  -6.02683  -1.09375  -1.03825
 Alpha  occ. eigenvalues --   -0.76261  -0.63896  -0.53411  -0.49139  -0.47379
 Alpha  occ. eigenvalues --   -0.42980  -0.40710  -0.34284  -0.29836  -0.26417
 Alpha virt. eigenvalues --   -0.09597  -0.02500  -0.01271   0.01105   0.03172
 Alpha virt. eigenvalues --    0.04943   0.06268   0.08023   0.08772   0.09288
 Alpha virt. eigenvalues --    0.12123   0.14372   0.17314   0.18538   0.21187
 Alpha virt. eigenvalues --    0.23208   0.24500   0.24588   0.26118   0.28292
 Alpha virt. eigenvalues --    0.30498   0.39804   0.43285   0.46986   0.49196
 Alpha virt. eigenvalues --    0.56050   0.62219   0.62967   0.69469   0.74065
 Alpha virt. eigenvalues --    0.75083   0.83801   0.92074   0.95054   1.00043
 Alpha virt. eigenvalues --    1.09807   1.10896   1.16943   1.18596   1.21638
 Alpha virt. eigenvalues --    1.22880   1.24868   1.28165   1.41250   1.49368
 Alpha virt. eigenvalues --    1.52163   1.53768   1.72024   1.80154   1.81386
 Alpha virt. eigenvalues --    1.83532   1.85585   1.93158   1.99163   2.02292
 Alpha virt. eigenvalues --    2.09153   2.15585   2.19712   2.40198   2.46920
 Alpha virt. eigenvalues --    2.56592   2.60618   2.74623   2.90269   2.95957
 Alpha virt. eigenvalues --    3.52840   3.94676   3.95778   4.13439   4.30619
          Condensed to atoms (all electrons):
               1          2          3          4          5          6
     1  C    5.335626  -0.124178   0.433850   0.328878  -0.096672   0.038244
     2  S   -0.124178  15.229409  -0.099804  -0.032196   0.131615   0.196289
     3  O    0.433850  -0.099804   8.037836  -0.057469   0.031098  -0.006602
     4  H    0.328878  -0.032196  -0.057469   0.553727   0.008737   0.001879
     5  O   -0.096672   0.131615   0.031098   0.008737   8.731233  -0.059922
     6  H    0.038244   0.196289  -0.006602   0.001879  -0.059922   0.724672
 Mulliken charges:
               1
     1  C    0.084251
     2  S    0.698865
     3  O   -0.338910
     4  H    0.196444
     5  O   -0.746089
     6  H    0.105439
 Sum of Mulliken charges =  -0.00000
 Mulliken charges with hydrogens summed into heavy atoms:
               1
     1  C    0.280695
     2  S    0.804304
     3  O   -0.338910
     5  O   -0.746089
 Electronic spatial extent (au):  <R**2>=            336.2715
 Charge=             -0.0000 electrons
 Dipole moment (field-independent basis, Debye):
    X=             -0.7283    Y=             -6.7030    Z=              0.6128  Tot=              6.7702
 Quadrupole moment (field-independent basis, Debye-Ang):
   XX=            -33.9682   YY=            -31.5290   ZZ=            -28.1029
   XY=             -0.1380   XZ=              2.2707   YZ=             -1.3087
 Traceless Quadrupole moment (field-independent basis, Debye-Ang):
   XX=             -2.7682   YY=             -0.3290   ZZ=              3.0972
   XY=             -0.1380   XZ=              2.2707   YZ=             -1.3087
 Octapole moment (field-independent basis, Debye-Ang**2):
  XXX=              2.6155  YYY=             -7.5589  ZZZ=              1.4917  XYY=             -4.9555
  XXY=            -12.1007  XXZ=              0.8635  XZZ=             -0.0316  YZZ=             -1.4148
  YYZ=              1.1667  XYZ=             -1.8490
 Hexadecapole moment (field-independent basis, Debye-Ang**3):
 XXXX=           -290.6364 YYYY=           -112.1761 ZZZZ=            -36.7456 XXXY=              3.6466
 XXXZ=              4.0933 YYYX=             -0.5876 YYYZ=             -1.7552 ZZZX=              2.3731
 ZZZY=             -1.9464 XXYY=            -66.0461 XXZZ=            -50.1709 YYZZ=            -25.2097
 XXYZ=             -1.1420 YYXZ=              2.8546 ZZXY=             -1.6796
 N-N= 1.589817125496D+02 E-N=-1.708795304080D+03  KE= 5.847474924302D+02
 1\1\GINC-NODE62\SP\RB3LYP\6-31+G(d,p)\C1H2O2S1\YANZ\22-Sep-2023\0\\# b
 3lyp/6-31+g(d,p) scrf=(iefpcm,solvent=acetonitrile)\\tmpdir/M2_conf_0_
 8.gjf\\0,1\C,0,0.,0.,0.\S,0,1.8618,0.,0.\O,0,-0.61855,0.,-1.06235\H,0,
 -0.48287,-0.07182,0.88681\O,0,2.27575,-0.19672,-1.43981\H,0,2.10622,1.
 39438,0.33656\\Version=ES64L-G16RevA.03\State=1-A\HF=-587.871363\RMSD=
 2.591e-09\Dipole=-0.303236,0.6599012,2.5626863\Quadrupole=-2.0353853,2
 .5241433,-0.4887581,1.7056923,-0.177072,0.5375775\PG=C01 [X(C1H2O2S1)]
 \\@


 THE BEST WAY TO CONVINCE A FOOL THAT HE IS WRONG 
 IS TO LET HIM HAVE HIS OWN WAY.

                                         JOSH BILLINGS
 Job cpu time:       0 days  0 hours  0 minutes 32.0 seconds.
 Elapsed time:       0 days  0 hours  0 minutes 16.4 seconds.
 File lengths (MBytes):  RWF=     19 Int=      0 D2E=      0 Chk=      2 Scr=      1
 Normal termination of Gaussian 16 at Fri Sep 22 17:10:40 2023.
