 Entering Gaussian System, Link 0=g16
 Initial command:
 /share/apps/gaussian/g16/l1.exe "/tmp/55647.mgr/Gau-3667.inp" -scrdir="/tmp/55647.mgr/"
 Entering Link 1 = /share/apps/gaussian/g16/l1.exe PID=      3668.
  
 Copyright (c) 1988,1990,1992,1993,1995,1998,2003,2009,2016,
            Gaussian, Inc.  All Rights Reserved.
  
 This is part of the Gaussian(R) 16 program.  It is based on
 the Gaussian(R) 09 system (copyright 2009, Gaussian, Inc.),
 the Gaussian(R) 03 system (copyright 2003, Gaussian, Inc.),
 the Gaussian(R) 98 system (copyright 1998, Gaussian, Inc.),
 the Gaussian(R) 94 system (copyright 1995, Gaussian, Inc.),
 the Gaussian 92(TM) system (copyright 1992, Gaussian, Inc.),
 the Gaussian 90(TM) system (copyright 1990, Gaussian, Inc.),
 the Gaussian 88(TM) system (copyright 1988, Gaussian, Inc.),
 the Gaussian 86(TM) system (copyright 1986, Carnegie Mellon
 University), and the Gaussian 82(TM) system (copyright 1983,
 Carnegie Mellon University). Gaussian is a federally registered
 trademark of Gaussian, Inc.
  
 This software contains proprietary and confidential information,
 including trade secrets, belonging to Gaussian, Inc.
  
 This software is provided under written license and may be
 used, copied, transmitted, or stored only in accord with that
 written license.
  
 The following legend is applicable only to US Government
 contracts under FAR:
  
                    RESTRICTED RIGHTS LEGEND
  
 Use, reproduction and disclosure by the US Government is
 subject to restrictions as set forth in subparagraphs (a)
 and (c) of the Commercial Computer Software - Restricted
 Rights clause in FAR 52.227-19.
  
 Gaussian, Inc.
 340 Quinnipiac St., Bldg. 40, Wallingford CT 06492
  
  
 ---------------------------------------------------------------
 Warning -- This program may not be used in any manner that
 competes with the business of Gaussian, Inc. or will provide
 assistance to any competitor of Gaussian, Inc.  The licensee
 of this program is prohibited from giving any competitor of
 Gaussian, Inc. access to this program.  By using this program,
 the user acknowledges that Gaussian, Inc. is engaged in the
 business of creating and licensing software in the field of
 computational chemistry and represents and warrants to the
 licensee that it is not a competitor of Gaussian, Inc. and that
 it will not use this program in any manner prohibited above.
 ---------------------------------------------------------------
  

 Cite this work as:
 Gaussian 16, Revision A.03,
 M. J. Frisch, G. W. Trucks, H. B. Schlegel, G. E. Scuseria, 
 M. A. Robb, J. R. Cheeseman, G. Scalmani, V. Barone, 
 G. A. Petersson, H. Nakatsuji, X. Li, M. Caricato, A. V. Marenich, 
 J. Bloino, B. G. Janesko, R. Gomperts, B. Mennucci, H. P. Hratchian, 
 J. V. Ortiz, A. F. Izmaylov, J. L. Sonnenberg, D. Williams-Young, 
 F. Ding, F. Lipparini, F. Egidi, J. Goings, B. Peng, A. Petrone, 
 T. Henderson, D. Ranasinghe, V. G. Zakrzewski, J. Gao, N. Rega, 
 G. Zheng, W. Liang, M. Hada, M. Ehara, K. Toyota, R. Fukuda, 
 J. Hasegawa, M. Ishida, T. Nakajima, Y. Honda, O. Kitao, H. Nakai, 
 T. Vreven, K. Throssell, J. A. Montgomery, Jr., J. E. Peralta, 
 F. Ogliaro, M. J. Bearpark, J. J. Heyd, E. N. Brothers, K. N. Kudin, 
 V. N. Staroverov, T. A. Keith, R. Kobayashi, J. Normand, 
 K. Raghavachari, A. P. Rendell, J. C. Burant, S. S. Iyengar, 
 J. Tomasi, M. Cossi, J. M. Millam, M. Klene, C. Adamo, R. Cammi, 
 J. W. Ochterski, R. L. Martin, K. Morokuma, O. Farkas, 
 J. B. Foresman, and D. J. Fox, Gaussian, Inc., Wallingford CT, 2016.
 
 ******************************************
 Gaussian 16:  ES64L-G16RevA.03 25-Dec-2016
                22-Sep-2023 
 ******************************************
 %nprocshared=2
 Will use up to    2 processors via shared memory.
 %mem=2GB
 ------------------------------------------------------
 # b3lyp/6-31+g(d,p) scrf=(iefpcm,solvent=acetonitrile)
 ------------------------------------------------------
 1/38=1,172=1/1;
 2/12=2,17=6,18=5,40=1/2;
 3/5=1,6=6,7=111,11=2,25=1,30=1,70=2201,72=2,74=-5/1,2,3;
 4//1;
 5/5=2,38=5,53=2/2;
 6/7=2,8=2,9=2,10=2,28=1/1;
 99/5=1,9=1/99;
 ------------------------
 tmpdir/M2_conf_0_118.gjf
 ------------------------
 Symbolic Z-matrix:
 Charge =  0 Multiplicity = 1
 S                     0.        0.        0. 
 C                     1.799     0.        0. 
 C                     2.47275   0.        1.22505 
 H                    -0.33282   1.38372   0.03454 
 O                    -0.47001  -0.58162  -1.27684 
 O                    -0.46448  -0.61041   1.26946 
 O                     2.39625   0.01261  -1.07828 
 O                     3.7041    0.01169   1.2225 
 H                     1.91856  -0.02333   2.15685 
 
                          Input orientation:                          
 ---------------------------------------------------------------------
 Center     Atomic      Atomic             Coordinates (Angstroms)
 Number     Number       Type             X           Y           Z
 ---------------------------------------------------------------------
      1         16           0        0.000000    0.000000    0.000000
      2          6           0        1.799000    0.000000    0.000000
      3          6           0        2.472750    0.000000    1.225050
      4          1           0       -0.332820    1.383720    0.034540
      5          8           0       -0.470010   -0.581620   -1.276840
      6          8           0       -0.464480   -0.610410    1.269460
      7          8           0        2.396250    0.012610   -1.078280
      8          8           0        3.704100    0.011690    1.222500
      9          1           0        1.918560   -0.023330    2.156850
 ---------------------------------------------------------------------
                    Distance matrix (angstroms):
                    1          2          3          4          5
     1  S    0.000000
     2  C    1.799000   0.000000
     3  C    2.759572   1.398101   0.000000
     4  H    1.423602   2.541757   3.347121   0.000000
     5  O    1.479700   2.667772   3.906094   2.366664   0.000000
     6  O    1.483196   2.665984   3.000315   2.349237   2.546469
     7  O    2.627710   1.232702   2.304635   3.250559   2.933936
     8  O    3.900641   2.263636   1.231408   4.426109   4.901215
     9  H    2.886766   2.160287   1.084399   3.398926   4.219856
                    6          7          8          9
     6  O    0.000000
     7  O    3.752841   0.000000
     8  O    4.215006   2.646519   0.000000
     9  H    2.609790   3.270404   2.015537   0.000000
 Stoichiometry    C2H2O4S
 Framework group  C1[X(C2H2O4S)]
 Deg. of freedom    21
 Full point group                 C1      NOp   1
 Largest Abelian subgroup         C1      NOp   1
 Largest concise Abelian subgroup C1      NOp   1
                         Standard orientation:                         
 ---------------------------------------------------------------------
 Center     Atomic      Atomic             Coordinates (Angstroms)
 Number     Number       Type             X           Y           Z
 ---------------------------------------------------------------------
      1         16           0       -1.094369   -0.122898    0.235501
      2          6           0        0.629684    0.357266    0.052514
      3          6           0        1.607393   -0.641571    0.019406
      4          1           0       -1.279224   -0.168470    1.646315
      5          8           0       -1.943295    0.947995   -0.331971
      6          8           0       -1.250461   -1.502007   -0.287533
      7          8           0        0.910940    1.554824   -0.026877
      8          8           0        2.787808   -0.309816   -0.094291
      9          1           0        1.326736   -1.687295    0.079522
 ---------------------------------------------------------------------
 Rotational constants (GHZ):           4.6700943           1.6394814           1.2603745
 Standard basis: 6-31+G(d,p) (6D, 7F)
 There are   147 symmetry adapted cartesian basis functions of A   symmetry.
 There are   147 symmetry adapted basis functions of A   symmetry.
   147 basis functions,   262 primitive gaussians,   147 cartesian basis functions
    31 alpha electrons       31 beta electrons
       nuclear repulsion energy       381.4632455564 Hartrees.
 NAtoms=    9 NActive=    9 NUniq=    9 SFac= 1.00D+00 NAtFMM=   60 NAOKFM=F Big=F
 Integral buffers will be    131072 words long.
 Raffenetti 2 integral format.
 Two-electron integral symmetry is turned on.
 ------------------------------------------------------------------------------
 Polarizable Continuum Model (PCM)
 =================================
 Model                : PCM.
 Atomic radii         : UFF (Universal Force Field).
 Polarization charges : Total charges.
 Charge compensation  : None.
 Solution method      : On-the-fly selection.
 Cavity type          : Scaled VdW (van der Waals Surface) (Alpha=1.100).
 Cavity algorithm     : GePol (No added spheres)
                        Default sphere list used, NSphG=    9.
                        Lebedev-Laikov grids with approx.  5.0 points / Ang**2.
                        Smoothing algorithm: York/Karplus (Gamma=1.0000).
                        Polarization charges: spherical gaussians, with
                                              point-specific exponents (IZeta= 3).
                        Self-potential: point-specific (ISelfS= 7).
                        Self-field    : sphere-specific E.n sum rule (ISelfD= 2).
 Solvent              : Acetonitrile, Eps=  35.688000 Eps(inf)=   1.806874
 ------------------------------------------------------------------------------
 Spheres list:
 ISph  on   Nord     Re0    Alpha      Xe            Ye            Ze
    1   S      1    2.0175  1.100     -1.094369     -0.122898      0.235501
    2   C      2    1.9255  1.100      0.629684      0.357266      0.052514
    3   C      3    1.9255  1.100      1.607393     -0.641571      0.019406
    4   H      4    1.4430  1.100     -1.279224     -0.168470      1.646315
    5   O      5    1.7500  1.100     -1.943295      0.947995     -0.331971
    6   O      6    1.7500  1.100     -1.250461     -1.502007     -0.287533
    7   O      7    1.7500  1.100      0.910940      1.554824     -0.026877
    8   O      8    1.7500  1.100      2.787808     -0.309816     -0.094291
    9   H      9    1.4430  1.100      1.326736     -1.687295      0.079522
 ------------------------------------------------------------------------------
 One-electron integrals computed using PRISM.
 NBasis=   147 RedAO= T EigKep=  5.68D-05  NBF=   147
 NBsUse=   147 1.00D-06 EigRej= -1.00D+00 NBFU=   147
 ExpMin= 4.05D-02 ExpMax= 2.19D+04 ExpMxC= 3.30D+03 IAcc=3 IRadAn=         5 AccDes= 0.00D+00
 Harris functional with IExCor=  402 and IRadAn=       5 diagonalized for initial guess.
 HarFok:  IExCor=  402 AccDes= 0.00D+00 IRadAn=         5 IDoV= 1 UseB2=F ITyADJ=14
 ICtDFT=  3500011 ScaDFX=  1.000000  1.000000  1.000000  1.000000
 FoFCou: FMM=F IPFlag=           0 FMFlag=      100000 FMFlg1=           0
         NFxFlg=           0 DoJE=T BraDBF=F KetDBF=T FulRan=T
         wScrn=  0.000000 ICntrl=       500 IOpCl=  0 I1Cent=   200000004 NGrid=           0
         NMat0=    1 NMatS0=      1 NMatT0=    0 NMatD0=    1 NMtDS0=    0 NMtDT0=    0
 Petite list used in FoFCou.
 Keep R1 ints in memory in canonical form, NReq=61113823.
 Requested convergence on RMS density matrix=1.00D-08 within 128 cycles.
 Requested convergence on MAX density matrix=1.00D-06.
 Requested convergence on             energy=1.00D-06.
 No special actions if energy rises.
 Inv3:  Mode=1 IEnd=     3871488.
 Iteration    1 A*A^-1 deviation from unit magnitude is 3.11D-15 for   1116.
 Iteration    1 A*A^-1 deviation from orthogonality  is 1.53D-15 for   1104    230.
 Iteration    1 A^-1*A deviation from unit magnitude is 3.11D-15 for    602.
 Iteration    1 A^-1*A deviation from orthogonality  is 1.20D-15 for    934    604.
 Error on total polarization charges =  0.00981
 SCF Done:  E(RB3LYP) =  -776.379014063     A.U. after   15 cycles
            NFock= 15  Conv=0.18D-08     -V/T= 2.0063

 **********************************************************************

            Population analysis using the SCF density.

 **********************************************************************

 Orbital symmetries:
       Occupied  (A) (A) (A) (A) (A) (A) (A) (A) (A) (A) (A) (A)
                 (A) (A) (A) (A) (A) (A) (A) (A) (A) (A) (A) (A)
                 (A) (A) (A) (A) (A) (A) (A)
       Virtual   (A) (A) (A) (A) (A) (A) (A) (A) (A) (A) (A) (A)
                 (A) (A) (A) (A) (A) (A) (A) (A) (A) (A) (A) (A)
                 (A) (A) (A) (A) (A) (A) (A) (A) (A) (A) (A) (A)
                 (A) (A) (A) (A) (A) (A) (A) (A) (A) (A) (A) (A)
                 (A) (A) (A) (A) (A) (A) (A) (A) (A) (A) (A) (A)
                 (A) (A) (A) (A) (A) (A) (A) (A) (A) (A) (A) (A)
                 (A) (A) (A) (A) (A) (A) (A) (A) (A) (A) (A) (A)
                 (A) (A) (A) (A) (A) (A) (A) (A) (A) (A) (A) (A)
                 (A) (A) (A) (A) (A) (A) (A) (A) (A) (A) (A) (A)
                 (A) (A) (A) (A) (A) (A) (A) (A)
 The electronic state is 1-A.
 Alpha  occ. eigenvalues --  -89.13942 -19.24995 -19.22360 -19.19199 -19.19146
 Alpha  occ. eigenvalues --  -10.36109 -10.33126  -8.17054  -6.13457  -6.13415
 Alpha  occ. eigenvalues --   -6.13342  -1.15004  -1.12684  -1.09290  -1.03682
 Alpha  occ. eigenvalues --   -0.82028  -0.72824  -0.60926  -0.59157  -0.53870
 Alpha  occ. eigenvalues --   -0.52472  -0.49185  -0.48884  -0.48640  -0.41798
 Alpha  occ. eigenvalues --   -0.39972  -0.36950  -0.36067  -0.34517  -0.33882
 Alpha  occ. eigenvalues --   -0.30782
 Alpha virt. eigenvalues --   -0.18274  -0.04473  -0.01381  -0.00184   0.01353
 Alpha virt. eigenvalues --    0.02226   0.03979   0.05035   0.06293   0.06723
 Alpha virt. eigenvalues --    0.08195   0.08745   0.09605   0.10036   0.11788
 Alpha virt. eigenvalues --    0.12881   0.13017   0.16215   0.17201   0.18725
 Alpha virt. eigenvalues --    0.20445   0.21243   0.22164   0.23466   0.23723
 Alpha virt. eigenvalues --    0.24708   0.26266   0.27089   0.27700   0.28838
 Alpha virt. eigenvalues --    0.29257   0.29497   0.31650   0.32965   0.36050
 Alpha virt. eigenvalues --    0.36420   0.38769   0.41425   0.47773   0.49153
 Alpha virt. eigenvalues --    0.54694   0.58429   0.60468   0.63065   0.67580
 Alpha virt. eigenvalues --    0.73514   0.74743   0.76551   0.81075   0.84330
 Alpha virt. eigenvalues --    0.92604   0.93339   0.99811   1.04901   1.08329
 Alpha virt. eigenvalues --    1.09762   1.14606   1.16008   1.18434   1.20407
 Alpha virt. eigenvalues --    1.21839   1.22105   1.23780   1.24975   1.25542
 Alpha virt. eigenvalues --    1.27015   1.27897   1.30959   1.31411   1.33811
 Alpha virt. eigenvalues --    1.39605   1.46943   1.50541   1.51979   1.55945
 Alpha virt. eigenvalues --    1.66311   1.68814   1.69793   1.74501   1.77718
 Alpha virt. eigenvalues --    1.78393   1.80089   1.80606   1.81034   1.83933
 Alpha virt. eigenvalues --    1.86228   1.94081   1.95761   1.97810   2.05291
 Alpha virt. eigenvalues --    2.07308   2.09512   2.16538   2.20219   2.21078
 Alpha virt. eigenvalues --    2.30387   2.35697   2.40783   2.50791   2.57633
 Alpha virt. eigenvalues --    2.59986   2.63341   2.76453   2.81306   2.86038
 Alpha virt. eigenvalues --    2.95897   3.01336   3.16278   3.48013   3.91729
 Alpha virt. eigenvalues --    3.99554   4.03233   4.06144   4.24836   4.32196
 Alpha virt. eigenvalues --    4.57226
          Condensed to atoms (all electrons):
               1          2          3          4          5          6
     1  S   14.515887  -0.226556  -0.112441   0.302073   0.219040   0.120982
     2  C   -0.226556   6.726999  -0.519784  -0.052368  -0.120313  -0.057335
     3  C   -0.112441  -0.519784   5.569085   0.041284   0.014289   0.046322
     4  H    0.302073  -0.052368   0.041284   0.720583  -0.065690  -0.065764
     5  O    0.219040  -0.120313   0.014289  -0.065690   8.680148  -0.133861
     6  O    0.120982  -0.057335   0.046322  -0.065764  -0.133861   8.691908
     7  O   -0.118416   0.512865  -0.164853  -0.003075   0.012758   0.010164
     8  O    0.024035  -0.216056   0.509108  -0.001361  -0.000408   0.000966
     9  H    0.042925  -0.120947   0.402235  -0.000909   0.000208  -0.009298
               7          8          9
     1  S   -0.118416   0.024035   0.042925
     2  C    0.512865  -0.216056  -0.120947
     3  C   -0.164853   0.509108   0.402235
     4  H   -0.003075  -0.001361  -0.000909
     5  O    0.012758  -0.000408   0.000208
     6  O    0.010164   0.000966  -0.009298
     7  O    8.033611   0.000149   0.004636
     8  O    0.000149   8.071524  -0.043392
     9  H    0.004636  -0.043392   0.527832
 Mulliken charges:
               1
     1  S    1.232471
     2  C    0.073495
     3  C    0.214754
     4  H    0.125228
     5  O   -0.606169
     6  O   -0.604085
     7  O   -0.287839
     8  O   -0.344564
     9  H    0.196710
 Sum of Mulliken charges =  -0.00000
 Mulliken charges with hydrogens summed into heavy atoms:
               1
     1  S    1.357698
     2  C    0.073495
     3  C    0.411464
     5  O   -0.606169
     6  O   -0.604085
     7  O   -0.287839
     8  O   -0.344564
 Electronic spatial extent (au):  <R**2>=            861.7801
 Charge=             -0.0000 electrons
 Dipole moment (field-independent basis, Debye):
    X=              0.6628    Y=             -2.1575    Z=              3.9061  Tot=              4.5113
 Quadrupole moment (field-independent basis, Debye-Ang):
   XX=            -60.7546   YY=            -53.8317   ZZ=            -41.0765
   XY=             -2.1389   XZ=             -4.4006   YZ=             -0.6734
 Traceless Quadrupole moment (field-independent basis, Debye-Ang):
   XX=             -8.8670   YY=             -1.9441   ZZ=             10.8111
   XY=             -2.1389   XZ=             -4.4006   YZ=             -0.6734
 Octapole moment (field-independent basis, Debye-Ang**2):
  XXX=            -20.5272  YYY=             -2.1078  ZZZ=              5.7293  XYY=              9.8374
  XXY=             -4.8812  XXZ=             10.1482  XZZ=             -1.6495  YZZ=              0.3635
  YYZ=              2.9107  XYZ=              0.4636
 Hexadecapole moment (field-independent basis, Debye-Ang**3):
 XXXX=           -833.8882 YYYY=           -283.0285 ZZZZ=            -55.6538 XXXY=             18.4374
 XXXZ=             -9.3697 YYYX=            -13.8900 YYYZ=             -1.4721 ZZZX=             -8.3768
 ZZZY=             -1.1757 XXYY=           -180.1719 XXZZ=           -120.5551 YYZZ=            -55.0016
 XXYZ=             -0.5232 YYXZ=             -2.7355 ZZXY=              1.4634
 N-N= 3.814632455564D+02 E-N=-2.594117746324D+03  KE= 7.715365453544D+02
 1\1\GINC-NODE62\SP\RB3LYP\6-31+G(d,p)\C2H2O4S1\YANZ\22-Sep-2023\0\\# b
 3lyp/6-31+g(d,p) scrf=(iefpcm,solvent=acetonitrile)\\tmpdir/M2_conf_0_
 118.gjf\\0,1\S,0,0.,0.,0.\C,0,1.799,0.,0.\C,0,2.47275,0.,1.22505\H,0,-
 0.33282,1.38372,0.03454\O,0,-0.47001,-0.58162,-1.27684\O,0,-0.46448,-0
 .61041,1.26946\O,0,2.39625,0.01261,-1.07828\O,0,3.7041,0.01169,1.2225\
 H,0,1.91856,-0.02333,2.15685\\Version=ES64L-G16RevA.03\State=1-A\HF=-7
 76.3790141\RMSD=1.782e-09\Dipole=-0.1329868,1.5047634,0.9318055\Quadru
 pole=-6.2228468,7.2324527,-1.0096059,-4.7442662,-0.066862,-0.151087\PG
 =C01 [X(C2H2O4S1)]\\@


 NOBODY LOSES ALL THE TIME
 I HAD AN UNCLE NAMED
 SOL WHO WAS A BORN FAILURE AND
 NEARLY EVERYBODY SAID HE SHOULD HAVE GONE
 INTO VAUDEVILLE PERHAPS BECAUSE MY UNCLE SOL COULD
 SING MCCANN HE WAS A DIVER ON XMAS EVE LIKE HELL ITSELF WHICH
 MAY OR MAY NOT ACCOUNT FOR THE FACT THAT MY UNCLE
 SOL INDULGED IN THAT POSSIBLY MOST INEXCUSABLE
 OF ALL TO USE A HIGHFALOOTIN PHRASE
 LUXURIES THAT IS OR TO
 WIT FARMING AND BE
 IT NEEDLESSLY
 ADDED
 MY UNCLE SOL'S FARM     
 FAILED BECAUSE THE CHICKENS
 ATE THE VEGETABLES SO
 MY UNCLE SOL HAD A
 CHICKEN FARM TILL THE
 SKUNKS ATE THE CHICKENS WHEN 
 MY UNCLE SOL
 HAD A SKUNK FARM BUT
 THE SKUNKS CAUGHT COLD AND
 DIED AND SO
 MY UNCLE SOL IMITATED THE
 SKUNKS IN A SUBTLE MANNER
 OR BY DROWNING HIMSELF IN THE WATERTANK
 BUT SOMEBODY WHO'D GIVEN MY UNCLE SOL A VICTOR     
 VICTROLA AND RECORDS WHILE HE LIVED PRESENTED TO
 HIM UPON THE AUSPICIOUS OCCASION OF HIS DECEASE A
 SCRUMPTIOUS NOT TO MENTION SPLENDIFEROUS FUNERAL WITH
 TALL BOYS IN BLACK GLOVES AND FLOWERS AND EVERYTHING AND
 I REMEMBER WE ALL CRIED LIKE THE MISSOURI
 WHEN MY UNCLE SOL'S COFFIN LURCHED BECAUSE     
 SOMEBODY PRESSED A BUTTON
 (AND DOWN WENT
 MY UNCLE
 SOL
 AND STARTED A WORM FARM)
           E. E. CUMMINGS
 Job cpu time:       0 days  0 hours  1 minutes 30.6 seconds.
 Elapsed time:       0 days  0 hours  0 minutes 46.4 seconds.
 File lengths (MBytes):  RWF=     33 Int=      0 D2E=      0 Chk=      3 Scr=      1
 Normal termination of Gaussian 16 at Fri Sep 22 17:13:00 2023.
