 Entering Gaussian System, Link 0=g16
 Initial command:
 /share/apps/gaussian/g16/l1.exe "/tmp/55647.mgr/Gau-3225.inp" -scrdir="/tmp/55647.mgr/"
 Entering Link 1 = /share/apps/gaussian/g16/l1.exe PID=      3226.
  
 Copyright (c) 1988,1990,1992,1993,1995,1998,2003,2009,2016,
            Gaussian, Inc.  All Rights Reserved.
  
 This is part of the Gaussian(R) 16 program.  It is based on
 the Gaussian(R) 09 system (copyright 2009, Gaussian, Inc.),
 the Gaussian(R) 03 system (copyright 2003, Gaussian, Inc.),
 the Gaussian(R) 98 system (copyright 1998, Gaussian, Inc.),
 the Gaussian(R) 94 system (copyright 1995, Gaussian, Inc.),
 the Gaussian 92(TM) system (copyright 1992, Gaussian, Inc.),
 the Gaussian 90(TM) system (copyright 1990, Gaussian, Inc.),
 the Gaussian 88(TM) system (copyright 1988, Gaussian, Inc.),
 the Gaussian 86(TM) system (copyright 1986, Carnegie Mellon
 University), and the Gaussian 82(TM) system (copyright 1983,
 Carnegie Mellon University). Gaussian is a federally registered
 trademark of Gaussian, Inc.
  
 This software contains proprietary and confidential information,
 including trade secrets, belonging to Gaussian, Inc.
  
 This software is provided under written license and may be
 used, copied, transmitted, or stored only in accord with that
 written license.
  
 The following legend is applicable only to US Government
 contracts under FAR:
  
                    RESTRICTED RIGHTS LEGEND
  
 Use, reproduction and disclosure by the US Government is
 subject to restrictions as set forth in subparagraphs (a)
 and (c) of the Commercial Computer Software - Restricted
 Rights clause in FAR 52.227-19.
  
 Gaussian, Inc.
 340 Quinnipiac St., Bldg. 40, Wallingford CT 06492
  
  
 ---------------------------------------------------------------
 Warning -- This program may not be used in any manner that
 competes with the business of Gaussian, Inc. or will provide
 assistance to any competitor of Gaussian, Inc.  The licensee
 of this program is prohibited from giving any competitor of
 Gaussian, Inc. access to this program.  By using this program,
 the user acknowledges that Gaussian, Inc. is engaged in the
 business of creating and licensing software in the field of
 computational chemistry and represents and warrants to the
 licensee that it is not a competitor of Gaussian, Inc. and that
 it will not use this program in any manner prohibited above.
 ---------------------------------------------------------------
  

 Cite this work as:
 Gaussian 16, Revision A.03,
 M. J. Frisch, G. W. Trucks, H. B. Schlegel, G. E. Scuseria, 
 M. A. Robb, J. R. Cheeseman, G. Scalmani, V. Barone, 
 G. A. Petersson, H. Nakatsuji, X. Li, M. Caricato, A. V. Marenich, 
 J. Bloino, B. G. Janesko, R. Gomperts, B. Mennucci, H. P. Hratchian, 
 J. V. Ortiz, A. F. Izmaylov, J. L. Sonnenberg, D. Williams-Young, 
 F. Ding, F. Lipparini, F. Egidi, J. Goings, B. Peng, A. Petrone, 
 T. Henderson, D. Ranasinghe, V. G. Zakrzewski, J. Gao, N. Rega, 
 G. Zheng, W. Liang, M. Hada, M. Ehara, K. Toyota, R. Fukuda, 
 J. Hasegawa, M. Ishida, T. Nakajima, Y. Honda, O. Kitao, H. Nakai, 
 T. Vreven, K. Throssell, J. A. Montgomery, Jr., J. E. Peralta, 
 F. Ogliaro, M. J. Bearpark, J. J. Heyd, E. N. Brothers, K. N. Kudin, 
 V. N. Staroverov, T. A. Keith, R. Kobayashi, J. Normand, 
 K. Raghavachari, A. P. Rendell, J. C. Burant, S. S. Iyengar, 
 J. Tomasi, M. Cossi, J. M. Millam, M. Klene, C. Adamo, R. Cammi, 
 J. W. Ochterski, R. L. Martin, K. Morokuma, O. Farkas, 
 J. B. Foresman, and D. J. Fox, Gaussian, Inc., Wallingford CT, 2016.
 
 ******************************************
 Gaussian 16:  ES64L-G16RevA.03 25-Dec-2016
                22-Sep-2023 
 ******************************************
 %nprocshared=2
 Will use up to    2 processors via shared memory.
 %mem=2GB
 ------------------------------------------------------
 # b3lyp/6-31+g(d,p) scrf=(iefpcm,solvent=acetonitrile)
 ------------------------------------------------------
 1/38=1,172=1/1;
 2/12=2,17=6,18=5,40=1/2;
 3/5=1,6=6,7=111,11=2,25=1,30=1,70=2201,72=2,74=-5/1,2,3;
 4//1;
 5/5=2,38=5,53=2/2;
 6/7=2,8=2,9=2,10=2,28=1/1;
 99/5=1,9=1/99;
 -----------------------
 tmpdir/M2_conf_0_99.gjf
 -----------------------
 Symbolic Z-matrix:
 Charge =  0 Multiplicity = 1
 C                     0.        0.        0. 
 S                     1.8664    0.        0. 
 H                    -0.44172   0.       -0.98104 
 H                    -0.28077   0.88203   0.57652 
 H                    -0.24157  -0.91351   0.55411 
 O                     2.35254   1.1537   -0.78877 
 O                     2.3203   -1.35969  -0.38091 
 H                     2.18669   0.20631   1.31596 
 
                          Input orientation:                          
 ---------------------------------------------------------------------
 Center     Atomic      Atomic             Coordinates (Angstroms)
 Number     Number       Type             X           Y           Z
 ---------------------------------------------------------------------
      1          6           0        0.000000    0.000000    0.000000
      2         16           0        1.866400    0.000000    0.000000
      3          1           0       -0.441720    0.000000   -0.981040
      4          1           0       -0.280770    0.882030    0.576520
      5          1           0       -0.241570   -0.913510    0.554110
      6          8           0        2.352540    1.153700   -0.788770
      7          8           0        2.320300   -1.359690   -0.380910
      8          1           0        2.186690    0.206310    1.315960
 ---------------------------------------------------------------------
                    Distance matrix (angstroms):
                    1          2          3          4          5
     1  C    0.000000
     2  S    1.866400   0.000000
     3  H    1.075898   2.507959   0.000000
     4  H    1.090497   2.391797   1.797185   0.000000
     5  H    1.095397   2.363277   1.797567   1.796108   0.000000
     6  O    2.736353   1.479701   3.029172   2.978614   3.578560
     7  O    2.716181   1.483197   3.136506   3.564764   2.763425
     8  H    2.560455   1.370000   3.496757   2.663030   2.780442
                    6          7          8
     6  O    0.000000
     7  O    2.546472   0.000000
     8  H    2.314075   2.312915   0.000000
 Stoichiometry    CH4O2S
 Framework group  C1[X(CH4O2S)]
 Deg. of freedom    18
 Full point group                 C1      NOp   1
 Largest Abelian subgroup         C1      NOp   1
 Largest concise Abelian subgroup C1      NOp   1
                         Standard orientation:                         
 ---------------------------------------------------------------------
 Center     Atomic      Atomic             Coordinates (Angstroms)
 Number     Number       Type             X           Y           Z
 ---------------------------------------------------------------------
      1          6           0        1.635329   -0.045944   -0.132771
      2         16           0       -0.194167   -0.000501    0.233739
      3          1           0        1.874282   -0.205014   -1.169668
      4          1           0        2.029959   -0.837248    0.505420
      5          1           0        1.976137    0.934682    0.216681
      6          8           0       -0.819654   -1.248006   -0.258208
      7          8           0       -0.722733    1.296617   -0.254089
      8          1           0       -0.246590    0.002370    1.602733
 ---------------------------------------------------------------------
 Rotational constants (GHZ):           8.1848434           7.0173734           4.3129622
 Standard basis: 6-31+G(d,p) (6D, 7F)
 There are   100 symmetry adapted cartesian basis functions of A   symmetry.
 There are   100 symmetry adapted basis functions of A   symmetry.
   100 basis functions,   180 primitive gaussians,   100 cartesian basis functions
    21 alpha electrons       21 beta electrons
       nuclear repulsion energy       190.4312096756 Hartrees.
 NAtoms=    8 NActive=    8 NUniq=    8 SFac= 1.00D+00 NAtFMM=   60 NAOKFM=F Big=F
 Integral buffers will be    131072 words long.
 Raffenetti 2 integral format.
 Two-electron integral symmetry is turned on.
 ------------------------------------------------------------------------------
 Polarizable Continuum Model (PCM)
 =================================
 Model                : PCM.
 Atomic radii         : UFF (Universal Force Field).
 Polarization charges : Total charges.
 Charge compensation  : None.
 Solution method      : On-the-fly selection.
 Cavity type          : Scaled VdW (van der Waals Surface) (Alpha=1.100).
 Cavity algorithm     : GePol (No added spheres)
                        Default sphere list used, NSphG=    8.
                        Lebedev-Laikov grids with approx.  5.0 points / Ang**2.
                        Smoothing algorithm: York/Karplus (Gamma=1.0000).
                        Polarization charges: spherical gaussians, with
                                              point-specific exponents (IZeta= 3).
                        Self-potential: point-specific (ISelfS= 7).
                        Self-field    : sphere-specific E.n sum rule (ISelfD= 2).
 Solvent              : Acetonitrile, Eps=  35.688000 Eps(inf)=   1.806874
 ------------------------------------------------------------------------------
 Spheres list:
 ISph  on   Nord     Re0    Alpha      Xe            Ye            Ze
    1   C      1    1.9255  1.100      1.635329     -0.045944     -0.132771
    2   S      2    2.0175  1.100     -0.194167     -0.000501      0.233739
    3   H      3    1.4430  1.100      1.874282     -0.205014     -1.169668
    4   H      4    1.4430  1.100      2.029959     -0.837248      0.505420
    5   H      5    1.4430  1.100      1.976137      0.934682      0.216681
    6   O      6    1.7500  1.100     -0.819654     -1.248006     -0.258208
    7   O      7    1.7500  1.100     -0.722733      1.296617     -0.254089
    8   H      8    1.4430  1.100     -0.246590      0.002370      1.602733
 ------------------------------------------------------------------------------
 One-electron integrals computed using PRISM.
 NBasis=   100 RedAO= T EigKep=  8.01D-04  NBF=   100
 NBsUse=   100 1.00D-06 EigRej= -1.00D+00 NBFU=   100
 ExpMin= 4.05D-02 ExpMax= 2.19D+04 ExpMxC= 3.30D+03 IAcc=3 IRadAn=         5 AccDes= 0.00D+00
 Harris functional with IExCor=  402 and IRadAn=       5 diagonalized for initial guess.
 HarFok:  IExCor=  402 AccDes= 0.00D+00 IRadAn=         5 IDoV= 1 UseB2=F ITyADJ=14
 ICtDFT=  3500011 ScaDFX=  1.000000  1.000000  1.000000  1.000000
 FoFCou: FMM=F IPFlag=           0 FMFlag=      100000 FMFlg1=           0
         NFxFlg=           0 DoJE=T BraDBF=F KetDBF=T FulRan=T
         wScrn=  0.000000 ICntrl=       500 IOpCl=  0 I1Cent=   200000004 NGrid=           0
         NMat0=    1 NMatS0=      1 NMatT0=    0 NMatD0=    1 NMtDS0=    0 NMtDT0=    0
 Petite list used in FoFCou.
 Keep R1 ints in memory in canonical form, NReq=14605004.
 Requested convergence on RMS density matrix=1.00D-08 within 128 cycles.
 Requested convergence on MAX density matrix=1.00D-06.
 Requested convergence on             energy=1.00D-06.
 No special actions if energy rises.
 Inv3:  Mode=1 IEnd=     2478843.
 Iteration    1 A*A^-1 deviation from unit magnitude is 2.78D-15 for    897.
 Iteration    1 A*A^-1 deviation from orthogonality  is 1.49D-15 for    748    185.
 Iteration    1 A^-1*A deviation from unit magnitude is 3.00D-15 for    866.
 Iteration    1 A^-1*A deviation from orthogonality  is 1.12D-15 for    907    862.
 Error on total polarization charges =  0.01040
 SCF Done:  E(RB3LYP) =  -589.098878157     A.U. after   11 cycles
            NFock= 11  Conv=0.44D-08     -V/T= 2.0058

 **********************************************************************

            Population analysis using the SCF density.

 **********************************************************************

 Orbital symmetries:
       Occupied  (A) (A) (A) (A) (A) (A) (A) (A) (A) (A) (A) (A)
                 (A) (A) (A) (A) (A) (A) (A) (A) (A)
       Virtual   (A) (A) (A) (A) (A) (A) (A) (A) (A) (A) (A) (A)
                 (A) (A) (A) (A) (A) (A) (A) (A) (A) (A) (A) (A)
                 (A) (A) (A) (A) (A) (A) (A) (A) (A) (A) (A) (A)
                 (A) (A) (A) (A) (A) (A) (A) (A) (A) (A) (A) (A)
                 (A) (A) (A) (A) (A) (A) (A) (A) (A) (A) (A) (A)
                 (A) (A) (A) (A) (A) (A) (A) (A) (A) (A) (A) (A)
                 (A) (A) (A) (A) (A) (A) (A)
 The electronic state is 1-A.
 Alpha  occ. eigenvalues --  -89.11892 -19.16959 -19.16852 -10.23608  -8.14884
 Alpha  occ. eigenvalues --   -6.11325  -6.11246  -6.11161  -1.11700  -1.01598
 Alpha  occ. eigenvalues --   -0.78252  -0.67072  -0.53604  -0.49458  -0.48200
 Alpha  occ. eigenvalues --   -0.44486  -0.43959  -0.35441  -0.34167  -0.32363
 Alpha  occ. eigenvalues --   -0.31303
 Alpha virt. eigenvalues --   -0.01369   0.00726   0.01149   0.02538   0.04734
 Alpha virt. eigenvalues --    0.06421   0.06994   0.07647   0.08961   0.11364
 Alpha virt. eigenvalues --    0.11576   0.13329   0.14304   0.17488   0.18725
 Alpha virt. eigenvalues --    0.20304   0.22791   0.23353   0.25888   0.26629
 Alpha virt. eigenvalues --    0.28704   0.30505   0.31220   0.44212   0.46279
 Alpha virt. eigenvalues --    0.53476   0.59025   0.59972   0.62936   0.67574
 Alpha virt. eigenvalues --    0.72275   0.74166   0.78264   0.91871   0.93033
 Alpha virt. eigenvalues --    0.95371   1.04270   1.07676   1.13867   1.19150
 Alpha virt. eigenvalues --    1.19738   1.21429   1.23607   1.26007   1.26321
 Alpha virt. eigenvalues --    1.27260   1.41894   1.47266   1.51971   1.57770
 Alpha virt. eigenvalues --    1.77527   1.79192   1.79858   1.81450   1.81760
 Alpha virt. eigenvalues --    1.97351   1.98950   2.00275   2.02301   2.04477
 Alpha virt. eigenvalues --    2.05267   2.18757   2.21351   2.26513   2.35225
 Alpha virt. eigenvalues --    2.36783   2.56609   2.65525   2.79497   2.80623
 Alpha virt. eigenvalues --    2.81033   2.83187   3.21186   3.39055   3.40239
 Alpha virt. eigenvalues --    3.94156   4.01260   4.03367   4.39628
          Condensed to atoms (all electrons):
               1          2          3          4          5          6
     1  C    5.664128   0.103036   0.373918   0.341576   0.350331  -0.096601
     2  S    0.103036  14.090919   0.000666  -0.002178  -0.010514   0.181525
     3  H    0.373918   0.000666   0.434316  -0.015644  -0.017464  -0.004090
     4  H    0.341576  -0.002178  -0.015644   0.473846  -0.021094  -0.002870
     5  H    0.350331  -0.010514  -0.017464  -0.021094   0.479067   0.008892
     6  O   -0.096601   0.181525  -0.004090  -0.002870   0.008892   8.758822
     7  O   -0.089306   0.190104  -0.003354   0.008438  -0.004679  -0.139192
     8  H   -0.096310   0.377365   0.001594   0.000961   0.000737  -0.074323
               7          8
     1  C   -0.089306  -0.096310
     2  S    0.190104   0.377365
     3  H   -0.003354   0.001594
     4  H    0.008438   0.000961
     5  H   -0.004679   0.000737
     6  O   -0.139192  -0.074323
     7  O    8.755200  -0.074645
     8  H   -0.074645   0.769940
 Mulliken charges:
               1
     1  C   -0.550773
     2  S    1.069076
     3  H    0.230058
     4  H    0.216965
     5  H    0.214723
     6  O   -0.632163
     7  O   -0.642566
     8  H    0.094680
 Sum of Mulliken charges =   0.00000
 Mulliken charges with hydrogens summed into heavy atoms:
               1
     1  C    0.110973
     2  S    1.163756
     6  O   -0.632163
     7  O   -0.642566
 Electronic spatial extent (au):  <R**2>=            327.7682
 Charge=              0.0000 electrons
 Dipole moment (field-independent basis, Debye):
    X=              5.1206    Y=             -0.1989    Z=              3.1106  Tot=              5.9946
 Quadrupole moment (field-independent basis, Debye-Ang):
   XX=            -29.8757   YY=            -39.1571   ZZ=            -27.8680
   XY=             -0.3578   XZ=             -2.2175   YZ=              0.0652
 Traceless Quadrupole moment (field-independent basis, Debye-Ang):
   XX=              2.4246   YY=             -6.8568   ZZ=              4.4322
   XY=             -0.3578   XZ=             -2.2175   YZ=              0.0652
 Octapole moment (field-independent basis, Debye-Ang**2):
  XXX=              7.4590  YYY=             -0.3428  ZZZ=              4.2247  XYY=              7.8374
  XXY=              0.0465  XXZ=              0.9078  XZZ=              0.7761  YZZ=             -0.4940
  YYZ=              3.3048  XYZ=              0.0613
 Hexadecapole moment (field-independent basis, Debye-Ang**3):
 XXXX=           -200.5985 YYYY=           -170.8473 ZZZZ=            -50.1208 XXXY=             -1.2988
 XXXZ=             -3.0964 YYYX=              0.7492 YYYZ=             -0.0465 ZZZX=             -4.7215
 ZZZY=              0.3507 XXYY=            -62.9061 XXZZ=            -40.5367 YYZZ=            -36.5107
 XXYZ=             -0.0939 YYXZ=              0.3378 ZZXY=             -1.0037
 N-N= 1.904312096756D+02 E-N=-1.773002666528D+03  KE= 5.856890147896D+02
 1\1\GINC-NODE62\SP\RB3LYP\6-31+G(d,p)\C1H4O2S1\YANZ\22-Sep-2023\0\\# b
 3lyp/6-31+g(d,p) scrf=(iefpcm,solvent=acetonitrile)\\tmpdir/M2_conf_0_
 99.gjf\\0,1\C,0,0.,0.,0.\S,0,1.8664,0.,0.\H,0,-0.44172,0.,-0.98104\H,0
 ,-0.28077,0.88203,0.57652\H,0,-0.24157,-0.91351,0.55411\O,0,2.35254,1.
 1537,-0.78877\O,0,2.3203,-1.35969,-0.38091\H,0,2.18669,0.20631,1.31596
 \\Version=ES64L-G16RevA.03\State=1-A\HF=-589.0988782\RMSD=4.435e-09\Di
 pole=-1.7363338,0.2768979,1.5718788\Quadrupole=2.5039642,-4.9156558,2.
 4116915,0.1892138,1.8003686,1.1989882\PG=C01 [X(C1H4O2S1)]\\@


 THERE IS MUCH PLEASURE TO BE GAINED FROM USELESS KNOWLEDGE

                                       -- BERTRAND RUSSELL
 Job cpu time:       0 days  0 hours  0 minutes 40.8 seconds.
 Elapsed time:       0 days  0 hours  0 minutes 20.8 seconds.
 File lengths (MBytes):  RWF=     21 Int=      0 D2E=      0 Chk=      2 Scr=      1
 Normal termination of Gaussian 16 at Fri Sep 22 17:11:56 2023.
