 Entering Gaussian System, Link 0=g16
 Initial command:
 /share/apps/gaussian/g16/l1.exe "/tmp/55647.mgr/Gau-2605.inp" -scrdir="/tmp/55647.mgr/"
 Entering Link 1 = /share/apps/gaussian/g16/l1.exe PID=      2606.
  
 Copyright (c) 1988,1990,1992,1993,1995,1998,2003,2009,2016,
            Gaussian, Inc.  All Rights Reserved.
  
 This is part of the Gaussian(R) 16 program.  It is based on
 the Gaussian(R) 09 system (copyright 2009, Gaussian, Inc.),
 the Gaussian(R) 03 system (copyright 2003, Gaussian, Inc.),
 the Gaussian(R) 98 system (copyright 1998, Gaussian, Inc.),
 the Gaussian(R) 94 system (copyright 1995, Gaussian, Inc.),
 the Gaussian 92(TM) system (copyright 1992, Gaussian, Inc.),
 the Gaussian 90(TM) system (copyright 1990, Gaussian, Inc.),
 the Gaussian 88(TM) system (copyright 1988, Gaussian, Inc.),
 the Gaussian 86(TM) system (copyright 1986, Carnegie Mellon
 University), and the Gaussian 82(TM) system (copyright 1983,
 Carnegie Mellon University). Gaussian is a federally registered
 trademark of Gaussian, Inc.
  
 This software contains proprietary and confidential information,
 including trade secrets, belonging to Gaussian, Inc.
  
 This software is provided under written license and may be
 used, copied, transmitted, or stored only in accord with that
 written license.
  
 The following legend is applicable only to US Government
 contracts under FAR:
  
                    RESTRICTED RIGHTS LEGEND
  
 Use, reproduction and disclosure by the US Government is
 subject to restrictions as set forth in subparagraphs (a)
 and (c) of the Commercial Computer Software - Restricted
 Rights clause in FAR 52.227-19.
  
 Gaussian, Inc.
 340 Quinnipiac St., Bldg. 40, Wallingford CT 06492
  
  
 ---------------------------------------------------------------
 Warning -- This program may not be used in any manner that
 competes with the business of Gaussian, Inc. or will provide
 assistance to any competitor of Gaussian, Inc.  The licensee
 of this program is prohibited from giving any competitor of
 Gaussian, Inc. access to this program.  By using this program,
 the user acknowledges that Gaussian, Inc. is engaged in the
 business of creating and licensing software in the field of
 computational chemistry and represents and warrants to the
 licensee that it is not a competitor of Gaussian, Inc. and that
 it will not use this program in any manner prohibited above.
 ---------------------------------------------------------------
  

 Cite this work as:
 Gaussian 16, Revision A.03,
 M. J. Frisch, G. W. Trucks, H. B. Schlegel, G. E. Scuseria, 
 M. A. Robb, J. R. Cheeseman, G. Scalmani, V. Barone, 
 G. A. Petersson, H. Nakatsuji, X. Li, M. Caricato, A. V. Marenich, 
 J. Bloino, B. G. Janesko, R. Gomperts, B. Mennucci, H. P. Hratchian, 
 J. V. Ortiz, A. F. Izmaylov, J. L. Sonnenberg, D. Williams-Young, 
 F. Ding, F. Lipparini, F. Egidi, J. Goings, B. Peng, A. Petrone, 
 T. Henderson, D. Ranasinghe, V. G. Zakrzewski, J. Gao, N. Rega, 
 G. Zheng, W. Liang, M. Hada, M. Ehara, K. Toyota, R. Fukuda, 
 J. Hasegawa, M. Ishida, T. Nakajima, Y. Honda, O. Kitao, H. Nakai, 
 T. Vreven, K. Throssell, J. A. Montgomery, Jr., J. E. Peralta, 
 F. Ogliaro, M. J. Bearpark, J. J. Heyd, E. N. Brothers, K. N. Kudin, 
 V. N. Staroverov, T. A. Keith, R. Kobayashi, J. Normand, 
 K. Raghavachari, A. P. Rendell, J. C. Burant, S. S. Iyengar, 
 J. Tomasi, M. Cossi, J. M. Millam, M. Klene, C. Adamo, R. Cammi, 
 J. W. Ochterski, R. L. Martin, K. Morokuma, O. Farkas, 
 J. B. Foresman, and D. J. Fox, Gaussian, Inc., Wallingford CT, 2016.
 
 ******************************************
 Gaussian 16:  ES64L-G16RevA.03 25-Dec-2016
                22-Sep-2023 
 ******************************************
 %nprocshared=2
 Will use up to    2 processors via shared memory.
 %mem=2GB
 ------------------------------------------------------
 # b3lyp/6-31+g(d,p) scrf=(iefpcm,solvent=acetonitrile)
 ------------------------------------------------------
 1/38=1,172=1/1;
 2/12=2,17=6,18=5,40=1/2;
 3/5=1,6=6,7=111,11=2,25=1,30=1,70=2201,72=2,74=-5/1,2,3;
 4//1;
 5/5=2,38=5,53=2/2;
 6/7=2,8=2,9=2,10=2,28=1/1;
 99/5=1,9=1/99;
 -----------------------
 tmpdir/M2_conf_0_11.gjf
 -----------------------
 Symbolic Z-matrix:
 Charge =  0 Multiplicity = 1
 C                     0.        0.        0. 
 C                     1.3984    0.        0. 
 S                     2.12129   0.        1.65937 
 O                    -0.59734  -0.06148  -1.07277 
 H                    -0.55753   0.05743   0.9309 
 O                     2.03411  -0.08585  -1.04866 
 O                     3.58775  -0.3123    1.47205 
 H                     2.01455   1.417     1.97248 
 
                          Input orientation:                          
 ---------------------------------------------------------------------
 Center     Atomic      Atomic             Coordinates (Angstroms)
 Number     Number       Type             X           Y           Z
 ---------------------------------------------------------------------
      1          6           0        0.000000    0.000000    0.000000
      2          6           0        1.398400    0.000000    0.000000
      3         16           0        2.121290    0.000000    1.659370
      4          8           0       -0.597340   -0.061480   -1.072770
      5          1           0       -0.557530    0.057430    0.930900
      6          8           0        2.034110   -0.085850   -1.048660
      7          8           0        3.587750   -0.312300    1.472050
      8          1           0        2.014550    1.417000    1.972480
 ---------------------------------------------------------------------
                    Distance matrix (angstroms):
                    1          2          3          4          5
     1  C    0.000000
     2  C    1.398400   0.000000
     3  S    2.693210   1.809994   0.000000
     4  O    1.229402   2.266626   3.854779   0.000000
     5  H    1.086606   2.166918   2.776696   2.007590   0.000000
     6  O    2.290123   1.229303   2.710793   2.631673   3.264320
     7  O    3.890554   2.656636   1.511001   4.904488   4.196771
     8  H    3.155468   2.505635   1.455101   4.275678   3.090132
                    6          7          8
     6  O    0.000000
     7  O    2.969690   0.000000
     8  H    3.374348   2.390788   0.000000
 Stoichiometry    C2H2O3S
 Framework group  C1[X(C2H2O3S)]
 Deg. of freedom    18
 Full point group                 C1      NOp   1
 Largest Abelian subgroup         C1      NOp   1
 Largest concise Abelian subgroup C1      NOp   1
                         Standard orientation:                         
 ---------------------------------------------------------------------
 Center     Atomic      Atomic             Coordinates (Angstroms)
 Number     Number       Type             X           Y           Z
 ---------------------------------------------------------------------
      1          6           0       -1.494710   -0.620396   -0.057132
      2          6           0       -0.404038    0.246294    0.064554
      3         16           0        1.197976   -0.592628   -0.011852
      4          8           0       -2.630840   -0.151235   -0.080077
      5          1           0       -1.348011   -1.694798   -0.126791
      6          8           0       -0.562999    1.463888    0.122691
      7          8           0        2.229359    0.498974   -0.178526
      8          1           0        1.288725   -1.071551    1.359176
 ---------------------------------------------------------------------
 Rotational constants (GHZ):           8.1546406           1.8296499           1.5192423
 Standard basis: 6-31+G(d,p) (6D, 7F)
 There are   128 symmetry adapted cartesian basis functions of A   symmetry.
 There are   128 symmetry adapted basis functions of A   symmetry.
   128 basis functions,   230 primitive gaussians,   128 cartesian basis functions
    27 alpha electrons       27 beta electrons
       nuclear repulsion energy       282.9582569458 Hartrees.
 NAtoms=    8 NActive=    8 NUniq=    8 SFac= 1.00D+00 NAtFMM=   60 NAOKFM=F Big=F
 Integral buffers will be    131072 words long.
 Raffenetti 2 integral format.
 Two-electron integral symmetry is turned on.
 ------------------------------------------------------------------------------
 Polarizable Continuum Model (PCM)
 =================================
 Model                : PCM.
 Atomic radii         : UFF (Universal Force Field).
 Polarization charges : Total charges.
 Charge compensation  : None.
 Solution method      : On-the-fly selection.
 Cavity type          : Scaled VdW (van der Waals Surface) (Alpha=1.100).
 Cavity algorithm     : GePol (No added spheres)
                        Default sphere list used, NSphG=    8.
                        Lebedev-Laikov grids with approx.  5.0 points / Ang**2.
                        Smoothing algorithm: York/Karplus (Gamma=1.0000).
                        Polarization charges: spherical gaussians, with
                                              point-specific exponents (IZeta= 3).
                        Self-potential: point-specific (ISelfS= 7).
                        Self-field    : sphere-specific E.n sum rule (ISelfD= 2).
 Solvent              : Acetonitrile, Eps=  35.688000 Eps(inf)=   1.806874
 ------------------------------------------------------------------------------
 Spheres list:
 ISph  on   Nord     Re0    Alpha      Xe            Ye            Ze
    1   C      1    1.9255  1.100     -1.494710     -0.620396     -0.057132
    2   C      2    1.9255  1.100     -0.404038      0.246294      0.064554
    3   S      3    2.0175  1.100      1.197976     -0.592628     -0.011852
    4   O      4    1.7500  1.100     -2.630840     -0.151235     -0.080077
    5   H      5    1.4430  1.100     -1.348011     -1.694798     -0.126791
    6   O      6    1.7500  1.100     -0.562999      1.463888      0.122691
    7   O      7    1.7500  1.100      2.229359      0.498974     -0.178526
    8   H      8    1.4430  1.100      1.288725     -1.071551      1.359176
 ------------------------------------------------------------------------------
 One-electron integrals computed using PRISM.
 NBasis=   128 RedAO= T EigKep=  6.37D-05  NBF=   128
 NBsUse=   128 1.00D-06 EigRej= -1.00D+00 NBFU=   128
 ExpMin= 4.05D-02 ExpMax= 2.19D+04 ExpMxC= 3.30D+03 IAcc=3 IRadAn=         5 AccDes= 0.00D+00
 Harris functional with IExCor=  402 and IRadAn=       5 diagonalized for initial guess.
 HarFok:  IExCor=  402 AccDes= 0.00D+00 IRadAn=         5 IDoV= 1 UseB2=F ITyADJ=14
 ICtDFT=  3500011 ScaDFX=  1.000000  1.000000  1.000000  1.000000
 FoFCou: FMM=F IPFlag=           0 FMFlag=      100000 FMFlg1=           0
         NFxFlg=           0 DoJE=T BraDBF=F KetDBF=T FulRan=T
         wScrn=  0.000000 ICntrl=       500 IOpCl=  0 I1Cent=   200000004 NGrid=           0
         NMat0=    1 NMatS0=      1 NMatT0=    0 NMatD0=    1 NMtDS0=    0 NMtDT0=    0
 Petite list used in FoFCou.
 Keep R1 ints in memory in canonical form, NReq=35994149.
 Requested convergence on RMS density matrix=1.00D-08 within 128 cycles.
 Requested convergence on MAX density matrix=1.00D-06.
 Requested convergence on             energy=1.00D-06.
 No special actions if energy rises.
 Inv3:  Mode=1 IEnd=     3276075.
 Iteration    1 A*A^-1 deviation from unit magnitude is 4.33D-15 for   1031.
 Iteration    1 A*A^-1 deviation from orthogonality  is 3.54D-15 for   1008    150.
 Iteration    1 A^-1*A deviation from unit magnitude is 4.55D-15 for   1031.
 Iteration    1 A^-1*A deviation from orthogonality  is 1.34D-15 for   1011    880.
 Error on total polarization charges =  0.01130
 SCF Done:  E(RB3LYP) =  -701.178938857     A.U. after   15 cycles
            NFock= 15  Conv=0.25D-08     -V/T= 2.0057

 **********************************************************************

            Population analysis using the SCF density.

 **********************************************************************

 Orbital symmetries:
       Occupied  (A) (A) (A) (A) (A) (A) (A) (A) (A) (A) (A) (A)
                 (A) (A) (A) (A) (A) (A) (A) (A) (A) (A) (A) (A)
                 (A) (A) (A)
       Virtual   (A) (A) (A) (A) (A) (A) (A) (A) (A) (A) (A) (A)
                 (A) (A) (A) (A) (A) (A) (A) (A) (A) (A) (A) (A)
                 (A) (A) (A) (A) (A) (A) (A) (A) (A) (A) (A) (A)
                 (A) (A) (A) (A) (A) (A) (A) (A) (A) (A) (A) (A)
                 (A) (A) (A) (A) (A) (A) (A) (A) (A) (A) (A) (A)
                 (A) (A) (A) (A) (A) (A) (A) (A) (A) (A) (A) (A)
                 (A) (A) (A) (A) (A) (A) (A) (A) (A) (A) (A) (A)
                 (A) (A) (A) (A) (A) (A) (A) (A) (A) (A) (A) (A)
                 (A) (A) (A) (A) (A)
 The electronic state is 1-A.
 Alpha  occ. eigenvalues --  -89.03524 -19.22554 -19.21201 -19.16028 -10.34053
 Alpha  occ. eigenvalues --  -10.32106  -8.08389  -6.04796  -6.04656  -6.04136
 Alpha  occ. eigenvalues --   -1.12160  -1.08162  -1.04869  -0.81991  -0.71478
 Alpha  occ. eigenvalues --   -0.58805  -0.56299  -0.50895  -0.50128  -0.47594
 Alpha  occ. eigenvalues --   -0.46236  -0.42318  -0.40296  -0.35324  -0.32823
 Alpha  occ. eigenvalues --   -0.30309  -0.27340
 Alpha virt. eigenvalues --   -0.16134  -0.04433  -0.02522   0.00367   0.01662
 Alpha virt. eigenvalues --    0.02473   0.04355   0.05244   0.06064   0.07587
 Alpha virt. eigenvalues --    0.08283   0.09667   0.10204   0.12429   0.12673
 Alpha virt. eigenvalues --    0.13229   0.16839   0.18971   0.19712   0.22209
 Alpha virt. eigenvalues --    0.22712   0.24103   0.24772   0.25125   0.26863
 Alpha virt. eigenvalues --    0.27399   0.27570   0.30039   0.31515   0.33670
 Alpha virt. eigenvalues --    0.37412   0.38664   0.41866   0.46757   0.48032
 Alpha virt. eigenvalues --    0.54503   0.57530   0.59139   0.61313   0.63360
 Alpha virt. eigenvalues --    0.70283   0.74831   0.78368   0.79056   0.84437
 Alpha virt. eigenvalues --    0.87903   0.92207   1.00587   1.03819   1.08765
 Alpha virt. eigenvalues --    1.10629   1.15559   1.16071   1.20065   1.22016
 Alpha virt. eigenvalues --    1.22589   1.24765   1.27076   1.28158   1.30571
 Alpha virt. eigenvalues --    1.31640   1.34033   1.39474   1.49398   1.52766
 Alpha virt. eigenvalues --    1.55769   1.66147   1.70124   1.71434   1.74712
 Alpha virt. eigenvalues --    1.79822   1.81385   1.84428   1.85812   1.92463
 Alpha virt. eigenvalues --    1.96746   1.98561   2.01474   2.07508   2.09803
 Alpha virt. eigenvalues --    2.14468   2.18627   2.21792   2.37510   2.40815
 Alpha virt. eigenvalues --    2.51205   2.57086   2.58338   2.64552   2.75649
 Alpha virt. eigenvalues --    2.86018   2.95228   3.01366   3.17454   3.47876
 Alpha virt. eigenvalues --    3.93681   3.99677   4.04253   4.25007   4.32881
 Alpha virt. eigenvalues --    4.57172
          Condensed to atoms (all electrons):
               1          2          3          4          5          6
     1  C    5.596215  -0.539038  -0.023725   0.509049   0.390293  -0.202616
     2  C   -0.539038   6.686078  -0.495985  -0.232452  -0.125487   0.568583
     3  S   -0.023725  -0.495985  15.504490   0.034356   0.044997  -0.108108
     4  O    0.509049  -0.232452   0.034356   8.107448  -0.043523   0.001310
     5  H    0.390293  -0.125487   0.044997  -0.043523   0.546787   0.004951
     6  O   -0.202616   0.568583  -0.108108   0.001310   0.004951   8.068655
     7  O    0.031861  -0.084196   0.123216  -0.001011   0.000174   0.018817
     8  H    0.045853   0.023179   0.165968  -0.002311  -0.000611  -0.004317
               7          8
     1  C    0.031861   0.045853
     2  C   -0.084196   0.023179
     3  S    0.123216   0.165968
     4  O   -0.001011  -0.002311
     5  H    0.000174  -0.000611
     6  O    0.018817  -0.004317
     7  O    8.699131  -0.053029
     8  H   -0.053029   0.698804
 Mulliken charges:
               1
     1  C    0.192108
     2  C    0.199319
     3  S    0.754792
     4  O   -0.372866
     5  H    0.182420
     6  O   -0.347274
     7  O   -0.734965
     8  H    0.126466
 Sum of Mulliken charges =  -0.00000
 Mulliken charges with hydrogens summed into heavy atoms:
               1
     1  C    0.374528
     2  C    0.199319
     3  S    0.881258
     4  O   -0.372866
     6  O   -0.347274
     7  O   -0.734965
 Electronic spatial extent (au):  <R**2>=            717.8103
 Charge=             -0.0000 electrons
 Dipole moment (field-independent basis, Debye):
    X=             -0.3489    Y=             -6.5541    Z=              1.5851  Tot=              6.7520
 Quadrupole moment (field-independent basis, Debye-Ang):
   XX=            -58.2337   YY=            -41.6149   ZZ=            -37.2700
   XY=             -2.7325   XZ=              2.6818   YZ=             -1.7537
 Traceless Quadrupole moment (field-independent basis, Debye-Ang):
   XX=            -12.5275   YY=              4.0913   ZZ=              8.4362
   XY=             -2.7325   XZ=              2.6818   YZ=             -1.7537
 Octapole moment (field-independent basis, Debye-Ang**2):
  XXX=              4.7676  YYY=            -10.3337  ZZZ=              2.4416  XYY=             -1.1191
  XXY=            -13.4364  XXZ=              6.1054  XZZ=              0.2237  YZZ=             -1.4290
  YYZ=              1.7405  XYZ=             -1.8319
 Hexadecapole moment (field-independent basis, Debye-Ang**3):
 XXXX=           -807.2736 YYYY=           -180.5416 ZZZZ=            -45.3394 XXXY=            -26.9075
 XXXZ=              6.9724 YYYX=              3.0735 YYYZ=             -3.3612 ZZZX=              4.2073
 ZZZY=             -2.5669 XXYY=           -138.4326 XXZZ=           -112.9196 YYZZ=            -36.0906
 XXYZ=             -2.3771 YYXZ=              3.4129 ZZXY=             -3.8511
 N-N= 2.829582569458D+02 E-N=-2.221599298741D+03  KE= 6.971930347989D+02
 1\1\GINC-NODE62\SP\RB3LYP\6-31+G(d,p)\C2H2O3S1\YANZ\22-Sep-2023\0\\# b
 3lyp/6-31+g(d,p) scrf=(iefpcm,solvent=acetonitrile)\\tmpdir/M2_conf_0_
 11.gjf\\0,1\C,0,0.,0.,0.\C,0,1.3984,0.,0.\S,0,2.12129,0.,1.65937\O,0,-
 0.59734,-0.06148,-1.07277\H,0,-0.55753,0.05743,0.9309\O,0,2.03411,-0.0
 8585,-1.04866\O,0,3.58775,-0.3123,1.47205\H,0,2.01455,1.417,1.97248\\V
 ersion=ES64L-G16RevA.03\State=1-A\HF=-701.1789389\RMSD=2.502e-09\Dipol
 e=-1.6509382,0.9303893,1.8616004\Quadrupole=-6.2838402,6.4636108,-0.17
 97705,1.3899337,-5.4779654,2.2099025\PG=C01 [X(C2H2O3S1)]\\@


 SOME THINGS ARE EASY, THEY ARE ONLY HARD TO DO.
            -- A. EINSTEIN TO J. O. HIRSCHFELDER
 THE ONLY TROUBLE WITH A SURE THING IS THE UNCERTAINTY.
     -- FROM A TEABAG (BELONGING TO W.H.?)
 Job cpu time:       0 days  0 hours  1 minutes 11.8 seconds.
 Elapsed time:       0 days  0 hours  0 minutes 36.5 seconds.
 File lengths (MBytes):  RWF=     30 Int=      0 D2E=      0 Chk=      2 Scr=      1
 Normal termination of Gaussian 16 at Fri Sep 22 17:11:16 2023.
