 Entering Gaussian System, Link 0=g16
 Initial command:
 /share/apps/gaussian/g16/l1.exe "/tmp/55647.mgr/Gau-3615.inp" -scrdir="/tmp/55647.mgr/"
 Entering Link 1 = /share/apps/gaussian/g16/l1.exe PID=      3616.
  
 Copyright (c) 1988,1990,1992,1993,1995,1998,2003,2009,2016,
            Gaussian, Inc.  All Rights Reserved.
  
 This is part of the Gaussian(R) 16 program.  It is based on
 the Gaussian(R) 09 system (copyright 2009, Gaussian, Inc.),
 the Gaussian(R) 03 system (copyright 2003, Gaussian, Inc.),
 the Gaussian(R) 98 system (copyright 1998, Gaussian, Inc.),
 the Gaussian(R) 94 system (copyright 1995, Gaussian, Inc.),
 the Gaussian 92(TM) system (copyright 1992, Gaussian, Inc.),
 the Gaussian 90(TM) system (copyright 1990, Gaussian, Inc.),
 the Gaussian 88(TM) system (copyright 1988, Gaussian, Inc.),
 the Gaussian 86(TM) system (copyright 1986, Carnegie Mellon
 University), and the Gaussian 82(TM) system (copyright 1983,
 Carnegie Mellon University). Gaussian is a federally registered
 trademark of Gaussian, Inc.
  
 This software contains proprietary and confidential information,
 including trade secrets, belonging to Gaussian, Inc.
  
 This software is provided under written license and may be
 used, copied, transmitted, or stored only in accord with that
 written license.
  
 The following legend is applicable only to US Government
 contracts under FAR:
  
                    RESTRICTED RIGHTS LEGEND
  
 Use, reproduction and disclosure by the US Government is
 subject to restrictions as set forth in subparagraphs (a)
 and (c) of the Commercial Computer Software - Restricted
 Rights clause in FAR 52.227-19.
  
 Gaussian, Inc.
 340 Quinnipiac St., Bldg. 40, Wallingford CT 06492
  
  
 ---------------------------------------------------------------
 Warning -- This program may not be used in any manner that
 competes with the business of Gaussian, Inc. or will provide
 assistance to any competitor of Gaussian, Inc.  The licensee
 of this program is prohibited from giving any competitor of
 Gaussian, Inc. access to this program.  By using this program,
 the user acknowledges that Gaussian, Inc. is engaged in the
 business of creating and licensing software in the field of
 computational chemistry and represents and warrants to the
 licensee that it is not a competitor of Gaussian, Inc. and that
 it will not use this program in any manner prohibited above.
 ---------------------------------------------------------------
  

 Cite this work as:
 Gaussian 16, Revision A.03,
 M. J. Frisch, G. W. Trucks, H. B. Schlegel, G. E. Scuseria, 
 M. A. Robb, J. R. Cheeseman, G. Scalmani, V. Barone, 
 G. A. Petersson, H. Nakatsuji, X. Li, M. Caricato, A. V. Marenich, 
 J. Bloino, B. G. Janesko, R. Gomperts, B. Mennucci, H. P. Hratchian, 
 J. V. Ortiz, A. F. Izmaylov, J. L. Sonnenberg, D. Williams-Young, 
 F. Ding, F. Lipparini, F. Egidi, J. Goings, B. Peng, A. Petrone, 
 T. Henderson, D. Ranasinghe, V. G. Zakrzewski, J. Gao, N. Rega, 
 G. Zheng, W. Liang, M. Hada, M. Ehara, K. Toyota, R. Fukuda, 
 J. Hasegawa, M. Ishida, T. Nakajima, Y. Honda, O. Kitao, H. Nakai, 
 T. Vreven, K. Throssell, J. A. Montgomery, Jr., J. E. Peralta, 
 F. Ogliaro, M. J. Bearpark, J. J. Heyd, E. N. Brothers, K. N. Kudin, 
 V. N. Staroverov, T. A. Keith, R. Kobayashi, J. Normand, 
 K. Raghavachari, A. P. Rendell, J. C. Burant, S. S. Iyengar, 
 J. Tomasi, M. Cossi, J. M. Millam, M. Klene, C. Adamo, R. Cammi, 
 J. W. Ochterski, R. L. Martin, K. Morokuma, O. Farkas, 
 J. B. Foresman, and D. J. Fox, Gaussian, Inc., Wallingford CT, 2016.
 
 ******************************************
 Gaussian 16:  ES64L-G16RevA.03 25-Dec-2016
                22-Sep-2023 
 ******************************************
 %nprocshared=2
 Will use up to    2 processors via shared memory.
 %mem=2GB
 ------------------------------------------------------
 # b3lyp/6-31+g(d,p) scrf=(iefpcm,solvent=acetonitrile)
 ------------------------------------------------------
 1/38=1,172=1/1;
 2/12=2,17=6,18=5,40=1/2;
 3/5=1,6=6,7=111,11=2,25=1,30=1,70=2201,72=2,74=-5/1,2,3;
 4//1;
 5/5=2,38=5,53=2/2;
 6/7=2,8=2,9=2,10=2,28=1/1;
 99/5=1,9=1/99;
 ------------------------
 tmpdir/M2_conf_0_131.gjf
 ------------------------
 Symbolic Z-matrix:
 Charge =  0 Multiplicity = 1
 C                     0.        0.        0. 
 H                     1.0853    0.        0. 
 H                    -0.49979   0.       -0.87871 
 O                    -0.62135  -0.00446   1.06545 
 
                          Input orientation:                          
 ---------------------------------------------------------------------
 Center     Atomic      Atomic             Coordinates (Angstroms)
 Number     Number       Type             X           Y           Z
 ---------------------------------------------------------------------
      1          6           0        0.000000    0.000000    0.000000
      2          1           0        1.085300    0.000000    0.000000
      3          1           0       -0.499790    0.000000   -0.878710
      4          8           0       -0.621350   -0.004460    1.065450
 ---------------------------------------------------------------------
                    Distance matrix (angstroms):
                    1          2          3          4
     1  C    0.000000
     2  H    1.085300   0.000000
     3  H    1.010901   1.812358   0.000000
     4  O    1.233402   2.011929   1.947962   0.000000
 Stoichiometry    CH2O
 Framework group  C1[X(CH2O)]
 Deg. of freedom     6
 Full point group                 C1      NOp   1
 Largest Abelian subgroup         C1      NOp   1
 Largest concise Abelian subgroup C1      NOp   1
                         Standard orientation:                         
 ---------------------------------------------------------------------
 Center     Atomic      Atomic             Coordinates (Angstroms)
 Number     Number       Type             X           Y           Z
 ---------------------------------------------------------------------
      1          6           0        0.550682   -0.013118   -0.000525
      2          1           0        1.112962    0.915168    0.001065
      3          1           0        1.043328   -0.895852    0.001142
      4          8           0       -0.682548    0.007424    0.000118
 ---------------------------------------------------------------------
 Rotational constants (GHZ):         305.3204701          38.0424170          33.8275841
 Standard basis: 6-31+G(d,p) (6D, 7F)
 There are    48 symmetry adapted cartesian basis functions of A   symmetry.
 There are    48 symmetry adapted basis functions of A   symmetry.
    48 basis functions,    78 primitive gaussians,    48 cartesian basis functions
     8 alpha electrons        8 beta electrons
       nuclear repulsion energy        31.2296032787 Hartrees.
 NAtoms=    4 NActive=    4 NUniq=    4 SFac= 1.00D+00 NAtFMM=   60 NAOKFM=F Big=F
 Integral buffers will be    131072 words long.
 Raffenetti 2 integral format.
 Two-electron integral symmetry is turned on.
 ------------------------------------------------------------------------------
 Polarizable Continuum Model (PCM)
 =================================
 Model                : PCM.
 Atomic radii         : UFF (Universal Force Field).
 Polarization charges : Total charges.
 Charge compensation  : None.
 Solution method      : On-the-fly selection.
 Cavity type          : Scaled VdW (van der Waals Surface) (Alpha=1.100).
 Cavity algorithm     : GePol (No added spheres)
                        Default sphere list used, NSphG=    4.
                        Lebedev-Laikov grids with approx.  5.0 points / Ang**2.
                        Smoothing algorithm: York/Karplus (Gamma=1.0000).
                        Polarization charges: spherical gaussians, with
                                              point-specific exponents (IZeta= 3).
                        Self-potential: point-specific (ISelfS= 7).
                        Self-field    : sphere-specific E.n sum rule (ISelfD= 2).
 Solvent              : Acetonitrile, Eps=  35.688000 Eps(inf)=   1.806874
 ------------------------------------------------------------------------------
 Spheres list:
 ISph  on   Nord     Re0    Alpha      Xe            Ye            Ze
    1   C      1    1.9255  1.100      0.550682     -0.013118     -0.000525
    2   H      2    1.4430  1.100      1.112962      0.915168      0.001065
    3   H      3    1.4430  1.100      1.043328     -0.895852      0.001142
    4   O      4    1.7500  1.100     -0.682548      0.007424      0.000118
 ------------------------------------------------------------------------------
 One-electron integrals computed using PRISM.
 NBasis=    48 RedAO= T EigKep=  6.31D-03  NBF=    48
 NBsUse=    48 1.00D-06 EigRej= -1.00D+00 NBFU=    48
 ExpMin= 4.38D-02 ExpMax= 5.48D+03 ExpMxC= 8.25D+02 IAcc=3 IRadAn=         5 AccDes= 0.00D+00
 Harris functional with IExCor=  402 and IRadAn=       5 diagonalized for initial guess.
 HarFok:  IExCor=  402 AccDes= 0.00D+00 IRadAn=         5 IDoV= 1 UseB2=F ITyADJ=14
 ICtDFT=  3500011 ScaDFX=  1.000000  1.000000  1.000000  1.000000
 FoFCou: FMM=F IPFlag=           0 FMFlag=      100000 FMFlg1=           0
         NFxFlg=           0 DoJE=T BraDBF=F KetDBF=T FulRan=T
         wScrn=  0.000000 ICntrl=       500 IOpCl=  0 I1Cent=   200000004 NGrid=           0
         NMat0=    1 NMatS0=      1 NMatT0=    0 NMatD0=    1 NMtDS0=    0 NMtDT0=    0
 Petite list used in FoFCou.
 Keep R1 ints in memory in canonical form, NReq=2434982.
 Requested convergence on RMS density matrix=1.00D-08 within 128 cycles.
 Requested convergence on MAX density matrix=1.00D-06.
 Requested convergence on             energy=1.00D-06.
 No special actions if energy rises.
 Inv3:  Mode=1 IEnd=      817452.
 Iteration    1 A*A^-1 deviation from unit magnitude is 3.33D-15 for    521.
 Iteration    1 A*A^-1 deviation from orthogonality  is 8.33D-16 for    504     10.
 Iteration    1 A^-1*A deviation from unit magnitude is 3.33D-15 for    521.
 Iteration    1 A^-1*A deviation from orthogonality  is 1.43D-15 for    401     53.
 Error on total polarization charges =  0.00688
 SCF Done:  E(RB3LYP) =  -114.510724925     A.U. after    9 cycles
            NFock=  9  Conv=0.38D-08     -V/T= 2.0086

 **********************************************************************

            Population analysis using the SCF density.

 **********************************************************************

 Orbital symmetries:
       Occupied  (A) (A) (A) (A) (A) (A) (A) (A)
       Virtual   (A) (A) (A) (A) (A) (A) (A) (A) (A) (A) (A) (A)
                 (A) (A) (A) (A) (A) (A) (A) (A) (A) (A) (A) (A)
                 (A) (A) (A) (A) (A) (A) (A) (A) (A) (A) (A) (A)
                 (A) (A) (A) (A)
 The electronic state is 1-A.
 Alpha  occ. eigenvalues --  -19.18393 -10.28857  -1.06104  -0.65757  -0.51362
 Alpha  occ. eigenvalues --   -0.46048  -0.40371  -0.28336
 Alpha virt. eigenvalues --   -0.06551   0.02132   0.04254   0.05290   0.07329
 Alpha virt. eigenvalues --    0.16984   0.19503   0.20760   0.21407   0.25941
 Alpha virt. eigenvalues --    0.27400   0.35521   0.63227   0.65943   0.72304
 Alpha virt. eigenvalues --    0.90808   0.94711   1.02539   1.16900   1.17269
 Alpha virt. eigenvalues --    1.21175   1.35566   1.45449   1.49329   1.68753
 Alpha virt. eigenvalues --    1.79847   1.85874   2.00309   2.04618   2.17723
 Alpha virt. eigenvalues --    2.26523   2.57846   2.63188   2.80070   2.87656
 Alpha virt. eigenvalues --    2.94884   3.43087   3.62710   4.03670   4.39144
          Condensed to atoms (all electrons):
               1          2          3          4
     1  C    4.698568   0.393145   0.395082   0.386774
     2  H    0.393145   0.608536  -0.072915  -0.069963
     3  H    0.395082  -0.072915   0.599347  -0.068770
     4  O    0.386774  -0.069963  -0.068770   8.166843
 Mulliken charges:
               1
     1  C    0.126431
     2  H    0.141198
     3  H    0.147255
     4  O   -0.414884
 Sum of Mulliken charges =   0.00000
 Mulliken charges with hydrogens summed into heavy atoms:
               1
     1  C    0.414884
     4  O   -0.414884
 Electronic spatial extent (au):  <R**2>=             60.3430
 Charge=              0.0000 electrons
 Dipole moment (field-independent basis, Debye):
    X=              3.2689    Y=             -0.0976    Z=              0.0004  Tot=              3.2704
 Quadrupole moment (field-independent basis, Debye-Ang):
   XX=            -12.2707   YY=            -11.4895   ZZ=            -11.6995
   XY=             -0.0276   XZ=              0.0011   YZ=              0.0001
 Traceless Quadrupole moment (field-independent basis, Debye-Ang):
   XX=             -0.4508   YY=              0.3304   ZZ=              0.1204
   XY=             -0.0276   XZ=              0.0011   YZ=              0.0001
 Octapole moment (field-independent basis, Debye-Ang**2):
  XXX=              1.6242  YYY=             -0.2127  ZZZ=              0.0014  XYY=              1.3496
  XXY=             -0.0538  XXZ=              0.0030  XZZ=             -0.0760  YZZ=             -0.0904
  YYZ=              0.0029  XYZ=              0.0000
 Hexadecapole moment (field-independent basis, Debye-Ang**3):
 XXXX=            -46.3569 YYYY=            -17.2963 ZZZZ=            -10.7320 XXXY=             -0.1897
 XXXZ=              0.0030 YYYX=             -0.1532 YYYZ=             -0.0001 ZZZX=             -0.0001
 ZZZY=             -0.0001 XXYY=            -10.3391 XXZZ=             -9.4996 YYZZ=             -4.9648
 XXYZ=              0.0002 YYXZ=              0.0028 ZZXY=             -0.1049
 N-N= 3.122960327871D+01 E-N=-3.308086020401D+02  KE= 1.135381667632D+02
 1\1\GINC-NODE62\SP\RB3LYP\6-31+G(d,p)\C1H2O1\YANZ\22-Sep-2023\0\\# b3l
 yp/6-31+g(d,p) scrf=(iefpcm,solvent=acetonitrile)\\tmpdir/M2_conf_0_13
 1.gjf\\0,1\C,0,0.,0.,0.\H,0,1.0853,0.,0.\H,0,-0.49979,0.,-0.87871\O,0,
 -0.62135,-0.00446,1.06545\\Version=ES64L-G16RevA.03\State=1-A\HF=-114.
 5107249\RMSD=3.828e-09\Dipole=0.6334598,0.0038207,-1.1199243\Quadrupol
 e=0.071571,0.0894993,-0.1610703,-0.0012417,0.2668845,0.0017534\PG=C01 
 [X(C1H2O1)]\\@


 Just remember, when you're over the hill, you begin to pick up speed.
 -- Charles Schulz
 Job cpu time:       0 days  0 hours  0 minutes  8.8 seconds.
 Elapsed time:       0 days  0 hours  0 minutes  4.5 seconds.
 File lengths (MBytes):  RWF=     11 Int=      0 D2E=      0 Chk=      1 Scr=      1
 Normal termination of Gaussian 16 at Fri Sep 22 17:12:14 2023.
