 Entering Gaussian System, Link 0=g16
 Initial command:
 /share/apps/gaussian/g16/l1.exe "/tmp/55647.mgr/Gau-3705.inp" -scrdir="/tmp/55647.mgr/"
 Entering Link 1 = /share/apps/gaussian/g16/l1.exe PID=      3706.
  
 Copyright (c) 1988,1990,1992,1993,1995,1998,2003,2009,2016,
            Gaussian, Inc.  All Rights Reserved.
  
 This is part of the Gaussian(R) 16 program.  It is based on
 the Gaussian(R) 09 system (copyright 2009, Gaussian, Inc.),
 the Gaussian(R) 03 system (copyright 2003, Gaussian, Inc.),
 the Gaussian(R) 98 system (copyright 1998, Gaussian, Inc.),
 the Gaussian(R) 94 system (copyright 1995, Gaussian, Inc.),
 the Gaussian 92(TM) system (copyright 1992, Gaussian, Inc.),
 the Gaussian 90(TM) system (copyright 1990, Gaussian, Inc.),
 the Gaussian 88(TM) system (copyright 1988, Gaussian, Inc.),
 the Gaussian 86(TM) system (copyright 1986, Carnegie Mellon
 University), and the Gaussian 82(TM) system (copyright 1983,
 Carnegie Mellon University). Gaussian is a federally registered
 trademark of Gaussian, Inc.
  
 This software contains proprietary and confidential information,
 including trade secrets, belonging to Gaussian, Inc.
  
 This software is provided under written license and may be
 used, copied, transmitted, or stored only in accord with that
 written license.
  
 The following legend is applicable only to US Government
 contracts under FAR:
  
                    RESTRICTED RIGHTS LEGEND
  
 Use, reproduction and disclosure by the US Government is
 subject to restrictions as set forth in subparagraphs (a)
 and (c) of the Commercial Computer Software - Restricted
 Rights clause in FAR 52.227-19.
  
 Gaussian, Inc.
 340 Quinnipiac St., Bldg. 40, Wallingford CT 06492
  
  
 ---------------------------------------------------------------
 Warning -- This program may not be used in any manner that
 competes with the business of Gaussian, Inc. or will provide
 assistance to any competitor of Gaussian, Inc.  The licensee
 of this program is prohibited from giving any competitor of
 Gaussian, Inc. access to this program.  By using this program,
 the user acknowledges that Gaussian, Inc. is engaged in the
 business of creating and licensing software in the field of
 computational chemistry and represents and warrants to the
 licensee that it is not a competitor of Gaussian, Inc. and that
 it will not use this program in any manner prohibited above.
 ---------------------------------------------------------------
  

 Cite this work as:
 Gaussian 16, Revision A.03,
 M. J. Frisch, G. W. Trucks, H. B. Schlegel, G. E. Scuseria, 
 M. A. Robb, J. R. Cheeseman, G. Scalmani, V. Barone, 
 G. A. Petersson, H. Nakatsuji, X. Li, M. Caricato, A. V. Marenich, 
 J. Bloino, B. G. Janesko, R. Gomperts, B. Mennucci, H. P. Hratchian, 
 J. V. Ortiz, A. F. Izmaylov, J. L. Sonnenberg, D. Williams-Young, 
 F. Ding, F. Lipparini, F. Egidi, J. Goings, B. Peng, A. Petrone, 
 T. Henderson, D. Ranasinghe, V. G. Zakrzewski, J. Gao, N. Rega, 
 G. Zheng, W. Liang, M. Hada, M. Ehara, K. Toyota, R. Fukuda, 
 J. Hasegawa, M. Ishida, T. Nakajima, Y. Honda, O. Kitao, H. Nakai, 
 T. Vreven, K. Throssell, J. A. Montgomery, Jr., J. E. Peralta, 
 F. Ogliaro, M. J. Bearpark, J. J. Heyd, E. N. Brothers, K. N. Kudin, 
 V. N. Staroverov, T. A. Keith, R. Kobayashi, J. Normand, 
 K. Raghavachari, A. P. Rendell, J. C. Burant, S. S. Iyengar, 
 J. Tomasi, M. Cossi, J. M. Millam, M. Klene, C. Adamo, R. Cammi, 
 J. W. Ochterski, R. L. Martin, K. Morokuma, O. Farkas, 
 J. B. Foresman, and D. J. Fox, Gaussian, Inc., Wallingford CT, 2016.
 
 ******************************************
 Gaussian 16:  ES64L-G16RevA.03 25-Dec-2016
                22-Sep-2023 
 ******************************************
 %nprocshared=2
 Will use up to    2 processors via shared memory.
 %mem=2GB
 ------------------------------------------------------
 # b3lyp/6-31+g(d,p) scrf=(iefpcm,solvent=acetonitrile)
 ------------------------------------------------------
 1/38=1,172=1/1;
 2/12=2,17=6,18=5,40=1/2;
 3/5=1,6=6,7=111,11=2,25=1,30=1,70=2201,72=2,74=-5/1,2,3;
 4//1;
 5/5=2,38=5,53=2/2;
 6/7=2,8=2,9=2,10=2,28=1/1;
 99/5=1,9=1/99;
 ------------------------
 tmpdir/M2_conf_0_141.gjf
 ------------------------
 Symbolic Z-matrix:
 Charge =  0 Multiplicity = 1
 C                     0.        0.        0. 
 C                     1.399     0.        0. 
 C                     2.10705   0.        1.20636 
 H                    -0.50728   0.00275   0.8744 
 H                    -0.54675  -0.00687  -0.9375 
 H                     1.93851  -0.00362  -0.94204 
 O                     1.50162   0.00242   2.27864 
 H                     3.19233  -0.00671   1.20315 
 
                          Input orientation:                          
 ---------------------------------------------------------------------
 Center     Atomic      Atomic             Coordinates (Angstroms)
 Number     Number       Type             X           Y           Z
 ---------------------------------------------------------------------
      1          6           0        0.000000    0.000000    0.000000
      2          6           0        1.399000    0.000000    0.000000
      3          6           0        2.107050    0.000000    1.206360
      4          1           0       -0.507280    0.002750    0.874400
      5          1           0       -0.546750   -0.006870   -0.937500
      6          1           0        1.938510   -0.003620   -0.942040
      7          8           0        1.501620    0.002420    2.278640
      8          1           0        3.192330   -0.006710    1.203150
 ---------------------------------------------------------------------
                    Distance matrix (angstroms):
                    1          2          3          4          5
     1  C    0.000000
     2  C    1.399000   0.000000
     3  C    2.427955   1.398799   0.000000
     4  H    1.010899   2.097257   2.635323   0.000000
     5  H    1.085306   2.159837   3.411574   1.812355   0.000000
     6  H    2.155290   1.085598   2.155004   3.046536   2.485266
     7  O    2.728932   2.280951   1.231396   2.451034   3.813065
     8  H    3.411537   2.159548   1.085305   3.714200   4.308492
                    6          7          8
     6  H    0.000000
     7  O    3.250183   0.000000
     8  H    2.484736   2.003812   0.000000
 Stoichiometry    C3H4O
 Framework group  C1[X(C3H4O)]
 Deg. of freedom    18
 Full point group                 C1      NOp   1
 Largest Abelian subgroup         C1      NOp   1
 Largest concise Abelian subgroup C1      NOp   1
                         Standard orientation:                         
 ---------------------------------------------------------------------
 Center     Atomic      Atomic             Coordinates (Angstroms)
 Number     Number       Type             X           Y           Z
 ---------------------------------------------------------------------
      1          6           0        1.428968   -0.470577   -0.000066
      2          6           0        0.584758    0.644999   -0.001534
      3          6           0       -0.804469    0.481643   -0.000122
      4          1           0        1.037823   -1.402736   -0.000722
      5          1           0        2.506474   -0.340826    0.005703
      6          1           0        1.010392    1.643676   -0.000163
      7          8           0       -1.294178   -0.648189    0.000009
      8          1           0       -1.456803    1.349006    0.005444
 ---------------------------------------------------------------------
 Rotational constants (GHZ):          21.3636657           6.8565931           5.1906762
 Standard basis: 6-31+G(d,p) (6D, 7F)
 There are    96 symmetry adapted cartesian basis functions of A   symmetry.
 There are    96 symmetry adapted basis functions of A   symmetry.
    96 basis functions,   156 primitive gaussians,    96 cartesian basis functions
    15 alpha electrons       15 beta electrons
       nuclear repulsion energy       105.9466205246 Hartrees.
 NAtoms=    8 NActive=    8 NUniq=    8 SFac= 1.00D+00 NAtFMM=   60 NAOKFM=F Big=F
 Integral buffers will be    131072 words long.
 Raffenetti 2 integral format.
 Two-electron integral symmetry is turned on.
 ------------------------------------------------------------------------------
 Polarizable Continuum Model (PCM)
 =================================
 Model                : PCM.
 Atomic radii         : UFF (Universal Force Field).
 Polarization charges : Total charges.
 Charge compensation  : None.
 Solution method      : On-the-fly selection.
 Cavity type          : Scaled VdW (van der Waals Surface) (Alpha=1.100).
 Cavity algorithm     : GePol (No added spheres)
                        Default sphere list used, NSphG=    8.
                        Lebedev-Laikov grids with approx.  5.0 points / Ang**2.
                        Smoothing algorithm: York/Karplus (Gamma=1.0000).
                        Polarization charges: spherical gaussians, with
                                              point-specific exponents (IZeta= 3).
                        Self-potential: point-specific (ISelfS= 7).
                        Self-field    : sphere-specific E.n sum rule (ISelfD= 2).
 Solvent              : Acetonitrile, Eps=  35.688000 Eps(inf)=   1.806874
 ------------------------------------------------------------------------------
 Spheres list:
 ISph  on   Nord     Re0    Alpha      Xe            Ye            Ze
    1   C      1    1.9255  1.100      1.428968     -0.470577     -0.000066
    2   C      2    1.9255  1.100      0.584758      0.644999     -0.001534
    3   C      3    1.9255  1.100     -0.804469      0.481643     -0.000122
    4   H      4    1.4430  1.100      1.037823     -1.402736     -0.000722
    5   H      5    1.4430  1.100      2.506474     -0.340826      0.005703
    6   H      6    1.4430  1.100      1.010392      1.643676     -0.000163
    7   O      7    1.7500  1.100     -1.294178     -0.648189      0.000009
    8   H      8    1.4430  1.100     -1.456803      1.349006      0.005444
 ------------------------------------------------------------------------------
 One-electron integrals computed using PRISM.
 NBasis=    96 RedAO= T EigKep=  1.30D-04  NBF=    96
 NBsUse=    96 1.00D-06 EigRej= -1.00D+00 NBFU=    96
 ExpMin= 4.38D-02 ExpMax= 5.48D+03 ExpMxC= 8.25D+02 IAcc=3 IRadAn=         5 AccDes= 0.00D+00
 Harris functional with IExCor=  402 and IRadAn=       5 diagonalized for initial guess.
 HarFok:  IExCor=  402 AccDes= 0.00D+00 IRadAn=         5 IDoV= 1 UseB2=F ITyADJ=14
 ICtDFT=  3500011 ScaDFX=  1.000000  1.000000  1.000000  1.000000
 FoFCou: FMM=F IPFlag=           0 FMFlag=      100000 FMFlg1=           0
         NFxFlg=           0 DoJE=T BraDBF=F KetDBF=T FulRan=T
         wScrn=  0.000000 ICntrl=       500 IOpCl=  0 I1Cent=   200000004 NGrid=           0
         NMat0=    1 NMatS0=      1 NMatT0=    0 NMatD0=    1 NMtDS0=    0 NMtDT0=    0
 Petite list used in FoFCou.
 Keep R1 ints in memory in canonical form, NReq=12684406.
 Requested convergence on RMS density matrix=1.00D-08 within 128 cycles.
 Requested convergence on MAX density matrix=1.00D-06.
 Requested convergence on             energy=1.00D-06.
 No special actions if energy rises.
 Inv3:  Mode=1 IEnd=     2091675.
 Iteration    1 A*A^-1 deviation from unit magnitude is 3.22D-15 for    825.
 Iteration    1 A*A^-1 deviation from orthogonality  is 1.54D-15 for    825    790.
 Iteration    1 A^-1*A deviation from unit magnitude is 3.44D-15 for    825.
 Iteration    1 A^-1*A deviation from orthogonality  is 1.39D-15 for    835    713.
 Error on total polarization charges =  0.01117
 SCF Done:  E(RB3LYP) =  -191.919819324     A.U. after   12 cycles
            NFock= 12  Conv=0.14D-08     -V/T= 2.0088

 **********************************************************************

            Population analysis using the SCF density.

 **********************************************************************

 Orbital symmetries:
       Occupied  (A) (A) (A) (A) (A) (A) (A) (A) (A) (A) (A) (A)
                 (A) (A) (A)
       Virtual   (A) (A) (A) (A) (A) (A) (A) (A) (A) (A) (A) (A)
                 (A) (A) (A) (A) (A) (A) (A) (A) (A) (A) (A) (A)
                 (A) (A) (A) (A) (A) (A) (A) (A) (A) (A) (A) (A)
                 (A) (A) (A) (A) (A) (A) (A) (A) (A) (A) (A) (A)
                 (A) (A) (A) (A) (A) (A) (A) (A) (A) (A) (A) (A)
                 (A) (A) (A) (A) (A) (A) (A) (A) (A) (A) (A) (A)
                 (A) (A) (A) (A) (A) (A) (A) (A) (A)
 The electronic state is 1-A.
 Alpha  occ. eigenvalues --  -19.15833 -10.28078 -10.22432 -10.21248  -1.05158
 Alpha  occ. eigenvalues --   -0.79903  -0.67973  -0.55764  -0.52350  -0.46147
 Alpha  occ. eigenvalues --   -0.42649  -0.41110  -0.39765  -0.28577  -0.27387
 Alpha virt. eigenvalues --   -0.09720   0.01402   0.03131   0.03964   0.04169
 Alpha virt. eigenvalues --    0.06268   0.06549   0.07530   0.09687   0.09805
 Alpha virt. eigenvalues --    0.12250   0.12389   0.14298   0.16398   0.19973
 Alpha virt. eigenvalues --    0.22180   0.23454   0.24377   0.26221   0.27037
 Alpha virt. eigenvalues --    0.29031   0.31705   0.32372   0.41185   0.46144
 Alpha virt. eigenvalues --    0.63203   0.64916   0.67560   0.68480   0.70784
 Alpha virt. eigenvalues --    0.72006   0.76621   0.86913   0.90434   0.91738
 Alpha virt. eigenvalues --    0.95238   1.03714   1.07262   1.09358   1.16154
 Alpha virt. eigenvalues --    1.20319   1.24920   1.27873   1.29189   1.32482
 Alpha virt. eigenvalues --    1.32937   1.43997   1.48084   1.57726   1.76436
 Alpha virt. eigenvalues --    1.78318   1.82225   1.87434   1.92484   2.01229
 Alpha virt. eigenvalues --    2.02861   2.06409   2.09958   2.17804   2.19293
 Alpha virt. eigenvalues --    2.35062   2.36585   2.44917   2.48704   2.49787
 Alpha virt. eigenvalues --    2.50530   2.66229   2.68867   2.77408   2.80710
 Alpha virt. eigenvalues --    2.92433   3.08027   3.16304   3.26003   3.39365
 Alpha virt. eigenvalues --    3.58260   3.77020   4.12345   4.27639   4.36191
 Alpha virt. eigenvalues --    4.59806
          Condensed to atoms (all electrons):
               1          2          3          4          5          6
     1  C    4.905478   0.523090   0.039327   0.422124   0.361369   0.000601
     2  C    0.523090   5.483835   0.088816  -0.057472  -0.021345   0.290627
     3  C    0.039327   0.088816   4.857108  -0.005965   0.017391   0.016209
     4  H    0.422124  -0.057472  -0.005965   0.492808  -0.033117   0.004091
     5  H    0.361369  -0.021345   0.017391  -0.033117   0.507375  -0.004762
     6  H    0.000601   0.290627   0.016209   0.004091  -0.004762   0.528459
     7  O    0.010512  -0.211150   0.457754   0.001943   0.001110   0.006643
     8  H    0.016131  -0.163646   0.460758   0.000053  -0.000080   0.000415
               7          8
     1  C    0.010512   0.016131
     2  C   -0.211150  -0.163646
     3  C    0.457754   0.460758
     4  H    0.001943   0.000053
     5  H    0.001110  -0.000080
     6  H    0.006643   0.000415
     7  O    8.304949  -0.070610
     8  H   -0.070610   0.618349
 Mulliken charges:
               1
     1  C   -0.278633
     2  C    0.067245
     3  C    0.068601
     4  H    0.175535
     5  H    0.172059
     6  H    0.157717
     7  O   -0.501152
     8  H    0.138628
 Sum of Mulliken charges =  -0.00000
 Mulliken charges with hydrogens summed into heavy atoms:
               1
     1  C    0.068961
     2  C    0.224962
     3  C    0.207229
     7  O   -0.501152
 Electronic spatial extent (au):  <R**2>=            257.7898
 Charge=             -0.0000 electrons
 Dipole moment (field-independent basis, Debye):
    X=              2.9294    Y=              2.3814    Z=              0.0078  Tot=              3.7752
 Quadrupole moment (field-independent basis, Debye-Ang):
   XX=            -24.0089   YY=            -22.4552   ZZ=            -25.1855
   XY=             -4.0878   XZ=              0.0122   YZ=              0.0022
 Traceless Quadrupole moment (field-independent basis, Debye-Ang):
   XX=             -0.1257   YY=              1.4280   ZZ=             -1.3023
   XY=             -4.0878   XZ=              0.0122   YZ=              0.0022
 Octapole moment (field-independent basis, Debye-Ang**2):
  XXX=             10.1212  YYY=              1.1355  ZZZ=              0.0142  XYY=              1.4084
  XXY=              3.8965  XXZ=              0.0438  XZZ=             -3.0115  YZZ=             -0.8096
  YYZ=              0.0105  XYZ=             -0.0068
 Hexadecapole moment (field-independent basis, Debye-Ang**3):
 XXXX=           -211.6319 YYYY=            -87.8586 ZZZZ=            -28.3741 XXXY=             -9.0985
 XXXZ=              0.1092 YYYX=             -0.7541 YYYZ=              0.0094 ZZZX=              0.0194
 ZZZY=              0.0009 XXYY=            -51.4351 XXZZ=            -44.0965 YYZZ=            -21.0702
 XXYZ=              0.0065 YYXZ=             -0.0050 ZZXY=             -0.1762
 N-N= 1.059466205246D+02 E-N=-6.592534948010D+02  KE= 1.902405832089D+02
 1\1\GINC-NODE62\SP\RB3LYP\6-31+G(d,p)\C3H4O1\YANZ\22-Sep-2023\0\\# b3l
 yp/6-31+g(d,p) scrf=(iefpcm,solvent=acetonitrile)\\tmpdir/M2_conf_0_14
 1.gjf\\0,1\C,0,0.,0.,0.\C,0,1.399,0.,0.\C,0,2.10705,0.,1.20636\H,0,-0.
 50728,0.00275,0.8744\H,0,-0.54675,-0.00687,-0.9375\H,0,1.93851,-0.0036
 2,-0.94204\O,0,1.50162,0.00242,2.27864\H,0,3.19233,-0.00671,1.20315\\V
 ersion=ES64L-G16RevA.03\State=1-A\HF=-191.9198193\RMSD=1.437e-09\Dipol
 e=0.0516205,-0.0057828,-1.4843703\Quadrupole=3.565936,-0.9682384,-2.59
 76976,-0.000095,0.2700065,0.0049998\PG=C01 [X(C3H4O1)]\\@


  THE LARGE PRINT GIVETH,
  AND THE SMALL PRINT TAKETH AWAY.

                     -- TOM WAITS
 Job cpu time:       0 days  0 hours  0 minutes 37.7 seconds.
 Elapsed time:       0 days  0 hours  0 minutes 19.2 seconds.
 File lengths (MBytes):  RWF=     19 Int=      0 D2E=      0 Chk=      2 Scr=      1
 Normal termination of Gaussian 16 at Fri Sep 22 17:12:35 2023.
