 Entering Gaussian System, Link 0=g16
 Initial command:
 /share/apps/gaussian/g16/l1.exe "/tmp/55647.mgr/Gau-3019.inp" -scrdir="/tmp/55647.mgr/"
 Entering Link 1 = /share/apps/gaussian/g16/l1.exe PID=      3020.
  
 Copyright (c) 1988,1990,1992,1993,1995,1998,2003,2009,2016,
            Gaussian, Inc.  All Rights Reserved.
  
 This is part of the Gaussian(R) 16 program.  It is based on
 the Gaussian(R) 09 system (copyright 2009, Gaussian, Inc.),
 the Gaussian(R) 03 system (copyright 2003, Gaussian, Inc.),
 the Gaussian(R) 98 system (copyright 1998, Gaussian, Inc.),
 the Gaussian(R) 94 system (copyright 1995, Gaussian, Inc.),
 the Gaussian 92(TM) system (copyright 1992, Gaussian, Inc.),
 the Gaussian 90(TM) system (copyright 1990, Gaussian, Inc.),
 the Gaussian 88(TM) system (copyright 1988, Gaussian, Inc.),
 the Gaussian 86(TM) system (copyright 1986, Carnegie Mellon
 University), and the Gaussian 82(TM) system (copyright 1983,
 Carnegie Mellon University). Gaussian is a federally registered
 trademark of Gaussian, Inc.
  
 This software contains proprietary and confidential information,
 including trade secrets, belonging to Gaussian, Inc.
  
 This software is provided under written license and may be
 used, copied, transmitted, or stored only in accord with that
 written license.
  
 The following legend is applicable only to US Government
 contracts under FAR:
  
                    RESTRICTED RIGHTS LEGEND
  
 Use, reproduction and disclosure by the US Government is
 subject to restrictions as set forth in subparagraphs (a)
 and (c) of the Commercial Computer Software - Restricted
 Rights clause in FAR 52.227-19.
  
 Gaussian, Inc.
 340 Quinnipiac St., Bldg. 40, Wallingford CT 06492
  
  
 ---------------------------------------------------------------
 Warning -- This program may not be used in any manner that
 competes with the business of Gaussian, Inc. or will provide
 assistance to any competitor of Gaussian, Inc.  The licensee
 of this program is prohibited from giving any competitor of
 Gaussian, Inc. access to this program.  By using this program,
 the user acknowledges that Gaussian, Inc. is engaged in the
 business of creating and licensing software in the field of
 computational chemistry and represents and warrants to the
 licensee that it is not a competitor of Gaussian, Inc. and that
 it will not use this program in any manner prohibited above.
 ---------------------------------------------------------------
  

 Cite this work as:
 Gaussian 16, Revision A.03,
 M. J. Frisch, G. W. Trucks, H. B. Schlegel, G. E. Scuseria, 
 M. A. Robb, J. R. Cheeseman, G. Scalmani, V. Barone, 
 G. A. Petersson, H. Nakatsuji, X. Li, M. Caricato, A. V. Marenich, 
 J. Bloino, B. G. Janesko, R. Gomperts, B. Mennucci, H. P. Hratchian, 
 J. V. Ortiz, A. F. Izmaylov, J. L. Sonnenberg, D. Williams-Young, 
 F. Ding, F. Lipparini, F. Egidi, J. Goings, B. Peng, A. Petrone, 
 T. Henderson, D. Ranasinghe, V. G. Zakrzewski, J. Gao, N. Rega, 
 G. Zheng, W. Liang, M. Hada, M. Ehara, K. Toyota, R. Fukuda, 
 J. Hasegawa, M. Ishida, T. Nakajima, Y. Honda, O. Kitao, H. Nakai, 
 T. Vreven, K. Throssell, J. A. Montgomery, Jr., J. E. Peralta, 
 F. Ogliaro, M. J. Bearpark, J. J. Heyd, E. N. Brothers, K. N. Kudin, 
 V. N. Staroverov, T. A. Keith, R. Kobayashi, J. Normand, 
 K. Raghavachari, A. P. Rendell, J. C. Burant, S. S. Iyengar, 
 J. Tomasi, M. Cossi, J. M. Millam, M. Klene, C. Adamo, R. Cammi, 
 J. W. Ochterski, R. L. Martin, K. Morokuma, O. Farkas, 
 J. B. Foresman, and D. J. Fox, Gaussian, Inc., Wallingford CT, 2016.
 
 ******************************************
 Gaussian 16:  ES64L-G16RevA.03 25-Dec-2016
                22-Sep-2023 
 ******************************************
 %nprocshared=2
 Will use up to    2 processors via shared memory.
 %mem=2GB
 ------------------------------------------------------
 # b3lyp/6-31+g(d,p) scrf=(iefpcm,solvent=acetonitrile)
 ------------------------------------------------------
 1/38=1,172=1/1;
 2/12=2,17=6,18=5,40=1/2;
 3/5=1,6=6,7=111,11=2,25=1,30=1,70=2201,72=2,74=-5/1,2,3;
 4//1;
 5/5=2,38=5,53=2/2;
 6/7=2,8=2,9=2,10=2,28=1/1;
 99/5=1,9=1/99;
 -----------------------
 tmpdir/M2_conf_0_56.gjf
 -----------------------
 Symbolic Z-matrix:
 Charge =  0 Multiplicity = 1
 C                     0.        0.        0. 
 C                     1.3992    0.        0. 
 H                    -0.5845    0.       -0.96779 
 H                    -0.51282  -0.01113   0.87365 
 H                     1.89797  -0.00506   0.8787 
 H                     1.93726   0.01281  -0.94095 
 
                          Input orientation:                          
 ---------------------------------------------------------------------
 Center     Atomic      Atomic             Coordinates (Angstroms)
 Number     Number       Type             X           Y           Z
 ---------------------------------------------------------------------
      1          6           0        0.000000    0.000000    0.000000
      2          6           0        1.399200    0.000000    0.000000
      3          1           0       -0.584500    0.000000   -0.967790
      4          1           0       -0.512820   -0.011130    0.873650
      5          1           0        1.897970   -0.005060    0.878700
      6          1           0        1.937260    0.012810   -0.940950
 ---------------------------------------------------------------------
                    Distance matrix (angstroms):
                    1          2          3          4          5
     1  C    0.000000
     2  C    1.399200   0.000000
     3  H    1.130601   2.207189   0.000000
     4  H    1.013100   2.102191   1.842868   0.000000
     5  H    2.091514   1.010401   3.093899   2.410803   0.000000
     6  H    2.153724   1.084002   2.521935   3.048973   1.820162
                    6
     6  H    0.000000
 Stoichiometry    C2H4
 Framework group  C1[X(C2H4)]
 Deg. of freedom    12
 Full point group                 C1      NOp   1
 Largest Abelian subgroup         C1      NOp   1
 Largest concise Abelian subgroup C1      NOp   1
                         Standard orientation:                         
 ---------------------------------------------------------------------
 Center     Atomic      Atomic             Coordinates (Angstroms)
 Number     Number       Type             X           Y           Z
 ---------------------------------------------------------------------
      1          6           0        0.695713   -0.015527   -0.001675
      2          6           0       -0.703437   -0.003955    0.001114
      3          1           0        1.288211    0.947366    0.004774
      4          1           0        1.201297   -0.893449    0.001561
      5          1           0       -1.209459   -0.878512    0.000255
      6          1           0       -1.233705    0.941485   -0.003222
 ---------------------------------------------------------------------
 Rotational constants (GHZ):         149.4013446          28.2629989          23.7670675
 Standard basis: 6-31+G(d,p) (6D, 7F)
 There are    58 symmetry adapted cartesian basis functions of A   symmetry.
 There are    58 symmetry adapted basis functions of A   symmetry.
    58 basis functions,    92 primitive gaussians,    58 cartesian basis functions
     8 alpha electrons        8 beta electrons
       nuclear repulsion energy        32.9218657640 Hartrees.
 NAtoms=    6 NActive=    6 NUniq=    6 SFac= 1.00D+00 NAtFMM=   60 NAOKFM=F Big=F
 Integral buffers will be    131072 words long.
 Raffenetti 2 integral format.
 Two-electron integral symmetry is turned on.
 ------------------------------------------------------------------------------
 Polarizable Continuum Model (PCM)
 =================================
 Model                : PCM.
 Atomic radii         : UFF (Universal Force Field).
 Polarization charges : Total charges.
 Charge compensation  : None.
 Solution method      : On-the-fly selection.
 Cavity type          : Scaled VdW (van der Waals Surface) (Alpha=1.100).
 Cavity algorithm     : GePol (No added spheres)
                        Default sphere list used, NSphG=    6.
                        Lebedev-Laikov grids with approx.  5.0 points / Ang**2.
                        Smoothing algorithm: York/Karplus (Gamma=1.0000).
                        Polarization charges: spherical gaussians, with
                                              point-specific exponents (IZeta= 3).
                        Self-potential: point-specific (ISelfS= 7).
                        Self-field    : sphere-specific E.n sum rule (ISelfD= 2).
 Solvent              : Acetonitrile, Eps=  35.688000 Eps(inf)=   1.806874
 ------------------------------------------------------------------------------
 Spheres list:
 ISph  on   Nord     Re0    Alpha      Xe            Ye            Ze
    1   C      1    1.9255  1.100      0.695713     -0.015527     -0.001675
    2   C      2    1.9255  1.100     -0.703437     -0.003955      0.001114
    3   H      3    1.4430  1.100      1.288211      0.947366      0.004774
    4   H      4    1.4430  1.100      1.201297     -0.893449      0.001561
    5   H      5    1.4430  1.100     -1.209459     -0.878512      0.000255
    6   H      6    1.4430  1.100     -1.233705      0.941485     -0.003222
 ------------------------------------------------------------------------------
 One-electron integrals computed using PRISM.
 NBasis=    58 RedAO= T EigKep=  2.85D-04  NBF=    58
 NBsUse=    58 1.00D-06 EigRej= -1.00D+00 NBFU=    58
 ExpMin= 4.38D-02 ExpMax= 3.05D+03 ExpMxC= 4.57D+02 IAcc=3 IRadAn=         5 AccDes= 0.00D+00
 Harris functional with IExCor=  402 and IRadAn=       5 diagonalized for initial guess.
 HarFok:  IExCor=  402 AccDes= 0.00D+00 IRadAn=         5 IDoV= 1 UseB2=F ITyADJ=14
 ICtDFT=  3500011 ScaDFX=  1.000000  1.000000  1.000000  1.000000
 FoFCou: FMM=F IPFlag=           0 FMFlag=      100000 FMFlg1=           0
         NFxFlg=           0 DoJE=T BraDBF=F KetDBF=T FulRan=T
         wScrn=  0.000000 ICntrl=       500 IOpCl=  0 I1Cent=   200000004 NGrid=           0
         NMat0=    1 NMatS0=      1 NMatT0=    0 NMatD0=    1 NMtDS0=    0 NMtDT0=    0
 Petite list used in FoFCou.
 Keep R1 ints in memory in canonical form, NReq=3224596.
 Requested convergence on RMS density matrix=1.00D-08 within 128 cycles.
 Requested convergence on MAX density matrix=1.00D-06.
 Requested convergence on             energy=1.00D-06.
 No special actions if energy rises.
 Inv3:  Mode=1 IEnd=     1168128.
 Iteration    1 A*A^-1 deviation from unit magnitude is 2.89D-15 for    617.
 Iteration    1 A*A^-1 deviation from orthogonality  is 1.34D-15 for    610    407.
 Iteration    1 A^-1*A deviation from unit magnitude is 2.89D-15 for    617.
 Iteration    1 A^-1*A deviation from orthogonality  is 1.12D-15 for    348    313.
 Error on total polarization charges =  0.01292
 SCF Done:  E(RB3LYP) =  -78.5874173028     A.U. after    9 cycles
            NFock=  9  Conv=0.63D-08     -V/T= 2.0106

 **********************************************************************

            Population analysis using the SCF density.

 **********************************************************************

 Orbital symmetries:
       Occupied  (A) (A) (A) (A) (A) (A) (A) (A)
       Virtual   (A) (A) (A) (A) (A) (A) (A) (A) (A) (A) (A) (A)
                 (A) (A) (A) (A) (A) (A) (A) (A) (A) (A) (A) (A)
                 (A) (A) (A) (A) (A) (A) (A) (A) (A) (A) (A) (A)
                 (A) (A) (A) (A) (A) (A) (A) (A) (A) (A) (A) (A)
                 (A) (A)
 The electronic state is 1-A.
 Alpha  occ. eigenvalues --  -10.20035 -10.19619  -0.75724  -0.59725  -0.47792
 Alpha  occ. eigenvalues --   -0.41350  -0.37539  -0.27109
 Alpha virt. eigenvalues --   -0.02270   0.02517   0.03655   0.05171   0.06687
 Alpha virt. eigenvalues --    0.08788   0.09048   0.12386   0.15907   0.17636
 Alpha virt. eigenvalues --    0.21758   0.25130   0.32472   0.35265   0.58395
 Alpha virt. eigenvalues --    0.63465   0.67705   0.71477   0.71929   0.81404
 Alpha virt. eigenvalues --    0.90293   0.92650   0.97948   1.02204   1.13091
 Alpha virt. eigenvalues --    1.19545   1.36932   1.38335   1.50316   1.84547
 Alpha virt. eigenvalues --    1.91726   1.97335   1.99508   2.09738   2.11358
 Alpha virt. eigenvalues --    2.24374   2.35574   2.50419   2.50795   2.55701
 Alpha virt. eigenvalues --    2.72126   2.74890   2.77229   2.99950   3.20975
 Alpha virt. eigenvalues --    3.47402   3.55870   3.78406   4.20271   4.49505
          Condensed to atoms (all electrons):
               1          2          3          4          5          6
     1  C    4.919081   0.661810   0.383777   0.398979  -0.034770  -0.031362
     2  C    0.661810   4.902497  -0.026749  -0.032763   0.403191   0.393000
     3  H    0.383777  -0.026749   0.531895  -0.034589   0.003933  -0.006708
     4  H    0.398979  -0.032763  -0.034589   0.522110  -0.007675   0.004253
     5  H   -0.034770   0.403191   0.003933  -0.007675   0.520649  -0.034872
     6  H   -0.031362   0.393000  -0.006708   0.004253  -0.034872   0.524859
 Mulliken charges:
               1
     1  C   -0.297516
     2  C   -0.300986
     3  H    0.148441
     4  H    0.149687
     5  H    0.149544
     6  H    0.150831
 Sum of Mulliken charges =  -0.00000
 Mulliken charges with hydrogens summed into heavy atoms:
               1
     1  C    0.000612
     2  C   -0.000612
 Electronic spatial extent (au):  <R**2>=             84.9894
 Charge=             -0.0000 electrons
 Dipole moment (field-independent basis, Debye):
    X=             -0.0074    Y=             -0.0600    Z=              0.0042  Tot=              0.0606
 Quadrupole moment (field-independent basis, Debye-Ang):
   XX=            -12.2654   YY=            -12.2433   ZZ=            -16.2391
   XY=              0.0086   XZ=              0.0141   YZ=             -0.0004
 Traceless Quadrupole moment (field-independent basis, Debye-Ang):
   XX=              1.3172   YY=              1.3393   ZZ=             -2.6565
   XY=              0.0086   XZ=              0.0141   YZ=             -0.0004
 Octapole moment (field-independent basis, Debye-Ang**2):
  XXX=             -0.0586  YYY=             -0.2498  ZZZ=              0.0086  XYY=             -0.0447
  XXY=             -0.0134  XXZ=              0.0104  XZZ=             -0.0679  YZZ=             -0.1853
  YYZ=              0.0058  XYZ=              0.0112
 Hexadecapole moment (field-independent basis, Debye-Ang**3):
 XXXX=            -72.6702 YYYY=            -27.2574 ZZZZ=            -23.7814 XXXY=              0.0662
 XXXZ=              0.0389 YYYX=             -0.0883 YYYZ=             -0.0014 ZZZX=              0.0182
 ZZZY=             -0.0016 XXYY=            -14.0009 XXZZ=            -17.2093 YYZZ=             -9.1622
 XXYZ=              0.0005 YYXZ=              0.0207 ZZXY=             -0.0538
 N-N= 3.292186576396D+01 E-N=-2.470609013908D+02  KE= 7.776073696823D+01
 1\1\GINC-NODE62\SP\RB3LYP\6-31+G(d,p)\C2H4\YANZ\22-Sep-2023\0\\# b3lyp
 /6-31+g(d,p) scrf=(iefpcm,solvent=acetonitrile)\\tmpdir/M2_conf_0_56.g
 jf\\0,1\C,0,0.,0.,0.\C,0,1.3992,0.,0.\H,0,-0.5845,0.,-0.96779\H,0,-0.5
 1282,-0.01113,0.87365\H,0,1.89797,-0.00506,0.8787\H,0,1.93726,0.01281,
 -0.94095\\Version=ES64L-G16RevA.03\State=1-A\HF=-78.5874173\RMSD=6.313
 e-09\Dipole=0.0027368,-0.0018496,0.0235973\Quadrupole=0.9791617,-1.974
 7885,0.9956268,0.0162887,0.0063495,-0.0235788\PG=C01 [X(C2H4)]\\@


 FORGIVE MY NONSENSE AS I ALSO FORGIVE THOSE WHO THINK THEY TALK SENSE

                                                       -- ROBERT FROST
 Job cpu time:       0 days  0 hours  0 minutes 12.2 seconds.
 Elapsed time:       0 days  0 hours  0 minutes  6.2 seconds.
 File lengths (MBytes):  RWF=     13 Int=      0 D2E=      0 Chk=      2 Scr=      1
 Normal termination of Gaussian 16 at Fri Sep 22 17:11:25 2023.
