 Entering Gaussian System, Link 0=g16
 Initial command:
 /share/apps/gaussian/g16/l1.exe "/tmp/55647.mgr/Gau-2666.inp" -scrdir="/tmp/55647.mgr/"
 Entering Link 1 = /share/apps/gaussian/g16/l1.exe PID=      2667.
  
 Copyright (c) 1988,1990,1992,1993,1995,1998,2003,2009,2016,
            Gaussian, Inc.  All Rights Reserved.
  
 This is part of the Gaussian(R) 16 program.  It is based on
 the Gaussian(R) 09 system (copyright 2009, Gaussian, Inc.),
 the Gaussian(R) 03 system (copyright 2003, Gaussian, Inc.),
 the Gaussian(R) 98 system (copyright 1998, Gaussian, Inc.),
 the Gaussian(R) 94 system (copyright 1995, Gaussian, Inc.),
 the Gaussian 92(TM) system (copyright 1992, Gaussian, Inc.),
 the Gaussian 90(TM) system (copyright 1990, Gaussian, Inc.),
 the Gaussian 88(TM) system (copyright 1988, Gaussian, Inc.),
 the Gaussian 86(TM) system (copyright 1986, Carnegie Mellon
 University), and the Gaussian 82(TM) system (copyright 1983,
 Carnegie Mellon University). Gaussian is a federally registered
 trademark of Gaussian, Inc.
  
 This software contains proprietary and confidential information,
 including trade secrets, belonging to Gaussian, Inc.
  
 This software is provided under written license and may be
 used, copied, transmitted, or stored only in accord with that
 written license.
  
 The following legend is applicable only to US Government
 contracts under FAR:
  
                    RESTRICTED RIGHTS LEGEND
  
 Use, reproduction and disclosure by the US Government is
 subject to restrictions as set forth in subparagraphs (a)
 and (c) of the Commercial Computer Software - Restricted
 Rights clause in FAR 52.227-19.
  
 Gaussian, Inc.
 340 Quinnipiac St., Bldg. 40, Wallingford CT 06492
  
  
 ---------------------------------------------------------------
 Warning -- This program may not be used in any manner that
 competes with the business of Gaussian, Inc. or will provide
 assistance to any competitor of Gaussian, Inc.  The licensee
 of this program is prohibited from giving any competitor of
 Gaussian, Inc. access to this program.  By using this program,
 the user acknowledges that Gaussian, Inc. is engaged in the
 business of creating and licensing software in the field of
 computational chemistry and represents and warrants to the
 licensee that it is not a competitor of Gaussian, Inc. and that
 it will not use this program in any manner prohibited above.
 ---------------------------------------------------------------
  

 Cite this work as:
 Gaussian 16, Revision A.03,
 M. J. Frisch, G. W. Trucks, H. B. Schlegel, G. E. Scuseria, 
 M. A. Robb, J. R. Cheeseman, G. Scalmani, V. Barone, 
 G. A. Petersson, H. Nakatsuji, X. Li, M. Caricato, A. V. Marenich, 
 J. Bloino, B. G. Janesko, R. Gomperts, B. Mennucci, H. P. Hratchian, 
 J. V. Ortiz, A. F. Izmaylov, J. L. Sonnenberg, D. Williams-Young, 
 F. Ding, F. Lipparini, F. Egidi, J. Goings, B. Peng, A. Petrone, 
 T. Henderson, D. Ranasinghe, V. G. Zakrzewski, J. Gao, N. Rega, 
 G. Zheng, W. Liang, M. Hada, M. Ehara, K. Toyota, R. Fukuda, 
 J. Hasegawa, M. Ishida, T. Nakajima, Y. Honda, O. Kitao, H. Nakai, 
 T. Vreven, K. Throssell, J. A. Montgomery, Jr., J. E. Peralta, 
 F. Ogliaro, M. J. Bearpark, J. J. Heyd, E. N. Brothers, K. N. Kudin, 
 V. N. Staroverov, T. A. Keith, R. Kobayashi, J. Normand, 
 K. Raghavachari, A. P. Rendell, J. C. Burant, S. S. Iyengar, 
 J. Tomasi, M. Cossi, J. M. Millam, M. Klene, C. Adamo, R. Cammi, 
 J. W. Ochterski, R. L. Martin, K. Morokuma, O. Farkas, 
 J. B. Foresman, and D. J. Fox, Gaussian, Inc., Wallingford CT, 2016.
 
 ******************************************
 Gaussian 16:  ES64L-G16RevA.03 25-Dec-2016
                22-Sep-2023 
 ******************************************
 %nprocshared=2
 Will use up to    2 processors via shared memory.
 %mem=2GB
 ------------------------------------------------------
 # b3lyp/6-31+g(d,p) scrf=(iefpcm,solvent=acetonitrile)
 ------------------------------------------------------
 1/38=1,172=1/1;
 2/12=2,17=6,18=5,40=1/2;
 3/5=1,6=6,7=111,11=2,25=1,30=1,70=2201,72=2,74=-5/1,2,3;
 4//1;
 5/5=2,38=5,53=2/2;
 6/7=2,8=2,9=2,10=2,28=1/1;
 99/5=1,9=1/99;
 -----------------------
 tmpdir/M2_conf_0_63.gjf
 -----------------------
 Symbolic Z-matrix:
 Charge =  0 Multiplicity = 1
 C                     0.        0.        0. 
 C                     1.3995    0.        0. 
 H                     1.93595   0.        0.94241 
 H                    -0.53861  -0.01856   0.99389 
 O                    -0.62504   0.00688  -1.0649 
 O                     2.0103    0.00505  -1.07084 
 
                          Input orientation:                          
 ---------------------------------------------------------------------
 Center     Atomic      Atomic             Coordinates (Angstroms)
 Number     Number       Type             X           Y           Z
 ---------------------------------------------------------------------
      1          6           0        0.000000    0.000000    0.000000
      2          6           0        1.399500    0.000000    0.000000
      3          1           0        1.935950    0.000000    0.942410
      4          1           0       -0.538610   -0.018560    0.993890
      5          8           0       -0.625040    0.006880   -1.064900
      6          8           0        2.010300    0.005050   -1.070840
 ---------------------------------------------------------------------
                    Distance matrix (angstroms):
                    1          2          3          4          5
     1  C    0.000000
     2  C    1.399500   0.000000
     3  H    2.153146   1.084396   0.000000
     4  H    1.130603   2.178172   2.475165   0.000000
     5  O    1.234801   2.287536   3.253922   2.060760   0.000000
     6  O    2.277725   1.232802   2.014629   3.280337   2.635347
                    6
     6  O    0.000000
 Stoichiometry    C2H2O2
 Framework group  C1[X(C2H2O2)]
 Deg. of freedom    12
 Full point group                 C1      NOp   1
 Largest Abelian subgroup         C1      NOp   1
 Largest concise Abelian subgroup C1      NOp   1
                         Standard orientation:                         
 ---------------------------------------------------------------------
 Center     Atomic      Atomic             Coordinates (Angstroms)
 Number     Number       Type             X           Y           Z
 ---------------------------------------------------------------------
      1          6           0       -0.697240    0.503115   -0.000792
      2          6           0        0.702255    0.506889   -0.000682
      3          1           0        1.236162    1.450722   -0.006798
      4          1           0       -1.238530    1.495649    0.011231
      5          8           0       -1.319406   -0.563489   -0.000762
      6          8           0        1.315940   -0.562310    0.001313
 ---------------------------------------------------------------------
 Rotational constants (GHZ):          24.6696745           7.1806369           5.5617921
 Standard basis: 6-31+G(d,p) (6D, 7F)
 There are    86 symmetry adapted cartesian basis functions of A   symmetry.
 There are    86 symmetry adapted basis functions of A   symmetry.
    86 basis functions,   142 primitive gaussians,    86 cartesian basis functions
    15 alpha electrons       15 beta electrons
       nuclear repulsion energy       105.5229714967 Hartrees.
 NAtoms=    6 NActive=    6 NUniq=    6 SFac= 1.00D+00 NAtFMM=   60 NAOKFM=F Big=F
 Integral buffers will be    131072 words long.
 Raffenetti 2 integral format.
 Two-electron integral symmetry is turned on.
 ------------------------------------------------------------------------------
 Polarizable Continuum Model (PCM)
 =================================
 Model                : PCM.
 Atomic radii         : UFF (Universal Force Field).
 Polarization charges : Total charges.
 Charge compensation  : None.
 Solution method      : On-the-fly selection.
 Cavity type          : Scaled VdW (van der Waals Surface) (Alpha=1.100).
 Cavity algorithm     : GePol (No added spheres)
                        Default sphere list used, NSphG=    6.
                        Lebedev-Laikov grids with approx.  5.0 points / Ang**2.
                        Smoothing algorithm: York/Karplus (Gamma=1.0000).
                        Polarization charges: spherical gaussians, with
                                              point-specific exponents (IZeta= 3).
                        Self-potential: point-specific (ISelfS= 7).
                        Self-field    : sphere-specific E.n sum rule (ISelfD= 2).
 Solvent              : Acetonitrile, Eps=  35.688000 Eps(inf)=   1.806874
 ------------------------------------------------------------------------------
 Spheres list:
 ISph  on   Nord     Re0    Alpha      Xe            Ye            Ze
    1   C      1    1.9255  1.100     -0.697240      0.503115     -0.000792
    2   C      2    1.9255  1.100      0.702255      0.506889     -0.000682
    3   H      3    1.4430  1.100      1.236162      1.450722     -0.006798
    4   H      4    1.4430  1.100     -1.238530      1.495649      0.011231
    5   O      5    1.7500  1.100     -1.319406     -0.563489     -0.000762
    6   O      6    1.7500  1.100      1.315940     -0.562310      0.001313
 ------------------------------------------------------------------------------
 One-electron integrals computed using PRISM.
 NBasis=    86 RedAO= T EigKep=  1.32D-04  NBF=    86
 NBsUse=    86 1.00D-06 EigRej= -1.00D+00 NBFU=    86
 ExpMin= 4.38D-02 ExpMax= 5.48D+03 ExpMxC= 8.25D+02 IAcc=3 IRadAn=         5 AccDes= 0.00D+00
 Harris functional with IExCor=  402 and IRadAn=       5 diagonalized for initial guess.
 HarFok:  IExCor=  402 AccDes= 0.00D+00 IRadAn=         5 IDoV= 1 UseB2=F ITyADJ=14
 ICtDFT=  3500011 ScaDFX=  1.000000  1.000000  1.000000  1.000000
 FoFCou: FMM=F IPFlag=           0 FMFlag=      100000 FMFlg1=           0
         NFxFlg=           0 DoJE=T BraDBF=F KetDBF=T FulRan=T
         wScrn=  0.000000 ICntrl=       500 IOpCl=  0 I1Cent=   200000004 NGrid=           0
         NMat0=    1 NMatS0=      1 NMatT0=    0 NMatD0=    1 NMtDS0=    0 NMtDT0=    0
 Petite list used in FoFCou.
 Keep R1 ints in memory in canonical form, NReq=8817431.
 Requested convergence on RMS density matrix=1.00D-08 within 128 cycles.
 Requested convergence on MAX density matrix=1.00D-06.
 Requested convergence on             energy=1.00D-06.
 No special actions if energy rises.
 Inv3:  Mode=1 IEnd=     1678512.
 Iteration    1 A*A^-1 deviation from unit magnitude is 2.11D-15 for    743.
 Iteration    1 A*A^-1 deviation from orthogonality  is 1.91D-15 for    525     61.
 Iteration    1 A^-1*A deviation from unit magnitude is 2.11D-15 for    743.
 Iteration    1 A^-1*A deviation from orthogonality  is 3.83D-15 for    661    637.
 Error on total polarization charges =  0.00795
 SCF Done:  E(RB3LYP) =  -227.825961694     A.U. after   11 cycles
            NFock= 11  Conv=0.22D-08     -V/T= 2.0087

 **********************************************************************

            Population analysis using the SCF density.

 **********************************************************************

 Orbital symmetries:
       Occupied  (A) (A) (A) (A) (A) (A) (A) (A) (A) (A) (A) (A)
                 (A) (A) (A)
       Virtual   (A) (A) (A) (A) (A) (A) (A) (A) (A) (A) (A) (A)
                 (A) (A) (A) (A) (A) (A) (A) (A) (A) (A) (A) (A)
                 (A) (A) (A) (A) (A) (A) (A) (A) (A) (A) (A) (A)
                 (A) (A) (A) (A) (A) (A) (A) (A) (A) (A) (A) (A)
                 (A) (A) (A) (A) (A) (A) (A) (A) (A) (A) (A) (A)
                 (A) (A) (A) (A) (A) (A) (A) (A) (A) (A) (A)
 The electronic state is 1-A.
 Alpha  occ. eigenvalues --  -19.20354 -19.20266 -10.31061 -10.30689  -1.10092
 Alpha  occ. eigenvalues --   -1.06325  -0.75847  -0.57706  -0.55404  -0.48843
 Alpha  occ. eigenvalues --   -0.46114  -0.45650  -0.39041  -0.32002  -0.29342
 Alpha virt. eigenvalues --   -0.14603   0.01272   0.02112   0.03343   0.03823
 Alpha virt. eigenvalues --    0.06063   0.07219   0.08879   0.10189   0.15286
 Alpha virt. eigenvalues --    0.15735   0.19837   0.19937   0.21342   0.23555
 Alpha virt. eigenvalues --    0.24042   0.25193   0.26325   0.28323   0.32237
 Alpha virt. eigenvalues --    0.34828   0.39954   0.52322   0.61591   0.61710
 Alpha virt. eigenvalues --    0.66406   0.75416   0.77423   0.81207   0.88015
 Alpha virt. eigenvalues --    0.99510   1.12398   1.12536   1.13645   1.14796
 Alpha virt. eigenvalues --    1.20128   1.20325   1.25672   1.26166   1.30975
 Alpha virt. eigenvalues --    1.37429   1.46089   1.48466   1.63229   1.64866
 Alpha virt. eigenvalues --    1.71235   1.73758   1.80047   1.84464   1.97562
 Alpha virt. eigenvalues --    1.99041   2.05130   2.07506   2.19480   2.23578
 Alpha virt. eigenvalues --    2.29728   2.42529   2.45119   2.54923   2.67846
 Alpha virt. eigenvalues --    2.75136   2.79340   2.90200   3.10649   3.16007
 Alpha virt. eigenvalues --    3.22479   3.62035   3.99263   4.26017   4.30249
 Alpha virt. eigenvalues --    4.57290
          Condensed to atoms (all electrons):
               1          2          3          4          5          6
     1  C    5.094099   0.054713  -0.086234   0.388020   0.497152  -0.168944
     2  C    0.054713   5.078194   0.395141  -0.083821  -0.167621   0.499676
     3  H   -0.086234   0.395141   0.566558   0.007284   0.005546  -0.057077
     4  H    0.388020  -0.083821   0.007284   0.571281  -0.054954   0.005471
     5  O    0.497152  -0.167621   0.005546  -0.054954   8.111459  -0.001424
     6  O   -0.168944   0.499676  -0.057077   0.005471  -0.001424   8.112552
 Mulliken charges:
               1
     1  C    0.221194
     2  C    0.223718
     3  H    0.168782
     4  H    0.166719
     5  O   -0.390158
     6  O   -0.390255
 Sum of Mulliken charges =  -0.00000
 Mulliken charges with hydrogens summed into heavy atoms:
               1
     1  C    0.387913
     2  C    0.392500
     5  O   -0.390158
     6  O   -0.390255
 Electronic spatial extent (au):  <R**2>=            227.7060
 Charge=             -0.0000 electrons
 Dipole moment (field-independent basis, Debye):
    X=              0.0542    Y=              4.9453    Z=             -0.0014  Tot=              4.9456
 Quadrupole moment (field-independent basis, Debye-Ang):
   XX=            -27.1126   YY=            -21.5393   ZZ=            -21.3511
   XY=              0.0625   XZ=             -0.0181   YZ=              0.0022
 Traceless Quadrupole moment (field-independent basis, Debye-Ang):
   XX=             -3.7783   YY=              1.7951   ZZ=              1.9833
   XY=              0.0625   XZ=             -0.0181   YZ=              0.0022
 Octapole moment (field-independent basis, Debye-Ang**2):
  XXX=              0.2630  YYY=              3.2759  ZZZ=             -0.0007  XYY=              0.0581
  XXY=              6.9969  XXZ=             -0.0034  XZZ=              0.0841  YZZ=             -0.5524
  YYZ=              0.0097  XYZ=             -0.0153
 Hexadecapole moment (field-independent basis, Debye-Ang**3):
 XXXX=           -199.6769 YYYY=            -73.0307 ZZZZ=            -18.9639 XXXY=              0.3770
 XXXZ=             -0.0345 YYYX=              0.1303 YYYZ=              0.0102 ZZZX=              0.0014
 ZZZY=             -0.0055 XXYY=            -40.4662 XXZZ=            -32.9873 YYZZ=            -15.9274
 XXYZ=              0.0117 YYXZ=             -0.0503 ZZXY=              0.1130
 N-N= 1.055229714967D+02 E-N=-7.448952800386D+02  KE= 2.258548415759D+02
 1\1\GINC-NODE62\SP\RB3LYP\6-31+G(d,p)\C2H2O2\YANZ\22-Sep-2023\0\\# b3l
 yp/6-31+g(d,p) scrf=(iefpcm,solvent=acetonitrile)\\tmpdir/M2_conf_0_63
 .gjf\\0,1\C,0,0.,0.,0.\C,0,1.3995,0.,0.\H,0,1.93595,0.,0.94241\H,0,-0.
 53861,-0.01856,0.99389\O,0,-0.62504,0.00688,-1.0649\O,0,2.0103,0.00505
 ,-1.07084\\Version=ES64L-G16RevA.03\State=1-A\HF=-227.8259617\RMSD=2.2
 47e-09\Dipole=0.0265649,-0.0121564,1.9455384\Quadrupole=-2.8088015,1.4
 745185,1.334283,0.0127449,0.0577202,-0.0007335\PG=C01 [X(C2H2O2)]\\@


 IT TAKES GREATER CHARACTER TO CARRY OFF GOOD FORTUNE THAN BAD.
                     FRENCH PROVERB.
 Job cpu time:       0 days  0 hours  0 minutes 26.1 seconds.
 Elapsed time:       0 days  0 hours  0 minutes 13.3 seconds.
 File lengths (MBytes):  RWF=     16 Int=      0 D2E=      0 Chk=      2 Scr=      1
 Normal termination of Gaussian 16 at Fri Sep 22 17:10:56 2023.
