 Entering Gaussian System, Link 0=g16
 Initial command:
 /share/apps/gaussian/g16/l1.exe "/tmp/55647.mgr/Gau-2850.inp" -scrdir="/tmp/55647.mgr/"
 Entering Link 1 = /share/apps/gaussian/g16/l1.exe PID=      2851.
  
 Copyright (c) 1988,1990,1992,1993,1995,1998,2003,2009,2016,
            Gaussian, Inc.  All Rights Reserved.
  
 This is part of the Gaussian(R) 16 program.  It is based on
 the Gaussian(R) 09 system (copyright 2009, Gaussian, Inc.),
 the Gaussian(R) 03 system (copyright 2003, Gaussian, Inc.),
 the Gaussian(R) 98 system (copyright 1998, Gaussian, Inc.),
 the Gaussian(R) 94 system (copyright 1995, Gaussian, Inc.),
 the Gaussian 92(TM) system (copyright 1992, Gaussian, Inc.),
 the Gaussian 90(TM) system (copyright 1990, Gaussian, Inc.),
 the Gaussian 88(TM) system (copyright 1988, Gaussian, Inc.),
 the Gaussian 86(TM) system (copyright 1986, Carnegie Mellon
 University), and the Gaussian 82(TM) system (copyright 1983,
 Carnegie Mellon University). Gaussian is a federally registered
 trademark of Gaussian, Inc.
  
 This software contains proprietary and confidential information,
 including trade secrets, belonging to Gaussian, Inc.
  
 This software is provided under written license and may be
 used, copied, transmitted, or stored only in accord with that
 written license.
  
 The following legend is applicable only to US Government
 contracts under FAR:
  
                    RESTRICTED RIGHTS LEGEND
  
 Use, reproduction and disclosure by the US Government is
 subject to restrictions as set forth in subparagraphs (a)
 and (c) of the Commercial Computer Software - Restricted
 Rights clause in FAR 52.227-19.
  
 Gaussian, Inc.
 340 Quinnipiac St., Bldg. 40, Wallingford CT 06492
  
  
 ---------------------------------------------------------------
 Warning -- This program may not be used in any manner that
 competes with the business of Gaussian, Inc. or will provide
 assistance to any competitor of Gaussian, Inc.  The licensee
 of this program is prohibited from giving any competitor of
 Gaussian, Inc. access to this program.  By using this program,
 the user acknowledges that Gaussian, Inc. is engaged in the
 business of creating and licensing software in the field of
 computational chemistry and represents and warrants to the
 licensee that it is not a competitor of Gaussian, Inc. and that
 it will not use this program in any manner prohibited above.
 ---------------------------------------------------------------
  

 Cite this work as:
 Gaussian 16, Revision A.03,
 M. J. Frisch, G. W. Trucks, H. B. Schlegel, G. E. Scuseria, 
 M. A. Robb, J. R. Cheeseman, G. Scalmani, V. Barone, 
 G. A. Petersson, H. Nakatsuji, X. Li, M. Caricato, A. V. Marenich, 
 J. Bloino, B. G. Janesko, R. Gomperts, B. Mennucci, H. P. Hratchian, 
 J. V. Ortiz, A. F. Izmaylov, J. L. Sonnenberg, D. Williams-Young, 
 F. Ding, F. Lipparini, F. Egidi, J. Goings, B. Peng, A. Petrone, 
 T. Henderson, D. Ranasinghe, V. G. Zakrzewski, J. Gao, N. Rega, 
 G. Zheng, W. Liang, M. Hada, M. Ehara, K. Toyota, R. Fukuda, 
 J. Hasegawa, M. Ishida, T. Nakajima, Y. Honda, O. Kitao, H. Nakai, 
 T. Vreven, K. Throssell, J. A. Montgomery, Jr., J. E. Peralta, 
 F. Ogliaro, M. J. Bearpark, J. J. Heyd, E. N. Brothers, K. N. Kudin, 
 V. N. Staroverov, T. A. Keith, R. Kobayashi, J. Normand, 
 K. Raghavachari, A. P. Rendell, J. C. Burant, S. S. Iyengar, 
 J. Tomasi, M. Cossi, J. M. Millam, M. Klene, C. Adamo, R. Cammi, 
 J. W. Ochterski, R. L. Martin, K. Morokuma, O. Farkas, 
 J. B. Foresman, and D. J. Fox, Gaussian, Inc., Wallingford CT, 2016.
 
 ******************************************
 Gaussian 16:  ES64L-G16RevA.03 25-Dec-2016
                22-Sep-2023 
 ******************************************
 %nprocshared=2
 Will use up to    2 processors via shared memory.
 %mem=2GB
 ------------------------------------------------------
 # b3lyp/6-31+g(d,p) scrf=(iefpcm,solvent=acetonitrile)
 ------------------------------------------------------
 1/38=1,172=1/1;
 2/12=2,17=6,18=5,40=1/2;
 3/5=1,6=6,7=111,11=2,25=1,30=1,70=2201,72=2,74=-5/1,2,3;
 4//1;
 5/5=2,38=5,53=2/2;
 6/7=2,8=2,9=2,10=2,28=1/1;
 99/5=1,9=1/99;
 -----------------------
 tmpdir/M2_conf_0_55.gjf
 -----------------------
 Symbolic Z-matrix:
 Charge =  0 Multiplicity = 1
 C                     0.        0.        0. 
 C                     1.3996    0.        0. 
 H                    -0.53861   0.       -0.99406 
 C                    -0.70901   0.01497   1.20791 
 C                     2.0924    0.01717   1.21449 
 H                     1.93194  -0.01764  -0.94458 
 
                          Input orientation:                          
 ---------------------------------------------------------------------
 Center     Atomic      Atomic             Coordinates (Angstroms)
 Number     Number       Type             X           Y           Z
 ---------------------------------------------------------------------
      1          6           0        0.000000    0.000000    0.000000
      2          6           0        1.399600    0.000000    0.000000
      3          1           0       -0.538610    0.000000   -0.994060
      4          6           0       -0.709010    0.014970    1.207910
      5          6           0        2.092400    0.017170    1.214490
      6          1           0        1.931940   -0.017640   -0.944580
 ---------------------------------------------------------------------
                    Distance matrix (angstroms):
                    1          2          3          4          5
     1  C    0.000000
     2  C    1.399600   0.000000
     3  H    1.130600   2.178259   0.000000
     4  C    1.400702   2.430125   2.208604   0.000000
     5  C    2.419384   1.398303   3.435142   2.801419   0.000000
     6  H    2.150566   1.084402   2.471108   3.407183   2.165304
                    6
     6  H    0.000000
 Stoichiometry    C4H2
 Framework group  C1[X(C4H2)]
 Deg. of freedom    12
 Full point group                 C1      NOp   1
 Largest Abelian subgroup         C1      NOp   1
 Largest concise Abelian subgroup C1      NOp   1
                         Standard orientation:                         
 ---------------------------------------------------------------------
 Center     Atomic      Atomic             Coordinates (Angstroms)
 Number     Number       Type             X           Y           Z
 ---------------------------------------------------------------------
      1          6           0       -0.697206    0.482499   -0.000853
      2          6           0        0.702388    0.486517   -0.000647
      3          1           0       -1.238669    1.474933    0.011353
      4          6           0       -1.402745   -0.727534   -0.000918
      5          6           0        1.398672   -0.726099    0.001614
      6          1           0        1.232015    1.432767   -0.006533
 ---------------------------------------------------------------------
 Rotational constants (GHZ):          22.5541097           8.1621437           5.9932711
 Standard basis: 6-31+G(d,p) (6D, 7F)
 There are    86 symmetry adapted cartesian basis functions of A   symmetry.
 There are    86 symmetry adapted basis functions of A   symmetry.
    86 basis functions,   142 primitive gaussians,    86 cartesian basis functions
    13 alpha electrons       13 beta electrons
       nuclear repulsion energy        76.9938752008 Hartrees.
 NAtoms=    6 NActive=    6 NUniq=    6 SFac= 1.00D+00 NAtFMM=   60 NAOKFM=F Big=F
 Integral buffers will be    131072 words long.
 Raffenetti 2 integral format.
 Two-electron integral symmetry is turned on.
 ------------------------------------------------------------------------------
 Polarizable Continuum Model (PCM)
 =================================
 Model                : PCM.
 Atomic radii         : UFF (Universal Force Field).
 Polarization charges : Total charges.
 Charge compensation  : None.
 Solution method      : On-the-fly selection.
 Cavity type          : Scaled VdW (van der Waals Surface) (Alpha=1.100).
 Cavity algorithm     : GePol (No added spheres)
                        Default sphere list used, NSphG=    6.
                        Lebedev-Laikov grids with approx.  5.0 points / Ang**2.
                        Smoothing algorithm: York/Karplus (Gamma=1.0000).
                        Polarization charges: spherical gaussians, with
                                              point-specific exponents (IZeta= 3).
                        Self-potential: point-specific (ISelfS= 7).
                        Self-field    : sphere-specific E.n sum rule (ISelfD= 2).
 Solvent              : Acetonitrile, Eps=  35.688000 Eps(inf)=   1.806874
 ------------------------------------------------------------------------------
 Spheres list:
 ISph  on   Nord     Re0    Alpha      Xe            Ye            Ze
    1   C      1    1.9255  1.100     -0.697206      0.482499     -0.000853
    2   C      2    1.9255  1.100      0.702388      0.486517     -0.000647
    3   H      3    1.4430  1.100     -1.238669      1.474933      0.011353
    4   C      4    1.9255  1.100     -1.402745     -0.727534     -0.000918
    5   C      5    1.9255  1.100      1.398672     -0.726099      0.001614
    6   H      6    1.4430  1.100      1.232015      1.432767     -0.006533
 ------------------------------------------------------------------------------
 One-electron integrals computed using PRISM.
 NBasis=    86 RedAO= T EigKep=  4.41D-05  NBF=    86
 NBsUse=    86 1.00D-06 EigRej= -1.00D+00 NBFU=    86
 ExpMin= 4.38D-02 ExpMax= 3.05D+03 ExpMxC= 4.57D+02 IAcc=3 IRadAn=         5 AccDes= 0.00D+00
 Harris functional with IExCor=  402 and IRadAn=       5 diagonalized for initial guess.
 HarFok:  IExCor=  402 AccDes= 0.00D+00 IRadAn=         5 IDoV= 1 UseB2=F ITyADJ=14
 ICtDFT=  3500011 ScaDFX=  1.000000  1.000000  1.000000  1.000000
 FoFCou: FMM=F IPFlag=           0 FMFlag=      100000 FMFlg1=           0
         NFxFlg=           0 DoJE=T BraDBF=F KetDBF=T FulRan=T
         wScrn=  0.000000 ICntrl=       500 IOpCl=  0 I1Cent=   200000004 NGrid=           0
         NMat0=    1 NMatS0=      1 NMatT0=    0 NMatD0=    1 NMtDS0=    0 NMtDT0=    0
 Petite list used in FoFCou.
 Keep R1 ints in memory in canonical form, NReq=8817431.
 Requested convergence on RMS density matrix=1.00D-08 within 128 cycles.
 Requested convergence on MAX density matrix=1.00D-06.
 Requested convergence on             energy=1.00D-06.
 No special actions if energy rises.
 Inv3:  Mode=1 IEnd=     1732800.
 Iteration    1 A*A^-1 deviation from unit magnitude is 2.78D-15 for    749.
 Iteration    1 A*A^-1 deviation from orthogonality  is 1.84D-15 for    681    261.
 Iteration    1 A^-1*A deviation from unit magnitude is 2.78D-15 for    749.
 Iteration    1 A^-1*A deviation from orthogonality  is 9.95D-16 for    581     54.
 Error on total polarization charges =  0.01630
 SCF Done:  E(RB3LYP) =  -153.323274258     A.U. after   14 cycles
            NFock= 14  Conv=0.19D-08     -V/T= 2.0115

 **********************************************************************

            Population analysis using the SCF density.

 **********************************************************************

 Orbital symmetries:
       Occupied  (A) (A) (A) (A) (A) (A) (A) (A) (A) (A) (A) (A)
                 (A)
       Virtual   (A) (A) (A) (A) (A) (A) (A) (A) (A) (A) (A) (A)
                 (A) (A) (A) (A) (A) (A) (A) (A) (A) (A) (A) (A)
                 (A) (A) (A) (A) (A) (A) (A) (A) (A) (A) (A) (A)
                 (A) (A) (A) (A) (A) (A) (A) (A) (A) (A) (A) (A)
                 (A) (A) (A) (A) (A) (A) (A) (A) (A) (A) (A) (A)
                 (A) (A) (A) (A) (A) (A) (A) (A) (A) (A) (A) (A)
                 (A)
 The electronic state is 1-A.
 Alpha  occ. eigenvalues --  -10.29061 -10.29054 -10.24466 -10.24077  -0.85578
 Alpha  occ. eigenvalues --   -0.72717  -0.61411  -0.49887  -0.48544  -0.36827
 Alpha  occ. eigenvalues --   -0.33643  -0.31497  -0.25335
 Alpha virt. eigenvalues --   -0.14569  -0.11521  -0.08345   0.02176   0.03704
 Alpha virt. eigenvalues --    0.04172   0.04465   0.05782   0.06089   0.08839
 Alpha virt. eigenvalues --    0.09199   0.09342   0.10619   0.12140   0.12848
 Alpha virt. eigenvalues --    0.15439   0.16292   0.17692   0.18089   0.21152
 Alpha virt. eigenvalues --    0.21964   0.26733   0.28434   0.37308   0.42909
 Alpha virt. eigenvalues --    0.57529   0.63267   0.63536   0.67432   0.69024
 Alpha virt. eigenvalues --    0.69546   0.69877   0.72618   0.73266   0.75490
 Alpha virt. eigenvalues --    0.78835   0.79740   0.88974   0.93919   1.06018
 Alpha virt. eigenvalues --    1.06397   1.18317   1.23617   1.29177   1.31938
 Alpha virt. eigenvalues --    1.41836   1.62918   1.65429   1.69594   1.70896
 Alpha virt. eigenvalues --    1.72805   1.83760   1.84991   1.95273   2.00941
 Alpha virt. eigenvalues --    2.04843   2.09190   2.15904   2.37447   2.43638
 Alpha virt. eigenvalues --    2.44938   2.46726   2.53753   2.57047   2.61427
 Alpha virt. eigenvalues --    2.77196   3.05880   3.19884   3.50992   4.05599
 Alpha virt. eigenvalues --    4.13907   4.26602   4.53564
          Condensed to atoms (all electrons):
               1          2          3          4          5          6
     1  C    6.979982  -0.698590   0.182524  -1.567886   0.837147   0.071343
     2  C   -0.698590   6.956771   0.073904   0.841345  -1.542557   0.195005
     3  H    0.182524   0.073904   0.446119   0.109498  -0.042658  -0.009157
     4  C   -1.567886   0.841345   0.109498   7.801512  -0.711205  -0.042853
     5  C    0.837147  -1.542557  -0.042658  -0.711205   7.766600   0.105654
     6  H    0.071343   0.195005  -0.009157  -0.042853   0.105654   0.445987
 Mulliken charges:
               1
     1  C    0.195480
     2  C    0.174123
     3  H    0.239769
     4  C   -0.430411
     5  C   -0.412981
     6  H    0.234020
 Sum of Mulliken charges =  -0.00000
 Mulliken charges with hydrogens summed into heavy atoms:
               1
     1  C    0.435250
     2  C    0.408142
     4  C   -0.430411
     5  C   -0.412981
 Electronic spatial extent (au):  <R**2>=            221.5176
 Charge=             -0.0000 electrons
 Dipole moment (field-independent basis, Debye):
    X=              0.0310    Y=              4.8141    Z=              0.0062  Tot=              4.8142
 Quadrupole moment (field-independent basis, Debye-Ang):
   XX=            -26.3876   YY=            -24.3129   ZZ=            -26.9861
   XY=             -0.0766   XZ=             -0.0628   YZ=              0.0138
 Traceless Quadrupole moment (field-independent basis, Debye-Ang):
   XX=             -0.4921   YY=              1.5826   ZZ=             -1.0906
   XY=             -0.0766   XZ=             -0.0628   YZ=              0.0138
 Octapole moment (field-independent basis, Debye-Ang**2):
  XXX=              0.4160  YYY=             20.7484  ZZZ=              0.0071  XYY=             -0.1372
  XXY=             17.2765  XXZ=              0.0260  XZZ=              0.1047  YZZ=              3.2948
  YYZ=              0.0156  XYZ=             -0.0264
 Hexadecapole moment (field-independent basis, Debye-Ang**3):
 XXXX=           -225.0637 YYYY=           -103.7344 ZZZZ=            -36.9908 XXXY=             -0.1797
 XXXZ=             -0.2888 YYYX=             -0.3788 YYYZ=              0.0448 ZZZX=             -0.0912
 ZZZY=              0.0116 XXYY=            -64.2348 XXZZ=            -48.7865 YYZZ=            -25.1888
 XXYZ=              0.0228 YYXZ=             -0.1051 ZZXY=              0.0467
 N-N= 7.699387520076D+01 E-N=-5.081634584243D+02  KE= 1.515859034396D+02
 1\1\GINC-NODE62\SP\RB3LYP\6-31+G(d,p)\C4H2\YANZ\22-Sep-2023\0\\# b3lyp
 /6-31+g(d,p) scrf=(iefpcm,solvent=acetonitrile)\\tmpdir/M2_conf_0_55.g
 jf\\0,1\C,0,0.,0.,0.\C,0,1.3996,0.,0.\H,0,-0.53861,0.,-0.99406\C,0,-0.
 70901,0.01497,1.20791\C,0,2.0924,0.01717,1.21449\H,0,1.93194,-0.01764,
 -0.94458\\Version=ES64L-G16RevA.03\State=1-A\HF=-153.3232743\RMSD=1.87
 5e-09\Dipole=0.017626,-0.0209558,-1.8938628\Quadrupole=-0.3661645,-0.8
 107601,1.1769246,-0.0460664,0.053069,0.0141552\PG=C01 [X(C4H2)]\\@


  DISAPPOINTMENT IS THE NURSE OF WISDOM.               
                              SIR BOYLE ROCHE                 
 Job cpu time:       0 days  0 hours  0 minutes 28.3 seconds.
 Elapsed time:       0 days  0 hours  0 minutes 14.3 seconds.
 File lengths (MBytes):  RWF=     16 Int=      0 D2E=      0 Chk=      2 Scr=      1
 Normal termination of Gaussian 16 at Fri Sep 22 17:11:19 2023.
