 Entering Gaussian System, Link 0=g16
 Initial command:
 /share/apps/gaussian/g16/l1.exe "/tmp/55647.mgr/Gau-3675.inp" -scrdir="/tmp/55647.mgr/"
 Entering Link 1 = /share/apps/gaussian/g16/l1.exe PID=      3676.
  
 Copyright (c) 1988,1990,1992,1993,1995,1998,2003,2009,2016,
            Gaussian, Inc.  All Rights Reserved.
  
 This is part of the Gaussian(R) 16 program.  It is based on
 the Gaussian(R) 09 system (copyright 2009, Gaussian, Inc.),
 the Gaussian(R) 03 system (copyright 2003, Gaussian, Inc.),
 the Gaussian(R) 98 system (copyright 1998, Gaussian, Inc.),
 the Gaussian(R) 94 system (copyright 1995, Gaussian, Inc.),
 the Gaussian 92(TM) system (copyright 1992, Gaussian, Inc.),
 the Gaussian 90(TM) system (copyright 1990, Gaussian, Inc.),
 the Gaussian 88(TM) system (copyright 1988, Gaussian, Inc.),
 the Gaussian 86(TM) system (copyright 1986, Carnegie Mellon
 University), and the Gaussian 82(TM) system (copyright 1983,
 Carnegie Mellon University). Gaussian is a federally registered
 trademark of Gaussian, Inc.
  
 This software contains proprietary and confidential information,
 including trade secrets, belonging to Gaussian, Inc.
  
 This software is provided under written license and may be
 used, copied, transmitted, or stored only in accord with that
 written license.
  
 The following legend is applicable only to US Government
 contracts under FAR:
  
                    RESTRICTED RIGHTS LEGEND
  
 Use, reproduction and disclosure by the US Government is
 subject to restrictions as set forth in subparagraphs (a)
 and (c) of the Commercial Computer Software - Restricted
 Rights clause in FAR 52.227-19.
  
 Gaussian, Inc.
 340 Quinnipiac St., Bldg. 40, Wallingford CT 06492
  
  
 ---------------------------------------------------------------
 Warning -- This program may not be used in any manner that
 competes with the business of Gaussian, Inc. or will provide
 assistance to any competitor of Gaussian, Inc.  The licensee
 of this program is prohibited from giving any competitor of
 Gaussian, Inc. access to this program.  By using this program,
 the user acknowledges that Gaussian, Inc. is engaged in the
 business of creating and licensing software in the field of
 computational chemistry and represents and warrants to the
 licensee that it is not a competitor of Gaussian, Inc. and that
 it will not use this program in any manner prohibited above.
 ---------------------------------------------------------------
  

 Cite this work as:
 Gaussian 16, Revision A.03,
 M. J. Frisch, G. W. Trucks, H. B. Schlegel, G. E. Scuseria, 
 M. A. Robb, J. R. Cheeseman, G. Scalmani, V. Barone, 
 G. A. Petersson, H. Nakatsuji, X. Li, M. Caricato, A. V. Marenich, 
 J. Bloino, B. G. Janesko, R. Gomperts, B. Mennucci, H. P. Hratchian, 
 J. V. Ortiz, A. F. Izmaylov, J. L. Sonnenberg, D. Williams-Young, 
 F. Ding, F. Lipparini, F. Egidi, J. Goings, B. Peng, A. Petrone, 
 T. Henderson, D. Ranasinghe, V. G. Zakrzewski, J. Gao, N. Rega, 
 G. Zheng, W. Liang, M. Hada, M. Ehara, K. Toyota, R. Fukuda, 
 J. Hasegawa, M. Ishida, T. Nakajima, Y. Honda, O. Kitao, H. Nakai, 
 T. Vreven, K. Throssell, J. A. Montgomery, Jr., J. E. Peralta, 
 F. Ogliaro, M. J. Bearpark, J. J. Heyd, E. N. Brothers, K. N. Kudin, 
 V. N. Staroverov, T. A. Keith, R. Kobayashi, J. Normand, 
 K. Raghavachari, A. P. Rendell, J. C. Burant, S. S. Iyengar, 
 J. Tomasi, M. Cossi, J. M. Millam, M. Klene, C. Adamo, R. Cammi, 
 J. W. Ochterski, R. L. Martin, K. Morokuma, O. Farkas, 
 J. B. Foresman, and D. J. Fox, Gaussian, Inc., Wallingford CT, 2016.
 
 ******************************************
 Gaussian 16:  ES64L-G16RevA.03 25-Dec-2016
                22-Sep-2023 
 ******************************************
 %nprocshared=2
 Will use up to    2 processors via shared memory.
 %mem=2GB
 ------------------------------------------------------
 # b3lyp/6-31+g(d,p) scrf=(iefpcm,solvent=acetonitrile)
 ------------------------------------------------------
 1/38=1,172=1/1;
 2/12=2,17=6,18=5,40=1/2;
 3/5=1,6=6,7=111,11=2,25=1,30=1,70=2201,72=2,74=-5/1,2,3;
 4//1;
 5/5=2,38=5,53=2/2;
 6/7=2,8=2,9=2,10=2,28=1/1;
 99/5=1,9=1/99;
 ------------------------
 tmpdir/M2_conf_0_138.gjf
 ------------------------
 Symbolic Z-matrix:
 Charge =  0 Multiplicity = 1
 C                     0.        0.        0. 
 C                     1.3967    0.        0. 
 H                     1.93343   0.        0.94329 
 H                    -0.48588  -0.00542  -0.88783 
 H                    -0.5564   -0.00747   0.93075 
 H                     1.90514  -0.00428  -0.87569 
 
                          Input orientation:                          
 ---------------------------------------------------------------------
 Center     Atomic      Atomic             Coordinates (Angstroms)
 Number     Number       Type             X           Y           Z
 ---------------------------------------------------------------------
      1          6           0        0.000000    0.000000    0.000000
      2          6           0        1.396700    0.000000    0.000000
      3          1           0        1.933430    0.000000    0.943290
      4          1           0       -0.485880   -0.005420   -0.887830
      5          1           0       -0.556400   -0.007470    0.930750
      6          1           0        1.905140   -0.004280   -0.875690
 ---------------------------------------------------------------------
                    Distance matrix (angstroms):
                    1          2          3          4          5
     1  C    0.000000
     2  C    1.396700   0.000000
     3  H    2.151267   1.085300   0.000000
     4  H    1.012102   2.081437   3.034154   0.000000
     5  H    1.084404   2.163551   2.489873   1.819948   0.000000
     6  H    2.096762   1.012602   1.819205   2.391051   3.053263
                    6
     6  H    0.000000
 Stoichiometry    C2H4
 Framework group  C1[X(C2H4)]
 Deg. of freedom    12
 Full point group                 C1      NOp   1
 Largest Abelian subgroup         C1      NOp   1
 Largest concise Abelian subgroup C1      NOp   1
                         Standard orientation:                         
 ---------------------------------------------------------------------
 Center     Atomic      Atomic             Coordinates (Angstroms)
 Number     Number       Type             X           Y           Z
 ---------------------------------------------------------------------
      1          6           0       -0.698522   -0.007582   -0.001706
      2          6           0        0.698176   -0.006232   -0.000448
      3          1           0        1.233994    0.937576    0.000529
      4          1           0       -1.183549   -0.895884    0.002812
      5          1           0       -1.255828    0.922626    0.005751
      6          1           0        1.207459   -0.881433    0.003831
 ---------------------------------------------------------------------
 Rotational constants (GHZ):         151.4599804          28.5365068          24.0125475
 Standard basis: 6-31+G(d,p) (6D, 7F)
 There are    58 symmetry adapted cartesian basis functions of A   symmetry.
 There are    58 symmetry adapted basis functions of A   symmetry.
    58 basis functions,    92 primitive gaussians,    58 cartesian basis functions
     8 alpha electrons        8 beta electrons
       nuclear repulsion energy        33.1119989755 Hartrees.
 NAtoms=    6 NActive=    6 NUniq=    6 SFac= 1.00D+00 NAtFMM=   60 NAOKFM=F Big=F
 Integral buffers will be    131072 words long.
 Raffenetti 2 integral format.
 Two-electron integral symmetry is turned on.
 ------------------------------------------------------------------------------
 Polarizable Continuum Model (PCM)
 =================================
 Model                : PCM.
 Atomic radii         : UFF (Universal Force Field).
 Polarization charges : Total charges.
 Charge compensation  : None.
 Solution method      : On-the-fly selection.
 Cavity type          : Scaled VdW (van der Waals Surface) (Alpha=1.100).
 Cavity algorithm     : GePol (No added spheres)
                        Default sphere list used, NSphG=    6.
                        Lebedev-Laikov grids with approx.  5.0 points / Ang**2.
                        Smoothing algorithm: York/Karplus (Gamma=1.0000).
                        Polarization charges: spherical gaussians, with
                                              point-specific exponents (IZeta= 3).
                        Self-potential: point-specific (ISelfS= 7).
                        Self-field    : sphere-specific E.n sum rule (ISelfD= 2).
 Solvent              : Acetonitrile, Eps=  35.688000 Eps(inf)=   1.806874
 ------------------------------------------------------------------------------
 Spheres list:
 ISph  on   Nord     Re0    Alpha      Xe            Ye            Ze
    1   C      1    1.9255  1.100     -0.698522     -0.007582     -0.001706
    2   C      2    1.9255  1.100      0.698176     -0.006232     -0.000448
    3   H      3    1.4430  1.100      1.233994      0.937576      0.000529
    4   H      4    1.4430  1.100     -1.183549     -0.895884      0.002812
    5   H      5    1.4430  1.100     -1.255828      0.922626      0.005751
    6   H      6    1.4430  1.100      1.207459     -0.881433      0.003831
 ------------------------------------------------------------------------------
 One-electron integrals computed using PRISM.
 NBasis=    58 RedAO= T EigKep=  2.82D-04  NBF=    58
 NBsUse=    58 1.00D-06 EigRej= -1.00D+00 NBFU=    58
 ExpMin= 4.38D-02 ExpMax= 3.05D+03 ExpMxC= 4.57D+02 IAcc=3 IRadAn=         5 AccDes= 0.00D+00
 Harris functional with IExCor=  402 and IRadAn=       5 diagonalized for initial guess.
 HarFok:  IExCor=  402 AccDes= 0.00D+00 IRadAn=         5 IDoV= 1 UseB2=F ITyADJ=14
 ICtDFT=  3500011 ScaDFX=  1.000000  1.000000  1.000000  1.000000
 FoFCou: FMM=F IPFlag=           0 FMFlag=      100000 FMFlg1=           0
         NFxFlg=           0 DoJE=T BraDBF=F KetDBF=T FulRan=T
         wScrn=  0.000000 ICntrl=       500 IOpCl=  0 I1Cent=   200000004 NGrid=           0
         NMat0=    1 NMatS0=      1 NMatT0=    0 NMatD0=    1 NMtDS0=    0 NMtDT0=    0
 Petite list used in FoFCou.
 Keep R1 ints in memory in canonical form, NReq=3224596.
 Requested convergence on RMS density matrix=1.00D-08 within 128 cycles.
 Requested convergence on MAX density matrix=1.00D-06.
 Requested convergence on             energy=1.00D-06.
 No special actions if energy rises.
 Inv3:  Mode=1 IEnd=     1164387.
 Iteration    1 A*A^-1 deviation from unit magnitude is 2.44D-15 for    617.
 Iteration    1 A*A^-1 deviation from orthogonality  is 1.49D-15 for    320    138.
 Iteration    1 A^-1*A deviation from unit magnitude is 2.44D-15 for    617.
 Iteration    1 A^-1*A deviation from orthogonality  is 1.53D-15 for    433    107.
 Error on total polarization charges =  0.01282
 SCF Done:  E(RB3LYP) =  -78.5888960519     A.U. after    9 cycles
            NFock=  9  Conv=0.32D-08     -V/T= 2.0098

 **********************************************************************

            Population analysis using the SCF density.

 **********************************************************************

 Orbital symmetries:
       Occupied  (A) (A) (A) (A) (A) (A) (A) (A)
       Virtual   (A) (A) (A) (A) (A) (A) (A) (A) (A) (A) (A) (A)
                 (A) (A) (A) (A) (A) (A) (A) (A) (A) (A) (A) (A)
                 (A) (A) (A) (A) (A) (A) (A) (A) (A) (A) (A) (A)
                 (A) (A) (A) (A) (A) (A) (A) (A) (A) (A) (A) (A)
                 (A) (A)
 The electronic state is 1-A.
 Alpha  occ. eigenvalues --  -10.19550 -10.19492  -0.75884  -0.59849  -0.48107
 Alpha  occ. eigenvalues --   -0.41311  -0.37848  -0.27105
 Alpha virt. eigenvalues --   -0.02195   0.02550   0.03716   0.05204   0.06699
 Alpha virt. eigenvalues --    0.08814   0.09084   0.12421   0.16009   0.18194
 Alpha virt. eigenvalues --    0.22038   0.25626   0.32611   0.35458   0.58333
 Alpha virt. eigenvalues --    0.63304   0.67751   0.71580   0.72103   0.81201
 Alpha virt. eigenvalues --    0.91946   0.92795   0.98010   1.02344   1.13083
 Alpha virt. eigenvalues --    1.20505   1.37117   1.38029   1.50071   1.87199
 Alpha virt. eigenvalues --    1.92200   1.97104   2.00102   2.09806   2.11930
 Alpha virt. eigenvalues --    2.25892   2.36907   2.51018   2.52017   2.56501
 Alpha virt. eigenvalues --    2.73193   2.77616   2.78994   3.01363   3.26277
 Alpha virt. eigenvalues --    3.47587   3.59409   3.78959   4.20208   4.50143
          Condensed to atoms (all electrons):
               1          2          3          4          5          6
     1  C    4.906377   0.661893  -0.030562   0.402043   0.392225  -0.033681
     2  C    0.661893   4.907446   0.391700  -0.034706  -0.029947   0.401989
     3  H   -0.030562   0.391700   0.527716   0.004448  -0.007108  -0.035265
     4  H    0.402043  -0.034706   0.004448   0.523906  -0.035203  -0.008197
     5  H    0.392225  -0.029947  -0.007108  -0.035203   0.524925   0.004243
     6  H   -0.033681   0.401989  -0.035265  -0.008197   0.004243   0.521883
 Mulliken charges:
               1
     1  C   -0.298296
     2  C   -0.298375
     3  H    0.149070
     4  H    0.147709
     5  H    0.150864
     6  H    0.149027
 Sum of Mulliken charges =  -0.00000
 Mulliken charges with hydrogens summed into heavy atoms:
               1
     1  C    0.000277
     2  C   -0.000277
 Electronic spatial extent (au):  <R**2>=             84.2446
 Charge=             -0.0000 electrons
 Dipole moment (field-independent basis, Debye):
    X=             -0.0015    Y=             -0.0424    Z=              0.0168  Tot=              0.0456
 Quadrupole moment (field-independent basis, Debye-Ang):
   XX=            -12.3011   YY=            -12.1995   ZZ=            -16.1803
   XY=             -0.0533   XZ=             -0.0063   YZ=             -0.0005
 Traceless Quadrupole moment (field-independent basis, Debye-Ang):
   XX=              1.2592   YY=              1.3608   ZZ=             -2.6200
   XY=             -0.0533   XZ=             -0.0063   YZ=             -0.0005
 Octapole moment (field-independent basis, Debye-Ang**2):
  XXX=             -0.0061  YYY=             -0.1945  ZZZ=              0.0358  XYY=             -0.0067
  XXY=              0.0254  XXZ=              0.0380  XZZ=             -0.0010  YZZ=             -0.1399
  YYZ=              0.0229  XYZ=             -0.0101
 Hexadecapole moment (field-independent basis, Debye-Ang**3):
 XXXX=            -71.8947 YYYY=            -26.8224 ZZZZ=            -23.6743 XXXY=             -0.2757
 XXXZ=             -0.0176 YYYX=             -0.0372 YYYZ=             -0.0017 ZZZX=             -0.0083
 ZZZY=             -0.0023 XXYY=            -13.9056 XXZZ=            -16.9919 YYZZ=             -9.0550
 XXYZ=              0.0006 YYXZ=             -0.0094 ZZXY=             -0.0174
 N-N= 3.311199897555D+01 E-N=-2.474906905796D+02  KE= 7.782380297616D+01
 1\1\GINC-NODE62\SP\RB3LYP\6-31+G(d,p)\C2H4\YANZ\22-Sep-2023\0\\# b3lyp
 /6-31+g(d,p) scrf=(iefpcm,solvent=acetonitrile)\\tmpdir/M2_conf_0_138.
 gjf\\0,1\C,0,0.,0.,0.\C,0,1.3967,0.,0.\H,0,1.93343,0.,0.94329\H,0,-0.4
 8588,-0.00542,-0.88783\H,0,-0.5564,-0.00747,0.93075\H,0,1.90514,-0.004
 28,-0.87569\\Version=ES64L-G16RevA.03\State=1-A\HF=-78.5888961\RMSD=3.
 211e-09\Dipole=-0.0006154,-0.0066255,-0.0166807\Quadrupole=0.9361052,-
 1.9478808,1.0117756,0.0072957,-0.0395903,0.0018676\PG=C01 [X(C2H4)]\\@


 DEFINE YOUR TERMS, YOU WILL PERMIT ME AGAIN TO SAY, 
 OR WE SHALL NEVER UNDERSTAND ONE ANOTHER.

                                    -- VOLTAIRE
 Job cpu time:       0 days  0 hours  0 minutes 13.7 seconds.
 Elapsed time:       0 days  0 hours  0 minutes  7.1 seconds.
 File lengths (MBytes):  RWF=     13 Int=      0 D2E=      0 Chk=      2 Scr=      1
 Normal termination of Gaussian 16 at Fri Sep 22 17:12:21 2023.
