 Entering Gaussian System, Link 0=g16
 Initial command:
 /share/apps/gaussian/g16/l1.exe "/tmp/55647.mgr/Gau-2798.inp" -scrdir="/tmp/55647.mgr/"
 Entering Link 1 = /share/apps/gaussian/g16/l1.exe PID=      2799.
  
 Copyright (c) 1988,1990,1992,1993,1995,1998,2003,2009,2016,
            Gaussian, Inc.  All Rights Reserved.
  
 This is part of the Gaussian(R) 16 program.  It is based on
 the Gaussian(R) 09 system (copyright 2009, Gaussian, Inc.),
 the Gaussian(R) 03 system (copyright 2003, Gaussian, Inc.),
 the Gaussian(R) 98 system (copyright 1998, Gaussian, Inc.),
 the Gaussian(R) 94 system (copyright 1995, Gaussian, Inc.),
 the Gaussian 92(TM) system (copyright 1992, Gaussian, Inc.),
 the Gaussian 90(TM) system (copyright 1990, Gaussian, Inc.),
 the Gaussian 88(TM) system (copyright 1988, Gaussian, Inc.),
 the Gaussian 86(TM) system (copyright 1986, Carnegie Mellon
 University), and the Gaussian 82(TM) system (copyright 1983,
 Carnegie Mellon University). Gaussian is a federally registered
 trademark of Gaussian, Inc.
  
 This software contains proprietary and confidential information,
 including trade secrets, belonging to Gaussian, Inc.
  
 This software is provided under written license and may be
 used, copied, transmitted, or stored only in accord with that
 written license.
  
 The following legend is applicable only to US Government
 contracts under FAR:
  
                    RESTRICTED RIGHTS LEGEND
  
 Use, reproduction and disclosure by the US Government is
 subject to restrictions as set forth in subparagraphs (a)
 and (c) of the Commercial Computer Software - Restricted
 Rights clause in FAR 52.227-19.
  
 Gaussian, Inc.
 340 Quinnipiac St., Bldg. 40, Wallingford CT 06492
  
  
 ---------------------------------------------------------------
 Warning -- This program may not be used in any manner that
 competes with the business of Gaussian, Inc. or will provide
 assistance to any competitor of Gaussian, Inc.  The licensee
 of this program is prohibited from giving any competitor of
 Gaussian, Inc. access to this program.  By using this program,
 the user acknowledges that Gaussian, Inc. is engaged in the
 business of creating and licensing software in the field of
 computational chemistry and represents and warrants to the
 licensee that it is not a competitor of Gaussian, Inc. and that
 it will not use this program in any manner prohibited above.
 ---------------------------------------------------------------
  

 Cite this work as:
 Gaussian 16, Revision A.03,
 M. J. Frisch, G. W. Trucks, H. B. Schlegel, G. E. Scuseria, 
 M. A. Robb, J. R. Cheeseman, G. Scalmani, V. Barone, 
 G. A. Petersson, H. Nakatsuji, X. Li, M. Caricato, A. V. Marenich, 
 J. Bloino, B. G. Janesko, R. Gomperts, B. Mennucci, H. P. Hratchian, 
 J. V. Ortiz, A. F. Izmaylov, J. L. Sonnenberg, D. Williams-Young, 
 F. Ding, F. Lipparini, F. Egidi, J. Goings, B. Peng, A. Petrone, 
 T. Henderson, D. Ranasinghe, V. G. Zakrzewski, J. Gao, N. Rega, 
 G. Zheng, W. Liang, M. Hada, M. Ehara, K. Toyota, R. Fukuda, 
 J. Hasegawa, M. Ishida, T. Nakajima, Y. Honda, O. Kitao, H. Nakai, 
 T. Vreven, K. Throssell, J. A. Montgomery, Jr., J. E. Peralta, 
 F. Ogliaro, M. J. Bearpark, J. J. Heyd, E. N. Brothers, K. N. Kudin, 
 V. N. Staroverov, T. A. Keith, R. Kobayashi, J. Normand, 
 K. Raghavachari, A. P. Rendell, J. C. Burant, S. S. Iyengar, 
 J. Tomasi, M. Cossi, J. M. Millam, M. Klene, C. Adamo, R. Cammi, 
 J. W. Ochterski, R. L. Martin, K. Morokuma, O. Farkas, 
 J. B. Foresman, and D. J. Fox, Gaussian, Inc., Wallingford CT, 2016.
 
 ******************************************
 Gaussian 16:  ES64L-G16RevA.03 25-Dec-2016
                22-Sep-2023 
 ******************************************
 %nprocshared=2
 Will use up to    2 processors via shared memory.
 %mem=2GB
 ------------------------------------------------------
 # b3lyp/6-31+g(d,p) scrf=(iefpcm,solvent=acetonitrile)
 ------------------------------------------------------
 1/38=1,172=1/1;
 2/12=2,17=6,18=5,40=1/2;
 3/5=1,6=6,7=111,11=2,25=1,30=1,70=2201,72=2,74=-5/1,2,3;
 4//1;
 5/5=2,38=5,53=2/2;
 6/7=2,8=2,9=2,10=2,28=1/1;
 99/5=1,9=1/99;
 -----------------------
 tmpdir/M2_conf_0_69.gjf
 -----------------------
 Symbolic Z-matrix:
 Charge =  0 Multiplicity = 1
 C                     0.        0.        0. 
 C                     1.3958    0.        0. 
 H                     1.9502    0.        0.9315 
 O                    -0.62157  -0.00261  -1.06625 
 H                    -0.53665   0.00049   0.94391 
 O                     2.00534   0.00862  -1.07383 
 
                          Input orientation:                          
 ---------------------------------------------------------------------
 Center     Atomic      Atomic             Coordinates (Angstroms)
 Number     Number       Type             X           Y           Z
 ---------------------------------------------------------------------
      1          6           0        0.000000    0.000000    0.000000
      2          6           0        1.395800    0.000000    0.000000
      3          1           0        1.950200    0.000000    0.931500
      4          8           0       -0.621570   -0.002610   -1.066250
      5          1           0       -0.536650    0.000490    0.943910
      6          8           0        2.005340    0.008620   -1.073830
 ---------------------------------------------------------------------
                    Distance matrix (angstroms):
                    1          2          3          4          5
     1  C    0.000000
     2  C    1.395800   0.000000
     3  H    2.161243   1.083998   0.000000
     4  O    1.234198   2.281815   3.256534   0.000000
     5  H    1.085799   2.150658   2.486881   2.011955   0.000000
     6  O    2.274769   1.234797   2.006106   2.626945   3.245467
                    6
     6  O    0.000000
 Stoichiometry    C2H2O2
 Framework group  C1[X(C2H2O2)]
 Deg. of freedom    12
 Full point group                 C1      NOp   1
 Largest Abelian subgroup         C1      NOp   1
 Largest concise Abelian subgroup C1      NOp   1
                         Standard orientation:                         
 ---------------------------------------------------------------------
 Center     Atomic      Atomic             Coordinates (Angstroms)
 Number     Number       Type             X           Y           Z
 ---------------------------------------------------------------------
      1          6           0        0.695609    0.507729    0.001707
      2          6           0       -0.700184    0.508628   -0.002770
      3          1           0       -1.253987    1.440482   -0.002539
      4          8           0        1.316505   -0.558913   -0.001209
      5          1           0        1.232856    1.451290    0.005954
      6          8           0       -1.310432   -0.564825    0.001579
 ---------------------------------------------------------------------
 Rotational constants (GHZ):          24.8098575           7.2201626           5.5926320
 Standard basis: 6-31+G(d,p) (6D, 7F)
 There are    86 symmetry adapted cartesian basis functions of A   symmetry.
 There are    86 symmetry adapted basis functions of A   symmetry.
    86 basis functions,   142 primitive gaussians,    86 cartesian basis functions
    15 alpha electrons       15 beta electrons
       nuclear repulsion energy       105.8199050481 Hartrees.
 NAtoms=    6 NActive=    6 NUniq=    6 SFac= 1.00D+00 NAtFMM=   60 NAOKFM=F Big=F
 Integral buffers will be    131072 words long.
 Raffenetti 2 integral format.
 Two-electron integral symmetry is turned on.
 ------------------------------------------------------------------------------
 Polarizable Continuum Model (PCM)
 =================================
 Model                : PCM.
 Atomic radii         : UFF (Universal Force Field).
 Polarization charges : Total charges.
 Charge compensation  : None.
 Solution method      : On-the-fly selection.
 Cavity type          : Scaled VdW (van der Waals Surface) (Alpha=1.100).
 Cavity algorithm     : GePol (No added spheres)
                        Default sphere list used, NSphG=    6.
                        Lebedev-Laikov grids with approx.  5.0 points / Ang**2.
                        Smoothing algorithm: York/Karplus (Gamma=1.0000).
                        Polarization charges: spherical gaussians, with
                                              point-specific exponents (IZeta= 3).
                        Self-potential: point-specific (ISelfS= 7).
                        Self-field    : sphere-specific E.n sum rule (ISelfD= 2).
 Solvent              : Acetonitrile, Eps=  35.688000 Eps(inf)=   1.806874
 ------------------------------------------------------------------------------
 Spheres list:
 ISph  on   Nord     Re0    Alpha      Xe            Ye            Ze
    1   C      1    1.9255  1.100      0.695609      0.507729      0.001707
    2   C      2    1.9255  1.100     -0.700184      0.508628     -0.002770
    3   H      3    1.4430  1.100     -1.253987      1.440482     -0.002539
    4   O      4    1.7500  1.100      1.316505     -0.558913     -0.001209
    5   H      5    1.4430  1.100      1.232856      1.451290      0.005954
    6   O      6    1.7500  1.100     -1.310432     -0.564825      0.001579
 ------------------------------------------------------------------------------
 One-electron integrals computed using PRISM.
 NBasis=    86 RedAO= T EigKep=  1.30D-04  NBF=    86
 NBsUse=    86 1.00D-06 EigRej= -1.00D+00 NBFU=    86
 ExpMin= 4.38D-02 ExpMax= 5.48D+03 ExpMxC= 8.25D+02 IAcc=3 IRadAn=         5 AccDes= 0.00D+00
 Harris functional with IExCor=  402 and IRadAn=       5 diagonalized for initial guess.
 HarFok:  IExCor=  402 AccDes= 0.00D+00 IRadAn=         5 IDoV= 1 UseB2=F ITyADJ=14
 ICtDFT=  3500011 ScaDFX=  1.000000  1.000000  1.000000  1.000000
 FoFCou: FMM=F IPFlag=           0 FMFlag=      100000 FMFlg1=           0
         NFxFlg=           0 DoJE=T BraDBF=F KetDBF=T FulRan=T
         wScrn=  0.000000 ICntrl=       500 IOpCl=  0 I1Cent=   200000004 NGrid=           0
         NMat0=    1 NMatS0=      1 NMatT0=    0 NMatD0=    1 NMtDS0=    0 NMtDT0=    0
 Petite list used in FoFCou.
 Keep R1 ints in memory in canonical form, NReq=8817431.
 Requested convergence on RMS density matrix=1.00D-08 within 128 cycles.
 Requested convergence on MAX density matrix=1.00D-06.
 Requested convergence on             energy=1.00D-06.
 No special actions if energy rises.
 Inv3:  Mode=1 IEnd=     1683003.
 Iteration    1 A*A^-1 deviation from unit magnitude is 6.00D-15 for    742.
 Iteration    1 A*A^-1 deviation from orthogonality  is 1.89D-15 for    716    362.
 Iteration    1 A^-1*A deviation from unit magnitude is 5.77D-15 for    742.
 Iteration    1 A^-1*A deviation from orthogonality  is 8.38D-15 for    663    637.
 Error on total polarization charges =  0.00781
 SCF Done:  E(RB3LYP) =  -227.825324447     A.U. after   11 cycles
            NFock= 11  Conv=0.23D-08     -V/T= 2.0084

 **********************************************************************

            Population analysis using the SCF density.

 **********************************************************************

 Orbital symmetries:
       Occupied  (A) (A) (A) (A) (A) (A) (A) (A) (A) (A) (A) (A)
                 (A) (A) (A)
       Virtual   (A) (A) (A) (A) (A) (A) (A) (A) (A) (A) (A) (A)
                 (A) (A) (A) (A) (A) (A) (A) (A) (A) (A) (A) (A)
                 (A) (A) (A) (A) (A) (A) (A) (A) (A) (A) (A) (A)
                 (A) (A) (A) (A) (A) (A) (A) (A) (A) (A) (A) (A)
                 (A) (A) (A) (A) (A) (A) (A) (A) (A) (A) (A) (A)
                 (A) (A) (A) (A) (A) (A) (A) (A) (A) (A) (A)
 The electronic state is 1-A.
 Alpha  occ. eigenvalues --  -19.20211 -19.20178 -10.30658 -10.30596  -1.10043
 Alpha  occ. eigenvalues --   -1.06212  -0.75970  -0.58082  -0.55931  -0.48764
 Alpha  occ. eigenvalues --   -0.46090  -0.45695  -0.38936  -0.31872  -0.29378
 Alpha virt. eigenvalues --   -0.14609   0.01296   0.02140   0.03499   0.03842
 Alpha virt. eigenvalues --    0.06081   0.07356   0.08862   0.10218   0.15338
 Alpha virt. eigenvalues --    0.15850   0.19861   0.20299   0.21604   0.24027
 Alpha virt. eigenvalues --    0.24158   0.25322   0.26342   0.28398   0.32169
 Alpha virt. eigenvalues --    0.34918   0.40186   0.52366   0.61579   0.61749
 Alpha virt. eigenvalues --    0.66470   0.75231   0.77653   0.82240   0.88735
 Alpha virt. eigenvalues --    0.99580   1.11775   1.12378   1.13823   1.14825
 Alpha virt. eigenvalues --    1.20186   1.20395   1.25351   1.26148   1.31152
 Alpha virt. eigenvalues --    1.37459   1.46060   1.48434   1.63319   1.65619
 Alpha virt. eigenvalues --    1.71391   1.74955   1.80015   1.85461   1.98865
 Alpha virt. eigenvalues --    1.99459   2.04864   2.07391   2.20059   2.23741
 Alpha virt. eigenvalues --    2.31257   2.43293   2.45777   2.57139   2.68263
 Alpha virt. eigenvalues --    2.78075   2.80761   2.90008   3.12417   3.18300
 Alpha virt. eigenvalues --    3.26244   3.65598   3.99170   4.26103   4.29910
 Alpha virt. eigenvalues --    4.57740
          Condensed to atoms (all electrons):
               1          2          3          4          5          6
     1  C    5.084756   0.049687  -0.085365   0.501482   0.395793  -0.169197
     2  C    0.049687   5.086654   0.396297  -0.168673  -0.087108   0.500597
     3  H   -0.085365   0.396297   0.565985   0.005272   0.006966  -0.058397
     4  O    0.501482  -0.168673   0.005272   8.115553  -0.058610  -0.003091
     5  H    0.395793  -0.087108   0.006966  -0.058610   0.569764   0.005788
     6  O   -0.169197   0.500597  -0.058397  -0.003091   0.005788   8.114404
 Mulliken charges:
               1
     1  C    0.222845
     2  C    0.222545
     3  H    0.169241
     4  O   -0.391934
     5  H    0.167406
     6  O   -0.390103
 Sum of Mulliken charges =  -0.00000
 Mulliken charges with hydrogens summed into heavy atoms:
               1
     1  C    0.390251
     2  C    0.391786
     4  O   -0.391934
     6  O   -0.390103
 Electronic spatial extent (au):  <R**2>=            226.4514
 Charge=             -0.0000 electrons
 Dipole moment (field-independent basis, Debye):
    X=             -0.0390    Y=              4.9920    Z=             -0.0007  Tot=              4.9922
 Quadrupole moment (field-independent basis, Debye-Ang):
   XX=            -27.0074   YY=            -21.5335   ZZ=            -21.3012
   XY=             -0.0556   XZ=              0.0139   YZ=              0.0014
 Traceless Quadrupole moment (field-independent basis, Debye-Ang):
   XX=             -3.7267   YY=              1.7472   ZZ=              1.9795
   XY=             -0.0556   XZ=              0.0139   YZ=              0.0014
 Octapole moment (field-independent basis, Debye-Ang**2):
  XXX=             -0.1659  YYY=              3.3698  ZZZ=              0.0007  XYY=             -0.0249
  XXY=              7.1527  XXZ=             -0.0021  XZZ=             -0.0016  YZZ=             -0.4574
  YYZ=              0.0070  XYZ=              0.0010
 Hexadecapole moment (field-independent basis, Debye-Ang**3):
 XXXX=           -198.3101 YYYY=            -72.2835 ZZZZ=            -18.8920 XXXY=             -0.2533
 XXXZ=              0.0059 YYYX=             -0.0669 YYYZ=              0.0064 ZZZX=             -0.0101
 ZZZY=             -0.0027 XXYY=            -40.0959 XXZZ=            -32.7792 YYZZ=            -15.6844
 XXYZ=              0.0088 YYXZ=              0.0129 ZZXY=             -0.0099
 N-N= 1.058199050481D+02 E-N=-7.455476263702D+02  KE= 2.259219328284D+02
 1\1\GINC-NODE62\SP\RB3LYP\6-31+G(d,p)\C2H2O2\YANZ\22-Sep-2023\0\\# b3l
 yp/6-31+g(d,p) scrf=(iefpcm,solvent=acetonitrile)\\tmpdir/M2_conf_0_69
 .gjf\\0,1\C,0,0.,0.,0.\C,0,1.3958,0.,0.\H,0,1.9502,0.,0.9315\O,0,-0.62
 157,-0.00261,-1.06625\H,0,-0.53665,0.00049,0.94391\O,0,2.00534,0.00862
 ,-1.07383\\Version=ES64L-G16RevA.03\State=1-A\HF=-227.8253244\RMSD=2.2
 57e-09\Dipole=0.0166249,-0.0044523,1.9640053\Quadrupole=-2.7705402,1.4
 715727,1.2989675,-0.0240327,0.043908,0.001543\PG=C01 [X(C2H2O2)]\\@


 HIGGLEDY-PIGGLEDY
 NIC'LAUS COPERNICUS
 LOOKED AT THE UNIVERSE,
 SPOKE TO THE THRONG;
 GIVE UP YOUR PTOLOMY,
 RISE UP AND FOLLOW ME,
 HELIOCENTRICALLY
 PTOLEMY'S WRONG.
   -- NANCY L. STARK
 Job cpu time:       0 days  0 hours  0 minutes 28.0 seconds.
 Elapsed time:       0 days  0 hours  0 minutes 14.4 seconds.
 File lengths (MBytes):  RWF=     16 Int=      0 D2E=      0 Chk=      2 Scr=      1
 Normal termination of Gaussian 16 at Fri Sep 22 17:11:14 2023.
