 Entering Gaussian System, Link 0=g16
 Initial command:
 /share/apps/gaussian/g16/l1.exe "/tmp/55647.mgr/Gau-3176.inp" -scrdir="/tmp/55647.mgr/"
 Entering Link 1 = /share/apps/gaussian/g16/l1.exe PID=      3177.
  
 Copyright (c) 1988,1990,1992,1993,1995,1998,2003,2009,2016,
            Gaussian, Inc.  All Rights Reserved.
  
 This is part of the Gaussian(R) 16 program.  It is based on
 the Gaussian(R) 09 system (copyright 2009, Gaussian, Inc.),
 the Gaussian(R) 03 system (copyright 2003, Gaussian, Inc.),
 the Gaussian(R) 98 system (copyright 1998, Gaussian, Inc.),
 the Gaussian(R) 94 system (copyright 1995, Gaussian, Inc.),
 the Gaussian 92(TM) system (copyright 1992, Gaussian, Inc.),
 the Gaussian 90(TM) system (copyright 1990, Gaussian, Inc.),
 the Gaussian 88(TM) system (copyright 1988, Gaussian, Inc.),
 the Gaussian 86(TM) system (copyright 1986, Carnegie Mellon
 University), and the Gaussian 82(TM) system (copyright 1983,
 Carnegie Mellon University). Gaussian is a federally registered
 trademark of Gaussian, Inc.
  
 This software contains proprietary and confidential information,
 including trade secrets, belonging to Gaussian, Inc.
  
 This software is provided under written license and may be
 used, copied, transmitted, or stored only in accord with that
 written license.
  
 The following legend is applicable only to US Government
 contracts under FAR:
  
                    RESTRICTED RIGHTS LEGEND
  
 Use, reproduction and disclosure by the US Government is
 subject to restrictions as set forth in subparagraphs (a)
 and (c) of the Commercial Computer Software - Restricted
 Rights clause in FAR 52.227-19.
  
 Gaussian, Inc.
 340 Quinnipiac St., Bldg. 40, Wallingford CT 06492
  
  
 ---------------------------------------------------------------
 Warning -- This program may not be used in any manner that
 competes with the business of Gaussian, Inc. or will provide
 assistance to any competitor of Gaussian, Inc.  The licensee
 of this program is prohibited from giving any competitor of
 Gaussian, Inc. access to this program.  By using this program,
 the user acknowledges that Gaussian, Inc. is engaged in the
 business of creating and licensing software in the field of
 computational chemistry and represents and warrants to the
 licensee that it is not a competitor of Gaussian, Inc. and that
 it will not use this program in any manner prohibited above.
 ---------------------------------------------------------------
  

 Cite this work as:
 Gaussian 16, Revision A.03,
 M. J. Frisch, G. W. Trucks, H. B. Schlegel, G. E. Scuseria, 
 M. A. Robb, J. R. Cheeseman, G. Scalmani, V. Barone, 
 G. A. Petersson, H. Nakatsuji, X. Li, M. Caricato, A. V. Marenich, 
 J. Bloino, B. G. Janesko, R. Gomperts, B. Mennucci, H. P. Hratchian, 
 J. V. Ortiz, A. F. Izmaylov, J. L. Sonnenberg, D. Williams-Young, 
 F. Ding, F. Lipparini, F. Egidi, J. Goings, B. Peng, A. Petrone, 
 T. Henderson, D. Ranasinghe, V. G. Zakrzewski, J. Gao, N. Rega, 
 G. Zheng, W. Liang, M. Hada, M. Ehara, K. Toyota, R. Fukuda, 
 J. Hasegawa, M. Ishida, T. Nakajima, Y. Honda, O. Kitao, H. Nakai, 
 T. Vreven, K. Throssell, J. A. Montgomery, Jr., J. E. Peralta, 
 F. Ogliaro, M. J. Bearpark, J. J. Heyd, E. N. Brothers, K. N. Kudin, 
 V. N. Staroverov, T. A. Keith, R. Kobayashi, J. Normand, 
 K. Raghavachari, A. P. Rendell, J. C. Burant, S. S. Iyengar, 
 J. Tomasi, M. Cossi, J. M. Millam, M. Klene, C. Adamo, R. Cammi, 
 J. W. Ochterski, R. L. Martin, K. Morokuma, O. Farkas, 
 J. B. Foresman, and D. J. Fox, Gaussian, Inc., Wallingford CT, 2016.
 
 ******************************************
 Gaussian 16:  ES64L-G16RevA.03 25-Dec-2016
                22-Sep-2023 
 ******************************************
 %nprocshared=2
 Will use up to    2 processors via shared memory.
 %mem=2GB
 ------------------------------------------------------
 # b3lyp/6-31+g(d,p) scrf=(iefpcm,solvent=acetonitrile)
 ------------------------------------------------------
 1/38=1,172=1/1;
 2/12=2,17=6,18=5,40=1/2;
 3/5=1,6=6,7=111,11=2,25=1,30=1,70=2201,72=2,74=-5/1,2,3;
 4//1;
 5/5=2,38=5,53=2/2;
 6/7=2,8=2,9=2,10=2,28=1/1;
 99/5=1,9=1/99;
 -----------------------
 tmpdir/M2_conf_0_89.gjf
 -----------------------
 Symbolic Z-matrix:
 Charge =  0 Multiplicity = 1
 C                     0.        0.        0. 
 H                     1.0945    0.        0. 
 H                    -0.41896   0.       -0.99911 
 H                    -0.34921  -0.8694    0.57522 
 H                    -0.34244   0.88501   0.54916 
 
                          Input orientation:                          
 ---------------------------------------------------------------------
 Center     Atomic      Atomic             Coordinates (Angstroms)
 Number     Number       Type             X           Y           Z
 ---------------------------------------------------------------------
      1          6           0        0.000000    0.000000    0.000000
      2          1           0        1.094500    0.000000    0.000000
      3          1           0       -0.418960    0.000000   -0.999110
      4          1           0       -0.349210   -0.869400    0.575220
      5          1           0       -0.342440    0.885010    0.549160
 ---------------------------------------------------------------------
                    Distance matrix (angstroms):
                    1          2          3          4          5
     1  C    0.000000
     2  H    1.094500   0.000000
     3  H    1.083397   1.813500   0.000000
     4  H    1.099401   1.780739   1.799788   0.000000
     5  H    1.096396   1.774716   1.785004   1.754617   0.000000
 Stoichiometry    CH4
 Framework group  C1[X(CH4)]
 Deg. of freedom     9
 Full point group                 C1      NOp   1
 Largest Abelian subgroup         C1      NOp   1
 Largest concise Abelian subgroup C1      NOp   1
                         Standard orientation:                         
 ---------------------------------------------------------------------
 Center     Atomic      Atomic             Coordinates (Angstroms)
 Number     Number       Type             X           Y           Z
 ---------------------------------------------------------------------
      1          6           0       -0.008918    0.008218   -0.003858
      2          1           0        0.638791    0.886535   -0.087294
      3          1           0       -1.056328    0.244886   -0.147631
      4          1           0        0.329405   -0.745357   -0.729354
      5          1           0        0.141643   -0.435371    0.987426
 ---------------------------------------------------------------------
 Rotational constants (GHZ):         160.3014490         157.2081244         154.5363773
 Standard basis: 6-31+G(d,p) (6D, 7F)
 There are    39 symmetry adapted cartesian basis functions of A   symmetry.
 There are    39 symmetry adapted basis functions of A   symmetry.
    39 basis functions,    60 primitive gaussians,    39 cartesian basis functions
     5 alpha electrons        5 beta electrons
       nuclear repulsion energy        13.3946976434 Hartrees.
 NAtoms=    5 NActive=    5 NUniq=    5 SFac= 1.00D+00 NAtFMM=   60 NAOKFM=F Big=F
 Integral buffers will be    131072 words long.
 Raffenetti 2 integral format.
 Two-electron integral symmetry is turned on.
 ------------------------------------------------------------------------------
 Polarizable Continuum Model (PCM)
 =================================
 Model                : PCM.
 Atomic radii         : UFF (Universal Force Field).
 Polarization charges : Total charges.
 Charge compensation  : None.
 Solution method      : On-the-fly selection.
 Cavity type          : Scaled VdW (van der Waals Surface) (Alpha=1.100).
 Cavity algorithm     : GePol (No added spheres)
                        Default sphere list used, NSphG=    5.
                        Lebedev-Laikov grids with approx.  5.0 points / Ang**2.
                        Smoothing algorithm: York/Karplus (Gamma=1.0000).
                        Polarization charges: spherical gaussians, with
                                              point-specific exponents (IZeta= 3).
                        Self-potential: point-specific (ISelfS= 7).
                        Self-field    : sphere-specific E.n sum rule (ISelfD= 2).
 Solvent              : Acetonitrile, Eps=  35.688000 Eps(inf)=   1.806874
 ------------------------------------------------------------------------------
 Spheres list:
 ISph  on   Nord     Re0    Alpha      Xe            Ye            Ze
    1   C      1    1.9255  1.100     -0.008918      0.008218     -0.003858
    2   H      2    1.4430  1.100      0.638791      0.886535     -0.087294
    3   H      3    1.4430  1.100     -1.056328      0.244886     -0.147631
    4   H      4    1.4430  1.100      0.329405     -0.745357     -0.729354
    5   H      5    1.4430  1.100      0.141643     -0.435371      0.987426
 ------------------------------------------------------------------------------
 One-electron integrals computed using PRISM.
 NBasis=    39 RedAO= T EigKep=  1.21D-02  NBF=    39
 NBsUse=    39 1.00D-06 EigRej= -1.00D+00 NBFU=    39
 ExpMin= 4.38D-02 ExpMax= 3.05D+03 ExpMxC= 4.57D+02 IAcc=3 IRadAn=         5 AccDes= 0.00D+00
 Harris functional with IExCor=  402 and IRadAn=       5 diagonalized for initial guess.
 HarFok:  IExCor=  402 AccDes= 0.00D+00 IRadAn=         5 IDoV= 1 UseB2=F ITyADJ=14
 ICtDFT=  3500011 ScaDFX=  1.000000  1.000000  1.000000  1.000000
 FoFCou: FMM=F IPFlag=           0 FMFlag=      100000 FMFlg1=           0
         NFxFlg=           0 DoJE=T BraDBF=F KetDBF=T FulRan=T
         wScrn=  0.000000 ICntrl=       500 IOpCl=  0 I1Cent=   200000004 NGrid=           0
         NMat0=    1 NMatS0=      1 NMatT0=    0 NMatD0=    1 NMtDS0=    0 NMtDT0=    0
 Petite list used in FoFCou.
 Keep R1 ints in memory in canonical form, NReq=2030921.
 Requested convergence on RMS density matrix=1.00D-08 within 128 cycles.
 Requested convergence on MAX density matrix=1.00D-06.
 Requested convergence on             energy=1.00D-06.
 No special actions if energy rises.
 Inv3:  Mode=1 IEnd=      735075.
 Iteration    1 A*A^-1 deviation from unit magnitude is 3.11D-15 for    468.
 Iteration    1 A*A^-1 deviation from orthogonality  is 1.40D-15 for    424    241.
 Iteration    1 A^-1*A deviation from unit magnitude is 2.89D-15 for    468.
 Iteration    1 A^-1*A deviation from orthogonality  is 3.05D-15 for    482    221.
 Error on total polarization charges =  0.00911
 SCF Done:  E(RB3LYP) =  -40.5257631008     A.U. after    7 cycles
            NFock=  7  Conv=0.72D-08     -V/T= 2.0116

 **********************************************************************

            Population analysis using the SCF density.

 **********************************************************************

 Orbital symmetries:
       Occupied  (A) (A) (A) (A) (A)
       Virtual   (A) (A) (A) (A) (A) (A) (A) (A) (A) (A) (A) (A)
                 (A) (A) (A) (A) (A) (A) (A) (A) (A) (A) (A) (A)
                 (A) (A) (A) (A) (A) (A) (A) (A) (A) (A)
 The electronic state is 1-A.
 Alpha  occ. eigenvalues --  -10.17169  -0.69502  -0.40034  -0.39147  -0.38625
 Alpha virt. eigenvalues --    0.01701   0.06167   0.06238   0.06276   0.17755
 Alpha virt. eigenvalues --    0.18090   0.18857   0.27868   0.63673   0.63948
 Alpha virt. eigenvalues --    0.64061   0.90154   0.90848   0.92286   1.05276
 Alpha virt. eigenvalues --    1.11457   1.35795   1.35942   2.02487   2.03383
 Alpha virt. eigenvalues --    2.04825   2.08026   2.09096   2.10609   2.58609
 Alpha virt. eigenvalues --    2.61753   2.66623   2.89730   2.90321   3.16343
 Alpha virt. eigenvalues --    3.41162   3.41265   3.42224   4.41991
          Condensed to atoms (all electrons):
               1          2          3          4          5
     1  C    5.062139   0.390844   0.393280   0.389008   0.388641
     2  H    0.390844   0.525588  -0.022143  -0.025163  -0.025371
     3  H    0.393280  -0.022143   0.517221  -0.023215  -0.024265
     4  H    0.389008  -0.025163  -0.023215   0.532247  -0.027114
     5  H    0.388641  -0.025371  -0.024265  -0.027114   0.533803
 Mulliken charges:
               1
     1  C   -0.623911
     2  H    0.156246
     3  H    0.159122
     4  H    0.154236
     5  H    0.154307
 Sum of Mulliken charges =   0.00000
 Mulliken charges with hydrogens summed into heavy atoms:
               1
     1  C    0.000000
 Electronic spatial extent (au):  <R**2>=             36.0437
 Charge=              0.0000 electrons
 Dipole moment (field-independent basis, Debye):
    X=              0.0242    Y=             -0.0291    Z=              0.0181  Tot=              0.0419
 Quadrupole moment (field-independent basis, Debye-Ang):
   XX=             -8.3620   YY=             -8.5216   ZZ=             -8.6331
   XY=             -0.0040   XZ=              0.0097   YZ=             -0.0064
 Traceless Quadrupole moment (field-independent basis, Debye-Ang):
   XX=              0.1436   YY=             -0.0161   ZZ=             -0.1275
   XY=             -0.0040   XZ=              0.0097   YZ=             -0.0064
 Octapole moment (field-independent basis, Debye-Ang**2):
  XXX=             -0.6669  YYY=              0.1087  ZZZ=              0.4080  XYY=              0.4723
  XXY=              0.3945  XXZ=             -0.1782  XZZ=              0.2079  YZZ=             -0.5486
  YYZ=             -0.1863  XYZ=              0.0743
 Hexadecapole moment (field-independent basis, Debye-Ang**3):
 XXXX=            -16.6007 YYYY=            -17.2740 ZZZZ=            -16.9636 XXXY=             -0.0985
 XXXZ=              0.1626 YYYX=              0.2996 YYYZ=              0.1615 ZZZX=              0.0382
 ZZZY=             -0.1663 XXYY=             -5.5839 XXZZ=             -5.9713 YYZZ=             -5.5687
 XXYZ=             -0.0271 YYXZ=             -0.1508 ZZXY=             -0.2197
 N-N= 1.339469764336D+01 E-N=-1.197913586912D+02  KE= 4.006188252322D+01
 1\1\GINC-NODE62\SP\RB3LYP\6-31+G(d,p)\C1H4\YANZ\22-Sep-2023\0\\# b3lyp
 /6-31+g(d,p) scrf=(iefpcm,solvent=acetonitrile)\\tmpdir/M2_conf_0_89.g
 jf\\0,1\C,0,0.,0.,0.\H,0,1.0945,0.,0.\H,0,-0.41896,0.,-0.99911\H,0,-0.
 34921,-0.8694,0.57522\H,0,-0.34244,0.88501,0.54916\\Version=ES64L-G16R
 evA.03\State=1-A\HF=-40.5257631\RMSD=7.180e-09\Dipole=-0.0040873,0.004
 181,0.0154238\Quadrupole=0.0262511,-0.0934545,0.0672035,-0.0001537,0.0
 558513,-0.0160107\PG=C01 [X(C1H4)]\\@


 A SOLDIER'S LIFE IS A LIFE OF HONOR, BUT A DOG WOULD NOT LEAD IT.
 -- PRINCE RUPERT, FOUNDER OF THE HUDSON'S BAY COMPANY
 Job cpu time:       0 days  0 hours  0 minutes  6.8 seconds.
 Elapsed time:       0 days  0 hours  0 minutes  3.5 seconds.
 File lengths (MBytes):  RWF=     11 Int=      0 D2E=      0 Chk=      1 Scr=      1
 Normal termination of Gaussian 16 at Fri Sep 22 17:11:36 2023.
