 Entering Gaussian System, Link 0=g16
 Initial command:
 /share/apps/gaussian/g16/l1.exe "/tmp/55647.mgr/Gau-2376.inp" -scrdir="/tmp/55647.mgr/"
 Entering Link 1 = /share/apps/gaussian/g16/l1.exe PID=      2377.
  
 Copyright (c) 1988,1990,1992,1993,1995,1998,2003,2009,2016,
            Gaussian, Inc.  All Rights Reserved.
  
 This is part of the Gaussian(R) 16 program.  It is based on
 the Gaussian(R) 09 system (copyright 2009, Gaussian, Inc.),
 the Gaussian(R) 03 system (copyright 2003, Gaussian, Inc.),
 the Gaussian(R) 98 system (copyright 1998, Gaussian, Inc.),
 the Gaussian(R) 94 system (copyright 1995, Gaussian, Inc.),
 the Gaussian 92(TM) system (copyright 1992, Gaussian, Inc.),
 the Gaussian 90(TM) system (copyright 1990, Gaussian, Inc.),
 the Gaussian 88(TM) system (copyright 1988, Gaussian, Inc.),
 the Gaussian 86(TM) system (copyright 1986, Carnegie Mellon
 University), and the Gaussian 82(TM) system (copyright 1983,
 Carnegie Mellon University). Gaussian is a federally registered
 trademark of Gaussian, Inc.
  
 This software contains proprietary and confidential information,
 including trade secrets, belonging to Gaussian, Inc.
  
 This software is provided under written license and may be
 used, copied, transmitted, or stored only in accord with that
 written license.
  
 The following legend is applicable only to US Government
 contracts under FAR:
  
                    RESTRICTED RIGHTS LEGEND
  
 Use, reproduction and disclosure by the US Government is
 subject to restrictions as set forth in subparagraphs (a)
 and (c) of the Commercial Computer Software - Restricted
 Rights clause in FAR 52.227-19.
  
 Gaussian, Inc.
 340 Quinnipiac St., Bldg. 40, Wallingford CT 06492
  
  
 ---------------------------------------------------------------
 Warning -- This program may not be used in any manner that
 competes with the business of Gaussian, Inc. or will provide
 assistance to any competitor of Gaussian, Inc.  The licensee
 of this program is prohibited from giving any competitor of
 Gaussian, Inc. access to this program.  By using this program,
 the user acknowledges that Gaussian, Inc. is engaged in the
 business of creating and licensing software in the field of
 computational chemistry and represents and warrants to the
 licensee that it is not a competitor of Gaussian, Inc. and that
 it will not use this program in any manner prohibited above.
 ---------------------------------------------------------------
  

 Cite this work as:
 Gaussian 16, Revision A.03,
 M. J. Frisch, G. W. Trucks, H. B. Schlegel, G. E. Scuseria, 
 M. A. Robb, J. R. Cheeseman, G. Scalmani, V. Barone, 
 G. A. Petersson, H. Nakatsuji, X. Li, M. Caricato, A. V. Marenich, 
 J. Bloino, B. G. Janesko, R. Gomperts, B. Mennucci, H. P. Hratchian, 
 J. V. Ortiz, A. F. Izmaylov, J. L. Sonnenberg, D. Williams-Young, 
 F. Ding, F. Lipparini, F. Egidi, J. Goings, B. Peng, A. Petrone, 
 T. Henderson, D. Ranasinghe, V. G. Zakrzewski, J. Gao, N. Rega, 
 G. Zheng, W. Liang, M. Hada, M. Ehara, K. Toyota, R. Fukuda, 
 J. Hasegawa, M. Ishida, T. Nakajima, Y. Honda, O. Kitao, H. Nakai, 
 T. Vreven, K. Throssell, J. A. Montgomery, Jr., J. E. Peralta, 
 F. Ogliaro, M. J. Bearpark, J. J. Heyd, E. N. Brothers, K. N. Kudin, 
 V. N. Staroverov, T. A. Keith, R. Kobayashi, J. Normand, 
 K. Raghavachari, A. P. Rendell, J. C. Burant, S. S. Iyengar, 
 J. Tomasi, M. Cossi, J. M. Millam, M. Klene, C. Adamo, R. Cammi, 
 J. W. Ochterski, R. L. Martin, K. Morokuma, O. Farkas, 
 J. B. Foresman, and D. J. Fox, Gaussian, Inc., Wallingford CT, 2016.
 
 ******************************************
 Gaussian 16:  ES64L-G16RevA.03 25-Dec-2016
                22-Sep-2023 
 ******************************************
 %nprocshared=2
 Will use up to    2 processors via shared memory.
 %mem=2GB
 ------------------------------------------------------
 # b3lyp/6-31+g(d,p) scrf=(iefpcm,solvent=acetonitrile)
 ------------------------------------------------------
 1/38=1,172=1/1;
 2/12=2,17=6,18=5,40=1/2;
 3/5=1,6=6,7=111,11=2,25=1,30=1,70=2201,72=2,74=-5/1,2,3;
 4//1;
 5/5=2,38=5,53=2/2;
 6/7=2,8=2,9=2,10=2,28=1/1;
 99/5=1,9=1/99;
 -----------------------
 tmpdir/M2_conf_0_29.gjf
 -----------------------
 Symbolic Z-matrix:
 Charge =  0 Multiplicity = 1
 C                     0.        0.        0. 
 C                     1.3944    0.        0. 
 C                     2.1317    0.        1.19706 
 H                    -0.49185   0.01158   0.8847 
 H                    -0.54429  -0.00837  -0.94042 
 H                     1.92562  -0.00612  -0.94776 
 O                     1.51355   0.0019    2.26945 
 H                     3.2239   -0.02724   1.17819 
 
                          Input orientation:                          
 ---------------------------------------------------------------------
 Center     Atomic      Atomic             Coordinates (Angstroms)
 Number     Number       Type             X           Y           Z
 ---------------------------------------------------------------------
      1          6           0        0.000000    0.000000    0.000000
      2          6           0        1.394400    0.000000    0.000000
      3          6           0        2.131700    0.000000    1.197060
      4          1           0       -0.491850    0.011580    0.884700
      5          1           0       -0.544290   -0.008370   -0.940420
      6          1           0        1.925620   -0.006120   -0.947760
      7          8           0        1.513550    0.001900    2.269450
      8          1           0        3.223900   -0.027240    1.178190
 ---------------------------------------------------------------------
                    Distance matrix (angstroms):
                    1          2          3          4          5
     1  C    0.000000
     2  C    1.394400   0.000000
     3  C    2.444810   1.405903   0.000000
     4  H    1.012297   2.083451   2.642105   0.000000
     5  H    1.086605   2.154757   3.424881   1.825982   0.000000
     6  H    2.146229   1.086499   2.154706   3.033543   2.469922
     7  O    2.727864   2.272576   1.237794   2.437059   3.812883
     8  H    3.432551   2.176222   1.092703   3.727525   4.322976
                    6          7          8
     6  H    0.000000
     7  O    3.243502   0.000000
     8  H    2.491112   2.029038   0.000000
 Stoichiometry    C3H4O
 Framework group  C1[X(C3H4O)]
 Deg. of freedom    18
 Full point group                 C1      NOp   1
 Largest Abelian subgroup         C1      NOp   1
 Largest concise Abelian subgroup C1      NOp   1
                         Standard orientation:                         
 ---------------------------------------------------------------------
 Center     Atomic      Atomic             Coordinates (Angstroms)
 Number     Number       Type             X           Y           Z
 ---------------------------------------------------------------------
      1          6           0        1.435371   -0.464010    0.001838
      2          6           0        0.581312    0.638218   -0.003388
      3          6           0       -0.816526    0.487847   -0.002867
      4          1           0        1.037293   -1.394722   -0.005471
      5          1           0        2.512124   -0.318220    0.009668
      6          1           0        1.005125    1.638648   -0.001860
      7          8           0       -1.285613   -0.657614    0.000492
      8          1           0       -1.470578    1.362879    0.020227
 ---------------------------------------------------------------------
 Rotational constants (GHZ):          21.2961403           6.8462649           5.1808411
 Standard basis: 6-31+G(d,p) (6D, 7F)
 There are    96 symmetry adapted cartesian basis functions of A   symmetry.
 There are    96 symmetry adapted basis functions of A   symmetry.
    96 basis functions,   156 primitive gaussians,    96 cartesian basis functions
    15 alpha electrons       15 beta electrons
       nuclear repulsion energy       105.7576694374 Hartrees.
 NAtoms=    8 NActive=    8 NUniq=    8 SFac= 1.00D+00 NAtFMM=   60 NAOKFM=F Big=F
 Integral buffers will be    131072 words long.
 Raffenetti 2 integral format.
 Two-electron integral symmetry is turned on.
 ------------------------------------------------------------------------------
 Polarizable Continuum Model (PCM)
 =================================
 Model                : PCM.
 Atomic radii         : UFF (Universal Force Field).
 Polarization charges : Total charges.
 Charge compensation  : None.
 Solution method      : On-the-fly selection.
 Cavity type          : Scaled VdW (van der Waals Surface) (Alpha=1.100).
 Cavity algorithm     : GePol (No added spheres)
                        Default sphere list used, NSphG=    8.
                        Lebedev-Laikov grids with approx.  5.0 points / Ang**2.
                        Smoothing algorithm: York/Karplus (Gamma=1.0000).
                        Polarization charges: spherical gaussians, with
                                              point-specific exponents (IZeta= 3).
                        Self-potential: point-specific (ISelfS= 7).
                        Self-field    : sphere-specific E.n sum rule (ISelfD= 2).
 Solvent              : Acetonitrile, Eps=  35.688000 Eps(inf)=   1.806874
 ------------------------------------------------------------------------------
 Spheres list:
 ISph  on   Nord     Re0    Alpha      Xe            Ye            Ze
    1   C      1    1.9255  1.100      1.435371     -0.464010      0.001838
    2   C      2    1.9255  1.100      0.581312      0.638218     -0.003388
    3   C      3    1.9255  1.100     -0.816526      0.487847     -0.002867
    4   H      4    1.4430  1.100      1.037293     -1.394722     -0.005471
    5   H      5    1.4430  1.100      2.512124     -0.318220      0.009668
    6   H      6    1.4430  1.100      1.005125      1.638648     -0.001860
    7   O      7    1.7500  1.100     -1.285613     -0.657614      0.000492
    8   H      8    1.4430  1.100     -1.470578      1.362879      0.020227
 ------------------------------------------------------------------------------
 One-electron integrals computed using PRISM.
 NBasis=    96 RedAO= T EigKep=  1.30D-04  NBF=    96
 NBsUse=    96 1.00D-06 EigRej= -1.00D+00 NBFU=    96
 ExpMin= 4.38D-02 ExpMax= 5.48D+03 ExpMxC= 8.25D+02 IAcc=3 IRadAn=         5 AccDes= 0.00D+00
 Harris functional with IExCor=  402 and IRadAn=       5 diagonalized for initial guess.
 HarFok:  IExCor=  402 AccDes= 0.00D+00 IRadAn=         5 IDoV= 1 UseB2=F ITyADJ=14
 ICtDFT=  3500011 ScaDFX=  1.000000  1.000000  1.000000  1.000000
 FoFCou: FMM=F IPFlag=           0 FMFlag=      100000 FMFlg1=           0
         NFxFlg=           0 DoJE=T BraDBF=F KetDBF=T FulRan=T
         wScrn=  0.000000 ICntrl=       500 IOpCl=  0 I1Cent=   200000004 NGrid=           0
         NMat0=    1 NMatS0=      1 NMatT0=    0 NMatD0=    1 NMtDS0=    0 NMtDT0=    0
 Petite list used in FoFCou.
 Keep R1 ints in memory in canonical form, NReq=12684406.
 Requested convergence on RMS density matrix=1.00D-08 within 128 cycles.
 Requested convergence on MAX density matrix=1.00D-06.
 Requested convergence on             energy=1.00D-06.
 No special actions if energy rises.
 Inv3:  Mode=1 IEnd=     2096688.
 Iteration    1 A*A^-1 deviation from unit magnitude is 2.89D-15 for    822.
 Iteration    1 A*A^-1 deviation from orthogonality  is 1.62D-15 for    717    181.
 Iteration    1 A^-1*A deviation from unit magnitude is 2.89D-15 for    822.
 Iteration    1 A^-1*A deviation from orthogonality  is 1.07D-15 for    672    503.
 Error on total polarization charges =  0.01121
 SCF Done:  E(RB3LYP) =  -191.920192759     A.U. after   12 cycles
            NFock= 12  Conv=0.15D-08     -V/T= 2.0091

 **********************************************************************

            Population analysis using the SCF density.

 **********************************************************************

 Orbital symmetries:
       Occupied  (A) (A) (A) (A) (A) (A) (A) (A) (A) (A) (A) (A)
                 (A) (A) (A)
       Virtual   (A) (A) (A) (A) (A) (A) (A) (A) (A) (A) (A) (A)
                 (A) (A) (A) (A) (A) (A) (A) (A) (A) (A) (A) (A)
                 (A) (A) (A) (A) (A) (A) (A) (A) (A) (A) (A) (A)
                 (A) (A) (A) (A) (A) (A) (A) (A) (A) (A) (A) (A)
                 (A) (A) (A) (A) (A) (A) (A) (A) (A) (A) (A) (A)
                 (A) (A) (A) (A) (A) (A) (A) (A) (A) (A) (A) (A)
                 (A) (A) (A) (A) (A) (A) (A) (A) (A)
 The electronic state is 1-A.
 Alpha  occ. eigenvalues --  -19.15949 -10.28368 -10.22317 -10.21204  -1.04923
 Alpha  occ. eigenvalues --   -0.79781  -0.67892  -0.55681  -0.52257  -0.46064
 Alpha  occ. eigenvalues --   -0.42808  -0.40979  -0.39508  -0.28552  -0.27460
 Alpha virt. eigenvalues --   -0.09735   0.01417   0.03131   0.03951   0.04032
 Alpha virt. eigenvalues --    0.06206   0.06543   0.07490   0.09711   0.09800
 Alpha virt. eigenvalues --    0.12276   0.12427   0.14254   0.16391   0.19970
 Alpha virt. eigenvalues --    0.21885   0.23402   0.24246   0.26399   0.26867
 Alpha virt. eigenvalues --    0.28750   0.31676   0.32394   0.40972   0.45742
 Alpha virt. eigenvalues --    0.63186   0.64892   0.67490   0.68450   0.70919
 Alpha virt. eigenvalues --    0.72124   0.76458   0.86372   0.90256   0.91689
 Alpha virt. eigenvalues --    0.95191   1.03508   1.07266   1.09467   1.16230
 Alpha virt. eigenvalues --    1.20123   1.24823   1.28234   1.29086   1.32902
 Alpha virt. eigenvalues --    1.33284   1.43943   1.47975   1.56790   1.76691
 Alpha virt. eigenvalues --    1.78349   1.81555   1.87913   1.91393   2.00917
 Alpha virt. eigenvalues --    2.02291   2.05688   2.10409   2.18059   2.18718
 Alpha virt. eigenvalues --    2.34488   2.36219   2.44784   2.48269   2.49691
 Alpha virt. eigenvalues --    2.49910   2.65372   2.68969   2.77324   2.79849
 Alpha virt. eigenvalues --    2.90667   3.06779   3.14192   3.25773   3.39017
 Alpha virt. eigenvalues --    3.58804   3.75286   4.11894   4.27602   4.36137
 Alpha virt. eigenvalues --    4.59587
          Condensed to atoms (all electrons):
               1          2          3          4          5          6
     1  C    4.899323   0.535918   0.033636   0.424479   0.361738   0.001267
     2  C    0.535918   5.466863   0.106158  -0.061796  -0.020687   0.284427
     3  C    0.033636   0.106158   4.845976  -0.005301   0.016609   0.018216
     4  H    0.424479  -0.061796  -0.005301   0.493715  -0.032248   0.004293
     5  H    0.361738  -0.020687   0.016609  -0.032248   0.506023  -0.005041
     6  H    0.001267   0.284427   0.018216   0.004293  -0.005041   0.534101
     7  O    0.008206  -0.215617   0.458553   0.002458   0.001085   0.007122
     8  H    0.014045  -0.154401   0.452696   0.000043  -0.000072   0.000797
               7          8
     1  C    0.008206   0.014045
     2  C   -0.215617  -0.154401
     3  C    0.458553   0.452696
     4  H    0.002458   0.000043
     5  H    0.001085  -0.000072
     6  H    0.007122   0.000797
     7  O    8.304335  -0.066184
     8  H   -0.066184   0.608866
 Mulliken charges:
               1
     1  C   -0.278612
     2  C    0.059135
     3  C    0.073455
     4  H    0.174358
     5  H    0.172592
     6  H    0.154818
     7  O   -0.499957
     8  H    0.144211
 Sum of Mulliken charges =  -0.00000
 Mulliken charges with hydrogens summed into heavy atoms:
               1
     1  C    0.068338
     2  C    0.213953
     3  C    0.217666
     7  O   -0.499957
 Electronic spatial extent (au):  <R**2>=            258.1945
 Charge=             -0.0000 electrons
 Dipole moment (field-independent basis, Debye):
    X=              2.8249    Y=              2.4479    Z=              0.0087  Tot=              3.7380
 Quadrupole moment (field-independent basis, Debye-Ang):
   XX=            -23.9112   YY=            -22.5164   ZZ=            -25.2220
   XY=             -4.1664   XZ=              0.0110   YZ=              0.0133
 Traceless Quadrupole moment (field-independent basis, Debye-Ang):
   XX=             -0.0280   YY=              1.3668   ZZ=             -1.3388
   XY=             -4.1664   XZ=              0.0110   YZ=              0.0133
 Octapole moment (field-independent basis, Debye-Ang**2):
  XXX=             10.0250  YYY=              1.1980  ZZZ=              0.0181  XYY=              1.1110
  XXY=              4.1750  XXZ=              0.0721  XZZ=             -3.0236  YZZ=             -0.8085
  YYZ=              0.0190  XYZ=             -0.0195
 Hexadecapole moment (field-independent basis, Debye-Ang**3):
 XXXX=           -211.5958 YYYY=            -88.1988 ZZZZ=            -28.4662 XXXY=             -9.1323
 XXXZ=              0.1298 YYYX=             -1.0913 YYYZ=              0.0494 ZZZX=              0.0145
 ZZZY=              0.0037 XXYY=            -51.6719 XXZZ=            -44.2620 YYZZ=            -21.1184
 XXYZ=              0.0588 YYXZ=             -0.0607 ZZXY=             -0.1780
 N-N= 1.057576694374D+02 E-N=-6.588528849292D+02  KE= 1.901980963818D+02
 1\1\GINC-NODE62\SP\RB3LYP\6-31+G(d,p)\C3H4O1\YANZ\22-Sep-2023\0\\# b3l
 yp/6-31+g(d,p) scrf=(iefpcm,solvent=acetonitrile)\\tmpdir/M2_conf_0_29
 .gjf\\0,1\C,0,0.,0.,0.\C,0,1.3944,0.,0.\C,0,2.1317,0.,1.19706\H,0,-0.4
 9185,0.01158,0.8847\H,0,-0.54429,-0.00837,-0.94042\H,0,1.92562,-0.0061
 2,-0.94776\O,0,1.51355,0.0019,2.26945\H,0,3.2239,-0.02724,1.17819\\Ver
 sion=ES64L-G16RevA.03\State=1-A\HF=-191.9201928\RMSD=1.506e-09\Dipole=
 0.0805283,-0.0077417,-1.4683996\Quadrupole=3.6265885,-0.9952235,-2.631
 3649,-0.0193726,0.2714677,0.0070209\PG=C01 [X(C3H4O1)]\\@


 BOOKS ARE LIGHTHOUSES ERECTED IN THE GREAT SEA OF TIME.
     -- E.P.WHIPPLE
 Job cpu time:       0 days  0 hours  0 minutes 39.3 seconds.
 Elapsed time:       0 days  0 hours  0 minutes 20.0 seconds.
 File lengths (MBytes):  RWF=     19 Int=      0 D2E=      0 Chk=      2 Scr=      1
 Normal termination of Gaussian 16 at Fri Sep 22 17:10:42 2023.
