 Entering Gaussian System, Link 0=g16
 Initial command:
 /share/apps/gaussian/g16/l1.exe "/tmp/55647.mgr/Gau-2176.inp" -scrdir="/tmp/55647.mgr/"
 Entering Link 1 = /share/apps/gaussian/g16/l1.exe PID=      2177.
  
 Copyright (c) 1988,1990,1992,1993,1995,1998,2003,2009,2016,
            Gaussian, Inc.  All Rights Reserved.
  
 This is part of the Gaussian(R) 16 program.  It is based on
 the Gaussian(R) 09 system (copyright 2009, Gaussian, Inc.),
 the Gaussian(R) 03 system (copyright 2003, Gaussian, Inc.),
 the Gaussian(R) 98 system (copyright 1998, Gaussian, Inc.),
 the Gaussian(R) 94 system (copyright 1995, Gaussian, Inc.),
 the Gaussian 92(TM) system (copyright 1992, Gaussian, Inc.),
 the Gaussian 90(TM) system (copyright 1990, Gaussian, Inc.),
 the Gaussian 88(TM) system (copyright 1988, Gaussian, Inc.),
 the Gaussian 86(TM) system (copyright 1986, Carnegie Mellon
 University), and the Gaussian 82(TM) system (copyright 1983,
 Carnegie Mellon University). Gaussian is a federally registered
 trademark of Gaussian, Inc.
  
 This software contains proprietary and confidential information,
 including trade secrets, belonging to Gaussian, Inc.
  
 This software is provided under written license and may be
 used, copied, transmitted, or stored only in accord with that
 written license.
  
 The following legend is applicable only to US Government
 contracts under FAR:
  
                    RESTRICTED RIGHTS LEGEND
  
 Use, reproduction and disclosure by the US Government is
 subject to restrictions as set forth in subparagraphs (a)
 and (c) of the Commercial Computer Software - Restricted
 Rights clause in FAR 52.227-19.
  
 Gaussian, Inc.
 340 Quinnipiac St., Bldg. 40, Wallingford CT 06492
  
  
 ---------------------------------------------------------------
 Warning -- This program may not be used in any manner that
 competes with the business of Gaussian, Inc. or will provide
 assistance to any competitor of Gaussian, Inc.  The licensee
 of this program is prohibited from giving any competitor of
 Gaussian, Inc. access to this program.  By using this program,
 the user acknowledges that Gaussian, Inc. is engaged in the
 business of creating and licensing software in the field of
 computational chemistry and represents and warrants to the
 licensee that it is not a competitor of Gaussian, Inc. and that
 it will not use this program in any manner prohibited above.
 ---------------------------------------------------------------
  

 Cite this work as:
 Gaussian 16, Revision A.03,
 M. J. Frisch, G. W. Trucks, H. B. Schlegel, G. E. Scuseria, 
 M. A. Robb, J. R. Cheeseman, G. Scalmani, V. Barone, 
 G. A. Petersson, H. Nakatsuji, X. Li, M. Caricato, A. V. Marenich, 
 J. Bloino, B. G. Janesko, R. Gomperts, B. Mennucci, H. P. Hratchian, 
 J. V. Ortiz, A. F. Izmaylov, J. L. Sonnenberg, D. Williams-Young, 
 F. Ding, F. Lipparini, F. Egidi, J. Goings, B. Peng, A. Petrone, 
 T. Henderson, D. Ranasinghe, V. G. Zakrzewski, J. Gao, N. Rega, 
 G. Zheng, W. Liang, M. Hada, M. Ehara, K. Toyota, R. Fukuda, 
 J. Hasegawa, M. Ishida, T. Nakajima, Y. Honda, O. Kitao, H. Nakai, 
 T. Vreven, K. Throssell, J. A. Montgomery, Jr., J. E. Peralta, 
 F. Ogliaro, M. J. Bearpark, J. J. Heyd, E. N. Brothers, K. N. Kudin, 
 V. N. Staroverov, T. A. Keith, R. Kobayashi, J. Normand, 
 K. Raghavachari, A. P. Rendell, J. C. Burant, S. S. Iyengar, 
 J. Tomasi, M. Cossi, J. M. Millam, M. Klene, C. Adamo, R. Cammi, 
 J. W. Ochterski, R. L. Martin, K. Morokuma, O. Farkas, 
 J. B. Foresman, and D. J. Fox, Gaussian, Inc., Wallingford CT, 2016.
 
 ******************************************
 Gaussian 16:  ES64L-G16RevA.03 25-Dec-2016
                22-Sep-2023 
 ******************************************
 %nprocshared=2
 Will use up to    2 processors via shared memory.
 %mem=2GB
 ------------------------------------------------------
 # b3lyp/6-31+g(d,p) scrf=(iefpcm,solvent=acetonitrile)
 ------------------------------------------------------
 1/38=1,172=1/1;
 2/12=2,17=6,18=5,40=1/2;
 3/5=1,6=6,7=111,11=2,25=1,30=1,70=2201,72=2,74=-5/1,2,3;
 4//1;
 5/5=2,38=5,53=2/2;
 6/7=2,8=2,9=2,10=2,28=1/1;
 99/5=1,9=1/99;
 -----------------------
 tmpdir/M2_conf_0_19.gjf
 -----------------------
 Symbolic Z-matrix:
 Charge =  0 Multiplicity = 1
 C                     0.        0.        0. 
 C                     1.3984    0.        0. 
 C                     2.10779   0.        1.20047 
 O                    -0.63571  -0.02552   1.05186 
 H                    -0.53968  -0.05689  -0.99276 
 H                     1.95593   0.00391  -0.93266 
 H                     1.62537  -0.0114    2.09649 
 H                     3.19399   0.00629   1.17564 
 
                          Input orientation:                          
 ---------------------------------------------------------------------
 Center     Atomic      Atomic             Coordinates (Angstroms)
 Number     Number       Type             X           Y           Z
 ---------------------------------------------------------------------
      1          6           0        0.000000    0.000000    0.000000
      2          6           0        1.398400    0.000000    0.000000
      3          6           0        2.107790    0.000000    1.200470
      4          8           0       -0.635710   -0.025520    1.051860
      5          1           0       -0.539680   -0.056890   -0.992760
      6          1           0        1.955930    0.003910   -0.932660
      7          1           0        1.625370   -0.011400    2.096490
      8          1           0        3.193990    0.006290    1.175640
 ---------------------------------------------------------------------
                    Distance matrix (angstroms):
                    1          2          3          4          5
     1  C    0.000000
     2  C    1.398400   0.000000
     3  C    2.425677   1.394404   0.000000
     4  O    1.229304   2.290123   2.747641   0.000000
     5  H    1.131399   2.178294   3.438400   2.047114   0.000000
     6  H    2.166918   1.086605   2.138532   3.264320   2.497074
     7  H    2.652777   2.108771   1.017699   2.490770   3.772662
     8  H    3.403490   2.146232   1.086502   3.831832   4.318129
                    6          7          8
     6  H    0.000000
     7  H    3.047171   0.000000
     8  H    2.444939   1.819023   0.000000
 Stoichiometry    C3H4O
 Framework group  C1[X(C3H4O)]
 Deg. of freedom    18
 Full point group                 C1      NOp   1
 Largest Abelian subgroup         C1      NOp   1
 Largest concise Abelian subgroup C1      NOp   1
                         Standard orientation:                         
 ---------------------------------------------------------------------
 Center     Atomic      Atomic             Coordinates (Angstroms)
 Number     Number       Type             X           Y           Z
 ---------------------------------------------------------------------
      1          6           0        0.800170    0.475773   -0.013205
      2          6           0       -0.588707    0.638222   -0.000754
      3          6           0       -1.432765   -0.471699    0.001060
      4          8           0        1.309535   -0.642923    0.002708
      5          1           0        1.452016    1.398837    0.042600
      6          1           0       -1.034094    1.629342    0.003798
      7          1           0       -1.057656   -1.417738    0.004803
      8          1           0       -2.508735   -0.320827    0.004534
 ---------------------------------------------------------------------
 Rotational constants (GHZ):          21.4967569           6.7802454           5.1548909
 Standard basis: 6-31+G(d,p) (6D, 7F)
 There are    96 symmetry adapted cartesian basis functions of A   symmetry.
 There are    96 symmetry adapted basis functions of A   symmetry.
    96 basis functions,   156 primitive gaussians,    96 cartesian basis functions
    15 alpha electrons       15 beta electrons
       nuclear repulsion energy       105.6781886392 Hartrees.
 NAtoms=    8 NActive=    8 NUniq=    8 SFac= 1.00D+00 NAtFMM=   60 NAOKFM=F Big=F
 Integral buffers will be    131072 words long.
 Raffenetti 2 integral format.
 Two-electron integral symmetry is turned on.
 ------------------------------------------------------------------------------
 Polarizable Continuum Model (PCM)
 =================================
 Model                : PCM.
 Atomic radii         : UFF (Universal Force Field).
 Polarization charges : Total charges.
 Charge compensation  : None.
 Solution method      : On-the-fly selection.
 Cavity type          : Scaled VdW (van der Waals Surface) (Alpha=1.100).
 Cavity algorithm     : GePol (No added spheres)
                        Default sphere list used, NSphG=    8.
                        Lebedev-Laikov grids with approx.  5.0 points / Ang**2.
                        Smoothing algorithm: York/Karplus (Gamma=1.0000).
                        Polarization charges: spherical gaussians, with
                                              point-specific exponents (IZeta= 3).
                        Self-potential: point-specific (ISelfS= 7).
                        Self-field    : sphere-specific E.n sum rule (ISelfD= 2).
 Solvent              : Acetonitrile, Eps=  35.688000 Eps(inf)=   1.806874
 ------------------------------------------------------------------------------
 Spheres list:
 ISph  on   Nord     Re0    Alpha      Xe            Ye            Ze
    1   C      1    1.9255  1.100      0.800170      0.475773     -0.013205
    2   C      2    1.9255  1.100     -0.588707      0.638222     -0.000754
    3   C      3    1.9255  1.100     -1.432765     -0.471699      0.001060
    4   O      4    1.7500  1.100      1.309535     -0.642923      0.002708
    5   H      5    1.4430  1.100      1.452016      1.398837      0.042600
    6   H      6    1.4430  1.100     -1.034094      1.629342      0.003798
    7   H      7    1.4430  1.100     -1.057656     -1.417738      0.004803
    8   H      8    1.4430  1.100     -2.508735     -0.320827      0.004534
 ------------------------------------------------------------------------------
 One-electron integrals computed using PRISM.
 NBasis=    96 RedAO= T EigKep=  1.28D-04  NBF=    96
 NBsUse=    96 1.00D-06 EigRej= -1.00D+00 NBFU=    96
 ExpMin= 4.38D-02 ExpMax= 5.48D+03 ExpMxC= 8.25D+02 IAcc=3 IRadAn=         5 AccDes= 0.00D+00
 Harris functional with IExCor=  402 and IRadAn=       5 diagonalized for initial guess.
 HarFok:  IExCor=  402 AccDes= 0.00D+00 IRadAn=         5 IDoV= 1 UseB2=F ITyADJ=14
 ICtDFT=  3500011 ScaDFX=  1.000000  1.000000  1.000000  1.000000
 FoFCou: FMM=F IPFlag=           0 FMFlag=      100000 FMFlg1=           0
         NFxFlg=           0 DoJE=T BraDBF=F KetDBF=T FulRan=T
         wScrn=  0.000000 ICntrl=       500 IOpCl=  0 I1Cent=   200000004 NGrid=           0
         NMat0=    1 NMatS0=      1 NMatT0=    0 NMatD0=    1 NMtDS0=    0 NMtDT0=    0
 Petite list used in FoFCou.
 Keep R1 ints in memory in canonical form, NReq=12684406.
 Requested convergence on RMS density matrix=1.00D-08 within 128 cycles.
 Requested convergence on MAX density matrix=1.00D-06.
 Requested convergence on             energy=1.00D-06.
 No special actions if energy rises.
 Inv3:  Mode=1 IEnd=     2121843.
 Iteration    1 A*A^-1 deviation from unit magnitude is 2.89D-15 for    830.
 Iteration    1 A*A^-1 deviation from orthogonality  is 1.73D-15 for    822    348.
 Iteration    1 A^-1*A deviation from unit magnitude is 3.11D-15 for    830.
 Iteration    1 A^-1*A deviation from orthogonality  is 1.48D-15 for    812    428.
 Error on total polarization charges =  0.01122
 SCF Done:  E(RB3LYP) =  -191.921136111     A.U. after   12 cycles
            NFock= 12  Conv=0.17D-08     -V/T= 2.0092

 **********************************************************************

            Population analysis using the SCF density.

 **********************************************************************

 Orbital symmetries:
       Occupied  (A) (A) (A) (A) (A) (A) (A) (A) (A) (A) (A) (A)
                 (A) (A) (A)
       Virtual   (A) (A) (A) (A) (A) (A) (A) (A) (A) (A) (A) (A)
                 (A) (A) (A) (A) (A) (A) (A) (A) (A) (A) (A) (A)
                 (A) (A) (A) (A) (A) (A) (A) (A) (A) (A) (A) (A)
                 (A) (A) (A) (A) (A) (A) (A) (A) (A) (A) (A) (A)
                 (A) (A) (A) (A) (A) (A) (A) (A) (A) (A) (A) (A)
                 (A) (A) (A) (A) (A) (A) (A) (A) (A) (A) (A) (A)
                 (A) (A) (A) (A) (A) (A) (A) (A) (A)
 The electronic state is 1-A.
 Alpha  occ. eigenvalues --  -19.16068 -10.28537 -10.22502 -10.21268  -1.05352
 Alpha  occ. eigenvalues --   -0.80062  -0.67769  -0.55235  -0.52227  -0.46265
 Alpha  occ. eigenvalues --   -0.42413  -0.41230  -0.39813  -0.28746  -0.27444
 Alpha virt. eigenvalues --   -0.09705   0.01350   0.03026   0.03933   0.04192
 Alpha virt. eigenvalues --    0.06148   0.06558   0.07514   0.09669   0.09764
 Alpha virt. eigenvalues --    0.12193   0.12396   0.14183   0.16380   0.19747
 Alpha virt. eigenvalues --    0.21527   0.23473   0.24389   0.26033   0.26519
 Alpha virt. eigenvalues --    0.29148   0.31564   0.32230   0.41096   0.46495
 Alpha virt. eigenvalues --    0.63052   0.64814   0.67627   0.68414   0.71104
 Alpha virt. eigenvalues --    0.72009   0.76717   0.85380   0.90112   0.91634
 Alpha virt. eigenvalues --    0.94979   1.03063   1.07050   1.09623   1.16527
 Alpha virt. eigenvalues --    1.20283   1.25000   1.27733   1.29013   1.31956
 Alpha virt. eigenvalues --    1.33607   1.44021   1.48230   1.57646   1.75092
 Alpha virt. eigenvalues --    1.78077   1.81123   1.87581   1.91959   2.01234
 Alpha virt. eigenvalues --    2.02549   2.05807   2.09636   2.17332   2.19830
 Alpha virt. eigenvalues --    2.34982   2.35432   2.43930   2.47100   2.48967
 Alpha virt. eigenvalues --    2.49869   2.65931   2.67593   2.75227   2.80717
 Alpha virt. eigenvalues --    2.90272   3.08328   3.13174   3.23341   3.36213
 Alpha virt. eigenvalues --    3.56140   3.75054   4.12860   4.27649   4.36281
 Alpha virt. eigenvalues --    4.59352
          Condensed to atoms (all electrons):
               1          2          3          4          5          6
     1  C    4.863437   0.091990   0.047184   0.451686   0.454964   0.014320
     2  C    0.091990   5.489236   0.503908  -0.209256  -0.163774   0.292460
     3  C    0.047184   0.503908   4.911920   0.017161   0.018762   0.002221
     4  O    0.451686  -0.209256   0.017161   8.295123  -0.068014   0.006318
     5  H    0.454964  -0.163774   0.018762  -0.068014   0.624309   0.000381
     6  H    0.014320   0.292460   0.002221   0.006318   0.000381   0.525862
     7  H   -0.006923  -0.056440   0.421721   0.001963   0.000044   0.004071
     8  H    0.017519  -0.021544   0.361216   0.000939  -0.000079  -0.005297
               7          8
     1  C   -0.006923   0.017519
     2  C   -0.056440  -0.021544
     3  C    0.421721   0.361216
     4  O    0.001963   0.000939
     5  H    0.000044  -0.000079
     6  H    0.004071  -0.005297
     7  H    0.492152  -0.032716
     8  H   -0.032716   0.508387
 Mulliken charges:
               1
     1  C    0.065821
     2  C    0.073419
     3  C   -0.284094
     4  O   -0.495921
     5  H    0.133408
     6  H    0.159663
     7  H    0.176129
     8  H    0.171575
 Sum of Mulliken charges =  -0.00000
 Mulliken charges with hydrogens summed into heavy atoms:
               1
     1  C    0.199230
     2  C    0.233082
     3  C    0.063609
     4  O   -0.495921
 Electronic spatial extent (au):  <R**2>=            259.5424
 Charge=             -0.0000 electrons
 Dipole moment (field-independent basis, Debye):
    X=             -3.0458    Y=              2.2928    Z=              0.0070  Tot=              3.8124
 Quadrupole moment (field-independent basis, Debye-Ang):
   XX=            -24.1412   YY=            -22.4989   ZZ=            -25.2198
   XY=              3.8959   XZ=             -0.0112   YZ=              0.0182
 Traceless Quadrupole moment (field-independent basis, Debye-Ang):
   XX=             -0.1879   YY=              1.4544   ZZ=             -1.2665
   XY=              3.8959   XZ=             -0.0112   YZ=              0.0182
 Octapole moment (field-independent basis, Debye-Ang**2):
  XXX=            -10.6448  YYY=              0.7472  ZZZ=              0.0257  XYY=             -1.6107
  XXY=              3.8141  XXZ=              0.0607  XZZ=              2.9298  YZZ=             -0.8845
  YYZ=              0.1096  XYZ=              0.0421
 Hexadecapole moment (field-independent basis, Debye-Ang**3):
 XXXX=           -214.7718 YYYY=            -88.3451 ZZZZ=            -28.3849 XXXY=              7.8927
 XXXZ=              0.0229 YYYX=              0.3740 YYYZ=              0.0748 ZZZX=              0.0000
 ZZZY=             -0.0251 XXYY=            -51.8306 XXZZ=            -44.5257 YYZZ=            -21.1935
 XXYZ=              0.1282 YYXZ=              0.0918 ZZXY=             -0.0086
 N-N= 1.056781886392D+02 E-N=-6.586553997421D+02  KE= 1.901790273185D+02
 1\1\GINC-NODE62\SP\RB3LYP\6-31+G(d,p)\C3H4O1\YANZ\22-Sep-2023\0\\# b3l
 yp/6-31+g(d,p) scrf=(iefpcm,solvent=acetonitrile)\\tmpdir/M2_conf_0_19
 .gjf\\0,1\C,0,0.,0.,0.\C,0,1.3984,0.,0.\C,0,2.10779,0.,1.20047\O,0,-0.
 63571,-0.02552,1.05186\H,0,-0.53968,-0.05689,-0.99276\H,0,1.95593,0.00
 391,-0.93266\H,0,1.62537,-0.0114,2.09649\H,0,3.19399,0.00629,1.17564\\
 Version=ES64L-G16RevA.03\State=1-A\HF=-191.9211361\RMSD=1.673e-09\Dipo
 le=1.2949769,0.0116222,-0.7566948\Quadrupole=-0.7914726,-0.9419833,1.7
 334559,-0.0185281,2.6771589,0.0262705\PG=C01 [X(C3H4O1)]\\@


 A successful marriage requires falling in love
 many times, always with the same person.
                           -- Mignon McLaughlin
 Job cpu time:       0 days  0 hours  0 minutes 39.7 seconds.
 Elapsed time:       0 days  0 hours  0 minutes 20.2 seconds.
 File lengths (MBytes):  RWF=     19 Int=      0 D2E=      0 Chk=      2 Scr=      1
 Normal termination of Gaussian 16 at Fri Sep 22 17:10:26 2023.
