 Entering Gaussian System, Link 0=g16
 Initial command:
 /share/apps/gaussian/g16/l1.exe "/tmp/55647.mgr/Gau-2220.inp" -scrdir="/tmp/55647.mgr/"
 Entering Link 1 = /share/apps/gaussian/g16/l1.exe PID=      2221.
  
 Copyright (c) 1988,1990,1992,1993,1995,1998,2003,2009,2016,
            Gaussian, Inc.  All Rights Reserved.
  
 This is part of the Gaussian(R) 16 program.  It is based on
 the Gaussian(R) 09 system (copyright 2009, Gaussian, Inc.),
 the Gaussian(R) 03 system (copyright 2003, Gaussian, Inc.),
 the Gaussian(R) 98 system (copyright 1998, Gaussian, Inc.),
 the Gaussian(R) 94 system (copyright 1995, Gaussian, Inc.),
 the Gaussian 92(TM) system (copyright 1992, Gaussian, Inc.),
 the Gaussian 90(TM) system (copyright 1990, Gaussian, Inc.),
 the Gaussian 88(TM) system (copyright 1988, Gaussian, Inc.),
 the Gaussian 86(TM) system (copyright 1986, Carnegie Mellon
 University), and the Gaussian 82(TM) system (copyright 1983,
 Carnegie Mellon University). Gaussian is a federally registered
 trademark of Gaussian, Inc.
  
 This software contains proprietary and confidential information,
 including trade secrets, belonging to Gaussian, Inc.
  
 This software is provided under written license and may be
 used, copied, transmitted, or stored only in accord with that
 written license.
  
 The following legend is applicable only to US Government
 contracts under FAR:
  
                    RESTRICTED RIGHTS LEGEND
  
 Use, reproduction and disclosure by the US Government is
 subject to restrictions as set forth in subparagraphs (a)
 and (c) of the Commercial Computer Software - Restricted
 Rights clause in FAR 52.227-19.
  
 Gaussian, Inc.
 340 Quinnipiac St., Bldg. 40, Wallingford CT 06492
  
  
 ---------------------------------------------------------------
 Warning -- This program may not be used in any manner that
 competes with the business of Gaussian, Inc. or will provide
 assistance to any competitor of Gaussian, Inc.  The licensee
 of this program is prohibited from giving any competitor of
 Gaussian, Inc. access to this program.  By using this program,
 the user acknowledges that Gaussian, Inc. is engaged in the
 business of creating and licensing software in the field of
 computational chemistry and represents and warrants to the
 licensee that it is not a competitor of Gaussian, Inc. and that
 it will not use this program in any manner prohibited above.
 ---------------------------------------------------------------
  

 Cite this work as:
 Gaussian 16, Revision A.03,
 M. J. Frisch, G. W. Trucks, H. B. Schlegel, G. E. Scuseria, 
 M. A. Robb, J. R. Cheeseman, G. Scalmani, V. Barone, 
 G. A. Petersson, H. Nakatsuji, X. Li, M. Caricato, A. V. Marenich, 
 J. Bloino, B. G. Janesko, R. Gomperts, B. Mennucci, H. P. Hratchian, 
 J. V. Ortiz, A. F. Izmaylov, J. L. Sonnenberg, D. Williams-Young, 
 F. Ding, F. Lipparini, F. Egidi, J. Goings, B. Peng, A. Petrone, 
 T. Henderson, D. Ranasinghe, V. G. Zakrzewski, J. Gao, N. Rega, 
 G. Zheng, W. Liang, M. Hada, M. Ehara, K. Toyota, R. Fukuda, 
 J. Hasegawa, M. Ishida, T. Nakajima, Y. Honda, O. Kitao, H. Nakai, 
 T. Vreven, K. Throssell, J. A. Montgomery, Jr., J. E. Peralta, 
 F. Ogliaro, M. J. Bearpark, J. J. Heyd, E. N. Brothers, K. N. Kudin, 
 V. N. Staroverov, T. A. Keith, R. Kobayashi, J. Normand, 
 K. Raghavachari, A. P. Rendell, J. C. Burant, S. S. Iyengar, 
 J. Tomasi, M. Cossi, J. M. Millam, M. Klene, C. Adamo, R. Cammi, 
 J. W. Ochterski, R. L. Martin, K. Morokuma, O. Farkas, 
 J. B. Foresman, and D. J. Fox, Gaussian, Inc., Wallingford CT, 2016.
 
 ******************************************
 Gaussian 16:  ES64L-G16RevA.03 25-Dec-2016
                22-Sep-2023 
 ******************************************
 %nprocshared=2
 Will use up to    2 processors via shared memory.
 %mem=2GB
 ------------------------------------------------------
 # b3lyp/6-31+g(d,p) scrf=(iefpcm,solvent=acetonitrile)
 ------------------------------------------------------
 1/38=1,172=1/1;
 2/12=2,17=6,18=5,40=1/2;
 3/5=1,6=6,7=111,11=2,25=1,30=1,70=2201,72=2,74=-5/1,2,3;
 4//1;
 5/5=2,38=5,53=2/2;
 6/7=2,8=2,9=2,10=2,28=1/1;
 99/5=1,9=1/99;
 ----------------------
 tmpdir/M2_conf_0_7.gjf
 ----------------------
 Symbolic Z-matrix:
 Charge =  0 Multiplicity = 1
 C                     0.        0.        0. 
 C                     1.4356    0.        0. 
 C                    -0.72104   0.       -1.19339 
 H                    -0.53968   0.08113   0.99107 
 C                     2.11311  -0.02956  -1.21838 
 H                     1.99313   0.01872   0.93248 
 
                          Input orientation:                          
 ---------------------------------------------------------------------
 Center     Atomic      Atomic             Coordinates (Angstroms)
 Number     Number       Type             X           Y           Z
 ---------------------------------------------------------------------
      1          6           0        0.000000    0.000000    0.000000
      2          6           0        1.435600    0.000000    0.000000
      3          6           0       -0.721040    0.000000   -1.193390
      4          1           0       -0.539680    0.081130    0.991070
      5          6           0        2.113110   -0.029560   -1.218380
      6          1           0        1.993130    0.018720    0.932480
 ---------------------------------------------------------------------
                    Distance matrix (angstroms):
                    1          2          3          4          5
     1  C    0.000000
     2  C    1.435600   0.000000
     3  C    1.394302   2.464807   0.000000
     4  H    1.131396   2.211455   2.193476   0.000000
     5  C    2.439376   1.394397   2.834414   3.454159   0.000000
     6  H    2.200554   1.086604   3.447665   2.534256   2.154745
                    6
     6  H    0.000000
 Stoichiometry    C4H2
 Framework group  C1[X(C4H2)]
 Deg. of freedom    12
 Full point group                 C1      NOp   1
 Largest Abelian subgroup         C1      NOp   1
 Largest concise Abelian subgroup C1      NOp   1
                         Standard orientation:                         
 ---------------------------------------------------------------------
 Center     Atomic      Atomic             Coordinates (Angstroms)
 Number     Number       Type             X           Y           Z
 ---------------------------------------------------------------------
      1          6           0        0.710212    0.479777   -0.013937
      2          6           0       -0.725310    0.485363   -0.000015
      3          6           0        1.426810   -0.716152    0.003917
      4          1           0        1.254311    1.470212    0.041303
      5          6           0       -1.407566   -0.730722    0.002370
      6          1           0       -1.279187    1.420193    0.004692
 ---------------------------------------------------------------------
 Rotational constants (GHZ):          22.7626917           7.9202009           5.8763038
 Standard basis: 6-31+G(d,p) (6D, 7F)
 There are    86 symmetry adapted cartesian basis functions of A   symmetry.
 There are    86 symmetry adapted basis functions of A   symmetry.
    86 basis functions,   142 primitive gaussians,    86 cartesian basis functions
    13 alpha electrons       13 beta electrons
       nuclear repulsion energy        76.4315461870 Hartrees.
 NAtoms=    6 NActive=    6 NUniq=    6 SFac= 1.00D+00 NAtFMM=   60 NAOKFM=F Big=F
 Integral buffers will be    131072 words long.
 Raffenetti 2 integral format.
 Two-electron integral symmetry is turned on.
 ------------------------------------------------------------------------------
 Polarizable Continuum Model (PCM)
 =================================
 Model                : PCM.
 Atomic radii         : UFF (Universal Force Field).
 Polarization charges : Total charges.
 Charge compensation  : None.
 Solution method      : On-the-fly selection.
 Cavity type          : Scaled VdW (van der Waals Surface) (Alpha=1.100).
 Cavity algorithm     : GePol (No added spheres)
                        Default sphere list used, NSphG=    6.
                        Lebedev-Laikov grids with approx.  5.0 points / Ang**2.
                        Smoothing algorithm: York/Karplus (Gamma=1.0000).
                        Polarization charges: spherical gaussians, with
                                              point-specific exponents (IZeta= 3).
                        Self-potential: point-specific (ISelfS= 7).
                        Self-field    : sphere-specific E.n sum rule (ISelfD= 2).
 Solvent              : Acetonitrile, Eps=  35.688000 Eps(inf)=   1.806874
 ------------------------------------------------------------------------------
 Spheres list:
 ISph  on   Nord     Re0    Alpha      Xe            Ye            Ze
    1   C      1    1.9255  1.100      0.710212      0.479777     -0.013937
    2   C      2    1.9255  1.100     -0.725310      0.485363     -0.000015
    3   C      3    1.9255  1.100      1.426810     -0.716152      0.003917
    4   H      4    1.4430  1.100      1.254311      1.470212      0.041303
    5   C      5    1.9255  1.100     -1.407566     -0.730722      0.002370
    6   H      6    1.4430  1.100     -1.279187      1.420193      0.004692
 ------------------------------------------------------------------------------
 One-electron integrals computed using PRISM.
 NBasis=    86 RedAO= T EigKep=  4.64D-05  NBF=    86
 NBsUse=    86 1.00D-06 EigRej= -1.00D+00 NBFU=    86
 ExpMin= 4.38D-02 ExpMax= 3.05D+03 ExpMxC= 4.57D+02 IAcc=3 IRadAn=         5 AccDes= 0.00D+00
 Harris functional with IExCor=  402 and IRadAn=       5 diagonalized for initial guess.
 HarFok:  IExCor=  402 AccDes= 0.00D+00 IRadAn=         5 IDoV= 1 UseB2=F ITyADJ=14
 ICtDFT=  3500011 ScaDFX=  1.000000  1.000000  1.000000  1.000000
 FoFCou: FMM=F IPFlag=           0 FMFlag=      100000 FMFlg1=           0
         NFxFlg=           0 DoJE=T BraDBF=F KetDBF=T FulRan=T
         wScrn=  0.000000 ICntrl=       500 IOpCl=  0 I1Cent=   200000004 NGrid=           0
         NMat0=    1 NMatS0=      1 NMatT0=    0 NMatD0=    1 NMtDS0=    0 NMtDT0=    0
 Petite list used in FoFCou.
 Keep R1 ints in memory in canonical form, NReq=8817431.
 Requested convergence on RMS density matrix=1.00D-08 within 128 cycles.
 Requested convergence on MAX density matrix=1.00D-06.
 Requested convergence on             energy=1.00D-06.
 No special actions if energy rises.
 Inv3:  Mode=1 IEnd=     1732800.
 Iteration    1 A*A^-1 deviation from unit magnitude is 5.33D-15 for    757.
 Iteration    1 A*A^-1 deviation from orthogonality  is 1.16D-15 for    654    448.
 Iteration    1 A^-1*A deviation from unit magnitude is 5.11D-15 for    757.
 Iteration    1 A^-1*A deviation from orthogonality  is 1.30D-15 for    733     81.
 Error on total polarization charges =  0.01631
 SCF Done:  E(RB3LYP) =  -153.328152086     A.U. after   13 cycles
            NFock= 13  Conv=0.80D-08     -V/T= 2.0120

 **********************************************************************

            Population analysis using the SCF density.

 **********************************************************************

 Orbital symmetries:
       Occupied  (A) (A) (A) (A) (A) (A) (A) (A) (A) (A) (A) (A)
                 (A)
       Virtual   (A) (A) (A) (A) (A) (A) (A) (A) (A) (A) (A) (A)
                 (A) (A) (A) (A) (A) (A) (A) (A) (A) (A) (A) (A)
                 (A) (A) (A) (A) (A) (A) (A) (A) (A) (A) (A) (A)
                 (A) (A) (A) (A) (A) (A) (A) (A) (A) (A) (A) (A)
                 (A) (A) (A) (A) (A) (A) (A) (A) (A) (A) (A) (A)
                 (A) (A) (A) (A) (A) (A) (A) (A) (A) (A) (A) (A)
                 (A)
 The electronic state is 1-A.
 Alpha  occ. eigenvalues --  -10.29068 -10.28988 -10.24734 -10.24401  -0.84975
 Alpha  occ. eigenvalues --   -0.73134  -0.60794  -0.49836  -0.48599  -0.36474
 Alpha  occ. eigenvalues --   -0.33526  -0.31633  -0.25677
 Alpha virt. eigenvalues --   -0.14334  -0.11793  -0.08024   0.02221   0.03700
 Alpha virt. eigenvalues --    0.03819   0.04399   0.05740   0.06083   0.08859
 Alpha virt. eigenvalues --    0.09167   0.09330   0.10692   0.12121   0.12780
 Alpha virt. eigenvalues --    0.15315   0.16244   0.17667   0.18047   0.21068
 Alpha virt. eigenvalues --    0.21955   0.26132   0.28831   0.35699   0.42739
 Alpha virt. eigenvalues --    0.57254   0.63313   0.63436   0.68294   0.68920
 Alpha virt. eigenvalues --    0.69212   0.69736   0.72568   0.73132   0.75653
 Alpha virt. eigenvalues --    0.78123   0.79843   0.88813   0.94298   1.05675
 Alpha virt. eigenvalues --    1.06603   1.15896   1.22376   1.28934   1.33031
 Alpha virt. eigenvalues --    1.41720   1.62744   1.65181   1.69380   1.70306
 Alpha virt. eigenvalues --    1.71985   1.84150   1.85703   1.93271   1.99559
 Alpha virt. eigenvalues --    2.05044   2.08039   2.16867   2.37370   2.42364
 Alpha virt. eigenvalues --    2.43030   2.47198   2.53881   2.55740   2.61180
 Alpha virt. eigenvalues --    2.76328   3.02934   3.19292   3.49430   4.05198
 Alpha virt. eigenvalues --    4.14113   4.26003   4.52619
          Condensed to atoms (all electrons):
               1          2          3          4          5          6
     1  C    6.973188  -0.655215  -1.586874   0.187830   0.816042   0.066020
     2  C   -0.655215   6.878856   0.819535   0.066481  -1.487625   0.199793
     3  C   -1.586874   0.819535   7.840754   0.109758  -0.701339  -0.041913
     4  H    0.187830   0.066481   0.109758   0.442319  -0.040398  -0.007773
     5  C    0.816042  -1.487625  -0.701339  -0.040398   7.722073   0.105559
     6  H    0.066020   0.199793  -0.041913  -0.007773   0.105559   0.443050
 Mulliken charges:
               1
     1  C    0.199009
     2  C    0.178175
     3  C   -0.439919
     4  H    0.241783
     5  C   -0.414312
     6  H    0.235264
 Sum of Mulliken charges =  -0.00000
 Mulliken charges with hydrogens summed into heavy atoms:
               1
     1  C    0.440793
     2  C    0.413439
     3  C   -0.439919
     5  C   -0.414312
 Electronic spatial extent (au):  <R**2>=            224.7665
 Charge=             -0.0000 electrons
 Dipole moment (field-independent basis, Debye):
    X=             -0.1211    Y=              4.8016    Z=              0.0614  Tot=              4.8035
 Quadrupole moment (field-independent basis, Debye-Ang):
   XX=            -26.4028   YY=            -24.3154   ZZ=            -27.0425
   XY=              0.0853   XZ=              0.1068   YZ=              0.1290
 Traceless Quadrupole moment (field-independent basis, Debye-Ang):
   XX=             -0.4826   YY=              1.6049   ZZ=             -1.1223
   XY=              0.0853   XZ=              0.1068   YZ=              0.1290
 Octapole moment (field-independent basis, Debye-Ang**2):
  XXX=             -1.2731  YYY=             20.4279  ZZZ=              0.0827  XYY=              0.1443
  XXY=             17.7588  XXZ=              0.2621  XZZ=             -0.1530  YZZ=              3.2277
  YYZ=              0.1416  XYZ=              0.1027
 Hexadecapole moment (field-independent basis, Debye-Ang**3):
 XXXX=           -231.3550 YYYY=           -103.1867 ZZZZ=            -37.1452 XXXY=              0.5887
 XXXZ=              0.4216 YYYX=              0.0933 YYYZ=              0.4014 ZZZX=              0.1707
 ZZZY=              0.1204 XXYY=            -64.8826 XXZZ=            -49.8170 YYZZ=            -25.0805
 XXYZ=              0.2190 YYXZ=              0.2240 ZZXY=             -0.0551
 N-N= 7.643154618697D+01 E-N=-5.069939999040D+02  KE= 1.515162402446D+02
 1\1\GINC-NODE62\SP\RB3LYP\6-31+G(d,p)\C4H2\YANZ\22-Sep-2023\0\\# b3lyp
 /6-31+g(d,p) scrf=(iefpcm,solvent=acetonitrile)\\tmpdir/M2_conf_0_7.gj
 f\\0,1\C,0,0.,0.,0.\C,0,1.4356,0.,0.\C,0,-0.72104,0.,-1.19339\H,0,-0.5
 3968,0.08113,0.99107\C,0,2.11311,-0.02956,-1.21838\H,0,1.99313,0.01872
 ,0.93248\\Version=ES64L-G16RevA.03\State=1-A\HF=-153.3281521\RMSD=8.03
 3e-09\Dipole=0.0552179,0.0629595,1.8879877\Quadrupole=-0.3608117,-0.82
 79182,1.1887299,-0.0847652,-0.0547041,0.1388805\PG=C01 [X(C4H2)]\\@


 THOSE WHO ASPIRE NOT TO GUESS AND DIVINE,
 BUT TO DISCOVER AND KNOW, WHO PROPOSE NOT TO DEVISE 
 MIMIC AND FABULOUS WORLDS OF THEIR OWN, BUT TO 
 EXAMINE AND DISSECT THE NATURE OF THIS VERY WORLD 
 ITSELF, MUST GO TO THE FACTS THEMSELVES FOR EVERYTHING.

                               -- FRANCIS BACON, 1620
 Job cpu time:       0 days  0 hours  0 minutes 29.5 seconds.
 Elapsed time:       0 days  0 hours  0 minutes 15.1 seconds.
 File lengths (MBytes):  RWF=     16 Int=      0 D2E=      0 Chk=      2 Scr=      1
 Normal termination of Gaussian 16 at Fri Sep 22 17:10:24 2023.
