 Entering Gaussian System, Link 0=g16
 Initial command:
 /share/apps/gaussian/g16/l1.exe "/tmp/55647.mgr/Gau-2877.inp" -scrdir="/tmp/55647.mgr/"
 Entering Link 1 = /share/apps/gaussian/g16/l1.exe PID=      2878.
  
 Copyright (c) 1988,1990,1992,1993,1995,1998,2003,2009,2016,
            Gaussian, Inc.  All Rights Reserved.
  
 This is part of the Gaussian(R) 16 program.  It is based on
 the Gaussian(R) 09 system (copyright 2009, Gaussian, Inc.),
 the Gaussian(R) 03 system (copyright 2003, Gaussian, Inc.),
 the Gaussian(R) 98 system (copyright 1998, Gaussian, Inc.),
 the Gaussian(R) 94 system (copyright 1995, Gaussian, Inc.),
 the Gaussian 92(TM) system (copyright 1992, Gaussian, Inc.),
 the Gaussian 90(TM) system (copyright 1990, Gaussian, Inc.),
 the Gaussian 88(TM) system (copyright 1988, Gaussian, Inc.),
 the Gaussian 86(TM) system (copyright 1986, Carnegie Mellon
 University), and the Gaussian 82(TM) system (copyright 1983,
 Carnegie Mellon University). Gaussian is a federally registered
 trademark of Gaussian, Inc.
  
 This software contains proprietary and confidential information,
 including trade secrets, belonging to Gaussian, Inc.
  
 This software is provided under written license and may be
 used, copied, transmitted, or stored only in accord with that
 written license.
  
 The following legend is applicable only to US Government
 contracts under FAR:
  
                    RESTRICTED RIGHTS LEGEND
  
 Use, reproduction and disclosure by the US Government is
 subject to restrictions as set forth in subparagraphs (a)
 and (c) of the Commercial Computer Software - Restricted
 Rights clause in FAR 52.227-19.
  
 Gaussian, Inc.
 340 Quinnipiac St., Bldg. 40, Wallingford CT 06492
  
  
 ---------------------------------------------------------------
 Warning -- This program may not be used in any manner that
 competes with the business of Gaussian, Inc. or will provide
 assistance to any competitor of Gaussian, Inc.  The licensee
 of this program is prohibited from giving any competitor of
 Gaussian, Inc. access to this program.  By using this program,
 the user acknowledges that Gaussian, Inc. is engaged in the
 business of creating and licensing software in the field of
 computational chemistry and represents and warrants to the
 licensee that it is not a competitor of Gaussian, Inc. and that
 it will not use this program in any manner prohibited above.
 ---------------------------------------------------------------
  

 Cite this work as:
 Gaussian 16, Revision A.03,
 M. J. Frisch, G. W. Trucks, H. B. Schlegel, G. E. Scuseria, 
 M. A. Robb, J. R. Cheeseman, G. Scalmani, V. Barone, 
 G. A. Petersson, H. Nakatsuji, X. Li, M. Caricato, A. V. Marenich, 
 J. Bloino, B. G. Janesko, R. Gomperts, B. Mennucci, H. P. Hratchian, 
 J. V. Ortiz, A. F. Izmaylov, J. L. Sonnenberg, D. Williams-Young, 
 F. Ding, F. Lipparini, F. Egidi, J. Goings, B. Peng, A. Petrone, 
 T. Henderson, D. Ranasinghe, V. G. Zakrzewski, J. Gao, N. Rega, 
 G. Zheng, W. Liang, M. Hada, M. Ehara, K. Toyota, R. Fukuda, 
 J. Hasegawa, M. Ishida, T. Nakajima, Y. Honda, O. Kitao, H. Nakai, 
 T. Vreven, K. Throssell, J. A. Montgomery, Jr., J. E. Peralta, 
 F. Ogliaro, M. J. Bearpark, J. J. Heyd, E. N. Brothers, K. N. Kudin, 
 V. N. Staroverov, T. A. Keith, R. Kobayashi, J. Normand, 
 K. Raghavachari, A. P. Rendell, J. C. Burant, S. S. Iyengar, 
 J. Tomasi, M. Cossi, J. M. Millam, M. Klene, C. Adamo, R. Cammi, 
 J. W. Ochterski, R. L. Martin, K. Morokuma, O. Farkas, 
 J. B. Foresman, and D. J. Fox, Gaussian, Inc., Wallingford CT, 2016.
 
 ******************************************
 Gaussian 16:  ES64L-G16RevA.03 25-Dec-2016
                22-Sep-2023 
 ******************************************
 %nprocshared=2
 Will use up to    2 processors via shared memory.
 %mem=2GB
 ------------------------------------------------------
 # b3lyp/6-31+g(d,p) scrf=(iefpcm,solvent=acetonitrile)
 ------------------------------------------------------
 1/38=1,172=1/1;
 2/12=2,17=6,18=5,40=1/2;
 3/5=1,6=6,7=111,11=2,25=1,30=1,70=2201,72=2,74=-5/1,2,3;
 4//1;
 5/5=2,38=5,53=2/2;
 6/7=2,8=2,9=2,10=2,28=1/1;
 99/5=1,9=1/99;
 -----------------------
 tmpdir/M2_conf_0_58.gjf
 -----------------------
 Symbolic Z-matrix:
 Charge =  0 Multiplicity = 1
 N                     0.        0.        0. 
 C                     1.4384    0.        0. 
 C                     2.13684   0.        1.21414 
 H                    -0.52082   0.92085  -0.11258 
 H                    -0.49278  -0.8071    0.26474 
 H                     1.92103   0.01104  -0.89068 
 H                     3.14721   0.00506   1.20833 
 H                     1.58952  -0.01281   2.14973 
 
                          Input orientation:                          
 ---------------------------------------------------------------------
 Center     Atomic      Atomic             Coordinates (Angstroms)
 Number     Number       Type             X           Y           Z
 ---------------------------------------------------------------------
      1          7           0        0.000000    0.000000    0.000000
      2          6           0        1.438400    0.000000    0.000000
      3          6           0        2.136840    0.000000    1.214140
      4          1           0       -0.520820    0.920850   -0.112580
      5          1           0       -0.492780   -0.807100    0.264740
      6          1           0        1.921030    0.011040   -0.890680
      7          1           0        3.147210    0.005060    1.208330
      8          1           0        1.589520   -0.012810    2.149730
 ---------------------------------------------------------------------
                    Distance matrix (angstroms):
                    1          2          3          4          5
     1  N    0.000000
     2  C    1.438400   0.000000
     3  C    2.457686   1.400698   0.000000
     4  H    1.063904   2.167760   3.109873   0.000000
     5  H    0.982003   2.109728   2.909926   1.768889   0.000000
     6  H    2.117496   1.013096   2.115884   2.719527   2.798362
     7  H    3.371204   2.092873   1.010399   4.004737   3.847011
     8  H    2.673589   2.155073   1.083998   3.231610   2.918914
                    6          7          8
     6  H    0.000000
     7  H    2.430925   0.000000
     8  H    3.058523   1.820151   0.000000
 Stoichiometry    C2H5N
 Framework group  C1[X(C2H5N)]
 Deg. of freedom    18
 Full point group                 C1      NOp   1
 Largest Abelian subgroup         C1      NOp   1
 Largest concise Abelian subgroup C1      NOp   1
                         Standard orientation:                         
 ---------------------------------------------------------------------
 Center     Atomic      Atomic             Coordinates (Angstroms)
 Number     Number       Type             X           Y           Z
 ---------------------------------------------------------------------
      1          7           0       -1.192800   -0.148399   -0.011860
      2          6           0        0.087213    0.507535   -0.029512
      3          6           0        1.262418   -0.252770    0.023243
      4          1           0       -1.718779   -0.239326    0.908450
      5          1           0       -1.500801   -0.649140   -0.798449
      6          1           0        0.110397    1.519581   -0.069398
      7          1           0        2.158822    0.213394    0.015604
      8          1           0        1.202169   -1.334309    0.064424
 ---------------------------------------------------------------------
 Rotational constants (GHZ):          49.0308193           9.7085801           8.5132290
 Standard basis: 6-31+G(d,p) (6D, 7F)
 There are    82 symmetry adapted cartesian basis functions of A   symmetry.
 There are    82 symmetry adapted basis functions of A   symmetry.
    82 basis functions,   131 primitive gaussians,    82 cartesian basis functions
    12 alpha electrons       12 beta electrons
       nuclear repulsion energy        70.3400091603 Hartrees.
 NAtoms=    8 NActive=    8 NUniq=    8 SFac= 1.00D+00 NAtFMM=   60 NAOKFM=F Big=F
 Integral buffers will be    131072 words long.
 Raffenetti 2 integral format.
 Two-electron integral symmetry is turned on.
 ------------------------------------------------------------------------------
 Polarizable Continuum Model (PCM)
 =================================
 Model                : PCM.
 Atomic radii         : UFF (Universal Force Field).
 Polarization charges : Total charges.
 Charge compensation  : None.
 Solution method      : On-the-fly selection.
 Cavity type          : Scaled VdW (van der Waals Surface) (Alpha=1.100).
 Cavity algorithm     : GePol (No added spheres)
                        Default sphere list used, NSphG=    8.
                        Lebedev-Laikov grids with approx.  5.0 points / Ang**2.
                        Smoothing algorithm: York/Karplus (Gamma=1.0000).
                        Polarization charges: spherical gaussians, with
                                              point-specific exponents (IZeta= 3).
                        Self-potential: point-specific (ISelfS= 7).
                        Self-field    : sphere-specific E.n sum rule (ISelfD= 2).
 Solvent              : Acetonitrile, Eps=  35.688000 Eps(inf)=   1.806874
 ------------------------------------------------------------------------------
 Spheres list:
 ISph  on   Nord     Re0    Alpha      Xe            Ye            Ze
    1   N      1    1.8300  1.100     -1.192800     -0.148399     -0.011860
    2   C      2    1.9255  1.100      0.087213      0.507535     -0.029512
    3   C      3    1.9255  1.100      1.262418     -0.252770      0.023243
    4   H      4    1.4430  1.100     -1.718779     -0.239326      0.908450
    5   H      5    1.4430  1.100     -1.500801     -0.649140     -0.798449
    6   H      6    1.4430  1.100      0.110397      1.519581     -0.069398
    7   H      7    1.4430  1.100      2.158822      0.213394      0.015604
    8   H      8    1.4430  1.100      1.202169     -1.334309      0.064424
 ------------------------------------------------------------------------------
 One-electron integrals computed using PRISM.
 NBasis=    82 RedAO= T EigKep=  2.07D-04  NBF=    82
 NBsUse=    82 1.00D-06 EigRej= -1.00D+00 NBFU=    82
 ExpMin= 4.38D-02 ExpMax= 4.17D+03 ExpMxC= 6.27D+02 IAcc=3 IRadAn=         5 AccDes= 0.00D+00
 Harris functional with IExCor=  402 and IRadAn=       5 diagonalized for initial guess.
 HarFok:  IExCor=  402 AccDes= 0.00D+00 IRadAn=         5 IDoV= 1 UseB2=F ITyADJ=14
 ICtDFT=  3500011 ScaDFX=  1.000000  1.000000  1.000000  1.000000
 FoFCou: FMM=F IPFlag=           0 FMFlag=      100000 FMFlg1=           0
         NFxFlg=           0 DoJE=T BraDBF=F KetDBF=T FulRan=T
         wScrn=  0.000000 ICntrl=       500 IOpCl=  0 I1Cent=   200000004 NGrid=           0
         NMat0=    1 NMatS0=      1 NMatT0=    0 NMatD0=    1 NMtDS0=    0 NMtDT0=    0
 Petite list used in FoFCou.
 Keep R1 ints in memory in canonical form, NReq=7601896.
 Requested convergence on RMS density matrix=1.00D-08 within 128 cycles.
 Requested convergence on MAX density matrix=1.00D-06.
 Requested convergence on             energy=1.00D-06.
 No special actions if energy rises.
 Inv3:  Mode=1 IEnd=     1820523.
 Iteration    1 A*A^-1 deviation from unit magnitude is 3.33D-15 for    770.
 Iteration    1 A*A^-1 deviation from orthogonality  is 1.40D-15 for    765    683.
 Iteration    1 A^-1*A deviation from unit magnitude is 3.33D-15 for    770.
 Iteration    1 A^-1*A deviation from orthogonality  is 1.12D-15 for    606     89.
 Error on total polarization charges =  0.01469
 SCF Done:  E(RB3LYP) =  -133.935252182     A.U. after   11 cycles
            NFock= 11  Conv=0.28D-08     -V/T= 2.0104

 **********************************************************************

            Population analysis using the SCF density.

 **********************************************************************

 Orbital symmetries:
       Occupied  (A) (A) (A) (A) (A) (A) (A) (A) (A) (A) (A) (A)
       Virtual   (A) (A) (A) (A) (A) (A) (A) (A) (A) (A) (A) (A)
                 (A) (A) (A) (A) (A) (A) (A) (A) (A) (A) (A) (A)
                 (A) (A) (A) (A) (A) (A) (A) (A) (A) (A) (A) (A)
                 (A) (A) (A) (A) (A) (A) (A) (A) (A) (A) (A) (A)
                 (A) (A) (A) (A) (A) (A) (A) (A) (A) (A) (A) (A)
                 (A) (A) (A) (A) (A) (A) (A) (A) (A) (A)
 The electronic state is 1-A.
 Alpha  occ. eigenvalues --  -14.32759 -10.22713 -10.18669  -0.87915  -0.73072
 Alpha  occ. eigenvalues --   -0.59417  -0.49788  -0.48748  -0.43233  -0.39526
 Alpha  occ. eigenvalues --   -0.26899  -0.23184
 Alpha virt. eigenvalues --   -0.01921   0.00944   0.03686   0.03941   0.06270
 Alpha virt. eigenvalues --    0.07584   0.09153   0.10532   0.11192   0.13278
 Alpha virt. eigenvalues --    0.14469   0.16903   0.20154   0.21766   0.23929
 Alpha virt. eigenvalues --    0.27554   0.27968   0.30510   0.36510   0.37834
 Alpha virt. eigenvalues --    0.61102   0.67611   0.67823   0.71564   0.73754
 Alpha virt. eigenvalues --    0.85517   0.89822   0.90289   0.93059   0.93758
 Alpha virt. eigenvalues --    0.98675   1.01467   1.02035   1.03482   1.12689
 Alpha virt. eigenvalues --    1.20496   1.31888   1.35372   1.45191   1.46965
 Alpha virt. eigenvalues --    1.73352   1.81640   1.86128   1.92290   1.98463
 Alpha virt. eigenvalues --    2.04093   2.05855   2.11034   2.13187   2.22702
 Alpha virt. eigenvalues --    2.40706   2.42538   2.49925   2.51228   2.55473
 Alpha virt. eigenvalues --    2.63716   2.66060   2.75509   2.78640   2.80802
 Alpha virt. eigenvalues --    2.96657   3.04564   3.33662   3.46103   3.47312
 Alpha virt. eigenvalues --    3.50480   3.76794   4.19157   4.25067   4.51518
          Condensed to atoms (all electrons):
               1          2          3          4          5          6
     1  N    6.940820   0.281931  -0.132458   0.341426   0.364026  -0.079221
     2  C    0.281931   4.795932   0.658771  -0.014985  -0.021087   0.424510
     3  C   -0.132458   0.658771   5.058586  -0.009151  -0.008848  -0.059236
     4  H    0.341426  -0.014985  -0.009151   0.382614  -0.021872   0.000852
     5  H    0.364026  -0.021087  -0.008848  -0.021872   0.361861   0.002654
     6  H   -0.079221   0.424510  -0.059236   0.000852   0.002654   0.571861
     7  H    0.010826  -0.021050   0.373682  -0.000095  -0.000055  -0.002436
     8  H   -0.005385  -0.048815   0.410719   0.000187   0.000502   0.003958
               7          8
     1  N    0.010826  -0.005385
     2  C   -0.021050  -0.048815
     3  C    0.373682   0.410719
     4  H   -0.000095   0.000187
     5  H   -0.000055   0.000502
     6  H   -0.002436   0.003958
     7  H    0.535608  -0.035597
     8  H   -0.035597   0.525210
 Mulliken charges:
               1
     1  N   -0.721966
     2  C   -0.055207
     3  C   -0.292065
     4  H    0.321024
     5  H    0.322817
     6  H    0.137057
     7  H    0.139119
     8  H    0.149221
 Sum of Mulliken charges =  -0.00000
 Mulliken charges with hydrogens summed into heavy atoms:
               1
     1  N   -0.078125
     2  C    0.081850
     3  C   -0.003725
 Electronic spatial extent (au):  <R**2>=            181.8633
 Charge=             -0.0000 electrons
 Dipole moment (field-independent basis, Debye):
    X=             -0.2732    Y=             -0.3877    Z=              0.2150  Tot=              0.5208
 Quadrupole moment (field-independent basis, Debye-Ang):
   XX=            -18.1540   YY=            -18.9761   ZZ=            -19.8211
   XY=              1.7085   XZ=             -0.7393   YZ=              0.7087
 Traceless Quadrupole moment (field-independent basis, Debye-Ang):
   XX=              0.8298   YY=              0.0077   ZZ=             -0.8374
   XY=              1.7085   XZ=             -0.7393   YZ=              0.7087
 Octapole moment (field-independent basis, Debye-Ang**2):
  XXX=             -1.9895  YYY=              0.5247  ZZZ=              0.5850  XYY=              0.3723
  XXY=             -3.9988  XXZ=              2.3010  XZZ=             -6.4150  YZZ=             -1.3158
  YYZ=             -0.6203  XYZ=             -1.2756
 Hexadecapole moment (field-independent basis, Debye-Ang**3):
 XXXX=           -161.5969 YYYY=            -50.1053 ZZZZ=            -30.7109 XXXY=             11.9254
 XXXZ=             -4.4406 YYYX=              0.3884 YYYZ=              0.8006 ZZZX=             -1.3905
 ZZZY=              1.1226 XXYY=            -37.1463 XXZZ=            -30.2329 YYZZ=            -14.5274
 XXYZ=              1.6399 YYXZ=              0.9217 ZZXY=              2.4231
 N-N= 7.034000916029D+01 E-N=-4.512593003660D+02  KE= 1.325524752638D+02
 1\1\GINC-NODE62\SP\RB3LYP\6-31+G(d,p)\C2H5N1\YANZ\22-Sep-2023\0\\# b3l
 yp/6-31+g(d,p) scrf=(iefpcm,solvent=acetonitrile)\\tmpdir/M2_conf_0_58
 .gjf\\0,1\N,0,0.,0.,0.\C,0,1.4384,0.,0.\C,0,2.13684,0.,1.21414\H,0,-0.
 52082,0.92085,-0.11258\H,0,-0.49278,-0.8071,0.26474\H,0,1.92103,0.0110
 4,-0.89068\H,0,3.14721,0.00506,1.20833\H,0,1.58952,-0.01281,2.14973\\V
 ersion=ES64L-G16RevA.03\State=1-A\HF=-133.9352522\RMSD=2.816e-09\Dipol
 e=-0.1662527,0.0780801,0.0907953\Quadrupole=1.5266494,-0.5558532,-0.97
 07962,-0.1977472,-0.4955424,-0.7082776\PG=C01 [X(C2H5N1)]\\@


 ALL OUR THINKING ABOUT NATURE MUST NECESSARILY MOVE IN CIRCLES OR SPIRALS;
 FOR WE CAN ONLY UNDERSTAND NATURE IF WE THINK ABOUT HER, AND WE CAN ONLY
 THINK BECAUSE OUR BRAIN IS BUILT IN ACCORDANCE WITH NATURE'S LAWS.

                                             -- TIMOTHY FERRIS, "GALAXIES"
 Job cpu time:       0 days  0 hours  0 minutes 28.8 seconds.
 Elapsed time:       0 days  0 hours  0 minutes 14.7 seconds.
 File lengths (MBytes):  RWF=     17 Int=      0 D2E=      0 Chk=      2 Scr=      1
 Normal termination of Gaussian 16 at Fri Sep 22 17:11:24 2023.
