 Entering Gaussian System, Link 0=g16
 Initial command:
 /share/apps/gaussian/g16/l1.exe "/tmp/55647.mgr/Gau-3556.inp" -scrdir="/tmp/55647.mgr/"
 Entering Link 1 = /share/apps/gaussian/g16/l1.exe PID=      3557.
  
 Copyright (c) 1988,1990,1992,1993,1995,1998,2003,2009,2016,
            Gaussian, Inc.  All Rights Reserved.
  
 This is part of the Gaussian(R) 16 program.  It is based on
 the Gaussian(R) 09 system (copyright 2009, Gaussian, Inc.),
 the Gaussian(R) 03 system (copyright 2003, Gaussian, Inc.),
 the Gaussian(R) 98 system (copyright 1998, Gaussian, Inc.),
 the Gaussian(R) 94 system (copyright 1995, Gaussian, Inc.),
 the Gaussian 92(TM) system (copyright 1992, Gaussian, Inc.),
 the Gaussian 90(TM) system (copyright 1990, Gaussian, Inc.),
 the Gaussian 88(TM) system (copyright 1988, Gaussian, Inc.),
 the Gaussian 86(TM) system (copyright 1986, Carnegie Mellon
 University), and the Gaussian 82(TM) system (copyright 1983,
 Carnegie Mellon University). Gaussian is a federally registered
 trademark of Gaussian, Inc.
  
 This software contains proprietary and confidential information,
 including trade secrets, belonging to Gaussian, Inc.
  
 This software is provided under written license and may be
 used, copied, transmitted, or stored only in accord with that
 written license.
  
 The following legend is applicable only to US Government
 contracts under FAR:
  
                    RESTRICTED RIGHTS LEGEND
  
 Use, reproduction and disclosure by the US Government is
 subject to restrictions as set forth in subparagraphs (a)
 and (c) of the Commercial Computer Software - Restricted
 Rights clause in FAR 52.227-19.
  
 Gaussian, Inc.
 340 Quinnipiac St., Bldg. 40, Wallingford CT 06492
  
  
 ---------------------------------------------------------------
 Warning -- This program may not be used in any manner that
 competes with the business of Gaussian, Inc. or will provide
 assistance to any competitor of Gaussian, Inc.  The licensee
 of this program is prohibited from giving any competitor of
 Gaussian, Inc. access to this program.  By using this program,
 the user acknowledges that Gaussian, Inc. is engaged in the
 business of creating and licensing software in the field of
 computational chemistry and represents and warrants to the
 licensee that it is not a competitor of Gaussian, Inc. and that
 it will not use this program in any manner prohibited above.
 ---------------------------------------------------------------
  

 Cite this work as:
 Gaussian 16, Revision A.03,
 M. J. Frisch, G. W. Trucks, H. B. Schlegel, G. E. Scuseria, 
 M. A. Robb, J. R. Cheeseman, G. Scalmani, V. Barone, 
 G. A. Petersson, H. Nakatsuji, X. Li, M. Caricato, A. V. Marenich, 
 J. Bloino, B. G. Janesko, R. Gomperts, B. Mennucci, H. P. Hratchian, 
 J. V. Ortiz, A. F. Izmaylov, J. L. Sonnenberg, D. Williams-Young, 
 F. Ding, F. Lipparini, F. Egidi, J. Goings, B. Peng, A. Petrone, 
 T. Henderson, D. Ranasinghe, V. G. Zakrzewski, J. Gao, N. Rega, 
 G. Zheng, W. Liang, M. Hada, M. Ehara, K. Toyota, R. Fukuda, 
 J. Hasegawa, M. Ishida, T. Nakajima, Y. Honda, O. Kitao, H. Nakai, 
 T. Vreven, K. Throssell, J. A. Montgomery, Jr., J. E. Peralta, 
 F. Ogliaro, M. J. Bearpark, J. J. Heyd, E. N. Brothers, K. N. Kudin, 
 V. N. Staroverov, T. A. Keith, R. Kobayashi, J. Normand, 
 K. Raghavachari, A. P. Rendell, J. C. Burant, S. S. Iyengar, 
 J. Tomasi, M. Cossi, J. M. Millam, M. Klene, C. Adamo, R. Cammi, 
 J. W. Ochterski, R. L. Martin, K. Morokuma, O. Farkas, 
 J. B. Foresman, and D. J. Fox, Gaussian, Inc., Wallingford CT, 2016.
 
 ******************************************
 Gaussian 16:  ES64L-G16RevA.03 25-Dec-2016
                22-Sep-2023 
 ******************************************
 %nprocshared=2
 Will use up to    2 processors via shared memory.
 %mem=2GB
 ------------------------------------------------------
 # b3lyp/6-31+g(d,p) scrf=(iefpcm,solvent=acetonitrile)
 ------------------------------------------------------
 1/38=1,172=1/1;
 2/12=2,17=6,18=5,40=1/2;
 3/5=1,6=6,7=111,11=2,25=1,30=1,70=2201,72=2,74=-5/1,2,3;
 4//1;
 5/5=2,38=5,53=2/2;
 6/7=2,8=2,9=2,10=2,28=1/1;
 99/5=1,9=1/99;
 ------------------------
 tmpdir/M2_conf_0_125.gjf
 ------------------------
 Symbolic Z-matrix:
 Charge =  0 Multiplicity = 1
 C                     0.        0.        0. 
 C                     1.396     0.        0. 
 H                    -0.48588   0.       -0.88784 
 H                    -0.5564   -0.01316   0.93068 
 H                     1.90444   0.00122  -0.8757 
 H                     1.93257  -0.00576   0.94336 
 
                          Input orientation:                          
 ---------------------------------------------------------------------
 Center     Atomic      Atomic             Coordinates (Angstroms)
 Number     Number       Type             X           Y           Z
 ---------------------------------------------------------------------
      1          6           0        0.000000    0.000000    0.000000
      2          6           0        1.396000    0.000000    0.000000
      3          1           0       -0.485880    0.000000   -0.887840
      4          1           0       -0.556400   -0.013160    0.930680
      5          1           0        1.904440    0.001220   -0.875700
      6          1           0        1.932570   -0.005760    0.943360
 ---------------------------------------------------------------------
                    Distance matrix (angstroms):
                    1          2          3          4          5
     1  C    0.000000
     2  C    1.396000   0.000000
     3  H    1.012096   2.080801   0.000000
     4  H    1.084398   2.162916   1.819934   0.000000
     5  H    2.096126   1.012602   2.390351   3.052695   0.000000
     6  H    2.150532   1.085297   3.033517   2.489013   1.819291
                    6
     6  H    0.000000
 Stoichiometry    C2H4
 Framework group  C1[X(C2H4)]
 Deg. of freedom    12
 Full point group                 C1      NOp   1
 Largest Abelian subgroup         C1      NOp   1
 Largest concise Abelian subgroup C1      NOp   1
                         Standard orientation:                         
 ---------------------------------------------------------------------
 Center     Atomic      Atomic             Coordinates (Angstroms)
 Number     Number       Type             X           Y           Z
 ---------------------------------------------------------------------
      1          6           0       -0.698162   -0.007592   -0.001708
      2          6           0        0.697836   -0.006233   -0.000427
      3          1           0       -1.183182   -0.895890    0.002840
      4          1           0       -1.255475    0.922605    0.005707
      5          1           0        1.207125   -0.881431    0.003745
      6          1           0        1.233487    0.937666    0.000519
 ---------------------------------------------------------------------
 Rotational constants (GHZ):         151.4535494          28.5616190          24.0301618
 Standard basis: 6-31+G(d,p) (6D, 7F)
 There are    58 symmetry adapted cartesian basis functions of A   symmetry.
 There are    58 symmetry adapted basis functions of A   symmetry.
    58 basis functions,    92 primitive gaussians,    58 cartesian basis functions
     8 alpha electrons        8 beta electrons
       nuclear repulsion energy        33.1209349736 Hartrees.
 NAtoms=    6 NActive=    6 NUniq=    6 SFac= 1.00D+00 NAtFMM=   60 NAOKFM=F Big=F
 Integral buffers will be    131072 words long.
 Raffenetti 2 integral format.
 Two-electron integral symmetry is turned on.
 ------------------------------------------------------------------------------
 Polarizable Continuum Model (PCM)
 =================================
 Model                : PCM.
 Atomic radii         : UFF (Universal Force Field).
 Polarization charges : Total charges.
 Charge compensation  : None.
 Solution method      : On-the-fly selection.
 Cavity type          : Scaled VdW (van der Waals Surface) (Alpha=1.100).
 Cavity algorithm     : GePol (No added spheres)
                        Default sphere list used, NSphG=    6.
                        Lebedev-Laikov grids with approx.  5.0 points / Ang**2.
                        Smoothing algorithm: York/Karplus (Gamma=1.0000).
                        Polarization charges: spherical gaussians, with
                                              point-specific exponents (IZeta= 3).
                        Self-potential: point-specific (ISelfS= 7).
                        Self-field    : sphere-specific E.n sum rule (ISelfD= 2).
 Solvent              : Acetonitrile, Eps=  35.688000 Eps(inf)=   1.806874
 ------------------------------------------------------------------------------
 Spheres list:
 ISph  on   Nord     Re0    Alpha      Xe            Ye            Ze
    1   C      1    1.9255  1.100     -0.698162     -0.007592     -0.001708
    2   C      2    1.9255  1.100      0.697836     -0.006233     -0.000427
    3   H      3    1.4430  1.100     -1.183182     -0.895890      0.002840
    4   H      4    1.4430  1.100     -1.255475      0.922605      0.005707
    5   H      5    1.4430  1.100      1.207125     -0.881431      0.003745
    6   H      6    1.4430  1.100      1.233487      0.937666      0.000519
 ------------------------------------------------------------------------------
 One-electron integrals computed using PRISM.
 NBasis=    58 RedAO= T EigKep=  2.81D-04  NBF=    58
 NBsUse=    58 1.00D-06 EigRej= -1.00D+00 NBFU=    58
 ExpMin= 4.38D-02 ExpMax= 3.05D+03 ExpMxC= 4.57D+02 IAcc=3 IRadAn=         5 AccDes= 0.00D+00
 Harris functional with IExCor=  402 and IRadAn=       5 diagonalized for initial guess.
 HarFok:  IExCor=  402 AccDes= 0.00D+00 IRadAn=         5 IDoV= 1 UseB2=F ITyADJ=14
 ICtDFT=  3500011 ScaDFX=  1.000000  1.000000  1.000000  1.000000
 FoFCou: FMM=F IPFlag=           0 FMFlag=      100000 FMFlg1=           0
         NFxFlg=           0 DoJE=T BraDBF=F KetDBF=T FulRan=T
         wScrn=  0.000000 ICntrl=       500 IOpCl=  0 I1Cent=   200000004 NGrid=           0
         NMat0=    1 NMatS0=      1 NMatT0=    0 NMatD0=    1 NMtDS0=    0 NMtDT0=    0
 Petite list used in FoFCou.
 Keep R1 ints in memory in canonical form, NReq=3224596.
 Requested convergence on RMS density matrix=1.00D-08 within 128 cycles.
 Requested convergence on MAX density matrix=1.00D-06.
 Requested convergence on             energy=1.00D-06.
 No special actions if energy rises.
 Inv3:  Mode=1 IEnd=     1164387.
 Iteration    1 A*A^-1 deviation from unit magnitude is 2.89D-15 for    328.
 Iteration    1 A*A^-1 deviation from orthogonality  is 2.38D-15 for    615    378.
 Iteration    1 A^-1*A deviation from unit magnitude is 2.78D-15 for    328.
 Iteration    1 A^-1*A deviation from orthogonality  is 1.43D-15 for    343     79.
 Error on total polarization charges =  0.01282
 SCF Done:  E(RB3LYP) =  -78.5889679836     A.U. after    9 cycles
            NFock=  9  Conv=0.32D-08     -V/T= 2.0098

 **********************************************************************

            Population analysis using the SCF density.

 **********************************************************************

 Orbital symmetries:
       Occupied  (A) (A) (A) (A) (A) (A) (A) (A)
       Virtual   (A) (A) (A) (A) (A) (A) (A) (A) (A) (A) (A) (A)
                 (A) (A) (A) (A) (A) (A) (A) (A) (A) (A) (A) (A)
                 (A) (A) (A) (A) (A) (A) (A) (A) (A) (A) (A) (A)
                 (A) (A) (A) (A) (A) (A) (A) (A) (A) (A) (A) (A)
                 (A) (A)
 The electronic state is 1-A.
 Alpha  occ. eigenvalues --  -10.19539 -10.19481  -0.75897  -0.59841  -0.48113
 Alpha  occ. eigenvalues --   -0.41317  -0.37839  -0.27114
 Alpha virt. eigenvalues --   -0.02182   0.02551   0.03718   0.05203   0.06698
 Alpha virt. eigenvalues --    0.08813   0.09085   0.12425   0.16010   0.18193
 Alpha virt. eigenvalues --    0.22041   0.25631   0.32644   0.35464   0.58315
 Alpha virt. eigenvalues --    0.63315   0.67747   0.71586   0.72146   0.81199
 Alpha virt. eigenvalues --    0.91936   0.92801   0.98009   1.02347   1.13107
 Alpha virt. eigenvalues --    1.20549   1.37128   1.38019   1.50083   1.87188
 Alpha virt. eigenvalues --    1.92281   1.97098   2.00095   2.09823   2.11974
 Alpha virt. eigenvalues --    2.25914   2.36908   2.51053   2.52006   2.56530
 Alpha virt. eigenvalues --    2.73223   2.77654   2.79022   3.01381   3.26280
 Alpha virt. eigenvalues --    3.47594   3.59441   3.79008   4.20224   4.50176
          Condensed to atoms (all electrons):
               1          2          3          4          5          6
     1  C    4.906069   0.662105   0.402074   0.392249  -0.033711  -0.030593
     2  C    0.662105   4.907099  -0.034727  -0.029965   0.402029   0.391731
     3  H    0.402074  -0.034727   0.523970  -0.035208  -0.008218   0.004457
     4  H    0.392249  -0.029965  -0.035208   0.524988   0.004251  -0.007129
     5  H   -0.033711   0.402029  -0.008218   0.004251   0.521934  -0.035263
     6  H   -0.030593   0.391731   0.004457  -0.007129  -0.035263   0.527780
 Mulliken charges:
               1
     1  C   -0.298193
     2  C   -0.298270
     3  H    0.147653
     4  H    0.150815
     5  H    0.148978
     6  H    0.149018
 Sum of Mulliken charges =   0.00000
 Mulliken charges with hydrogens summed into heavy atoms:
               1
     1  C    0.000275
     2  C   -0.000275
 Electronic spatial extent (au):  <R**2>=             84.2092
 Charge=              0.0000 electrons
 Dipole moment (field-independent basis, Debye):
    X=             -0.0016    Y=             -0.0425    Z=              0.0167  Tot=              0.0456
 Quadrupole moment (field-independent basis, Debye-Ang):
   XX=            -12.3033   YY=            -12.1986   ZZ=            -16.1771
   XY=             -0.0535   XZ=             -0.0065   YZ=             -0.0005
 Traceless Quadrupole moment (field-independent basis, Debye-Ang):
   XX=              1.2563   YY=              1.3611   ZZ=             -2.6174
   XY=             -0.0535   XZ=             -0.0065   YZ=             -0.0005
 Octapole moment (field-independent basis, Debye-Ang**2):
  XXX=             -0.0068  YYY=             -0.1945  ZZZ=              0.0354  XYY=             -0.0065
  XXY=              0.0248  XXZ=              0.0377  XZZ=             -0.0011  YZZ=             -0.1399
  YYZ=              0.0227  XYZ=             -0.0099
 Hexadecapole moment (field-independent basis, Debye-Ang**3):
 XXXX=            -71.8539 YYYY=            -26.8212 ZZZZ=            -23.6607 XXXY=             -0.2766
 XXXZ=             -0.0179 YYYX=             -0.0373 YYYZ=             -0.0016 ZZZX=             -0.0085
 ZZZY=             -0.0023 XXYY=            -13.9013 XXZZ=            -16.9803 YYZZ=             -9.0525
 XXYZ=              0.0006 YYXZ=             -0.0096 ZZXY=             -0.0174
 N-N= 3.312093497364D+01 E-N=-2.475102439060D+02  KE= 7.782553036935D+01
 1\1\GINC-NODE62\SP\RB3LYP\6-31+G(d,p)\C2H4\YANZ\22-Sep-2023\0\\# b3lyp
 /6-31+g(d,p) scrf=(iefpcm,solvent=acetonitrile)\\tmpdir/M2_conf_0_125.
 gjf\\0,1\C,0,0.,0.,0.\C,0,1.396,0.,0.\H,0,-0.48588,0.,-0.88784\H,0,-0.
 5564,-0.01316,0.93068\H,0,1.90444,0.00122,-0.8757\H,0,1.93257,-0.00576
 ,0.94336\\Version=ES64L-G16RevA.03\State=1-A\HF=-78.588968\RMSD=3.229e
 -09\Dipole=-0.0006406,-0.0064643,-0.016739\Quadrupole=0.933971,-1.9459
 041,1.0119331,0.0076703,-0.0396888,-0.0163238\PG=C01 [X(C2H4)]\\@


 IF THERE IS ONE WAY BETTER THAN ANOTHER IT IS THE WAY OF NATURE.

                          -- ARISTOTLE
 Job cpu time:       0 days  0 hours  0 minutes 13.2 seconds.
 Elapsed time:       0 days  0 hours  0 minutes  6.7 seconds.
 File lengths (MBytes):  RWF=     13 Int=      0 D2E=      0 Chk=      2 Scr=      1
 Normal termination of Gaussian 16 at Fri Sep 22 17:12:12 2023.
