 Entering Gaussian System, Link 0=g16
 Initial command:
 /share/apps/gaussian/g16/l1.exe "/tmp/55647.mgr/Gau-1722.inp" -scrdir="/tmp/55647.mgr/"
 Entering Link 1 = /share/apps/gaussian/g16/l1.exe PID=      1723.
  
 Copyright (c) 1988,1990,1992,1993,1995,1998,2003,2009,2016,
            Gaussian, Inc.  All Rights Reserved.
  
 This is part of the Gaussian(R) 16 program.  It is based on
 the Gaussian(R) 09 system (copyright 2009, Gaussian, Inc.),
 the Gaussian(R) 03 system (copyright 2003, Gaussian, Inc.),
 the Gaussian(R) 98 system (copyright 1998, Gaussian, Inc.),
 the Gaussian(R) 94 system (copyright 1995, Gaussian, Inc.),
 the Gaussian 92(TM) system (copyright 1992, Gaussian, Inc.),
 the Gaussian 90(TM) system (copyright 1990, Gaussian, Inc.),
 the Gaussian 88(TM) system (copyright 1988, Gaussian, Inc.),
 the Gaussian 86(TM) system (copyright 1986, Carnegie Mellon
 University), and the Gaussian 82(TM) system (copyright 1983,
 Carnegie Mellon University). Gaussian is a federally registered
 trademark of Gaussian, Inc.
  
 This software contains proprietary and confidential information,
 including trade secrets, belonging to Gaussian, Inc.
  
 This software is provided under written license and may be
 used, copied, transmitted, or stored only in accord with that
 written license.
  
 The following legend is applicable only to US Government
 contracts under FAR:
  
                    RESTRICTED RIGHTS LEGEND
  
 Use, reproduction and disclosure by the US Government is
 subject to restrictions as set forth in subparagraphs (a)
 and (c) of the Commercial Computer Software - Restricted
 Rights clause in FAR 52.227-19.
  
 Gaussian, Inc.
 340 Quinnipiac St., Bldg. 40, Wallingford CT 06492
  
  
 ---------------------------------------------------------------
 Warning -- This program may not be used in any manner that
 competes with the business of Gaussian, Inc. or will provide
 assistance to any competitor of Gaussian, Inc.  The licensee
 of this program is prohibited from giving any competitor of
 Gaussian, Inc. access to this program.  By using this program,
 the user acknowledges that Gaussian, Inc. is engaged in the
 business of creating and licensing software in the field of
 computational chemistry and represents and warrants to the
 licensee that it is not a competitor of Gaussian, Inc. and that
 it will not use this program in any manner prohibited above.
 ---------------------------------------------------------------
  

 Cite this work as:
 Gaussian 16, Revision A.03,
 M. J. Frisch, G. W. Trucks, H. B. Schlegel, G. E. Scuseria, 
 M. A. Robb, J. R. Cheeseman, G. Scalmani, V. Barone, 
 G. A. Petersson, H. Nakatsuji, X. Li, M. Caricato, A. V. Marenich, 
 J. Bloino, B. G. Janesko, R. Gomperts, B. Mennucci, H. P. Hratchian, 
 J. V. Ortiz, A. F. Izmaylov, J. L. Sonnenberg, D. Williams-Young, 
 F. Ding, F. Lipparini, F. Egidi, J. Goings, B. Peng, A. Petrone, 
 T. Henderson, D. Ranasinghe, V. G. Zakrzewski, J. Gao, N. Rega, 
 G. Zheng, W. Liang, M. Hada, M. Ehara, K. Toyota, R. Fukuda, 
 J. Hasegawa, M. Ishida, T. Nakajima, Y. Honda, O. Kitao, H. Nakai, 
 T. Vreven, K. Throssell, J. A. Montgomery, Jr., J. E. Peralta, 
 F. Ogliaro, M. J. Bearpark, J. J. Heyd, E. N. Brothers, K. N. Kudin, 
 V. N. Staroverov, T. A. Keith, R. Kobayashi, J. Normand, 
 K. Raghavachari, A. P. Rendell, J. C. Burant, S. S. Iyengar, 
 J. Tomasi, M. Cossi, J. M. Millam, M. Klene, C. Adamo, R. Cammi, 
 J. W. Ochterski, R. L. Martin, K. Morokuma, O. Farkas, 
 J. B. Foresman, and D. J. Fox, Gaussian, Inc., Wallingford CT, 2016.
 
 ******************************************
 Gaussian 16:  ES64L-G16RevA.03 25-Dec-2016
                22-Sep-2023 
 ******************************************
 %nprocshared=2
 Will use up to    2 processors via shared memory.
 %mem=2GB
 ------------------------------------------------------
 # b3lyp/6-31+g(d,p) scrf=(iefpcm,solvent=acetonitrile)
 ------------------------------------------------------
 1/38=1,172=1/1;
 2/12=2,17=6,18=5,40=1/2;
 3/5=1,6=6,7=111,11=2,25=1,30=1,70=2201,72=2,74=-5/1,2,3;
 4//1;
 5/5=2,38=5,53=2/2;
 6/7=2,8=2,9=2,10=2,28=1/1;
 99/5=1,9=1/99;
 ---------------------
 tmpdir/M2_ref_116.gjf
 ---------------------
 Symbolic Z-matrix:
 Charge =  0 Multiplicity = 1
 C                    -5.04005  -0.3325   -0.26783 
 C                    -5.7945   -1.24518   0.4755 
 H                    -4.28781   0.31437   0.26146 
 C                    -5.18318  -0.21004  -1.65333 
 C                    -6.71704  -2.05367  -0.19243 
 H                    -5.67248  -1.31171   1.55099 
 
                          Input orientation:                          
 ---------------------------------------------------------------------
 Center     Atomic      Atomic             Coordinates (Angstroms)
 Number     Number       Type             X           Y           Z
 ---------------------------------------------------------------------
      1          6           0       -5.040051   -0.332504   -0.267830
      2          6           0       -5.794502   -1.245176    0.475502
      3          1           0       -4.287808    0.314374    0.261465
      4          6           0       -5.183182   -0.210042   -1.653329
      5          6           0       -6.717039   -2.053667   -0.192430
      6          1           0       -5.672484   -1.311713    1.550985
 ---------------------------------------------------------------------
                    Distance matrix (angstroms):
                    1          2          3          4          5
     1  C    0.000000
     2  C    1.398109   0.000000
     3  H    1.124488   2.179022   0.000000
     4  C    1.398246   2.444818   2.177876   0.000000
     5  C    2.404241   1.396734   3.422689   2.808184   0.000000
     6  H    2.160303   1.084426   2.494865   3.423554   2.163582
                    6
     6  H    0.000000
 Stoichiometry    C4H2
 Framework group  C1[X(C4H2)]
 Deg. of freedom    12
 Full point group                 C1      NOp   1
 Largest Abelian subgroup         C1      NOp   1
 Largest concise Abelian subgroup C1      NOp   1
                         Standard orientation:                         
 ---------------------------------------------------------------------
 Center     Atomic      Atomic             Coordinates (Angstroms)
 Number     Number       Type             X           Y           Z
 ---------------------------------------------------------------------
      1          6           0       -0.685279    0.480024    0.000781
      2          6           0        0.712817    0.485874   -0.001030
      3          1           0       -1.236193    1.460256   -0.009873
      4          6           0       -1.419640   -0.709852    0.001126
      5          6           0        1.388416   -0.736595   -0.001034
      6          1           0        1.258309    1.423039    0.010820
 ---------------------------------------------------------------------
 Rotational constants (GHZ):          22.7832408           8.1269451           5.9902345
 Standard basis: 6-31+G(d,p) (6D, 7F)
 There are    86 symmetry adapted cartesian basis functions of A   symmetry.
 There are    86 symmetry adapted basis functions of A   symmetry.
    86 basis functions,   142 primitive gaussians,    86 cartesian basis functions
    13 alpha electrons       13 beta electrons
       nuclear repulsion energy        77.0600435833 Hartrees.
 NAtoms=    6 NActive=    6 NUniq=    6 SFac= 1.00D+00 NAtFMM=   60 NAOKFM=F Big=F
 Integral buffers will be    131072 words long.
 Raffenetti 2 integral format.
 Two-electron integral symmetry is turned on.
 ------------------------------------------------------------------------------
 Polarizable Continuum Model (PCM)
 =================================
 Model                : PCM.
 Atomic radii         : UFF (Universal Force Field).
 Polarization charges : Total charges.
 Charge compensation  : None.
 Solution method      : On-the-fly selection.
 Cavity type          : Scaled VdW (van der Waals Surface) (Alpha=1.100).
 Cavity algorithm     : GePol (No added spheres)
                        Default sphere list used, NSphG=    6.
                        Lebedev-Laikov grids with approx.  5.0 points / Ang**2.
                        Smoothing algorithm: York/Karplus (Gamma=1.0000).
                        Polarization charges: spherical gaussians, with
                                              point-specific exponents (IZeta= 3).
                        Self-potential: point-specific (ISelfS= 7).
                        Self-field    : sphere-specific E.n sum rule (ISelfD= 2).
 Solvent              : Acetonitrile, Eps=  35.688000 Eps(inf)=   1.806874
 ------------------------------------------------------------------------------
 Spheres list:
 ISph  on   Nord     Re0    Alpha      Xe            Ye            Ze
    1   C      1    1.9255  1.100     -0.685279      0.480024      0.000781
    2   C      2    1.9255  1.100      0.712817      0.485874     -0.001030
    3   H      3    1.4430  1.100     -1.236193      1.460256     -0.009873
    4   C      4    1.9255  1.100     -1.419640     -0.709852      0.001126
    5   C      5    1.9255  1.100      1.388416     -0.736595     -0.001034
    6   H      6    1.4430  1.100      1.258309      1.423039      0.010820
 ------------------------------------------------------------------------------
 One-electron integrals computed using PRISM.
 NBasis=    86 RedAO= T EigKep=  4.40D-05  NBF=    86
 NBsUse=    86 1.00D-06 EigRej= -1.00D+00 NBFU=    86
 ExpMin= 4.38D-02 ExpMax= 3.05D+03 ExpMxC= 4.57D+02 IAcc=3 IRadAn=         5 AccDes= 0.00D+00
 Harris functional with IExCor=  402 and IRadAn=       5 diagonalized for initial guess.
 HarFok:  IExCor=  402 AccDes= 0.00D+00 IRadAn=         5 IDoV= 1 UseB2=F ITyADJ=14
 ICtDFT=  3500011 ScaDFX=  1.000000  1.000000  1.000000  1.000000
 FoFCou: FMM=F IPFlag=           0 FMFlag=      100000 FMFlg1=           0
         NFxFlg=           0 DoJE=T BraDBF=F KetDBF=T FulRan=T
         wScrn=  0.000000 ICntrl=       500 IOpCl=  0 I1Cent=   200000004 NGrid=           0
         NMat0=    1 NMatS0=      1 NMatT0=    0 NMatD0=    1 NMtDS0=    0 NMtDT0=    0
 Petite list used in FoFCou.
 Keep R1 ints in memory in canonical form, NReq=8817431.
 Requested convergence on RMS density matrix=1.00D-08 within 128 cycles.
 Requested convergence on MAX density matrix=1.00D-06.
 Requested convergence on             energy=1.00D-06.
 No special actions if energy rises.
 Inv3:  Mode=1 IEnd=     1710075.
 Iteration    1 A*A^-1 deviation from unit magnitude is 3.33D-15 for    755.
 Iteration    1 A*A^-1 deviation from orthogonality  is 2.24D-15 for    745    592.
 Iteration    1 A^-1*A deviation from unit magnitude is 2.89D-15 for    755.
 Iteration    1 A^-1*A deviation from orthogonality  is 1.54D-15 for    676    133.
 Error on total polarization charges =  0.01631
 SCF Done:  E(RB3LYP) =  -153.324440532     A.U. after   14 cycles
            NFock= 14  Conv=0.18D-08     -V/T= 2.0114

 **********************************************************************

            Population analysis using the SCF density.

 **********************************************************************

 Orbital symmetries:
       Occupied  (A) (A) (A) (A) (A) (A) (A) (A) (A) (A) (A) (A)
                 (A)
       Virtual   (A) (A) (A) (A) (A) (A) (A) (A) (A) (A) (A) (A)
                 (A) (A) (A) (A) (A) (A) (A) (A) (A) (A) (A) (A)
                 (A) (A) (A) (A) (A) (A) (A) (A) (A) (A) (A) (A)
                 (A) (A) (A) (A) (A) (A) (A) (A) (A) (A) (A) (A)
                 (A) (A) (A) (A) (A) (A) (A) (A) (A) (A) (A) (A)
                 (A) (A) (A) (A) (A) (A) (A) (A) (A) (A) (A) (A)
                 (A)
 The electronic state is 1-A.
 Alpha  occ. eigenvalues --  -10.29105 -10.28931 -10.24369 -10.24083  -0.85623
 Alpha  occ. eigenvalues --   -0.72866  -0.61326  -0.50159  -0.48529  -0.36866
 Alpha  occ. eigenvalues --   -0.33613  -0.31482  -0.25372
 Alpha virt. eigenvalues --   -0.14497  -0.11516  -0.08299   0.02183   0.03730
 Alpha virt. eigenvalues --    0.04221   0.04453   0.05782   0.06089   0.08878
 Alpha virt. eigenvalues --    0.09197   0.09315   0.10633   0.12133   0.12851
 Alpha virt. eigenvalues --    0.15455   0.16317   0.17689   0.18131   0.21216
 Alpha virt. eigenvalues --    0.21936   0.26715   0.28581   0.37554   0.42992
 Alpha virt. eigenvalues --    0.57490   0.63266   0.63467   0.67476   0.69000
 Alpha virt. eigenvalues --    0.69585   0.69883   0.72675   0.73287   0.75588
 Alpha virt. eigenvalues --    0.78829   0.79881   0.89244   0.94010   1.06132
 Alpha virt. eigenvalues --    1.06343   1.17514   1.23281   1.29020   1.32014
 Alpha virt. eigenvalues --    1.41999   1.63023   1.65416   1.69616   1.70956
 Alpha virt. eigenvalues --    1.73203   1.84715   1.85251   1.95269   2.00690
 Alpha virt. eigenvalues --    2.05144   2.08866   2.16410   2.37378   2.43807
 Alpha virt. eigenvalues --    2.45563   2.46874   2.54133   2.57358   2.61988
 Alpha virt. eigenvalues --    2.78343   3.06003   3.20201   3.51990   4.05628
 Alpha virt. eigenvalues --    4.13916   4.26674   4.53648
          Condensed to atoms (all electrons):
               1          2          3          4          5          6
     1  C    7.039287  -0.690152   0.183205  -1.649361   0.848583   0.071375
     2  C   -0.690152   6.901206   0.071323   0.842705  -1.503172   0.195638
     3  H    0.183205   0.071323   0.443637   0.111929  -0.042127  -0.008704
     4  C   -1.649361   0.842705   0.111929   7.909581  -0.726401  -0.044925
     5  C    0.848583  -1.503172  -0.042127  -0.726401   7.726606   0.106437
     6  H    0.071375   0.195638  -0.008704  -0.044925   0.106437   0.446975
 Mulliken charges:
               1
     1  C    0.197061
     2  C    0.182453
     3  H    0.240735
     4  C   -0.443527
     5  C   -0.409925
     6  H    0.233203
 Sum of Mulliken charges =  -0.00000
 Mulliken charges with hydrogens summed into heavy atoms:
               1
     1  C    0.437796
     2  C    0.415656
     4  C   -0.443527
     5  C   -0.409925
 Electronic spatial extent (au):  <R**2>=            221.6003
 Charge=             -0.0000 electrons
 Dipole moment (field-independent basis, Debye):
    X=              0.1952    Y=              4.7827    Z=              0.0016  Tot=              4.7867
 Quadrupole moment (field-independent basis, Debye-Ang):
   XX=            -26.4364   YY=            -24.3247   ZZ=            -26.9681
   XY=             -0.1299   XZ=              0.0701   YZ=              0.0005
 Traceless Quadrupole moment (field-independent basis, Debye-Ang):
   XX=             -0.5267   YY=              1.5851   ZZ=             -1.0584
   XY=             -0.1299   XZ=              0.0701   YZ=              0.0005
 Octapole moment (field-independent basis, Debye-Ang**2):
  XXX=              1.9216  YYY=             20.4087  ZZZ=              0.0039  XYY=             -0.1097
  XXY=             17.4745  XXZ=              0.0069  XZZ=              0.2261  YZZ=              3.2822
  YYZ=              0.0029  XYZ=              0.0360
 Hexadecapole moment (field-independent basis, Debye-Ang**3):
 XXXX=           -226.7599 YYYY=           -103.1175 ZZZZ=            -36.9531 XXXY=             -1.3468
 XXXZ=              0.3160 YYYX=              0.2023 YYYZ=              0.0003 ZZZX=              0.1042
 ZZZY=              0.0010 XXYY=            -64.2271 XXZZ=            -48.9681 YYZZ=            -25.0172
 XXYZ=              0.0008 YYXZ=              0.1199 ZZXY=              0.0437
 N-N= 7.706004358334D+01 E-N=-5.083052687365D+02  KE= 1.516025250193D+02
 1\1\GINC-NODE62\SP\RB3LYP\6-31+G(d,p)\C4H2\YANZ\22-Sep-2023\0\\# b3lyp
 /6-31+g(d,p) scrf=(iefpcm,solvent=acetonitrile)\\tmpdir/M2_ref_116.gjf
 \\0,1\C,0,-5.040051,-0.332504,-0.26783\C,0,-5.794502,-1.245176,0.47550
 2\H,0,-4.28780824,0.31437424,0.26146476\C,0,-5.183182,-0.210042,-1.653
 329\C,0,-6.717039,-2.053667,-0.19243\H,0,-5.672484,-1.311713,1.550985\
 \Version=ES64L-G16RevA.03\State=1-A\HF=-153.3244405\RMSD=1.829e-09\Dip
 ole=0.8138232,0.5155162,1.6181701\Quadrupole=-0.1765629,-0.450196,0.62
 67589,0.4574422,0.633434,0.4108977\PG=C01 [X(C4H2)]\\@


 KNOWLEDGE IS OF TWO KINDS:  WE KNOW A SUBJECT OURSELVES OR WE KNOW 
 WHERE WE CAN FIND INFORMATION UPON IT.

                                    -- SAMUEL JOHNSON
 Job cpu time:       0 days  0 hours  0 minutes 28.1 seconds.
 Elapsed time:       0 days  0 hours  0 minutes 14.3 seconds.
 File lengths (MBytes):  RWF=     16 Int=      0 D2E=      0 Chk=      2 Scr=      1
 Normal termination of Gaussian 16 at Fri Sep 22 17:09:13 2023.
