 Entering Gaussian System, Link 0=g16
 Initial command:
 /share/apps/gaussian/g16/l1.exe "/tmp/55647.mgr/Gau-196300.inp" -scrdir="/tmp/55647.mgr/"
 Entering Link 1 = /share/apps/gaussian/g16/l1.exe PID=    196312.
  
 Copyright (c) 1988,1990,1992,1993,1995,1998,2003,2009,2016,
            Gaussian, Inc.  All Rights Reserved.
  
 This is part of the Gaussian(R) 16 program.  It is based on
 the Gaussian(R) 09 system (copyright 2009, Gaussian, Inc.),
 the Gaussian(R) 03 system (copyright 2003, Gaussian, Inc.),
 the Gaussian(R) 98 system (copyright 1998, Gaussian, Inc.),
 the Gaussian(R) 94 system (copyright 1995, Gaussian, Inc.),
 the Gaussian 92(TM) system (copyright 1992, Gaussian, Inc.),
 the Gaussian 90(TM) system (copyright 1990, Gaussian, Inc.),
 the Gaussian 88(TM) system (copyright 1988, Gaussian, Inc.),
 the Gaussian 86(TM) system (copyright 1986, Carnegie Mellon
 University), and the Gaussian 82(TM) system (copyright 1983,
 Carnegie Mellon University). Gaussian is a federally registered
 trademark of Gaussian, Inc.
  
 This software contains proprietary and confidential information,
 including trade secrets, belonging to Gaussian, Inc.
  
 This software is provided under written license and may be
 used, copied, transmitted, or stored only in accord with that
 written license.
  
 The following legend is applicable only to US Government
 contracts under FAR:
  
                    RESTRICTED RIGHTS LEGEND
  
 Use, reproduction and disclosure by the US Government is
 subject to restrictions as set forth in subparagraphs (a)
 and (c) of the Commercial Computer Software - Restricted
 Rights clause in FAR 52.227-19.
  
 Gaussian, Inc.
 340 Quinnipiac St., Bldg. 40, Wallingford CT 06492
  
  
 ---------------------------------------------------------------
 Warning -- This program may not be used in any manner that
 competes with the business of Gaussian, Inc. or will provide
 assistance to any competitor of Gaussian, Inc.  The licensee
 of this program is prohibited from giving any competitor of
 Gaussian, Inc. access to this program.  By using this program,
 the user acknowledges that Gaussian, Inc. is engaged in the
 business of creating and licensing software in the field of
 computational chemistry and represents and warrants to the
 licensee that it is not a competitor of Gaussian, Inc. and that
 it will not use this program in any manner prohibited above.
 ---------------------------------------------------------------
  

 Cite this work as:
 Gaussian 16, Revision A.03,
 M. J. Frisch, G. W. Trucks, H. B. Schlegel, G. E. Scuseria, 
 M. A. Robb, J. R. Cheeseman, G. Scalmani, V. Barone, 
 G. A. Petersson, H. Nakatsuji, X. Li, M. Caricato, A. V. Marenich, 
 J. Bloino, B. G. Janesko, R. Gomperts, B. Mennucci, H. P. Hratchian, 
 J. V. Ortiz, A. F. Izmaylov, J. L. Sonnenberg, D. Williams-Young, 
 F. Ding, F. Lipparini, F. Egidi, J. Goings, B. Peng, A. Petrone, 
 T. Henderson, D. Ranasinghe, V. G. Zakrzewski, J. Gao, N. Rega, 
 G. Zheng, W. Liang, M. Hada, M. Ehara, K. Toyota, R. Fukuda, 
 J. Hasegawa, M. Ishida, T. Nakajima, Y. Honda, O. Kitao, H. Nakai, 
 T. Vreven, K. Throssell, J. A. Montgomery, Jr., J. E. Peralta, 
 F. Ogliaro, M. J. Bearpark, J. J. Heyd, E. N. Brothers, K. N. Kudin, 
 V. N. Staroverov, T. A. Keith, R. Kobayashi, J. Normand, 
 K. Raghavachari, A. P. Rendell, J. C. Burant, S. S. Iyengar, 
 J. Tomasi, M. Cossi, J. M. Millam, M. Klene, C. Adamo, R. Cammi, 
 J. W. Ochterski, R. L. Martin, K. Morokuma, O. Farkas, 
 J. B. Foresman, and D. J. Fox, Gaussian, Inc., Wallingford CT, 2016.
 
 ******************************************
 Gaussian 16:  ES64L-G16RevA.03 25-Dec-2016
                22-Sep-2023 
 ******************************************
 %nprocshared=2
 Will use up to    2 processors via shared memory.
 %mem=2GB
 ------------------------------------------------------
 # b3lyp/6-31+g(d,p) scrf=(iefpcm,solvent=acetonitrile)
 ------------------------------------------------------
 1/38=1,172=1/1;
 2/12=2,17=6,18=5,40=1/2;
 3/5=1,6=6,7=111,11=2,25=1,30=1,70=2201,72=2,74=-5/1,2,3;
 4//1;
 5/5=2,38=5,53=2/2;
 6/7=2,8=2,9=2,10=2,28=1/1;
 99/5=1,9=1/99;
 --------------------
 tmpdir/M2_ref_33.gjf
 --------------------
 Symbolic Z-matrix:
 Charge =  0 Multiplicity = 1
 C                     5.45064  -1.55467   0.32379 
 C                     5.05368  -2.72183  -0.34813 
 C                     3.68325  -3.03143  -0.39849 
 H                     4.77321  -0.94731   0.76393 
 H                     6.50545  -1.29901   0.37566 
 H                     5.79205  -3.38892  -0.79952 
 O                     2.84736  -2.30295   0.13248 
 H                     3.3548   -3.93225  -0.90957 
 
                          Input orientation:                          
 ---------------------------------------------------------------------
 Center     Atomic      Atomic             Coordinates (Angstroms)
 Number     Number       Type             X           Y           Z
 ---------------------------------------------------------------------
      1          6           0        5.450644   -1.554672    0.323793
      2          6           0        5.053677   -2.721825   -0.348130
      3          6           0        3.683245   -3.031431   -0.398492
      4          1           0        4.773214   -0.947311    0.763927
      5          1           0        6.505451   -1.299006    0.375655
      6          1           0        5.792045   -3.388921   -0.799521
      7          8           0        2.847362   -2.302952    0.132479
      8          1           0        3.354800   -3.932251   -0.909566
 ---------------------------------------------------------------------
                    Distance matrix (angstroms):
                    1          2          3          4          5
     1  C    0.000000
     2  C    1.404033   0.000000
     3  C    2.413755   1.405872   0.000000
     4  H    1.010701   2.112873   2.623511   0.000000
     5  H    1.086588   2.157760   3.400801   1.809721   0.000000
     6  H    2.177811   1.092684   2.176157   3.073085   2.501546
     7  O    2.715438   2.296577   1.229355   2.438318   3.801139
     8  H    3.400973   2.160214   1.086531   3.704369   4.302601
                    6          7          8
     6  H    0.000000
     7  O    3.274006   0.000000
     8  H    2.499496   1.999492   0.000000
 Stoichiometry    C3H4O
 Framework group  C1[X(C3H4O)]
 Deg. of freedom    18
 Full point group                 C1      NOp   1
 Largest Abelian subgroup         C1      NOp   1
 Largest concise Abelian subgroup C1      NOp   1
                         Standard orientation:                         
 ---------------------------------------------------------------------
 Center     Atomic      Atomic             Coordinates (Angstroms)
 Number     Number       Type             X           Y           Z
 ---------------------------------------------------------------------
      1          6           0       -1.414259   -0.484720   -0.000669
      2          6           0       -0.596823    0.656814   -0.003295
      3          6           0        0.797984    0.480778   -0.002594
      4          1           0       -1.016651   -1.413921    0.002634
      5          1           0       -2.494744   -0.369734    0.000971
      6          1           0       -1.031431    1.659080    0.019877
      7          8           0        1.296564   -0.642926    0.001994
      8          1           0        1.448895    1.350754   -0.000088
 ---------------------------------------------------------------------
 Rotational constants (GHZ):          21.0637571           6.8975031           5.1960900
 Standard basis: 6-31+G(d,p) (6D, 7F)
 There are    96 symmetry adapted cartesian basis functions of A   symmetry.
 There are    96 symmetry adapted basis functions of A   symmetry.
    96 basis functions,   156 primitive gaussians,    96 cartesian basis functions
    15 alpha electrons       15 beta electrons
       nuclear repulsion energy       105.8309667155 Hartrees.
 NAtoms=    8 NActive=    8 NUniq=    8 SFac= 1.00D+00 NAtFMM=   60 NAOKFM=F Big=F
 Integral buffers will be    131072 words long.
 Raffenetti 2 integral format.
 Two-electron integral symmetry is turned on.
 ------------------------------------------------------------------------------
 Polarizable Continuum Model (PCM)
 =================================
 Model                : PCM.
 Atomic radii         : UFF (Universal Force Field).
 Polarization charges : Total charges.
 Charge compensation  : None.
 Solution method      : On-the-fly selection.
 Cavity type          : Scaled VdW (van der Waals Surface) (Alpha=1.100).
 Cavity algorithm     : GePol (No added spheres)
                        Default sphere list used, NSphG=    8.
                        Lebedev-Laikov grids with approx.  5.0 points / Ang**2.
                        Smoothing algorithm: York/Karplus (Gamma=1.0000).
                        Polarization charges: spherical gaussians, with
                                              point-specific exponents (IZeta= 3).
                        Self-potential: point-specific (ISelfS= 7).
                        Self-field    : sphere-specific E.n sum rule (ISelfD= 2).
 Solvent              : Acetonitrile, Eps=  35.688000 Eps(inf)=   1.806874
 ------------------------------------------------------------------------------
 Spheres list:
 ISph  on   Nord     Re0    Alpha      Xe            Ye            Ze
    1   C      1    1.9255  1.100     -1.414259     -0.484720     -0.000669
    2   C      2    1.9255  1.100     -0.596823      0.656814     -0.003295
    3   C      3    1.9255  1.100      0.797984      0.480778     -0.002594
    4   H      4    1.4430  1.100     -1.016651     -1.413921      0.002634
    5   H      5    1.4430  1.100     -2.494744     -0.369734      0.000971
    6   H      6    1.4430  1.100     -1.031431      1.659080      0.019877
    7   O      7    1.7500  1.100      1.296564     -0.642926      0.001994
    8   H      8    1.4430  1.100      1.448895      1.350754     -0.000088
 ------------------------------------------------------------------------------
 One-electron integrals computed using PRISM.
 NBasis=    96 RedAO= T EigKep=  1.34D-04  NBF=    96
 NBsUse=    96 1.00D-06 EigRej= -1.00D+00 NBFU=    96
 ExpMin= 4.38D-02 ExpMax= 5.48D+03 ExpMxC= 8.25D+02 IAcc=3 IRadAn=         5 AccDes= 0.00D+00
 Harris functional with IExCor=  402 and IRadAn=       5 diagonalized for initial guess.
 HarFok:  IExCor=  402 AccDes= 0.00D+00 IRadAn=         5 IDoV= 1 UseB2=F ITyADJ=14
 ICtDFT=  3500011 ScaDFX=  1.000000  1.000000  1.000000  1.000000
 FoFCou: FMM=F IPFlag=           0 FMFlag=      100000 FMFlg1=           0
         NFxFlg=           0 DoJE=T BraDBF=F KetDBF=T FulRan=T
         wScrn=  0.000000 ICntrl=       500 IOpCl=  0 I1Cent=   200000004 NGrid=           0
         NMat0=    1 NMatS0=      1 NMatT0=    0 NMatD0=    1 NMtDS0=    0 NMtDT0=    0
 Petite list used in FoFCou.
 Keep R1 ints in memory in canonical form, NReq=12684406.
 Requested convergence on RMS density matrix=1.00D-08 within 128 cycles.
 Requested convergence on MAX density matrix=1.00D-06.
 Requested convergence on             energy=1.00D-06.
 No special actions if energy rises.
 Inv3:  Mode=1 IEnd=     2111763.
 Iteration    1 A*A^-1 deviation from unit magnitude is 2.89D-15 for    822.
 Iteration    1 A*A^-1 deviation from orthogonality  is 1.68D-15 for    816    276.
 Iteration    1 A^-1*A deviation from unit magnitude is 2.89D-15 for    822.
 Iteration    1 A^-1*A deviation from orthogonality  is 1.90D-15 for    537    356.
 Error on total polarization charges =  0.01118
 SCF Done:  E(RB3LYP) =  -191.919910710     A.U. after   12 cycles
            NFock= 12  Conv=0.14D-08     -V/T= 2.0090

 **********************************************************************

            Population analysis using the SCF density.

 **********************************************************************

 Orbital symmetries:
       Occupied  (A) (A) (A) (A) (A) (A) (A) (A) (A) (A) (A) (A)
                 (A) (A) (A)
       Virtual   (A) (A) (A) (A) (A) (A) (A) (A) (A) (A) (A) (A)
                 (A) (A) (A) (A) (A) (A) (A) (A) (A) (A) (A) (A)
                 (A) (A) (A) (A) (A) (A) (A) (A) (A) (A) (A) (A)
                 (A) (A) (A) (A) (A) (A) (A) (A) (A) (A) (A) (A)
                 (A) (A) (A) (A) (A) (A) (A) (A) (A) (A) (A) (A)
                 (A) (A) (A) (A) (A) (A) (A) (A) (A) (A) (A) (A)
                 (A) (A) (A) (A) (A) (A) (A) (A) (A)
 The electronic state is 1-A.
 Alpha  occ. eigenvalues --  -19.15841 -10.28099 -10.22498 -10.21469  -1.05230
 Alpha  occ. eigenvalues --   -0.79802  -0.67792  -0.55720  -0.52246  -0.46208
 Alpha  occ. eigenvalues --   -0.42266  -0.41103  -0.40037  -0.28551  -0.27360
 Alpha virt. eigenvalues --   -0.09664   0.01405   0.03102   0.03941   0.04084
 Alpha virt. eigenvalues --    0.06293   0.06494   0.07530   0.09631   0.09806
 Alpha virt. eigenvalues --    0.12182   0.12308   0.14318   0.16416   0.19903
 Alpha virt. eigenvalues --    0.22246   0.23366   0.24444   0.26008   0.26765
 Alpha virt. eigenvalues --    0.29202   0.31541   0.32395   0.40632   0.46340
 Alpha virt. eigenvalues --    0.62978   0.64960   0.68043   0.68493   0.70573
 Alpha virt. eigenvalues --    0.71835   0.76423   0.86888   0.90260   0.91738
 Alpha virt. eigenvalues --    0.95071   1.03858   1.07042   1.09247   1.16074
 Alpha virt. eigenvalues --    1.20392   1.24708   1.26769   1.29423   1.31817
 Alpha virt. eigenvalues --    1.33364   1.44053   1.47958   1.58646   1.75817
 Alpha virt. eigenvalues --    1.78224   1.81719   1.86912   1.92970   2.01441
 Alpha virt. eigenvalues --    2.02823   2.06061   2.08929   2.16993   2.19477
 Alpha virt. eigenvalues --    2.35755   2.36209   2.44658   2.48423   2.49356
 Alpha virt. eigenvalues --    2.50703   2.66344   2.67896   2.75775   2.80616
 Alpha virt. eigenvalues --    2.92286   3.07918   3.15907   3.25022   3.39323
 Alpha virt. eigenvalues --    3.56637   3.76872   4.12632   4.27753   4.36062
 Alpha virt. eigenvalues --    4.59530
          Condensed to atoms (all electrons):
               1          2          3          4          5          6
     1  C    4.911997   0.518656   0.041421   0.419601   0.361759   0.000138
     2  C    0.518656   5.469762   0.094454  -0.052773  -0.023272   0.297040
     3  C    0.041421   0.094454   4.853930  -0.006125   0.017513   0.013709
     4  H    0.419601  -0.052773  -0.006125   0.490223  -0.033249   0.003758
     5  H    0.361759  -0.023272   0.017513  -0.033249   0.510033  -0.004428
     6  H    0.000138   0.297040   0.013709   0.003758  -0.004428   0.521642
     7  O    0.010415  -0.204698   0.455297   0.000874   0.001235   0.006006
     8  H    0.017429  -0.165365   0.460974   0.000068  -0.000085   0.000318
               7          8
     1  C    0.010415   0.017429
     2  C   -0.204698  -0.165365
     3  C    0.455297   0.460974
     4  H    0.000874   0.000068
     5  H    0.001235  -0.000085
     6  H    0.006006   0.000318
     7  O    8.301970  -0.071924
     8  H   -0.071924   0.622947
 Mulliken charges:
               1
     1  C   -0.281415
     2  C    0.066196
     3  C    0.068827
     4  H    0.177623
     5  H    0.170494
     6  H    0.161816
     7  O   -0.499176
     8  H    0.135637
 Sum of Mulliken charges =  -0.00000
 Mulliken charges with hydrogens summed into heavy atoms:
               1
     1  C    0.066701
     2  C    0.228011
     3  C    0.204464
     7  O   -0.499176
 Electronic spatial extent (au):  <R**2>=            257.7069
 Charge=              0.0000 electrons
 Dipole moment (field-independent basis, Debye):
    X=             -2.9514    Y=              2.3458    Z=              0.0181  Tot=              3.7702
 Quadrupole moment (field-independent basis, Debye-Ang):
   XX=            -24.1683   YY=            -22.3357   ZZ=            -25.2183
   XY=              3.9872   XZ=             -0.0426   YZ=              0.0365
 Traceless Quadrupole moment (field-independent basis, Debye-Ang):
   XX=             -0.2609   YY=              1.5717   ZZ=             -1.3108
   XY=              3.9872   XZ=             -0.0426   YZ=              0.0365
 Octapole moment (field-independent basis, Debye-Ang**2):
  XXX=             -9.8300  YYY=              1.1307  ZZZ=              0.0511  XYY=             -1.6176
  XXY=              3.7831  XXZ=              0.0362  XZZ=              3.0398  YZZ=             -0.8364
  YYZ=              0.0966  XYZ=             -0.0338
 Hexadecapole moment (field-independent basis, Debye-Ang**3):
 XXXX=           -211.6831 YYYY=            -88.4285 ZZZZ=            -28.4607 XXXY=              8.8477
 XXXZ=             -0.0926 YYYX=              0.3488 YYYZ=              0.1353 ZZZX=             -0.0487
 ZZZY=              0.0293 XXYY=            -51.2633 XXZZ=            -43.9544 YYZZ=            -21.2893
 XXYZ=              0.0629 YYXZ=             -0.0998 ZZXY=              0.1626
 N-N= 1.058309667155D+02 E-N=-6.589965625726D+02  KE= 1.902072555487D+02
 1\1\GINC-NODE62\SP\RB3LYP\6-31+G(d,p)\C3H4O1\YANZ\22-Sep-2023\0\\# b3l
 yp/6-31+g(d,p) scrf=(iefpcm,solvent=acetonitrile)\\tmpdir/M2_ref_33.gj
 f\\0,1\C,0,5.450644,-1.554672,0.323793\C,0,5.053677,-2.721825,-0.34813
 \C,0,3.683245,-3.031431,-0.398492\H,0,4.77321411,-0.94731065,0.7639272
 7\H,0,6.505451,-1.299006,0.375655\H,0,5.79204506,-3.38892142,-0.799520
 7\O,0,2.84736195,-2.3029517,0.13247887\H,0,3.3548,-3.932251,-0.909566\
 \Version=ES64L-G16RevA.03\State=1-A\HF=-191.9199107\RMSD=1.400e-09\Dip
 ole=1.3950583,-0.3620315,-0.3505794\Quadrupole=-1.8701834,1.9797164,-0
 .109533,1.5623546,1.0830752,1.6239941\PG=C01 [X(C3H4O1)]\\@


 I MET A TRAVELLER FROM AN ANTIQUE LAND
 WHO SAID... TWO VAST AND TRUNKLESS LEGS OF STONE
 STAND IN THE DESERT..... NEAR THEM,  ON THE SAND,
 HALF SUNK,  A SHATTERED VISAGE LIES,  WHOSE FROWN,
 AND WRINKLED LIP,  AND SNEER OF COLD COMMAND
 TELL THAT ITS SCULPTOR WELL THOSE PASSIONS READ
 WHICH YET SURVIVE,  STAMPED ON THESE LIFELESS THINGS
 THE HAND THAT MOCKED THEM,  AND THE HEART THAT FED-
 AND ON THE PEDESTAL THESE WORDS APPEAR 
 MY NAME IS OZYMANDIAS, KING OF KINGS--   
 LOOK ON MY WORKS YE MIGHTY AND DESPAIR. 
 NOTHING BESIDE REMAINS,  ROUND THE DECAY 
 OF THAT COLOSSAL WRECK,  BOUNDLESS AND BARE
 THE LONE AND LEVEL SANDS STRETCH FAR AWAY.
                                    SHELLEY
 Job cpu time:       0 days  0 hours  0 minutes 36.2 seconds.
 Elapsed time:       0 days  0 hours  0 minutes 18.3 seconds.
 File lengths (MBytes):  RWF=     19 Int=      0 D2E=      0 Chk=      2 Scr=      1
 Normal termination of Gaussian 16 at Fri Sep 22 17:07:04 2023.
