 Entering Gaussian System, Link 0=g16
 Initial command:
 /share/apps/gaussian/g16/l1.exe "/tmp/55647.mgr/Gau-925.inp" -scrdir="/tmp/55647.mgr/"
 Entering Link 1 = /share/apps/gaussian/g16/l1.exe PID=       926.
  
 Copyright (c) 1988,1990,1992,1993,1995,1998,2003,2009,2016,
            Gaussian, Inc.  All Rights Reserved.
  
 This is part of the Gaussian(R) 16 program.  It is based on
 the Gaussian(R) 09 system (copyright 2009, Gaussian, Inc.),
 the Gaussian(R) 03 system (copyright 2003, Gaussian, Inc.),
 the Gaussian(R) 98 system (copyright 1998, Gaussian, Inc.),
 the Gaussian(R) 94 system (copyright 1995, Gaussian, Inc.),
 the Gaussian 92(TM) system (copyright 1992, Gaussian, Inc.),
 the Gaussian 90(TM) system (copyright 1990, Gaussian, Inc.),
 the Gaussian 88(TM) system (copyright 1988, Gaussian, Inc.),
 the Gaussian 86(TM) system (copyright 1986, Carnegie Mellon
 University), and the Gaussian 82(TM) system (copyright 1983,
 Carnegie Mellon University). Gaussian is a federally registered
 trademark of Gaussian, Inc.
  
 This software contains proprietary and confidential information,
 including trade secrets, belonging to Gaussian, Inc.
  
 This software is provided under written license and may be
 used, copied, transmitted, or stored only in accord with that
 written license.
  
 The following legend is applicable only to US Government
 contracts under FAR:
  
                    RESTRICTED RIGHTS LEGEND
  
 Use, reproduction and disclosure by the US Government is
 subject to restrictions as set forth in subparagraphs (a)
 and (c) of the Commercial Computer Software - Restricted
 Rights clause in FAR 52.227-19.
  
 Gaussian, Inc.
 340 Quinnipiac St., Bldg. 40, Wallingford CT 06492
  
  
 ---------------------------------------------------------------
 Warning -- This program may not be used in any manner that
 competes with the business of Gaussian, Inc. or will provide
 assistance to any competitor of Gaussian, Inc.  The licensee
 of this program is prohibited from giving any competitor of
 Gaussian, Inc. access to this program.  By using this program,
 the user acknowledges that Gaussian, Inc. is engaged in the
 business of creating and licensing software in the field of
 computational chemistry and represents and warrants to the
 licensee that it is not a competitor of Gaussian, Inc. and that
 it will not use this program in any manner prohibited above.
 ---------------------------------------------------------------
  

 Cite this work as:
 Gaussian 16, Revision A.03,
 M. J. Frisch, G. W. Trucks, H. B. Schlegel, G. E. Scuseria, 
 M. A. Robb, J. R. Cheeseman, G. Scalmani, V. Barone, 
 G. A. Petersson, H. Nakatsuji, X. Li, M. Caricato, A. V. Marenich, 
 J. Bloino, B. G. Janesko, R. Gomperts, B. Mennucci, H. P. Hratchian, 
 J. V. Ortiz, A. F. Izmaylov, J. L. Sonnenberg, D. Williams-Young, 
 F. Ding, F. Lipparini, F. Egidi, J. Goings, B. Peng, A. Petrone, 
 T. Henderson, D. Ranasinghe, V. G. Zakrzewski, J. Gao, N. Rega, 
 G. Zheng, W. Liang, M. Hada, M. Ehara, K. Toyota, R. Fukuda, 
 J. Hasegawa, M. Ishida, T. Nakajima, Y. Honda, O. Kitao, H. Nakai, 
 T. Vreven, K. Throssell, J. A. Montgomery, Jr., J. E. Peralta, 
 F. Ogliaro, M. J. Bearpark, J. J. Heyd, E. N. Brothers, K. N. Kudin, 
 V. N. Staroverov, T. A. Keith, R. Kobayashi, J. Normand, 
 K. Raghavachari, A. P. Rendell, J. C. Burant, S. S. Iyengar, 
 J. Tomasi, M. Cossi, J. M. Millam, M. Klene, C. Adamo, R. Cammi, 
 J. W. Ochterski, R. L. Martin, K. Morokuma, O. Farkas, 
 J. B. Foresman, and D. J. Fox, Gaussian, Inc., Wallingford CT, 2016.
 
 ******************************************
 Gaussian 16:  ES64L-G16RevA.03 25-Dec-2016
                22-Sep-2023 
 ******************************************
 %nprocshared=2
 Will use up to    2 processors via shared memory.
 %mem=2GB
 ------------------------------------------------------
 # b3lyp/6-31+g(d,p) scrf=(iefpcm,solvent=acetonitrile)
 ------------------------------------------------------
 1/38=1,172=1/1;
 2/12=2,17=6,18=5,40=1/2;
 3/5=1,6=6,7=111,11=2,25=1,30=1,70=2201,72=2,74=-5/1,2,3;
 4//1;
 5/5=2,38=5,53=2/2;
 6/7=2,8=2,9=2,10=2,28=1/1;
 99/5=1,9=1/99;
 --------------------
 tmpdir/M2_ref_70.gjf
 --------------------
 Symbolic Z-matrix:
 Charge =  0 Multiplicity = 1
 C                     3.54116   3.47905  -1.05996 
 C                     3.94665   2.88967  -2.26059 
 C                     2.64941   2.80929  -0.21645 
 H                     3.9117    4.46046  -0.77997 
 C                     3.463     1.62538  -2.61765 
 H                     4.63497   3.41274  -2.91775 
 
                          Input orientation:                          
 ---------------------------------------------------------------------
 Center     Atomic      Atomic             Coordinates (Angstroms)
 Number     Number       Type             X           Y           Z
 ---------------------------------------------------------------------
      1          6           0        3.541156    3.479054   -1.059960
      2          6           0        3.946649    2.889672   -2.260594
      3          6           0        2.649409    2.809285   -0.216445
      4          1           0        3.911703    4.460463   -0.779971
      5          6           0        3.462995    1.625383   -2.617646
      6          1           0        4.634973    3.412738   -2.917751
 ---------------------------------------------------------------------
                    Distance matrix (angstroms):
                    1          2          3          4          5
     1  C    0.000000
     2  C    1.397611   0.000000
     3  C    1.398328   2.422362   0.000000
     4  H    1.085754   2.158900   2.153448   0.000000
     5  C    2.422517   1.399941   2.798091   3.408235   0.000000
     6  H    2.156901   1.085930   3.406417   2.488162   2.158294
                    6
     6  H    0.000000
 Stoichiometry    C4H2
 Framework group  C1[X(C4H2)]
 Deg. of freedom    12
 Full point group                 C1      NOp   1
 Largest Abelian subgroup         C1      NOp   1
 Largest concise Abelian subgroup C1      NOp   1
                         Standard orientation:                         
 ---------------------------------------------------------------------
 Center     Atomic      Atomic             Coordinates (Angstroms)
 Number     Number       Type             X           Y           Z
 ---------------------------------------------------------------------
      1          6           0        0.698834    0.486162   -0.001494
      2          6           0       -0.698775    0.487496    0.000053
      3          6           0        1.398592   -0.724480    0.000886
      4          1           0        1.246620    1.423598    0.001182
      5          6           0       -1.399498   -0.724453   -0.000256
      6          1           0       -1.241537    1.428049    0.003682
 ---------------------------------------------------------------------
 Rotational constants (GHZ):          22.7419874           8.1756035           6.0137185
 Standard basis: 6-31+G(d,p) (6D, 7F)
 There are    86 symmetry adapted cartesian basis functions of A   symmetry.
 There are    86 symmetry adapted basis functions of A   symmetry.
    86 basis functions,   142 primitive gaussians,    86 cartesian basis functions
    13 alpha electrons       13 beta electrons
       nuclear repulsion energy        77.2116548081 Hartrees.
 NAtoms=    6 NActive=    6 NUniq=    6 SFac= 1.00D+00 NAtFMM=   60 NAOKFM=F Big=F
 Integral buffers will be    131072 words long.
 Raffenetti 2 integral format.
 Two-electron integral symmetry is turned on.
 ------------------------------------------------------------------------------
 Polarizable Continuum Model (PCM)
 =================================
 Model                : PCM.
 Atomic radii         : UFF (Universal Force Field).
 Polarization charges : Total charges.
 Charge compensation  : None.
 Solution method      : On-the-fly selection.
 Cavity type          : Scaled VdW (van der Waals Surface) (Alpha=1.100).
 Cavity algorithm     : GePol (No added spheres)
                        Default sphere list used, NSphG=    6.
                        Lebedev-Laikov grids with approx.  5.0 points / Ang**2.
                        Smoothing algorithm: York/Karplus (Gamma=1.0000).
                        Polarization charges: spherical gaussians, with
                                              point-specific exponents (IZeta= 3).
                        Self-potential: point-specific (ISelfS= 7).
                        Self-field    : sphere-specific E.n sum rule (ISelfD= 2).
 Solvent              : Acetonitrile, Eps=  35.688000 Eps(inf)=   1.806874
 ------------------------------------------------------------------------------
 Spheres list:
 ISph  on   Nord     Re0    Alpha      Xe            Ye            Ze
    1   C      1    1.9255  1.100      0.698834      0.486162     -0.001494
    2   C      2    1.9255  1.100     -0.698775      0.487496      0.000053
    3   C      3    1.9255  1.100      1.398592     -0.724480      0.000886
    4   H      4    1.4430  1.100      1.246620      1.423598      0.001182
    5   C      5    1.9255  1.100     -1.399498     -0.724453     -0.000256
    6   H      6    1.4430  1.100     -1.241537      1.428049      0.003682
 ------------------------------------------------------------------------------
 One-electron integrals computed using PRISM.
 NBasis=    86 RedAO= T EigKep=  4.39D-05  NBF=    86
 NBsUse=    86 1.00D-06 EigRej= -1.00D+00 NBFU=    86
 ExpMin= 4.38D-02 ExpMax= 3.05D+03 ExpMxC= 4.57D+02 IAcc=3 IRadAn=         5 AccDes= 0.00D+00
 Harris functional with IExCor=  402 and IRadAn=       5 diagonalized for initial guess.
 HarFok:  IExCor=  402 AccDes= 0.00D+00 IRadAn=         5 IDoV= 1 UseB2=F ITyADJ=14
 ICtDFT=  3500011 ScaDFX=  1.000000  1.000000  1.000000  1.000000
 FoFCou: FMM=F IPFlag=           0 FMFlag=      100000 FMFlg1=           0
         NFxFlg=           0 DoJE=T BraDBF=F KetDBF=T FulRan=T
         wScrn=  0.000000 ICntrl=       500 IOpCl=  0 I1Cent=   200000004 NGrid=           0
         NMat0=    1 NMatS0=      1 NMatT0=    0 NMatD0=    1 NMtDS0=    0 NMtDT0=    0
 Petite list used in FoFCou.
 Keep R1 ints in memory in canonical form, NReq=8817431.
 Requested convergence on RMS density matrix=1.00D-08 within 128 cycles.
 Requested convergence on MAX density matrix=1.00D-06.
 Requested convergence on             energy=1.00D-06.
 No special actions if energy rises.
 Inv3:  Mode=1 IEnd=     1723692.
 Iteration    1 A*A^-1 deviation from unit magnitude is 3.11D-15 for    731.
 Iteration    1 A*A^-1 deviation from orthogonality  is 1.44D-15 for    660    141.
 Iteration    1 A^-1*A deviation from unit magnitude is 3.11D-15 for    731.
 Iteration    1 A^-1*A deviation from orthogonality  is 8.41D-16 for    219    164.
 Error on total polarization charges =  0.01622
 SCF Done:  E(RB3LYP) =  -153.324315606     A.U. after   13 cycles
            NFock= 13  Conv=0.45D-08     -V/T= 2.0111

 **********************************************************************

            Population analysis using the SCF density.

 **********************************************************************

 Orbital symmetries:
       Occupied  (A) (A) (A) (A) (A) (A) (A) (A) (A) (A) (A) (A)
                 (A)
       Virtual   (A) (A) (A) (A) (A) (A) (A) (A) (A) (A) (A) (A)
                 (A) (A) (A) (A) (A) (A) (A) (A) (A) (A) (A) (A)
                 (A) (A) (A) (A) (A) (A) (A) (A) (A) (A) (A) (A)
                 (A) (A) (A) (A) (A) (A) (A) (A) (A) (A) (A) (A)
                 (A) (A) (A) (A) (A) (A) (A) (A) (A) (A) (A) (A)
                 (A) (A) (A) (A) (A) (A) (A) (A) (A) (A) (A) (A)
                 (A)
 The electronic state is 1-A.
 Alpha  occ. eigenvalues --  -10.29064 -10.29027 -10.24110 -10.24050  -0.85688
 Alpha  occ. eigenvalues --   -0.72906  -0.61419  -0.50179  -0.49152  -0.36861
 Alpha  occ. eigenvalues --   -0.33642  -0.31471  -0.25343
 Alpha virt. eigenvalues --   -0.14525  -0.11458  -0.08351   0.02249   0.03746
 Alpha virt. eigenvalues --    0.04179   0.04496   0.05824   0.06098   0.08898
 Alpha virt. eigenvalues --    0.09203   0.09352   0.10637   0.12172   0.12885
 Alpha virt. eigenvalues --    0.15458   0.16356   0.17705   0.18157   0.21333
 Alpha virt. eigenvalues --    0.22521   0.27168   0.28450   0.37535   0.42969
 Alpha virt. eigenvalues --    0.57484   0.63260   0.63545   0.67468   0.69023
 Alpha virt. eigenvalues --    0.69576   0.69912   0.72632   0.73318   0.75332
 Alpha virt. eigenvalues --    0.78888   0.79673   0.90110   0.94728   1.05972
 Alpha virt. eigenvalues --    1.06276   1.17303   1.23510   1.28952   1.31820
 Alpha virt. eigenvalues --    1.41837   1.63329   1.65426   1.69524   1.71555
 Alpha virt. eigenvalues --    1.73905   1.85325   1.85590   1.95479   2.00594
 Alpha virt. eigenvalues --    2.05278   2.08737   2.16427   2.39224   2.45164
 Alpha virt. eigenvalues --    2.45347   2.47019   2.54201   2.59213   2.63813
 Alpha virt. eigenvalues --    2.79112   3.08022   3.24209   3.54887   4.05673
 Alpha virt. eigenvalues --    4.13859   4.26573   4.53976
          Condensed to atoms (all electrons):
               1          2          3          4          5          6
     1  C    6.968424  -0.696331  -1.573571   0.193818   0.851479   0.070526
     2  C   -0.696331   6.955511   0.851021   0.070477  -1.558484   0.194730
     3  C   -1.573571   0.851021   7.808752   0.108264  -0.729807  -0.043992
     4  H    0.193818   0.070477   0.108264   0.445337  -0.043691  -0.008831
     5  C    0.851479  -1.558484  -0.729807  -0.043691   7.790012   0.107564
     6  H    0.070526   0.194730  -0.043992  -0.008831   0.107564   0.445619
 Mulliken charges:
               1
     1  C    0.185655
     2  C    0.183075
     3  C   -0.420666
     4  H    0.234625
     5  C   -0.417074
     6  H    0.234384
 Sum of Mulliken charges =  -0.00000
 Mulliken charges with hydrogens summed into heavy atoms:
               1
     1  C    0.420280
     2  C    0.417460
     3  C   -0.420666
     5  C   -0.417074
 Electronic spatial extent (au):  <R**2>=            220.7715
 Charge=             -0.0000 electrons
 Dipole moment (field-independent basis, Debye):
    X=             -0.0001    Y=              4.7507    Z=              0.0064  Tot=              4.7507
 Quadrupole moment (field-independent basis, Debye-Ang):
   XX=            -26.3045   YY=            -24.4390   ZZ=            -26.9278
   XY=              0.0106   XZ=             -0.0115   YZ=              0.0130
 Traceless Quadrupole moment (field-independent basis, Debye-Ang):
   XX=             -0.4141   YY=              1.4515   ZZ=             -1.0373
   XY=              0.0106   XZ=             -0.0115   YZ=              0.0130
 Octapole moment (field-independent basis, Debye-Ang**2):
  XXX=              0.0024  YYY=             20.2881  ZZZ=              0.0092  XYY=             -0.0045
  XXY=             17.3466  XXZ=              0.0277  XZZ=              0.0055  YZZ=              3.3324
  YYZ=              0.0140  XYZ=              0.0013
 Hexadecapole moment (field-independent basis, Debye-Ang**3):
 XXXX=           -224.4028 YYYY=           -103.5409 ZZZZ=            -36.8829 XXXY=              0.0681
 XXXZ=             -0.0615 YYYX=             -0.0044 YYYZ=              0.0395 ZZZX=             -0.0149
 ZZZY=              0.0126 XXYY=            -64.1122 XXZZ=            -48.6481 YYZZ=            -24.9536
 XXYZ=              0.0214 YYXZ=             -0.0139 ZZXY=              0.0031
 N-N= 7.721165480810D+01 E-N=-5.086320411877D+02  KE= 1.516464634393D+02
 1\1\GINC-NODE62\SP\RB3LYP\6-31+G(d,p)\C4H2\YANZ\22-Sep-2023\0\\# b3lyp
 /6-31+g(d,p) scrf=(iefpcm,solvent=acetonitrile)\\tmpdir/M2_ref_70.gjf\
 \0,1\C,0,3.541156,3.479054,-1.05996\C,0,3.946649,2.889672,-2.260594\C,
 0,2.649409,2.809285,-0.216445\H,0,3.911703,4.460463,-0.779971\C,0,3.46
 2995,1.625383,-2.617646\H,0,4.634973,3.412738,-2.917751\\Version=ES64L
 -G16RevA.03\State=1-A\HF=-153.3243156\RMSD=4.481e-09\Dipole=1.0581849,
 1.4935754,-0.3779283\Quadrupole=-0.1517617,0.5004036,-0.3486418,0.7814
 707,-0.3193533,-0.130802\PG=C01 [X(C4H2)]\\@


 WE ARE REACHING THE STAGE WHERE THE PROBLEMS WE MUST SOLVE ARE 
 GOING TO BECOME INSOLUBLE WITHOUT COMPUTERS.
 I DO NOT FEAR COMPUTERS.  I FEAR THE LACK OF THEM.

                                   -- ISSAC ASIMOV
 Job cpu time:       0 days  0 hours  0 minutes 28.2 seconds.
 Elapsed time:       0 days  0 hours  0 minutes 14.4 seconds.
 File lengths (MBytes):  RWF=     16 Int=      0 D2E=      0 Chk=      2 Scr=      1
 Normal termination of Gaussian 16 at Fri Sep 22 17:08:11 2023.
