 Entering Gaussian System, Link 0=g16
 Initial command:
 /share/apps/gaussian/g16/l1.exe "/tmp/55647.mgr/Gau-455.inp" -scrdir="/tmp/55647.mgr/"
 Entering Link 1 = /share/apps/gaussian/g16/l1.exe PID=       456.
  
 Copyright (c) 1988,1990,1992,1993,1995,1998,2003,2009,2016,
            Gaussian, Inc.  All Rights Reserved.
  
 This is part of the Gaussian(R) 16 program.  It is based on
 the Gaussian(R) 09 system (copyright 2009, Gaussian, Inc.),
 the Gaussian(R) 03 system (copyright 2003, Gaussian, Inc.),
 the Gaussian(R) 98 system (copyright 1998, Gaussian, Inc.),
 the Gaussian(R) 94 system (copyright 1995, Gaussian, Inc.),
 the Gaussian 92(TM) system (copyright 1992, Gaussian, Inc.),
 the Gaussian 90(TM) system (copyright 1990, Gaussian, Inc.),
 the Gaussian 88(TM) system (copyright 1988, Gaussian, Inc.),
 the Gaussian 86(TM) system (copyright 1986, Carnegie Mellon
 University), and the Gaussian 82(TM) system (copyright 1983,
 Carnegie Mellon University). Gaussian is a federally registered
 trademark of Gaussian, Inc.
  
 This software contains proprietary and confidential information,
 including trade secrets, belonging to Gaussian, Inc.
  
 This software is provided under written license and may be
 used, copied, transmitted, or stored only in accord with that
 written license.
  
 The following legend is applicable only to US Government
 contracts under FAR:
  
                    RESTRICTED RIGHTS LEGEND
  
 Use, reproduction and disclosure by the US Government is
 subject to restrictions as set forth in subparagraphs (a)
 and (c) of the Commercial Computer Software - Restricted
 Rights clause in FAR 52.227-19.
  
 Gaussian, Inc.
 340 Quinnipiac St., Bldg. 40, Wallingford CT 06492
  
  
 ---------------------------------------------------------------
 Warning -- This program may not be used in any manner that
 competes with the business of Gaussian, Inc. or will provide
 assistance to any competitor of Gaussian, Inc.  The licensee
 of this program is prohibited from giving any competitor of
 Gaussian, Inc. access to this program.  By using this program,
 the user acknowledges that Gaussian, Inc. is engaged in the
 business of creating and licensing software in the field of
 computational chemistry and represents and warrants to the
 licensee that it is not a competitor of Gaussian, Inc. and that
 it will not use this program in any manner prohibited above.
 ---------------------------------------------------------------
  

 Cite this work as:
 Gaussian 16, Revision A.03,
 M. J. Frisch, G. W. Trucks, H. B. Schlegel, G. E. Scuseria, 
 M. A. Robb, J. R. Cheeseman, G. Scalmani, V. Barone, 
 G. A. Petersson, H. Nakatsuji, X. Li, M. Caricato, A. V. Marenich, 
 J. Bloino, B. G. Janesko, R. Gomperts, B. Mennucci, H. P. Hratchian, 
 J. V. Ortiz, A. F. Izmaylov, J. L. Sonnenberg, D. Williams-Young, 
 F. Ding, F. Lipparini, F. Egidi, J. Goings, B. Peng, A. Petrone, 
 T. Henderson, D. Ranasinghe, V. G. Zakrzewski, J. Gao, N. Rega, 
 G. Zheng, W. Liang, M. Hada, M. Ehara, K. Toyota, R. Fukuda, 
 J. Hasegawa, M. Ishida, T. Nakajima, Y. Honda, O. Kitao, H. Nakai, 
 T. Vreven, K. Throssell, J. A. Montgomery, Jr., J. E. Peralta, 
 F. Ogliaro, M. J. Bearpark, J. J. Heyd, E. N. Brothers, K. N. Kudin, 
 V. N. Staroverov, T. A. Keith, R. Kobayashi, J. Normand, 
 K. Raghavachari, A. P. Rendell, J. C. Burant, S. S. Iyengar, 
 J. Tomasi, M. Cossi, J. M. Millam, M. Klene, C. Adamo, R. Cammi, 
 J. W. Ochterski, R. L. Martin, K. Morokuma, O. Farkas, 
 J. B. Foresman, and D. J. Fox, Gaussian, Inc., Wallingford CT, 2016.
 
 ******************************************
 Gaussian 16:  ES64L-G16RevA.03 25-Dec-2016
                22-Sep-2023 
 ******************************************
 %nprocshared=2
 Will use up to    2 processors via shared memory.
 %mem=2GB
 ------------------------------------------------------
 # b3lyp/6-31+g(d,p) scrf=(iefpcm,solvent=acetonitrile)
 ------------------------------------------------------
 1/38=1,172=1/1;
 2/12=2,17=6,18=5,40=1/2;
 3/5=1,6=6,7=111,11=2,25=1,30=1,70=2201,72=2,74=-5/1,2,3;
 4//1;
 5/5=2,38=5,53=2/2;
 6/7=2,8=2,9=2,10=2,28=1/1;
 99/5=1,9=1/99;
 --------------------
 tmpdir/M2_ref_45.gjf
 --------------------
 Symbolic Z-matrix:
 Charge =  0 Multiplicity = 1
 S                     1.92875  -0.02886   1.70698 
 O                     2.71058   0.95044   2.55118 
 H                     2.8677   -0.80093   1.05698 
 H                     1.39023   0.70704   0.57311 
 
                          Input orientation:                          
 ---------------------------------------------------------------------
 Center     Atomic      Atomic             Coordinates (Angstroms)
 Number     Number       Type             X           Y           Z
 ---------------------------------------------------------------------
      1         16           0        1.928750   -0.028863    1.706983
      2          8           0        2.710581    0.950442    2.551184
      3          1           0        2.867696   -0.800931    1.056979
      4          1           0        1.390234    0.707044    0.573107
 ---------------------------------------------------------------------
                    Distance matrix (angstroms):
                    1          2          3          4
     1  S    0.000000
     2  O    1.510951   0.000000
     3  H    1.378482   2.307519   0.000000
     4  H    1.455072   2.390679   2.165875   0.000000
 Stoichiometry    H2OS
 Framework group  C1[X(H2OS)]
 Deg. of freedom     6
 Full point group                 C1      NOp   1
 Largest Abelian subgroup         C1      NOp   1
 Largest concise Abelian subgroup C1      NOp   1
                         Standard orientation:                         
 ---------------------------------------------------------------------
 Center     Atomic      Atomic             Coordinates (Angstroms)
 Number     Number       Type             X           Y           Z
 ---------------------------------------------------------------------
      1         16           0        0.424211   -0.011877   -0.109168
      2          8           0       -1.077750    0.011449    0.053748
      3          1           0        0.876145   -1.032128    0.700188
      4          1           0        0.958476    1.130564    0.616520
 ---------------------------------------------------------------------
 Rotational constants (GHZ):         141.3641244          18.5550403          17.7977367
 Standard basis: 6-31+G(d,p) (6D, 7F)
 There are    52 symmetry adapted cartesian basis functions of A   symmetry.
 There are    52 symmetry adapted basis functions of A   symmetry.
    52 basis functions,   102 primitive gaussians,    52 cartesian basis functions
    13 alpha electrons       13 beta electrons
       nuclear repulsion energy        60.6399007174 Hartrees.
 NAtoms=    4 NActive=    4 NUniq=    4 SFac= 1.00D+00 NAtFMM=   60 NAOKFM=F Big=F
 Integral buffers will be    131072 words long.
 Raffenetti 2 integral format.
 Two-electron integral symmetry is turned on.
 ------------------------------------------------------------------------------
 Polarizable Continuum Model (PCM)
 =================================
 Model                : PCM.
 Atomic radii         : UFF (Universal Force Field).
 Polarization charges : Total charges.
 Charge compensation  : None.
 Solution method      : On-the-fly selection.
 Cavity type          : Scaled VdW (van der Waals Surface) (Alpha=1.100).
 Cavity algorithm     : GePol (No added spheres)
                        Default sphere list used, NSphG=    4.
                        Lebedev-Laikov grids with approx.  5.0 points / Ang**2.
                        Smoothing algorithm: York/Karplus (Gamma=1.0000).
                        Polarization charges: spherical gaussians, with
                                              point-specific exponents (IZeta= 3).
                        Self-potential: point-specific (ISelfS= 7).
                        Self-field    : sphere-specific E.n sum rule (ISelfD= 2).
 Solvent              : Acetonitrile, Eps=  35.688000 Eps(inf)=   1.806874
 ------------------------------------------------------------------------------
 Spheres list:
 ISph  on   Nord     Re0    Alpha      Xe            Ye            Ze
    1   S      1    2.0175  1.100      0.424211     -0.011877     -0.109168
    2   O      2    1.7500  1.100     -1.077750      0.011449      0.053748
    3   H      3    1.4430  1.100      0.876145     -1.032128      0.700188
    4   H      4    1.4430  1.100      0.958476      1.130564      0.616520
 ------------------------------------------------------------------------------
 One-electron integrals computed using PRISM.
 NBasis=    52 RedAO= T EigKep=  4.70D-03  NBF=    52
 NBsUse=    52 1.00D-06 EigRej= -1.00D+00 NBFU=    52
 ExpMin= 4.05D-02 ExpMax= 2.19D+04 ExpMxC= 3.30D+03 IAcc=3 IRadAn=         5 AccDes= 0.00D+00
 Harris functional with IExCor=  402 and IRadAn=       5 diagonalized for initial guess.
 HarFok:  IExCor=  402 AccDes= 0.00D+00 IRadAn=         5 IDoV= 1 UseB2=F ITyADJ=14
 ICtDFT=  3500011 ScaDFX=  1.000000  1.000000  1.000000  1.000000
 FoFCou: FMM=F IPFlag=           0 FMFlag=      100000 FMFlg1=           0
         NFxFlg=           0 DoJE=T BraDBF=F KetDBF=T FulRan=T
         wScrn=  0.000000 ICntrl=       500 IOpCl=  0 I1Cent=   200000004 NGrid=           0
         NMat0=    1 NMatS0=      1 NMatT0=    0 NMatD0=    1 NMtDS0=    0 NMtDT0=    0
 Petite list used in FoFCou.
 Keep R1 ints in memory in canonical form, NReq=2701340.
 Requested convergence on RMS density matrix=1.00D-08 within 128 cycles.
 Requested convergence on MAX density matrix=1.00D-06.
 Requested convergence on             energy=1.00D-06.
 No special actions if energy rises.
 Inv3:  Mode=1 IEnd=     1183152.
 Iteration    1 A*A^-1 deviation from unit magnitude is 2.89D-15 for    628.
 Iteration    1 A*A^-1 deviation from orthogonality  is 1.05D-15 for    422    331.
 Iteration    1 A^-1*A deviation from unit magnitude is 2.78D-15 for    628.
 Iteration    1 A^-1*A deviation from orthogonality  is 3.75D-15 for    514    462.
 Error on total polarization charges =  0.01166
 SCF Done:  E(RB3LYP) =  -474.553318802     A.U. after   10 cycles
            NFock= 10  Conv=0.96D-08     -V/T= 2.0045

 **********************************************************************

            Population analysis using the SCF density.

 **********************************************************************

 Orbital symmetries:
       Occupied  (A) (A) (A) (A) (A) (A) (A) (A) (A) (A) (A) (A)
                 (A)
       Virtual   (A) (A) (A) (A) (A) (A) (A) (A) (A) (A) (A) (A)
                 (A) (A) (A) (A) (A) (A) (A) (A) (A) (A) (A) (A)
                 (A) (A) (A) (A) (A) (A) (A) (A) (A) (A) (A) (A)
                 (A) (A) (A)
 The electronic state is 1-A.
 Alpha  occ. eigenvalues --  -89.01184 -19.13801  -8.06057  -6.02486  -6.02333
 Alpha  occ. eigenvalues --   -6.01755  -1.03046  -0.72631  -0.50316  -0.45318
 Alpha  occ. eigenvalues --   -0.40475  -0.29998  -0.25659
 Alpha virt. eigenvalues --   -0.02976  -0.01063   0.01310   0.05144   0.05552
 Alpha virt. eigenvalues --    0.08594   0.12595   0.18238   0.19225   0.19621
 Alpha virt. eigenvalues --    0.27264   0.42173   0.45764   0.48043   0.58177
 Alpha virt. eigenvalues --    0.63172   0.66890   0.70961   0.71644   0.92622
 Alpha virt. eigenvalues --    1.08218   1.11299   1.21220   1.21884   1.24149
 Alpha virt. eigenvalues --    1.46140   1.80946   1.82213   1.87994   1.95328
 Alpha virt. eigenvalues --    1.98280   2.13818   2.15059   2.19905   2.53285
 Alpha virt. eigenvalues --    2.69685   2.77645   3.93431   4.00269
          Condensed to atoms (all electrons):
               1          2          3          4
     1  S   14.809086   0.060053   0.267890   0.266771
     2  O    0.060053   8.862522  -0.072982  -0.072082
     3  H    0.267890  -0.072982   0.732182  -0.021482
     4  H    0.266771  -0.072082  -0.021482   0.739875
 Mulliken charges:
               1
     1  S    0.596200
     2  O   -0.777511
     3  H    0.094393
     4  H    0.086918
 Sum of Mulliken charges =  -0.00000
 Mulliken charges with hydrogens summed into heavy atoms:
               1
     1  S    0.777511
     2  O   -0.777511
 Electronic spatial extent (au):  <R**2>=            105.8488
 Charge=             -0.0000 electrons
 Dipole moment (field-independent basis, Debye):
    X=              4.9756    Y=             -0.0742    Z=              0.8625  Tot=              5.0503
 Quadrupole moment (field-independent basis, Debye-Ang):
   XX=            -22.3527   YY=            -17.1843   ZZ=            -19.7912
   XY=              0.1030   XZ=              1.4267   YZ=             -0.1708
 Traceless Quadrupole moment (field-independent basis, Debye-Ang):
   XX=             -2.5766   YY=              2.5918   ZZ=             -0.0151
   XY=              0.1030   XZ=              1.4267   YZ=             -0.1708
 Octapole moment (field-independent basis, Debye-Ang**2):
  XXX=              7.7977  YYY=             -0.2022  ZZZ=              0.7720  XYY=              2.3383
  XXY=             -0.0767  XXZ=              0.9549  XZZ=              0.4231  YZZ=             -0.1322
  YYZ=              0.7554  XYZ=             -0.1071
 Hexadecapole moment (field-independent basis, Debye-Ang**3):
 XXXX=            -88.5528 YYYY=            -28.3521 ZZZZ=            -29.1215 XXXY=             -0.0699
 XXXZ=              1.2511 YYYX=              0.0091 YYYZ=             -0.2678 ZZZX=              1.1744
 ZZZY=             -0.4476 XXYY=            -19.1257 XXZZ=            -20.6068 YYZZ=             -9.1992
 XXYZ=             -0.1229 YYXZ=              0.8848 ZZXY=             -0.0704
 N-N= 6.063990071738D+01 E-N=-1.246754897230D+03  KE= 4.724229130700D+02
 1\1\GINC-NODE62\SP\RB3LYP\6-31+G(d,p)\H2O1S1\YANZ\22-Sep-2023\0\\# b3l
 yp/6-31+g(d,p) scrf=(iefpcm,solvent=acetonitrile)\\tmpdir/M2_ref_45.gj
 f\\0,1\S,0,1.92875,-0.028863,1.706983\O,0,2.710581,0.950442,2.551184\H
 ,0,2.86769582,-0.80093098,1.05697874\H,0,1.390234,0.70704381,0.5731068
 8\\Version=ES64L-G16RevA.03\State=1-A\HF=-474.5533188\RMSD=9.602e-09\D
 ipole=-0.6831007,-1.1054109,-1.5031323\Quadrupole=-0.0792739,-0.196543
 8,0.2758177,-2.0206269,-0.3471974,-0.7580089\PG=C01 [X(H2O1S1)]\\@


 MAN IS THE MEASURE OF ALL THINGS.
  -- PROTAGORAS (5TH CENTURY B.C.)
 Job cpu time:       0 days  0 hours  0 minutes 11.1 seconds.
 Elapsed time:       0 days  0 hours  0 minutes  5.7 seconds.
 File lengths (MBytes):  RWF=     13 Int=      0 D2E=      0 Chk=      1 Scr=      1
 Normal termination of Gaussian 16 at Fri Sep 22 17:07:24 2023.
