 Entering Gaussian System, Link 0=g16
 Initial command:
 /share/apps/gaussian/g16/l1.exe "/tmp/55647.mgr/Gau-1859.inp" -scrdir="/tmp/55647.mgr/"
 Entering Link 1 = /share/apps/gaussian/g16/l1.exe PID=      1860.
  
 Copyright (c) 1988,1990,1992,1993,1995,1998,2003,2009,2016,
            Gaussian, Inc.  All Rights Reserved.
  
 This is part of the Gaussian(R) 16 program.  It is based on
 the Gaussian(R) 09 system (copyright 2009, Gaussian, Inc.),
 the Gaussian(R) 03 system (copyright 2003, Gaussian, Inc.),
 the Gaussian(R) 98 system (copyright 1998, Gaussian, Inc.),
 the Gaussian(R) 94 system (copyright 1995, Gaussian, Inc.),
 the Gaussian 92(TM) system (copyright 1992, Gaussian, Inc.),
 the Gaussian 90(TM) system (copyright 1990, Gaussian, Inc.),
 the Gaussian 88(TM) system (copyright 1988, Gaussian, Inc.),
 the Gaussian 86(TM) system (copyright 1986, Carnegie Mellon
 University), and the Gaussian 82(TM) system (copyright 1983,
 Carnegie Mellon University). Gaussian is a federally registered
 trademark of Gaussian, Inc.
  
 This software contains proprietary and confidential information,
 including trade secrets, belonging to Gaussian, Inc.
  
 This software is provided under written license and may be
 used, copied, transmitted, or stored only in accord with that
 written license.
  
 The following legend is applicable only to US Government
 contracts under FAR:
  
                    RESTRICTED RIGHTS LEGEND
  
 Use, reproduction and disclosure by the US Government is
 subject to restrictions as set forth in subparagraphs (a)
 and (c) of the Commercial Computer Software - Restricted
 Rights clause in FAR 52.227-19.
  
 Gaussian, Inc.
 340 Quinnipiac St., Bldg. 40, Wallingford CT 06492
  
  
 ---------------------------------------------------------------
 Warning -- This program may not be used in any manner that
 competes with the business of Gaussian, Inc. or will provide
 assistance to any competitor of Gaussian, Inc.  The licensee
 of this program is prohibited from giving any competitor of
 Gaussian, Inc. access to this program.  By using this program,
 the user acknowledges that Gaussian, Inc. is engaged in the
 business of creating and licensing software in the field of
 computational chemistry and represents and warrants to the
 licensee that it is not a competitor of Gaussian, Inc. and that
 it will not use this program in any manner prohibited above.
 ---------------------------------------------------------------
  

 Cite this work as:
 Gaussian 16, Revision A.03,
 M. J. Frisch, G. W. Trucks, H. B. Schlegel, G. E. Scuseria, 
 M. A. Robb, J. R. Cheeseman, G. Scalmani, V. Barone, 
 G. A. Petersson, H. Nakatsuji, X. Li, M. Caricato, A. V. Marenich, 
 J. Bloino, B. G. Janesko, R. Gomperts, B. Mennucci, H. P. Hratchian, 
 J. V. Ortiz, A. F. Izmaylov, J. L. Sonnenberg, D. Williams-Young, 
 F. Ding, F. Lipparini, F. Egidi, J. Goings, B. Peng, A. Petrone, 
 T. Henderson, D. Ranasinghe, V. G. Zakrzewski, J. Gao, N. Rega, 
 G. Zheng, W. Liang, M. Hada, M. Ehara, K. Toyota, R. Fukuda, 
 J. Hasegawa, M. Ishida, T. Nakajima, Y. Honda, O. Kitao, H. Nakai, 
 T. Vreven, K. Throssell, J. A. Montgomery, Jr., J. E. Peralta, 
 F. Ogliaro, M. J. Bearpark, J. J. Heyd, E. N. Brothers, K. N. Kudin, 
 V. N. Staroverov, T. A. Keith, R. Kobayashi, J. Normand, 
 K. Raghavachari, A. P. Rendell, J. C. Burant, S. S. Iyengar, 
 J. Tomasi, M. Cossi, J. M. Millam, M. Klene, C. Adamo, R. Cammi, 
 J. W. Ochterski, R. L. Martin, K. Morokuma, O. Farkas, 
 J. B. Foresman, and D. J. Fox, Gaussian, Inc., Wallingford CT, 2016.
 
 ******************************************
 Gaussian 16:  ES64L-G16RevA.03 25-Dec-2016
                22-Sep-2023 
 ******************************************
 %nprocshared=2
 Will use up to    2 processors via shared memory.
 %mem=2GB
 ------------------------------------------------------
 # b3lyp/6-31+g(d,p) scrf=(iefpcm,solvent=acetonitrile)
 ------------------------------------------------------
 1/38=1,172=1/1;
 2/12=2,17=6,18=5,40=1/2;
 3/5=1,6=6,7=111,11=2,25=1,30=1,70=2201,72=2,74=-5/1,2,3;
 4//1;
 5/5=2,38=5,53=2/2;
 6/7=2,8=2,9=2,10=2,28=1/1;
 99/5=1,9=1/99;
 ---------------------
 tmpdir/M2_ref_113.gjf
 ---------------------
 Symbolic Z-matrix:
 Charge =  0 Multiplicity = 1
 O                    -3.61698   1.92367  -0.22715 
 S                    -3.83661   0.70238   0.57894 
 C                    -5.04005  -0.3325   -0.26783 
 H                    -2.65149  -0.08631   0.56569 
 O                    -4.26549   0.85346   1.99073 
 O                    -5.16624  -0.22454  -1.48931 
 H                    -5.58619  -0.99317   0.27026 
 
                          Input orientation:                          
 ---------------------------------------------------------------------
 Center     Atomic      Atomic             Coordinates (Angstroms)
 Number     Number       Type             X           Y           Z
 ---------------------------------------------------------------------
      1          8           0       -3.616977    1.923666   -0.227148
      2         16           0       -3.836607    0.702377    0.578940
      3          6           0       -5.040051   -0.332504   -0.267830
      4          1           0       -2.651488   -0.086307    0.565691
      5          8           0       -4.265488    0.853458    1.990729
      6          8           0       -5.166238   -0.224540   -1.489308
      7          1           0       -5.586188   -0.993174    0.270258
 ---------------------------------------------------------------------
                    Distance matrix (angstroms):
                    1          2          3          4          5
     1  O    0.000000
     2  S    1.479717   0.000000
     3  C    2.667789   1.798965   0.000000
     4  H    2.366591   1.423624   2.541772   0.000000
     5  O    2.546545   1.483210   2.665997   2.349231   0.000000
     6  O    2.933947   2.627688   1.232716   3.250553   3.752877
     7  H    3.554316   2.455853   1.012072   3.085798   2.848565
                    6          7
     6  O    0.000000
     7  H    1.965510   0.000000
 Stoichiometry    CH2O3S
 Framework group  C1[X(CH2O3S)]
 Deg. of freedom    15
 Full point group                 C1      NOp   1
 Largest Abelian subgroup         C1      NOp   1
 Largest concise Abelian subgroup C1      NOp   1
                         Standard orientation:                         
 ---------------------------------------------------------------------
 Center     Atomic      Atomic             Coordinates (Angstroms)
 Number     Number       Type             X           Y           Z
 ---------------------------------------------------------------------
      1          8           0       -0.508564    1.434487   -0.239481
      2         16           0       -0.505285    0.034308    0.239112
      3          6           0        1.132841   -0.658260   -0.031390
      4          1           0       -0.641203    0.023964    1.656195
      5          8           0       -1.505796   -0.907304   -0.319686
      6          8           0        2.101176    0.102533   -0.087158
      7          1           0        1.234187   -1.661063   -0.123059
 ---------------------------------------------------------------------
 Rotational constants (GHZ):           8.2248410           3.5132905           2.6489989
 Standard basis: 6-31+G(d,p) (6D, 7F)
 There are   109 symmetry adapted cartesian basis functions of A   symmetry.
 There are   109 symmetry adapted basis functions of A   symmetry.
   109 basis functions,   198 primitive gaussians,   109 cartesian basis functions
    24 alpha electrons       24 beta electrons
       nuclear repulsion energy       242.6575729454 Hartrees.
 NAtoms=    7 NActive=    7 NUniq=    7 SFac= 1.00D+00 NAtFMM=   60 NAOKFM=F Big=F
 Integral buffers will be    131072 words long.
 Raffenetti 2 integral format.
 Two-electron integral symmetry is turned on.
 ------------------------------------------------------------------------------
 Polarizable Continuum Model (PCM)
 =================================
 Model                : PCM.
 Atomic radii         : UFF (Universal Force Field).
 Polarization charges : Total charges.
 Charge compensation  : None.
 Solution method      : On-the-fly selection.
 Cavity type          : Scaled VdW (van der Waals Surface) (Alpha=1.100).
 Cavity algorithm     : GePol (No added spheres)
                        Default sphere list used, NSphG=    7.
                        Lebedev-Laikov grids with approx.  5.0 points / Ang**2.
                        Smoothing algorithm: York/Karplus (Gamma=1.0000).
                        Polarization charges: spherical gaussians, with
                                              point-specific exponents (IZeta= 3).
                        Self-potential: point-specific (ISelfS= 7).
                        Self-field    : sphere-specific E.n sum rule (ISelfD= 2).
 Solvent              : Acetonitrile, Eps=  35.688000 Eps(inf)=   1.806874
 ------------------------------------------------------------------------------
 Spheres list:
 ISph  on   Nord     Re0    Alpha      Xe            Ye            Ze
    1   O      1    1.7500  1.100     -0.508564      1.434487     -0.239481
    2   S      2    2.0175  1.100     -0.505285      0.034308      0.239112
    3   C      3    1.9255  1.100      1.132841     -0.658260     -0.031390
    4   H      4    1.4430  1.100     -0.641203      0.023964      1.656195
    5   O      5    1.7500  1.100     -1.505796     -0.907304     -0.319686
    6   O      6    1.7500  1.100      2.101176      0.102533     -0.087158
    7   H      7    1.4430  1.100      1.234187     -1.661063     -0.123059
 ------------------------------------------------------------------------------
 One-electron integrals computed using PRISM.
 NBasis=   109 RedAO= T EigKep=  5.10D-04  NBF=   109
 NBsUse=   109 1.00D-06 EigRej= -1.00D+00 NBFU=   109
 ExpMin= 4.05D-02 ExpMax= 2.19D+04 ExpMxC= 3.30D+03 IAcc=3 IRadAn=         5 AccDes= 0.00D+00
 Harris functional with IExCor=  402 and IRadAn=       5 diagonalized for initial guess.
 HarFok:  IExCor=  402 AccDes= 0.00D+00 IRadAn=         5 IDoV= 1 UseB2=F ITyADJ=14
 ICtDFT=  3500011 ScaDFX=  1.000000  1.000000  1.000000  1.000000
 FoFCou: FMM=F IPFlag=           0 FMFlag=      100000 FMFlg1=           0
         NFxFlg=           0 DoJE=T BraDBF=F KetDBF=T FulRan=T
         wScrn=  0.000000 ICntrl=       500 IOpCl=  0 I1Cent=   200000004 NGrid=           0
         NMat0=    1 NMatS0=      1 NMatT0=    0 NMatD0=    1 NMtDS0=    0 NMtDT0=    0
 Petite list used in FoFCou.
 Keep R1 ints in memory in canonical form, NReq=19840810.
 Requested convergence on RMS density matrix=1.00D-08 within 128 cycles.
 Requested convergence on MAX density matrix=1.00D-06.
 Requested convergence on             energy=1.00D-06.
 No special actions if energy rises.
 Inv3:  Mode=1 IEnd=     2622675.
 Iteration    1 A*A^-1 deviation from unit magnitude is 3.55D-15 for    916.
 Iteration    1 A*A^-1 deviation from orthogonality  is 2.40D-15 for    921    562.
 Iteration    1 A^-1*A deviation from unit magnitude is 3.44D-15 for    923.
 Iteration    1 A^-1*A deviation from orthogonality  is 1.62D-15 for    922    151.
 Error on total polarization charges =  0.00938
 SCF Done:  E(RB3LYP) =  -663.071472888     A.U. after   13 cycles
            NFock= 13  Conv=0.43D-08     -V/T= 2.0060

 **********************************************************************

            Population analysis using the SCF density.

 **********************************************************************

 Orbital symmetries:
       Occupied  (A) (A) (A) (A) (A) (A) (A) (A) (A) (A) (A) (A)
                 (A) (A) (A) (A) (A) (A) (A) (A) (A) (A) (A) (A)
       Virtual   (A) (A) (A) (A) (A) (A) (A) (A) (A) (A) (A) (A)
                 (A) (A) (A) (A) (A) (A) (A) (A) (A) (A) (A) (A)
                 (A) (A) (A) (A) (A) (A) (A) (A) (A) (A) (A) (A)
                 (A) (A) (A) (A) (A) (A) (A) (A) (A) (A) (A) (A)
                 (A) (A) (A) (A) (A) (A) (A) (A) (A) (A) (A) (A)
                 (A) (A) (A) (A) (A) (A) (A) (A) (A) (A) (A) (A)
                 (A) (A) (A) (A) (A) (A) (A) (A) (A) (A) (A) (A)
                 (A)
 The electronic state is 1-A.
 Alpha  occ. eigenvalues --  -89.13205 -19.23778 -19.18674 -19.18553 -10.34758
 Alpha  occ. eigenvalues --   -8.16361  -6.12766  -6.12703  -6.12652  -1.13837
 Alpha  occ. eigenvalues --   -1.10593  -1.03089  -0.77656  -0.65993  -0.57958
 Alpha  occ. eigenvalues --   -0.52843  -0.51405  -0.48024  -0.44689  -0.38932
 Alpha  occ. eigenvalues --   -0.36108  -0.35618  -0.33972  -0.30955
 Alpha virt. eigenvalues --   -0.12801  -0.01902   0.00104   0.01358   0.02455
 Alpha virt. eigenvalues --    0.04834   0.06518   0.07314   0.08226   0.09095
 Alpha virt. eigenvalues --    0.09500   0.11655   0.14047   0.15476   0.17400
 Alpha virt. eigenvalues --    0.19866   0.21754   0.22532   0.23643   0.24281
 Alpha virt. eigenvalues --    0.25631   0.25942   0.26535   0.28214   0.30007
 Alpha virt. eigenvalues --    0.32518   0.37504   0.42862   0.48116   0.53218
 Alpha virt. eigenvalues --    0.60358   0.61336   0.65859   0.69420   0.73698
 Alpha virt. eigenvalues --    0.77458   0.90221   0.93239   0.94745   1.02688
 Alpha virt. eigenvalues --    1.08354   1.08557   1.15475   1.17118   1.19250
 Alpha virt. eigenvalues --    1.20020   1.22658   1.23734   1.25172   1.26154
 Alpha virt. eigenvalues --    1.27590   1.40474   1.47058   1.49854   1.53199
 Alpha virt. eigenvalues --    1.55451   1.71415   1.77602   1.78022   1.78693
 Alpha virt. eigenvalues --    1.79663   1.81159   1.81223   1.86810   1.95477
 Alpha virt. eigenvalues --    1.97972   2.04482   2.14217   2.16920   2.20147
 Alpha virt. eigenvalues --    2.29666   2.38648   2.47761   2.58287   2.59609
 Alpha virt. eigenvalues --    2.75344   2.81368   2.90728   2.97102   3.52155
 Alpha virt. eigenvalues --    3.91971   3.97901   4.01998   4.13708   4.30879
          Condensed to atoms (all electrons):
               1          2          3          4          5          6
     1  O    8.671026   0.226627  -0.100726  -0.068486  -0.134728   0.016783
     2  S    0.226627  14.280658   0.026927   0.332615   0.131056  -0.097066
     3  C   -0.100726   0.026927   5.367627  -0.041267  -0.045452   0.401398
     4  H   -0.068486   0.332615  -0.041267   0.729062  -0.069725  -0.002579
     5  O   -0.134728   0.131056  -0.045452  -0.069725   8.716400   0.010399
     6  O    0.016783  -0.097066   0.401398  -0.002579   0.010399   8.014995
     7  H    0.007629  -0.039127   0.344538   0.002310   0.004864  -0.049228
               7
     1  O    0.007629
     2  S   -0.039127
     3  C    0.344538
     4  H    0.002310
     5  O    0.004864
     6  O   -0.049228
     7  H    0.506710
 Mulliken charges:
               1
     1  O   -0.618124
     2  S    1.138310
     3  C    0.046955
     4  H    0.118071
     5  O   -0.612814
     6  O   -0.294701
     7  H    0.222303
 Sum of Mulliken charges =  -0.00000
 Mulliken charges with hydrogens summed into heavy atoms:
               1
     1  O   -0.618124
     2  S    1.256380
     3  C    0.269259
     5  O   -0.612814
     6  O   -0.294701
 Electronic spatial extent (au):  <R**2>=            451.8203
 Charge=             -0.0000 electrons
 Dipole moment (field-independent basis, Debye):
    X=              1.7461    Y=             -3.3719    Z=              3.4483  Tot=              5.1292
 Quadrupole moment (field-independent basis, Debye-Ang):
   XX=            -43.4272   YY=            -39.1282   ZZ=            -31.5167
   XY=             -5.0541   XZ=             -2.7396   YZ=              0.3583
 Traceless Quadrupole moment (field-independent basis, Debye-Ang):
   XX=             -5.4032   YY=             -1.1041   ZZ=              6.5073
   XY=             -5.0541   XZ=             -2.7396   YZ=              0.3583
 Octapole moment (field-independent basis, Debye-Ang**2):
  XXX=             -4.4960  YYY=             -9.8322  ZZZ=              5.6058  XYY=              9.1886
  XXY=              0.5360  XXZ=              4.2427  XZZ=             -0.4265  YZZ=             -0.0716
  YYZ=              1.8605  XYZ=              0.6163
 Hexadecapole moment (field-independent basis, Debye-Ang**3):
 XXXX=           -377.5770 YYYY=           -164.5783 ZZZZ=            -47.0524 XXXY=            -12.1063
 XXXZ=             -2.5725 YYYX=             -5.9835 YYYZ=              0.8839 ZZZX=             -4.5700
 ZZZY=              0.2488 XXYY=            -84.0363 XXZZ=            -62.5487 YYZZ=            -36.1951
 XXYZ=             -0.5516 YYXZ=             -1.9863 ZZXY=             -0.7156
 N-N= 2.426575729454D+02 E-N=-2.051726598412D+03  KE= 6.591390140455D+02
 1\1\GINC-NODE62\SP\RB3LYP\6-31+G(d,p)\C1H2O3S1\YANZ\22-Sep-2023\0\\# b
 3lyp/6-31+g(d,p) scrf=(iefpcm,solvent=acetonitrile)\\tmpdir/M2_ref_113
 .gjf\\0,1\O,0,-3.616977,1.923666,-0.227148\S,0,-3.836607,0.702377,0.57
 894\C,0,-5.040051,-0.332504,-0.26783\H,0,-2.65148816,-0.08630702,0.565
 69088\O,0,-4.265488,0.853458,1.990729\O,0,-5.16623758,-0.22453954,-1.4
 8930809\H,0,-5.58618752,-0.99317448,0.27025763\\Version=ES64L-G16RevA.
 03\State=1-A\HF=-663.0714729\RMSD=4.273e-09\Dipole=0.225469,-2.0002232
 ,0.1435394\Quadrupole=5.1369622,1.490613,-6.6275752,-1.2200709,-0.0906
 778,-0.826665\PG=C01 [X(C1H2O3S1)]\\@


 ... FOR AFTERWARDS A MAN FINDS PLEASURE IN HIS PAINS,
 WHEN HE HAS SUFFERED LONG AND WANDERED FAR.

                                    -- HOMER
 Job cpu time:       0 days  0 hours  0 minutes 42.8 seconds.
 Elapsed time:       0 days  0 hours  0 minutes 21.7 seconds.
 File lengths (MBytes):  RWF=     26 Int=      0 D2E=      0 Chk=      2 Scr=      1
 Normal termination of Gaussian 16 at Fri Sep 22 17:09:36 2023.
