 Entering Gaussian System, Link 0=g16
 Initial command:
 /share/apps/gaussian/g16/l1.exe "/tmp/55647.mgr/Gau-317.inp" -scrdir="/tmp/55647.mgr/"
 Entering Link 1 = /share/apps/gaussian/g16/l1.exe PID=       318.
  
 Copyright (c) 1988,1990,1992,1993,1995,1998,2003,2009,2016,
            Gaussian, Inc.  All Rights Reserved.
  
 This is part of the Gaussian(R) 16 program.  It is based on
 the Gaussian(R) 09 system (copyright 2009, Gaussian, Inc.),
 the Gaussian(R) 03 system (copyright 2003, Gaussian, Inc.),
 the Gaussian(R) 98 system (copyright 1998, Gaussian, Inc.),
 the Gaussian(R) 94 system (copyright 1995, Gaussian, Inc.),
 the Gaussian 92(TM) system (copyright 1992, Gaussian, Inc.),
 the Gaussian 90(TM) system (copyright 1990, Gaussian, Inc.),
 the Gaussian 88(TM) system (copyright 1988, Gaussian, Inc.),
 the Gaussian 86(TM) system (copyright 1986, Carnegie Mellon
 University), and the Gaussian 82(TM) system (copyright 1983,
 Carnegie Mellon University). Gaussian is a federally registered
 trademark of Gaussian, Inc.
  
 This software contains proprietary and confidential information,
 including trade secrets, belonging to Gaussian, Inc.
  
 This software is provided under written license and may be
 used, copied, transmitted, or stored only in accord with that
 written license.
  
 The following legend is applicable only to US Government
 contracts under FAR:
  
                    RESTRICTED RIGHTS LEGEND
  
 Use, reproduction and disclosure by the US Government is
 subject to restrictions as set forth in subparagraphs (a)
 and (c) of the Commercial Computer Software - Restricted
 Rights clause in FAR 52.227-19.
  
 Gaussian, Inc.
 340 Quinnipiac St., Bldg. 40, Wallingford CT 06492
  
  
 ---------------------------------------------------------------
 Warning -- This program may not be used in any manner that
 competes with the business of Gaussian, Inc. or will provide
 assistance to any competitor of Gaussian, Inc.  The licensee
 of this program is prohibited from giving any competitor of
 Gaussian, Inc. access to this program.  By using this program,
 the user acknowledges that Gaussian, Inc. is engaged in the
 business of creating and licensing software in the field of
 computational chemistry and represents and warrants to the
 licensee that it is not a competitor of Gaussian, Inc. and that
 it will not use this program in any manner prohibited above.
 ---------------------------------------------------------------
  

 Cite this work as:
 Gaussian 16, Revision A.03,
 M. J. Frisch, G. W. Trucks, H. B. Schlegel, G. E. Scuseria, 
 M. A. Robb, J. R. Cheeseman, G. Scalmani, V. Barone, 
 G. A. Petersson, H. Nakatsuji, X. Li, M. Caricato, A. V. Marenich, 
 J. Bloino, B. G. Janesko, R. Gomperts, B. Mennucci, H. P. Hratchian, 
 J. V. Ortiz, A. F. Izmaylov, J. L. Sonnenberg, D. Williams-Young, 
 F. Ding, F. Lipparini, F. Egidi, J. Goings, B. Peng, A. Petrone, 
 T. Henderson, D. Ranasinghe, V. G. Zakrzewski, J. Gao, N. Rega, 
 G. Zheng, W. Liang, M. Hada, M. Ehara, K. Toyota, R. Fukuda, 
 J. Hasegawa, M. Ishida, T. Nakajima, Y. Honda, O. Kitao, H. Nakai, 
 T. Vreven, K. Throssell, J. A. Montgomery, Jr., J. E. Peralta, 
 F. Ogliaro, M. J. Bearpark, J. J. Heyd, E. N. Brothers, K. N. Kudin, 
 V. N. Staroverov, T. A. Keith, R. Kobayashi, J. Normand, 
 K. Raghavachari, A. P. Rendell, J. C. Burant, S. S. Iyengar, 
 J. Tomasi, M. Cossi, J. M. Millam, M. Klene, C. Adamo, R. Cammi, 
 J. W. Ochterski, R. L. Martin, K. Morokuma, O. Farkas, 
 J. B. Foresman, and D. J. Fox, Gaussian, Inc., Wallingford CT, 2016.
 
 ******************************************
 Gaussian 16:  ES64L-G16RevA.03 25-Dec-2016
                22-Sep-2023 
 ******************************************
 %nprocshared=2
 Will use up to    2 processors via shared memory.
 %mem=2GB
 ------------------------------------------------------
 # b3lyp/6-31+g(d,p) scrf=(iefpcm,solvent=acetonitrile)
 ------------------------------------------------------
 1/38=1,172=1/1;
 2/12=2,17=6,18=5,40=1/2;
 3/5=1,6=6,7=111,11=2,25=1,30=1,70=2201,72=2,74=-5/1,2,3;
 4//1;
 5/5=2,38=5,53=2/2;
 6/7=2,8=2,9=2,10=2,28=1/1;
 99/5=1,9=1/99;
 --------------------
 tmpdir/M2_ref_32.gjf
 --------------------
 Symbolic Z-matrix:
 Charge =  0 Multiplicity = 1
 C                     5.05368  -2.72183  -0.34813 
 C                     6.07368  -3.64337  -0.9717 
 O                     5.40365  -1.69284   0.24425 
 H                     4.06164  -2.94594  -0.38459 
 H                     6.3249   -4.4619   -0.28584 
 H                     5.69151  -4.09567  -1.89163 
 H                     7.00074  -3.1128   -1.20514 
 
                          Input orientation:                          
 ---------------------------------------------------------------------
 Center     Atomic      Atomic             Coordinates (Angstroms)
 Number     Number       Type             X           Y           Z
 ---------------------------------------------------------------------
      1          6           0        5.053677   -2.721825   -0.348130
      2          6           0        6.073683   -3.643374   -0.971696
      3          8           0        5.403649   -1.692844    0.244248
      4          1           0        4.061640   -2.945944   -0.384586
      5          1           0        6.324900   -4.461896   -0.285836
      6          1           0        5.691510   -4.095671   -1.891627
      7          1           0        7.000739   -3.112802   -1.205142
 ---------------------------------------------------------------------
                    Distance matrix (angstroms):
                    1          2          3          4          5
     1  C    0.000000
     2  C    1.509470   0.000000
     3  O    1.237818   2.394166   0.000000
     4  H    1.017691   2.208941   1.940794   0.000000
     5  H    2.155861   1.097038   2.966031   2.725840   0.000000
     6  H    2.162560   1.094030   3.227755   2.499903   1.764616
     7  H    2.162957   1.093360   2.582190   3.056052   1.766900
                    6          7
     6  H    0.000000
     7  H    1.775211   0.000000
 Stoichiometry    C2H4O
 Framework group  C1[X(C2H4O)]
 Deg. of freedom    15
 Full point group                 C1      NOp   1
 Largest Abelian subgroup         C1      NOp   1
 Largest concise Abelian subgroup C1      NOp   1
                         Standard orientation:                         
 ---------------------------------------------------------------------
 Center     Atomic      Atomic             Coordinates (Angstroms)
 Number     Number       Type             X           Y           Z
 ---------------------------------------------------------------------
      1          6           0        0.230346    0.439442   -0.005451
      2          6           0       -1.163111   -0.140872   -0.001972
      3          8           0        1.226027   -0.295929    0.001171
      4          1           0        0.372405    1.447031    0.011231
      5          1           0       -1.557435   -0.192295    1.020455
      6          1           0       -1.852575    0.476164   -0.585760
      7          1           0       -1.174020   -1.154882   -0.410753
 ---------------------------------------------------------------------
 Rotational constants (GHZ):          54.9541267          10.1984512           9.0863989
 Standard basis: 6-31+G(d,p) (6D, 7F)
 There are    77 symmetry adapted cartesian basis functions of A   symmetry.
 There are    77 symmetry adapted basis functions of A   symmetry.
    77 basis functions,   124 primitive gaussians,    77 cartesian basis functions
    12 alpha electrons       12 beta electrons
       nuclear repulsion energy        69.4528082957 Hartrees.
 NAtoms=    7 NActive=    7 NUniq=    7 SFac= 1.00D+00 NAtFMM=   60 NAOKFM=F Big=F
 Integral buffers will be    131072 words long.
 Raffenetti 2 integral format.
 Two-electron integral symmetry is turned on.
 ------------------------------------------------------------------------------
 Polarizable Continuum Model (PCM)
 =================================
 Model                : PCM.
 Atomic radii         : UFF (Universal Force Field).
 Polarization charges : Total charges.
 Charge compensation  : None.
 Solution method      : On-the-fly selection.
 Cavity type          : Scaled VdW (van der Waals Surface) (Alpha=1.100).
 Cavity algorithm     : GePol (No added spheres)
                        Default sphere list used, NSphG=    7.
                        Lebedev-Laikov grids with approx.  5.0 points / Ang**2.
                        Smoothing algorithm: York/Karplus (Gamma=1.0000).
                        Polarization charges: spherical gaussians, with
                                              point-specific exponents (IZeta= 3).
                        Self-potential: point-specific (ISelfS= 7).
                        Self-field    : sphere-specific E.n sum rule (ISelfD= 2).
 Solvent              : Acetonitrile, Eps=  35.688000 Eps(inf)=   1.806874
 ------------------------------------------------------------------------------
 Spheres list:
 ISph  on   Nord     Re0    Alpha      Xe            Ye            Ze
    1   C      1    1.9255  1.100      0.230346      0.439442     -0.005451
    2   C      2    1.9255  1.100     -1.163111     -0.140872     -0.001972
    3   O      3    1.7500  1.100      1.226027     -0.295929      0.001171
    4   H      4    1.4430  1.100      0.372405      1.447031      0.011231
    5   H      5    1.4430  1.100     -1.557435     -0.192295      1.020455
    6   H      6    1.4430  1.100     -1.852575      0.476164     -0.585760
    7   H      7    1.4430  1.100     -1.174020     -1.154882     -0.410753
 ------------------------------------------------------------------------------
 One-electron integrals computed using PRISM.
 NBasis=    77 RedAO= T EigKep=  3.07D-04  NBF=    77
 NBsUse=    77 1.00D-06 EigRej= -1.00D+00 NBFU=    77
 ExpMin= 4.38D-02 ExpMax= 5.48D+03 ExpMxC= 8.25D+02 IAcc=3 IRadAn=         5 AccDes= 0.00D+00
 Harris functional with IExCor=  402 and IRadAn=       5 diagonalized for initial guess.
 HarFok:  IExCor=  402 AccDes= 0.00D+00 IRadAn=         5 IDoV= 1 UseB2=F ITyADJ=14
 ICtDFT=  3500011 ScaDFX=  1.000000  1.000000  1.000000  1.000000
 FoFCou: FMM=F IPFlag=           0 FMFlag=      100000 FMFlg1=           0
         NFxFlg=           0 DoJE=T BraDBF=F KetDBF=T FulRan=T
         wScrn=  0.000000 ICntrl=       500 IOpCl=  0 I1Cent=   200000004 NGrid=           0
         NMat0=    1 NMatS0=      1 NMatT0=    0 NMatD0=    1 NMtDS0=    0 NMtDT0=    0
 Petite list used in FoFCou.
 Keep R1 ints in memory in canonical form, NReq=6311963.
 Requested convergence on RMS density matrix=1.00D-08 within 128 cycles.
 Requested convergence on MAX density matrix=1.00D-06.
 Requested convergence on             energy=1.00D-06.
 No special actions if energy rises.
 Inv3:  Mode=1 IEnd=     1625088.
 Iteration    1 A*A^-1 deviation from unit magnitude is 2.66D-15 for    733.
 Iteration    1 A*A^-1 deviation from orthogonality  is 1.79D-15 for    522    253.
 Iteration    1 A^-1*A deviation from unit magnitude is 2.78D-15 for    706.
 Iteration    1 A^-1*A deviation from orthogonality  is 1.08D-15 for    532    293.
 Error on total polarization charges =  0.00929
 SCF Done:  E(RB3LYP) =  -153.844837227     A.U. after   10 cycles
            NFock= 10  Conv=0.88D-08     -V/T= 2.0093

 **********************************************************************

            Population analysis using the SCF density.

 **********************************************************************

 Orbital symmetries:
       Occupied  (A) (A) (A) (A) (A) (A) (A) (A) (A) (A) (A) (A)
       Virtual   (A) (A) (A) (A) (A) (A) (A) (A) (A) (A) (A) (A)
                 (A) (A) (A) (A) (A) (A) (A) (A) (A) (A) (A) (A)
                 (A) (A) (A) (A) (A) (A) (A) (A) (A) (A) (A) (A)
                 (A) (A) (A) (A) (A) (A) (A) (A) (A) (A) (A) (A)
                 (A) (A) (A) (A) (A) (A) (A) (A) (A) (A) (A) (A)
                 (A) (A) (A) (A) (A)
 The electronic state is 1-A.
 Alpha  occ. eigenvalues --  -19.16906 -10.28947 -10.19650  -1.05156  -0.75351
 Alpha  occ. eigenvalues --   -0.60870  -0.48800  -0.44506  -0.44366  -0.39885
 Alpha  occ. eigenvalues --   -0.36947  -0.27409
 Alpha virt. eigenvalues --   -0.04947   0.01661   0.03355   0.04700   0.05807
 Alpha virt. eigenvalues --    0.08047   0.08409   0.09664   0.14571   0.16640
 Alpha virt. eigenvalues --    0.16728   0.21548   0.22265   0.24695   0.25422
 Alpha virt. eigenvalues --    0.27771   0.31208   0.31651   0.40389   0.63196
 Alpha virt. eigenvalues --    0.63745   0.66624   0.67185   0.71446   0.75776
 Alpha virt. eigenvalues --    0.90669   0.92885   0.97745   1.03882   1.07588
 Alpha virt. eigenvalues --    1.18896   1.19560   1.25415   1.27073   1.29875
 Alpha virt. eigenvalues --    1.44910   1.50356   1.60043   1.70216   1.78277
 Alpha virt. eigenvalues --    1.80802   1.88678   2.01689   2.03202   2.07353
 Alpha virt. eigenvalues --    2.09302   2.16397   2.25435   2.30628   2.37521
 Alpha virt. eigenvalues --    2.53497   2.59283   2.67004   2.68347   2.84349
 Alpha virt. eigenvalues --    2.85499   3.02453   3.04568   3.24151   3.40438
 Alpha virt. eigenvalues --    3.43192   3.60022   4.11578   4.28616   4.54780
          Condensed to atoms (all electrons):
               1          2          3          4          5          6
     1  C    4.666683   0.300608   0.432604   0.410238  -0.012579  -0.027002
     2  C    0.300608   5.275468  -0.124636  -0.095405   0.370975   0.377077
     3  O    0.432604  -0.124636   8.227839  -0.071281  -0.003493   0.005296
     4  H    0.410238  -0.095405  -0.071281   0.605468   0.001323   0.000917
     5  H   -0.012579   0.370975  -0.003493   0.001323   0.492031  -0.023326
     6  H   -0.027002   0.377077   0.005296   0.000917  -0.023326   0.515604
     7  H   -0.042978   0.407236  -0.002581   0.003273  -0.020999  -0.025531
               7
     1  C   -0.042978
     2  C    0.407236
     3  O   -0.002581
     4  H    0.003273
     5  H   -0.020999
     6  H   -0.025531
     7  H    0.497433
 Mulliken charges:
               1
     1  C    0.272426
     2  C   -0.511322
     3  O   -0.463749
     4  H    0.145467
     5  H    0.196067
     6  H    0.176965
     7  H    0.184146
 Sum of Mulliken charges =  -0.00000
 Mulliken charges with hydrogens summed into heavy atoms:
               1
     1  C    0.417893
     2  C    0.045856
     3  O   -0.463749
 Electronic spatial extent (au):  <R**2>=            167.8485
 Charge=             -0.0000 electrons
 Dipole moment (field-independent basis, Debye):
    X=             -3.3600    Y=              1.8238    Z=              0.0795  Tot=              3.8239
 Quadrupole moment (field-independent basis, Debye-Ang):
   XX=            -21.6734   YY=            -17.7550   ZZ=            -17.9415
   XY=              1.5964   XZ=             -0.1438   YZ=             -0.0209
 Traceless Quadrupole moment (field-independent basis, Debye-Ang):
   XX=             -2.5501   YY=              1.3683   ZZ=              1.1818
   XY=              1.5964   XZ=             -0.1438   YZ=             -0.0209
 Octapole moment (field-independent basis, Debye-Ang**2):
  XXX=             -5.3895  YYY=              1.8195  ZZZ=              0.8012  XYY=              0.3627
  XXY=              1.3378  XXZ=              0.1130  XZZ=             -0.0401  YZZ=              0.1349
  YYZ=             -0.5119  XYZ=              0.2378
 Hexadecapole moment (field-independent basis, Debye-Ang**3):
 XXXX=           -157.3305 YYYY=            -41.5274 ZZZZ=            -24.2274 XXXY=             -0.5826
 XXXZ=              0.0791 YYYX=              1.9326 YYYZ=              0.6245 ZZZX=             -1.3293
 ZZZY=             -0.2747 XXYY=            -32.0521 XXZZ=            -27.4435 YYZZ=            -11.4678
 XXYZ=             -0.7807 YYXZ=              0.7485 ZZXY=             -0.1216
 N-N= 6.945280829575D+01 E-N=-4.979201021363D+02  KE= 1.524236737288D+02
 1\1\GINC-NODE62\SP\RB3LYP\6-31+G(d,p)\C2H4O1\YANZ\22-Sep-2023\0\\# b3l
 yp/6-31+g(d,p) scrf=(iefpcm,solvent=acetonitrile)\\tmpdir/M2_ref_32.gj
 f\\0,1\C,0,5.053677,-2.721825,-0.34813\C,0,6.073683,-3.643374,-0.97169
 6\O,0,5.40364946,-1.69284424,0.24424807\H,0,4.06164046,-2.94594445,-0.
 38458635\H,0,6.3249,-4.461896,-0.285836\H,0,5.69151,-4.095671,-1.89162
 7\H,0,7.000739,-3.112802,-1.205142\\Version=ES64L-G16RevA.03\State=1-A
 \HF=-153.8448372\RMSD=8.784e-09\Dipole=-0.2193252,-1.3021501,-0.720842
 8\Quadrupole=1.4437085,-1.3989237,-0.0447848,0.0114573,0.0222385,-1.44
 87135\PG=C01 [X(C2H4O1)]\\@


 ... IT CAN BE VERY DIFFICULT, IN THESE COMPLEX TIMES,
 TO UNDERSTAND JUST HOW SCIENTISTS DO WHAT THEY DO.

                     DON MOSER IN THE FEBRUARY 1979 SMITHSONIAN
 Job cpu time:       0 days  0 hours  0 minutes 22.6 seconds.
 Elapsed time:       0 days  0 hours  0 minutes 11.5 seconds.
 File lengths (MBytes):  RWF=     16 Int=      0 D2E=      0 Chk=      2 Scr=      1
 Normal termination of Gaussian 16 at Fri Sep 22 17:07:18 2023.
