 Entering Gaussian System, Link 0=g16
 Initial command:
 /share/apps/gaussian/g16/l1.exe "/tmp/55647.mgr/Gau-773.inp" -scrdir="/tmp/55647.mgr/"
 Entering Link 1 = /share/apps/gaussian/g16/l1.exe PID=       774.
  
 Copyright (c) 1988,1990,1992,1993,1995,1998,2003,2009,2016,
            Gaussian, Inc.  All Rights Reserved.
  
 This is part of the Gaussian(R) 16 program.  It is based on
 the Gaussian(R) 09 system (copyright 2009, Gaussian, Inc.),
 the Gaussian(R) 03 system (copyright 2003, Gaussian, Inc.),
 the Gaussian(R) 98 system (copyright 1998, Gaussian, Inc.),
 the Gaussian(R) 94 system (copyright 1995, Gaussian, Inc.),
 the Gaussian 92(TM) system (copyright 1992, Gaussian, Inc.),
 the Gaussian 90(TM) system (copyright 1990, Gaussian, Inc.),
 the Gaussian 88(TM) system (copyright 1988, Gaussian, Inc.),
 the Gaussian 86(TM) system (copyright 1986, Carnegie Mellon
 University), and the Gaussian 82(TM) system (copyright 1983,
 Carnegie Mellon University). Gaussian is a federally registered
 trademark of Gaussian, Inc.
  
 This software contains proprietary and confidential information,
 including trade secrets, belonging to Gaussian, Inc.
  
 This software is provided under written license and may be
 used, copied, transmitted, or stored only in accord with that
 written license.
  
 The following legend is applicable only to US Government
 contracts under FAR:
  
                    RESTRICTED RIGHTS LEGEND
  
 Use, reproduction and disclosure by the US Government is
 subject to restrictions as set forth in subparagraphs (a)
 and (c) of the Commercial Computer Software - Restricted
 Rights clause in FAR 52.227-19.
  
 Gaussian, Inc.
 340 Quinnipiac St., Bldg. 40, Wallingford CT 06492
  
  
 ---------------------------------------------------------------
 Warning -- This program may not be used in any manner that
 competes with the business of Gaussian, Inc. or will provide
 assistance to any competitor of Gaussian, Inc.  The licensee
 of this program is prohibited from giving any competitor of
 Gaussian, Inc. access to this program.  By using this program,
 the user acknowledges that Gaussian, Inc. is engaged in the
 business of creating and licensing software in the field of
 computational chemistry and represents and warrants to the
 licensee that it is not a competitor of Gaussian, Inc. and that
 it will not use this program in any manner prohibited above.
 ---------------------------------------------------------------
  

 Cite this work as:
 Gaussian 16, Revision A.03,
 M. J. Frisch, G. W. Trucks, H. B. Schlegel, G. E. Scuseria, 
 M. A. Robb, J. R. Cheeseman, G. Scalmani, V. Barone, 
 G. A. Petersson, H. Nakatsuji, X. Li, M. Caricato, A. V. Marenich, 
 J. Bloino, B. G. Janesko, R. Gomperts, B. Mennucci, H. P. Hratchian, 
 J. V. Ortiz, A. F. Izmaylov, J. L. Sonnenberg, D. Williams-Young, 
 F. Ding, F. Lipparini, F. Egidi, J. Goings, B. Peng, A. Petrone, 
 T. Henderson, D. Ranasinghe, V. G. Zakrzewski, J. Gao, N. Rega, 
 G. Zheng, W. Liang, M. Hada, M. Ehara, K. Toyota, R. Fukuda, 
 J. Hasegawa, M. Ishida, T. Nakajima, Y. Honda, O. Kitao, H. Nakai, 
 T. Vreven, K. Throssell, J. A. Montgomery, Jr., J. E. Peralta, 
 F. Ogliaro, M. J. Bearpark, J. J. Heyd, E. N. Brothers, K. N. Kudin, 
 V. N. Staroverov, T. A. Keith, R. Kobayashi, J. Normand, 
 K. Raghavachari, A. P. Rendell, J. C. Burant, S. S. Iyengar, 
 J. Tomasi, M. Cossi, J. M. Millam, M. Klene, C. Adamo, R. Cammi, 
 J. W. Ochterski, R. L. Martin, K. Morokuma, O. Farkas, 
 J. B. Foresman, and D. J. Fox, Gaussian, Inc., Wallingford CT, 2016.
 
 ******************************************
 Gaussian 16:  ES64L-G16RevA.03 25-Dec-2016
                22-Sep-2023 
 ******************************************
 %nprocshared=2
 Will use up to    2 processors via shared memory.
 %mem=2GB
 ------------------------------------------------------
 # b3lyp/6-31+g(d,p) scrf=(iefpcm,solvent=acetonitrile)
 ------------------------------------------------------
 1/38=1,172=1/1;
 2/12=2,17=6,18=5,40=1/2;
 3/5=1,6=6,7=111,11=2,25=1,30=1,70=2201,72=2,74=-5/1,2,3;
 4//1;
 5/5=2,38=5,53=2/2;
 6/7=2,8=2,9=2,10=2,28=1/1;
 99/5=1,9=1/99;
 --------------------
 tmpdir/M2_ref_64.gjf
 --------------------
 Symbolic Z-matrix:
 Charge =  0 Multiplicity = 1
 C                     3.54116   3.47905  -1.05996 
 C                     2.64941   2.80929  -0.21645 
 H                     2.31761   3.25887   0.71297 
 H                     3.83469   3.05241  -1.92908 
 H                     3.9117    4.46046  -0.77997 
 H                     2.30402   1.89322  -0.47684 
 
                          Input orientation:                          
 ---------------------------------------------------------------------
 Center     Atomic      Atomic             Coordinates (Angstroms)
 Number     Number       Type             X           Y           Z
 ---------------------------------------------------------------------
      1          6           0        3.541156    3.479054   -1.059960
      2          6           0        2.649409    2.809285   -0.216445
      3          1           0        2.317607    3.258866    0.712967
      4          1           0        3.834687    3.052409   -1.929082
      5          1           0        3.911703    4.460463   -0.779971
      6          1           0        2.304016    1.893216   -0.476841
 ---------------------------------------------------------------------
                    Distance matrix (angstroms):
                    1          2          3          4          5
     1  C    0.000000
     2  C    1.398328   0.000000
     3  H    2.165369   1.084446   0.000000
     4  H    1.011711   2.096931   3.053617   0.000000
     5  H    1.085754   2.153448   2.492758   1.819067   0.000000
     6  H    2.094141   1.013057   1.811306   2.407423   3.044224
                    6
     6  H    0.000000
 Stoichiometry    C2H4
 Framework group  C1[X(C2H4)]
 Deg. of freedom    12
 Full point group                 C1      NOp   1
 Largest Abelian subgroup         C1      NOp   1
 Largest concise Abelian subgroup C1      NOp   1
                         Standard orientation:                         
 ---------------------------------------------------------------------
 Center     Atomic      Atomic             Coordinates (Angstroms)
 Number     Number       Type             X           Y           Z
 ---------------------------------------------------------------------
      1          6           0       -0.700057   -0.007316   -0.000655
      2          6           0        0.698271   -0.007499   -0.000560
      3          1           0        1.255301    0.922939    0.004486
      4          1           0       -1.207290   -0.882670    0.004865
      5          1           0       -1.237416    0.936139   -0.000948
      6          1           0        1.200120   -0.887517   -0.001112
 ---------------------------------------------------------------------
 Rotational constants (GHZ):         152.1382327          28.4179470          23.9453343
 Standard basis: 6-31+G(d,p) (6D, 7F)
 There are    58 symmetry adapted cartesian basis functions of A   symmetry.
 There are    58 symmetry adapted basis functions of A   symmetry.
    58 basis functions,    92 primitive gaussians,    58 cartesian basis functions
     8 alpha electrons        8 beta electrons
       nuclear repulsion energy        33.0815436490 Hartrees.
 NAtoms=    6 NActive=    6 NUniq=    6 SFac= 1.00D+00 NAtFMM=   60 NAOKFM=F Big=F
 Integral buffers will be    131072 words long.
 Raffenetti 2 integral format.
 Two-electron integral symmetry is turned on.
 ------------------------------------------------------------------------------
 Polarizable Continuum Model (PCM)
 =================================
 Model                : PCM.
 Atomic radii         : UFF (Universal Force Field).
 Polarization charges : Total charges.
 Charge compensation  : None.
 Solution method      : On-the-fly selection.
 Cavity type          : Scaled VdW (van der Waals Surface) (Alpha=1.100).
 Cavity algorithm     : GePol (No added spheres)
                        Default sphere list used, NSphG=    6.
                        Lebedev-Laikov grids with approx.  5.0 points / Ang**2.
                        Smoothing algorithm: York/Karplus (Gamma=1.0000).
                        Polarization charges: spherical gaussians, with
                                              point-specific exponents (IZeta= 3).
                        Self-potential: point-specific (ISelfS= 7).
                        Self-field    : sphere-specific E.n sum rule (ISelfD= 2).
 Solvent              : Acetonitrile, Eps=  35.688000 Eps(inf)=   1.806874
 ------------------------------------------------------------------------------
 Spheres list:
 ISph  on   Nord     Re0    Alpha      Xe            Ye            Ze
    1   C      1    1.9255  1.100     -0.700057     -0.007316     -0.000655
    2   C      2    1.9255  1.100      0.698271     -0.007499     -0.000560
    3   H      3    1.4430  1.100      1.255301      0.922939      0.004486
    4   H      4    1.4430  1.100     -1.207290     -0.882670      0.004865
    5   H      5    1.4430  1.100     -1.237416      0.936139     -0.000948
    6   H      6    1.4430  1.100      1.200120     -0.887517     -0.001112
 ------------------------------------------------------------------------------
 One-electron integrals computed using PRISM.
 NBasis=    58 RedAO= T EigKep=  2.84D-04  NBF=    58
 NBsUse=    58 1.00D-06 EigRej= -1.00D+00 NBFU=    58
 ExpMin= 4.38D-02 ExpMax= 3.05D+03 ExpMxC= 4.57D+02 IAcc=3 IRadAn=         5 AccDes= 0.00D+00
 Harris functional with IExCor=  402 and IRadAn=       5 diagonalized for initial guess.
 HarFok:  IExCor=  402 AccDes= 0.00D+00 IRadAn=         5 IDoV= 1 UseB2=F ITyADJ=14
 ICtDFT=  3500011 ScaDFX=  1.000000  1.000000  1.000000  1.000000
 FoFCou: FMM=F IPFlag=           0 FMFlag=      100000 FMFlg1=           0
         NFxFlg=           0 DoJE=T BraDBF=F KetDBF=T FulRan=T
         wScrn=  0.000000 ICntrl=       500 IOpCl=  0 I1Cent=   200000004 NGrid=           0
         NMat0=    1 NMatS0=      1 NMatT0=    0 NMatD0=    1 NMtDS0=    0 NMtDT0=    0
 Petite list used in FoFCou.
 Keep R1 ints in memory in canonical form, NReq=3224596.
 Requested convergence on RMS density matrix=1.00D-08 within 128 cycles.
 Requested convergence on MAX density matrix=1.00D-06.
 Requested convergence on             energy=1.00D-06.
 No special actions if energy rises.
 Inv3:  Mode=1 IEnd=     1153200.
 Iteration    1 A*A^-1 deviation from unit magnitude is 2.66D-15 for     57.
 Iteration    1 A*A^-1 deviation from orthogonality  is 1.75D-15 for    472    294.
 Iteration    1 A^-1*A deviation from unit magnitude is 2.44D-15 for     57.
 Iteration    1 A^-1*A deviation from orthogonality  is 1.41D-15 for    521    169.
 Error on total polarization charges =  0.01284
 SCF Done:  E(RB3LYP) =  -78.5888579387     A.U. after    9 cycles
            NFock=  9  Conv=0.31D-08     -V/T= 2.0099

 **********************************************************************

            Population analysis using the SCF density.

 **********************************************************************

 Orbital symmetries:
       Occupied  (A) (A) (A) (A) (A) (A) (A) (A)
       Virtual   (A) (A) (A) (A) (A) (A) (A) (A) (A) (A) (A) (A)
                 (A) (A) (A) (A) (A) (A) (A) (A) (A) (A) (A) (A)
                 (A) (A) (A) (A) (A) (A) (A) (A) (A) (A) (A) (A)
                 (A) (A) (A) (A) (A) (A) (A) (A) (A) (A) (A) (A)
                 (A) (A)
 The electronic state is 1-A.
 Alpha  occ. eigenvalues --  -10.19595 -10.19537  -0.75833  -0.59926  -0.48018
 Alpha  occ. eigenvalues --   -0.41395  -0.37821  -0.27088
 Alpha virt. eigenvalues --   -0.02237   0.02539   0.03704   0.05218   0.06701
 Alpha virt. eigenvalues --    0.08822   0.09085   0.12408   0.16010   0.18263
 Alpha virt. eigenvalues --    0.21957   0.25639   0.32524   0.35432   0.58389
 Alpha virt. eigenvalues --    0.63220   0.67757   0.71557   0.71943   0.81194
 Alpha virt. eigenvalues --    0.91877   0.92760   0.98158   1.02406   1.13012
 Alpha virt. eigenvalues --    1.19893   1.36986   1.38133   1.50106   1.87302
 Alpha virt. eigenvalues --    1.91804   1.97267   2.00779   2.09708   2.11582
 Alpha virt. eigenvalues --    2.25367   2.37094   2.50826   2.51826   2.56735
 Alpha virt. eigenvalues --    2.72945   2.77407   2.79008   3.02104   3.26053
 Alpha virt. eigenvalues --    3.47466   3.58619   3.79384   4.20168   4.49947
          Condensed to atoms (all electrons):
               1          2          3          4          5          6
     1  C    4.905194   0.661870  -0.029442   0.402368   0.392027  -0.033561
     2  C    0.661870   4.909011   0.391654  -0.034127  -0.030765   0.401129
     3  H   -0.029442   0.391654   0.526233   0.004237  -0.007070  -0.035875
     4  H    0.402368  -0.034127   0.004237   0.521655  -0.035269  -0.007920
     5  H    0.392027  -0.030765  -0.007070  -0.035269   0.527177   0.004345
     6  H   -0.033561   0.401129  -0.035875  -0.007920   0.004345   0.523529
 Mulliken charges:
               1
     1  C   -0.298455
     2  C   -0.298772
     3  H    0.150263
     4  H    0.149056
     5  H    0.149555
     6  H    0.148354
 Sum of Mulliken charges =  -0.00000
 Mulliken charges with hydrogens summed into heavy atoms:
               1
     1  C    0.000155
     2  C   -0.000155
 Electronic spatial extent (au):  <R**2>=             84.3978
 Charge=             -0.0000 electrons
 Dipole moment (field-independent basis, Debye):
    X=              0.0063    Y=             -0.0415    Z=              0.0095  Tot=              0.0431
 Quadrupole moment (field-independent basis, Debye-Ang):
   XX=            -12.2557   YY=            -12.2283   ZZ=            -16.1864
   XY=              0.0297   XZ=             -0.0006   YZ=             -0.0003
 Traceless Quadrupole moment (field-independent basis, Debye-Ang):
   XX=              1.3011   YY=              1.3285   ZZ=             -2.6296
   XY=              0.0297   XZ=             -0.0006   YZ=             -0.0003
 Octapole moment (field-independent basis, Debye-Ang**2):
  XXX=              0.0658  YYY=             -0.1825  ZZZ=              0.0201  XYY=             -0.0188
  XXY=             -0.0036  XXZ=              0.0217  XZZ=              0.0043  YZZ=             -0.1385
  YYZ=              0.0128  XYZ=              0.0182
 Hexadecapole moment (field-independent basis, Debye-Ang**3):
 XXXX=            -71.9671 YYYY=            -26.8404 ZZZZ=            -23.6990 XXXY=              0.1629
 XXXZ=             -0.0014 YYYX=              0.0186 YYYZ=             -0.0010 ZZZX=             -0.0021
 ZZZY=             -0.0013 XXYY=            -13.9258 XXZZ=            -17.0358 YYZZ=             -9.0549
 XXYZ=              0.0002 YYXZ=             -0.0002 ZZXY=              0.0123
 N-N= 3.308154364902D+01 E-N=-2.474239763164D+02  KE= 7.781823235884D+01
 1\1\GINC-NODE62\SP\RB3LYP\6-31+G(d,p)\C2H4\YANZ\22-Sep-2023\0\\# b3lyp
 /6-31+g(d,p) scrf=(iefpcm,solvent=acetonitrile)\\tmpdir/M2_ref_64.gjf\
 \0,1\C,0,3.541156,3.479054,-1.05996\C,0,2.649409,2.809285,-0.216445\H,
 0,2.317607,3.258866,0.712967\H,0,3.83468671,3.05240862,-1.92908214\H,0
 ,3.911703,4.460463,-0.779971\H,0,2.30401621,1.89321595,-0.47684127\\Ve
 rsion=ES64L-G16RevA.03\State=1-A\HF=-78.5888579\RMSD=3.139e-09\Dipole=
 -0.0049331,-0.0121551,-0.0107321\Quadrupole=-0.7654905,0.4328708,0.332
 6196,0.947647,-1.0775472,0.6051191\PG=C01 [X(C2H4)]\\@


 IT IS BY LOGIC THAT WE PROVE, BUT BY INTUITION THAT WE DISCOVER.
     -- J.H.POINCARE (1854-1912)
 Job cpu time:       0 days  0 hours  0 minutes 12.2 seconds.
 Elapsed time:       0 days  0 hours  0 minutes  6.2 seconds.
 File lengths (MBytes):  RWF=     13 Int=      0 D2E=      0 Chk=      2 Scr=      1
 Normal termination of Gaussian 16 at Fri Sep 22 17:07:44 2023.
