 Entering Gaussian System, Link 0=g16
 Initial command:
 /share/apps/gaussian/g16/l1.exe "/tmp/55647.mgr/Gau-905.inp" -scrdir="/tmp/55647.mgr/"
 Entering Link 1 = /share/apps/gaussian/g16/l1.exe PID=       911.
  
 Copyright (c) 1988,1990,1992,1993,1995,1998,2003,2009,2016,
            Gaussian, Inc.  All Rights Reserved.
  
 This is part of the Gaussian(R) 16 program.  It is based on
 the Gaussian(R) 09 system (copyright 2009, Gaussian, Inc.),
 the Gaussian(R) 03 system (copyright 2003, Gaussian, Inc.),
 the Gaussian(R) 98 system (copyright 1998, Gaussian, Inc.),
 the Gaussian(R) 94 system (copyright 1995, Gaussian, Inc.),
 the Gaussian 92(TM) system (copyright 1992, Gaussian, Inc.),
 the Gaussian 90(TM) system (copyright 1990, Gaussian, Inc.),
 the Gaussian 88(TM) system (copyright 1988, Gaussian, Inc.),
 the Gaussian 86(TM) system (copyright 1986, Carnegie Mellon
 University), and the Gaussian 82(TM) system (copyright 1983,
 Carnegie Mellon University). Gaussian is a federally registered
 trademark of Gaussian, Inc.
  
 This software contains proprietary and confidential information,
 including trade secrets, belonging to Gaussian, Inc.
  
 This software is provided under written license and may be
 used, copied, transmitted, or stored only in accord with that
 written license.
  
 The following legend is applicable only to US Government
 contracts under FAR:
  
                    RESTRICTED RIGHTS LEGEND
  
 Use, reproduction and disclosure by the US Government is
 subject to restrictions as set forth in subparagraphs (a)
 and (c) of the Commercial Computer Software - Restricted
 Rights clause in FAR 52.227-19.
  
 Gaussian, Inc.
 340 Quinnipiac St., Bldg. 40, Wallingford CT 06492
  
  
 ---------------------------------------------------------------
 Warning -- This program may not be used in any manner that
 competes with the business of Gaussian, Inc. or will provide
 assistance to any competitor of Gaussian, Inc.  The licensee
 of this program is prohibited from giving any competitor of
 Gaussian, Inc. access to this program.  By using this program,
 the user acknowledges that Gaussian, Inc. is engaged in the
 business of creating and licensing software in the field of
 computational chemistry and represents and warrants to the
 licensee that it is not a competitor of Gaussian, Inc. and that
 it will not use this program in any manner prohibited above.
 ---------------------------------------------------------------
  

 Cite this work as:
 Gaussian 16, Revision A.03,
 M. J. Frisch, G. W. Trucks, H. B. Schlegel, G. E. Scuseria, 
 M. A. Robb, J. R. Cheeseman, G. Scalmani, V. Barone, 
 G. A. Petersson, H. Nakatsuji, X. Li, M. Caricato, A. V. Marenich, 
 J. Bloino, B. G. Janesko, R. Gomperts, B. Mennucci, H. P. Hratchian, 
 J. V. Ortiz, A. F. Izmaylov, J. L. Sonnenberg, D. Williams-Young, 
 F. Ding, F. Lipparini, F. Egidi, J. Goings, B. Peng, A. Petrone, 
 T. Henderson, D. Ranasinghe, V. G. Zakrzewski, J. Gao, N. Rega, 
 G. Zheng, W. Liang, M. Hada, M. Ehara, K. Toyota, R. Fukuda, 
 J. Hasegawa, M. Ishida, T. Nakajima, Y. Honda, O. Kitao, H. Nakai, 
 T. Vreven, K. Throssell, J. A. Montgomery, Jr., J. E. Peralta, 
 F. Ogliaro, M. J. Bearpark, J. J. Heyd, E. N. Brothers, K. N. Kudin, 
 V. N. Staroverov, T. A. Keith, R. Kobayashi, J. Normand, 
 K. Raghavachari, A. P. Rendell, J. C. Burant, S. S. Iyengar, 
 J. Tomasi, M. Cossi, J. M. Millam, M. Klene, C. Adamo, R. Cammi, 
 J. W. Ochterski, R. L. Martin, K. Morokuma, O. Farkas, 
 J. B. Foresman, and D. J. Fox, Gaussian, Inc., Wallingford CT, 2016.
 
 ******************************************
 Gaussian 16:  ES64L-G16RevA.03 25-Dec-2016
                22-Sep-2023 
 ******************************************
 %nprocshared=2
 Will use up to    2 processors via shared memory.
 %mem=2GB
 ------------------------------------------------------
 # b3lyp/6-31+g(d,p) scrf=(iefpcm,solvent=acetonitrile)
 ------------------------------------------------------
 1/38=1,172=1/1;
 2/12=2,17=6,18=5,40=1/2;
 3/5=1,6=6,7=111,11=2,25=1,30=1,70=2201,72=2,74=-5/1,2,3;
 4//1;
 5/5=2,38=5,53=2/2;
 6/7=2,8=2,9=2,10=2,28=1/1;
 99/5=1,9=1/99;
 --------------------
 tmpdir/M2_ref_68.gjf
 --------------------
 Symbolic Z-matrix:
 Charge =  0 Multiplicity = 1
 C                     2.17227   1.5438   -0.57617 
 C                     2.58085   0.94662  -1.77545 
 H                     2.20392  -0.03358  -2.0441 
 H                     1.463     1.01535   0.12803 
 H                     2.51766   2.45987  -0.31577 
 H                     3.21942   1.43797  -2.3851 
 
                          Input orientation:                          
 ---------------------------------------------------------------------
 Center     Atomic      Atomic             Coordinates (Angstroms)
 Number     Number       Type             X           Y           Z
 ---------------------------------------------------------------------
      1          6           0        2.172272    1.543797   -0.576165
      2          6           0        2.580847    0.946621   -1.775450
      3          1           0        2.203919   -0.033582   -2.044101
      4          1           0        1.462999    1.015351    0.128027
      5          1           0        2.517665    2.459866   -0.315769
      6          1           0        3.219422    1.437967   -2.385104
 ---------------------------------------------------------------------
                    Distance matrix (angstroms):
                    1          2          3          4          5
     1  C    0.000000
     2  C    1.400656   0.000000
     3  H    2.154985   1.083995   0.000000
     4  H    1.130579   2.208514   2.523363   0.000000
     5  H    1.013057   2.103467   3.050058   1.842796   0.000000
     6  H    2.092841   1.010384   1.820161   3.095069   2.412237
                    6
     6  H    0.000000
 Stoichiometry    C2H4
 Framework group  C1[X(C2H4)]
 Deg. of freedom    12
 Full point group                 C1      NOp   1
 Largest Abelian subgroup         C1      NOp   1
 Largest concise Abelian subgroup C1      NOp   1
                         Standard orientation:                         
 ---------------------------------------------------------------------
 Center     Atomic      Atomic             Coordinates (Angstroms)
 Number     Number       Type             X           Y           Z
 ---------------------------------------------------------------------
      1          6           0        0.696438   -0.015528   -0.001667
      2          6           0       -0.704168   -0.003958    0.001124
      3          1           0       -1.234376    0.941507   -0.003269
      4          1           0        1.288968    0.947320    0.004766
      5          1           0        1.201989   -0.893419    0.001518
      6          1           0       -1.210202   -0.878490    0.000238
 ---------------------------------------------------------------------
 Rotational constants (GHZ):         149.4073788          28.2131700          23.7319732
 Standard basis: 6-31+G(d,p) (6D, 7F)
 There are    58 symmetry adapted cartesian basis functions of A   symmetry.
 There are    58 symmetry adapted basis functions of A   symmetry.
    58 basis functions,    92 primitive gaussians,    58 cartesian basis functions
     8 alpha electrons        8 beta electrons
       nuclear repulsion energy        32.9040008576 Hartrees.
 NAtoms=    6 NActive=    6 NUniq=    6 SFac= 1.00D+00 NAtFMM=   60 NAOKFM=F Big=F
 Integral buffers will be    131072 words long.
 Raffenetti 2 integral format.
 Two-electron integral symmetry is turned on.
 ------------------------------------------------------------------------------
 Polarizable Continuum Model (PCM)
 =================================
 Model                : PCM.
 Atomic radii         : UFF (Universal Force Field).
 Polarization charges : Total charges.
 Charge compensation  : None.
 Solution method      : On-the-fly selection.
 Cavity type          : Scaled VdW (van der Waals Surface) (Alpha=1.100).
 Cavity algorithm     : GePol (No added spheres)
                        Default sphere list used, NSphG=    6.
                        Lebedev-Laikov grids with approx.  5.0 points / Ang**2.
                        Smoothing algorithm: York/Karplus (Gamma=1.0000).
                        Polarization charges: spherical gaussians, with
                                              point-specific exponents (IZeta= 3).
                        Self-potential: point-specific (ISelfS= 7).
                        Self-field    : sphere-specific E.n sum rule (ISelfD= 2).
 Solvent              : Acetonitrile, Eps=  35.688000 Eps(inf)=   1.806874
 ------------------------------------------------------------------------------
 Spheres list:
 ISph  on   Nord     Re0    Alpha      Xe            Ye            Ze
    1   C      1    1.9255  1.100      0.696438     -0.015528     -0.001667
    2   C      2    1.9255  1.100     -0.704168     -0.003958      0.001124
    3   H      3    1.4430  1.100     -1.234376      0.941507     -0.003269
    4   H      4    1.4430  1.100      1.288968      0.947320      0.004766
    5   H      5    1.4430  1.100      1.201989     -0.893419      0.001518
    6   H      6    1.4430  1.100     -1.210202     -0.878490      0.000238
 ------------------------------------------------------------------------------
 One-electron integrals computed using PRISM.
 NBasis=    58 RedAO= T EigKep=  2.87D-04  NBF=    58
 NBsUse=    58 1.00D-06 EigRej= -1.00D+00 NBFU=    58
 ExpMin= 4.38D-02 ExpMax= 3.05D+03 ExpMxC= 4.57D+02 IAcc=3 IRadAn=         5 AccDes= 0.00D+00
 Harris functional with IExCor=  402 and IRadAn=       5 diagonalized for initial guess.
 HarFok:  IExCor=  402 AccDes= 0.00D+00 IRadAn=         5 IDoV= 1 UseB2=F ITyADJ=14
 ICtDFT=  3500011 ScaDFX=  1.000000  1.000000  1.000000  1.000000
 FoFCou: FMM=F IPFlag=           0 FMFlag=      100000 FMFlg1=           0
         NFxFlg=           0 DoJE=T BraDBF=F KetDBF=T FulRan=T
         wScrn=  0.000000 ICntrl=       500 IOpCl=  0 I1Cent=   200000004 NGrid=           0
         NMat0=    1 NMatS0=      1 NMatT0=    0 NMatD0=    1 NMtDS0=    0 NMtDT0=    0
 Petite list used in FoFCou.
 Keep R1 ints in memory in canonical form, NReq=3224596.
 Requested convergence on RMS density matrix=1.00D-08 within 128 cycles.
 Requested convergence on MAX density matrix=1.00D-06.
 Requested convergence on             energy=1.00D-06.
 No special actions if energy rises.
 Inv3:  Mode=1 IEnd=     1168128.
 Iteration    1 A*A^-1 deviation from unit magnitude is 3.33D-15 for    591.
 Iteration    1 A*A^-1 deviation from orthogonality  is 2.13D-15 for    351     82.
 Iteration    1 A^-1*A deviation from unit magnitude is 3.33D-15 for    591.
 Iteration    1 A^-1*A deviation from orthogonality  is 1.12D-15 for    436    107.
 Error on total polarization charges =  0.01293
 SCF Done:  E(RB3LYP) =  -78.5872460286     A.U. after    9 cycles
            NFock=  9  Conv=0.63D-08     -V/T= 2.0107

 **********************************************************************

            Population analysis using the SCF density.

 **********************************************************************

 Orbital symmetries:
       Occupied  (A) (A) (A) (A) (A) (A) (A) (A)
       Virtual   (A) (A) (A) (A) (A) (A) (A) (A) (A) (A) (A) (A)
                 (A) (A) (A) (A) (A) (A) (A) (A) (A) (A) (A) (A)
                 (A) (A) (A) (A) (A) (A) (A) (A) (A) (A) (A) (A)
                 (A) (A) (A) (A) (A) (A) (A) (A) (A) (A) (A) (A)
                 (A) (A)
 The electronic state is 1-A.
 Alpha  occ. eigenvalues --  -10.20057 -10.19641  -0.75697  -0.59741  -0.47781
 Alpha  occ. eigenvalues --   -0.41337  -0.37558  -0.27090
 Alpha virt. eigenvalues --   -0.02297   0.02515   0.03652   0.05174   0.06689
 Alpha virt. eigenvalues --    0.08789   0.09046   0.12377   0.15905   0.17637
 Alpha virt. eigenvalues --    0.21756   0.25119   0.32405   0.35252   0.58431
 Alpha virt. eigenvalues --    0.63444   0.67713   0.71465   0.71841   0.81409
 Alpha virt. eigenvalues --    0.90303   0.92650   0.97952   1.02197   1.13040
 Alpha virt. eigenvalues --    1.19468   1.36911   1.38354   1.50289   1.84570
 Alpha virt. eigenvalues --    1.91561   1.97346   1.99505   2.09715   2.11267
 Alpha virt. eigenvalues --    2.24342   2.35571   2.50351   2.50816   2.55638
 Alpha virt. eigenvalues --    2.72076   2.74809   2.77187   2.99900   3.20979
 Alpha virt. eigenvalues --    3.47399   3.55814   3.78311   4.20234   4.49447
          Condensed to atoms (all electrons):
               1          2          3          4          5          6
     1  C    4.919776   0.661348  -0.031321   0.383737   0.398913  -0.034719
     2  C    0.661348   4.903179   0.392950  -0.026709  -0.032716   0.403127
     3  H   -0.031321   0.392950   0.524740  -0.006670   0.004237  -0.034865
     4  H    0.383737  -0.026709  -0.006670   0.531764  -0.034586   0.003918
     5  H    0.398913  -0.032716   0.004237  -0.034586   0.521997  -0.007634
     6  H   -0.034719   0.403127  -0.034865   0.003918  -0.007634   0.520522
 Mulliken charges:
               1
     1  C   -0.297735
     2  C   -0.301179
     3  H    0.150928
     4  H    0.148546
     5  H    0.149789
     6  H    0.149651
 Sum of Mulliken charges =  -0.00000
 Mulliken charges with hydrogens summed into heavy atoms:
               1
     1  C    0.000600
     2  C   -0.000600
 Electronic spatial extent (au):  <R**2>=             85.0605
 Charge=             -0.0000 electrons
 Dipole moment (field-independent basis, Debye):
    X=             -0.0073    Y=             -0.0597    Z=              0.0041  Tot=              0.0603
 Quadrupole moment (field-independent basis, Debye-Ang):
   XX=            -12.2613   YY=            -12.2447   ZZ=            -16.2455
   XY=              0.0088   XZ=              0.0141   YZ=             -0.0004
 Traceless Quadrupole moment (field-independent basis, Debye-Ang):
   XX=              1.3225   YY=              1.3391   ZZ=             -2.6616
   XY=              0.0088   XZ=              0.0141   YZ=             -0.0004
 Octapole moment (field-independent basis, Debye-Ang**2):
  XXX=             -0.0578  YYY=             -0.2491  ZZZ=              0.0083  XYY=             -0.0447
  XXY=             -0.0126  XXZ=              0.0101  XZZ=             -0.0678  YZZ=             -0.1851
  YYZ=              0.0056  XYZ=              0.0114
 Hexadecapole moment (field-independent basis, Debye-Ang**3):
 XXXX=            -72.7537 YYYY=            -27.2586 ZZZZ=            -23.8097 XXXY=              0.0677
 XXXZ=              0.0390 YYYX=             -0.0881 YYYZ=             -0.0014 ZZZX=              0.0183
 ZZZY=             -0.0015 XXYY=            -14.0094 XXZZ=            -17.2328 YYZZ=             -9.1673
 XXYZ=              0.0005 YYXZ=              0.0208 ZZXY=             -0.0537
 N-N= 3.290400085757D+01 E-N=-2.470218464940D+02  KE= 7.775738802584D+01
 1\1\GINC-NODE62\SP\RB3LYP\6-31+G(d,p)\C2H4\YANZ\22-Sep-2023\0\\# b3lyp
 /6-31+g(d,p) scrf=(iefpcm,solvent=acetonitrile)\\tmpdir/M2_ref_68.gjf\
 \0,1\C,0,2.172272,1.543797,-0.576165\C,0,2.580847,0.946621,-1.77545\H,
 0,2.203919,-0.033582,-2.044101\H,0,1.46299925,1.0153508,0.12802697\H,0
 ,2.51766479,2.45986605,-0.31576873\H,0,3.21942159,1.43796731,-2.385103
 89\\Version=ES64L-G16RevA.03\State=1-A\HF=-78.587246\RMSD=6.317e-09\Di
 pole=0.0152681,0.0170053,-0.0064069\Quadrupole=-0.7896845,0.4543417,0.
 3353427,0.978871,-1.0808205,0.5826973\PG=C01 [X(C2H4)]\\@


 MOST BUREAUCRACIES FUNCTION LIKE A SEPTIC TANK.
 THE LARGE CHUNKS RISE TO THE TOP.
 Job cpu time:       0 days  0 hours  0 minutes 12.3 seconds.
 Elapsed time:       0 days  0 hours  0 minutes  6.3 seconds.
 File lengths (MBytes):  RWF=     13 Int=      0 D2E=      0 Chk=      2 Scr=      1
 Normal termination of Gaussian 16 at Fri Sep 22 17:08:00 2023.
