 Entering Gaussian System, Link 0=g16
 Initial command:
 /share/apps/gaussian/g16/l1.exe "/tmp/55647.mgr/Gau-1070.inp" -scrdir="/tmp/55647.mgr/"
 Entering Link 1 = /share/apps/gaussian/g16/l1.exe PID=      1071.
  
 Copyright (c) 1988,1990,1992,1993,1995,1998,2003,2009,2016,
            Gaussian, Inc.  All Rights Reserved.
  
 This is part of the Gaussian(R) 16 program.  It is based on
 the Gaussian(R) 09 system (copyright 2009, Gaussian, Inc.),
 the Gaussian(R) 03 system (copyright 2003, Gaussian, Inc.),
 the Gaussian(R) 98 system (copyright 1998, Gaussian, Inc.),
 the Gaussian(R) 94 system (copyright 1995, Gaussian, Inc.),
 the Gaussian 92(TM) system (copyright 1992, Gaussian, Inc.),
 the Gaussian 90(TM) system (copyright 1990, Gaussian, Inc.),
 the Gaussian 88(TM) system (copyright 1988, Gaussian, Inc.),
 the Gaussian 86(TM) system (copyright 1986, Carnegie Mellon
 University), and the Gaussian 82(TM) system (copyright 1983,
 Carnegie Mellon University). Gaussian is a federally registered
 trademark of Gaussian, Inc.
  
 This software contains proprietary and confidential information,
 including trade secrets, belonging to Gaussian, Inc.
  
 This software is provided under written license and may be
 used, copied, transmitted, or stored only in accord with that
 written license.
  
 The following legend is applicable only to US Government
 contracts under FAR:
  
                    RESTRICTED RIGHTS LEGEND
  
 Use, reproduction and disclosure by the US Government is
 subject to restrictions as set forth in subparagraphs (a)
 and (c) of the Commercial Computer Software - Restricted
 Rights clause in FAR 52.227-19.
  
 Gaussian, Inc.
 340 Quinnipiac St., Bldg. 40, Wallingford CT 06492
  
  
 ---------------------------------------------------------------
 Warning -- This program may not be used in any manner that
 competes with the business of Gaussian, Inc. or will provide
 assistance to any competitor of Gaussian, Inc.  The licensee
 of this program is prohibited from giving any competitor of
 Gaussian, Inc. access to this program.  By using this program,
 the user acknowledges that Gaussian, Inc. is engaged in the
 business of creating and licensing software in the field of
 computational chemistry and represents and warrants to the
 licensee that it is not a competitor of Gaussian, Inc. and that
 it will not use this program in any manner prohibited above.
 ---------------------------------------------------------------
  

 Cite this work as:
 Gaussian 16, Revision A.03,
 M. J. Frisch, G. W. Trucks, H. B. Schlegel, G. E. Scuseria, 
 M. A. Robb, J. R. Cheeseman, G. Scalmani, V. Barone, 
 G. A. Petersson, H. Nakatsuji, X. Li, M. Caricato, A. V. Marenich, 
 J. Bloino, B. G. Janesko, R. Gomperts, B. Mennucci, H. P. Hratchian, 
 J. V. Ortiz, A. F. Izmaylov, J. L. Sonnenberg, D. Williams-Young, 
 F. Ding, F. Lipparini, F. Egidi, J. Goings, B. Peng, A. Petrone, 
 T. Henderson, D. Ranasinghe, V. G. Zakrzewski, J. Gao, N. Rega, 
 G. Zheng, W. Liang, M. Hada, M. Ehara, K. Toyota, R. Fukuda, 
 J. Hasegawa, M. Ishida, T. Nakajima, Y. Honda, O. Kitao, H. Nakai, 
 T. Vreven, K. Throssell, J. A. Montgomery, Jr., J. E. Peralta, 
 F. Ogliaro, M. J. Bearpark, J. J. Heyd, E. N. Brothers, K. N. Kudin, 
 V. N. Staroverov, T. A. Keith, R. Kobayashi, J. Normand, 
 K. Raghavachari, A. P. Rendell, J. C. Burant, S. S. Iyengar, 
 J. Tomasi, M. Cossi, J. M. Millam, M. Klene, C. Adamo, R. Cammi, 
 J. W. Ochterski, R. L. Martin, K. Morokuma, O. Farkas, 
 J. B. Foresman, and D. J. Fox, Gaussian, Inc., Wallingford CT, 2016.
 
 ******************************************
 Gaussian 16:  ES64L-G16RevA.03 25-Dec-2016
                22-Sep-2023 
 ******************************************
 %nprocshared=2
 Will use up to    2 processors via shared memory.
 %mem=2GB
 ------------------------------------------------------
 # b3lyp/6-31+g(d,p) scrf=(iefpcm,solvent=acetonitrile)
 ------------------------------------------------------
 1/38=1,172=1/1;
 2/12=2,17=6,18=5,40=1/2;
 3/5=1,6=6,7=111,11=2,25=1,30=1,70=2201,72=2,74=-5/1,2,3;
 4//1;
 5/5=2,38=5,53=2/2;
 6/7=2,8=2,9=2,10=2,28=1/1;
 99/5=1,9=1/99;
 --------------------
 tmpdir/M2_ref_50.gjf
 --------------------
 Symbolic Z-matrix:
 Charge =  0 Multiplicity = 1
 N                     1.2699    0.87148   0.31974 
 C                     2.17227   1.5438   -0.57617 
 H                     1.66364   0.33343   1.14877 
 H                     0.32285   0.76966   0.08069 
 H                     2.51766   2.45987  -0.31577 
 O                     2.53248   1.01732  -1.63347 
 
                          Input orientation:                          
 ---------------------------------------------------------------------
 Center     Atomic      Atomic             Coordinates (Angstroms)
 Number     Number       Type             X           Y           Z
 ---------------------------------------------------------------------
      1          7           0        1.269902    0.871483    0.319741
      2          6           0        2.172272    1.543797   -0.576165
      3          1           0        1.663637    0.333425    1.148773
      4          1           0        0.322853    0.769664    0.080691
      5          1           0        2.517665    2.459866   -0.315769
      6          8           0        2.532478    1.017317   -1.633474
 ---------------------------------------------------------------------
                    Distance matrix (angstroms):
                    1          2          3          4          5
     1  N    0.000000
     2  C    1.438376   0.000000
     3  H    1.063874   2.167746   0.000000
     4  H    0.982046   2.109761   1.768844   0.000000
     5  H    2.117486   1.013057   2.719558   2.798421   0.000000
     6  O    2.330325   1.234841   2.993909   2.807514   1.953846
                    6
     6  O    0.000000
 Stoichiometry    CH3NO
 Framework group  C1[X(CH3NO)]
 Deg. of freedom    12
 Full point group                 C1      NOp   1
 Largest Abelian subgroup         C1      NOp   1
 Largest concise Abelian subgroup C1      NOp   1
                         Standard orientation:                         
 ---------------------------------------------------------------------
 Center     Atomic      Atomic             Coordinates (Angstroms)
 Number     Number       Type             X           Y           Z
 ---------------------------------------------------------------------
      1          7           0       -1.130662   -0.111025   -0.010021
      2          6           0        0.203059    0.426650   -0.041947
      3          1           0       -1.667929   -0.117170    0.908203
      4          1           0       -1.477842   -0.613891   -0.778789
      5          1           0        0.317174    1.430067   -0.122048
      6          8           0        1.190610   -0.310217    0.039307
 ---------------------------------------------------------------------
 Rotational constants (GHZ):          64.9182823          10.6268178           9.6532522
 Standard basis: 6-31+G(d,p) (6D, 7F)
 There are    72 symmetry adapted cartesian basis functions of A   symmetry.
 There are    72 symmetry adapted basis functions of A   symmetry.
    72 basis functions,   117 primitive gaussians,    72 cartesian basis functions
    12 alpha electrons       12 beta electrons
       nuclear repulsion energy        69.6166555776 Hartrees.
 NAtoms=    6 NActive=    6 NUniq=    6 SFac= 1.00D+00 NAtFMM=   60 NAOKFM=F Big=F
 Integral buffers will be    131072 words long.
 Raffenetti 2 integral format.
 Two-electron integral symmetry is turned on.
 ------------------------------------------------------------------------------
 Polarizable Continuum Model (PCM)
 =================================
 Model                : PCM.
 Atomic radii         : UFF (Universal Force Field).
 Polarization charges : Total charges.
 Charge compensation  : None.
 Solution method      : On-the-fly selection.
 Cavity type          : Scaled VdW (van der Waals Surface) (Alpha=1.100).
 Cavity algorithm     : GePol (No added spheres)
                        Default sphere list used, NSphG=    6.
                        Lebedev-Laikov grids with approx.  5.0 points / Ang**2.
                        Smoothing algorithm: York/Karplus (Gamma=1.0000).
                        Polarization charges: spherical gaussians, with
                                              point-specific exponents (IZeta= 3).
                        Self-potential: point-specific (ISelfS= 7).
                        Self-field    : sphere-specific E.n sum rule (ISelfD= 2).
 Solvent              : Acetonitrile, Eps=  35.688000 Eps(inf)=   1.806874
 ------------------------------------------------------------------------------
 Spheres list:
 ISph  on   Nord     Re0    Alpha      Xe            Ye            Ze
    1   N      1    1.8300  1.100     -1.130662     -0.111025     -0.010021
    2   C      2    1.9255  1.100      0.203059      0.426650     -0.041947
    3   H      3    1.4430  1.100     -1.667929     -0.117170      0.908203
    4   H      4    1.4430  1.100     -1.477842     -0.613891     -0.778789
    5   H      5    1.4430  1.100      0.317174      1.430067     -0.122048
    6   O      6    1.7500  1.100      1.190610     -0.310217      0.039307
 ------------------------------------------------------------------------------
 One-electron integrals computed using PRISM.
 NBasis=    72 RedAO= T EigKep=  3.11D-03  NBF=    72
 NBsUse=    72 1.00D-06 EigRej= -1.00D+00 NBFU=    72
 ExpMin= 4.38D-02 ExpMax= 5.48D+03 ExpMxC= 8.25D+02 IAcc=3 IRadAn=         5 AccDes= 0.00D+00
 Harris functional with IExCor=  402 and IRadAn=       5 diagonalized for initial guess.
 HarFok:  IExCor=  402 AccDes= 0.00D+00 IRadAn=         5 IDoV= 1 UseB2=F ITyADJ=14
 ICtDFT=  3500011 ScaDFX=  1.000000  1.000000  1.000000  1.000000
 FoFCou: FMM=F IPFlag=           0 FMFlag=      100000 FMFlg1=           0
         NFxFlg=           0 DoJE=T BraDBF=F KetDBF=T FulRan=T
         wScrn=  0.000000 ICntrl=       500 IOpCl=  0 I1Cent=   200000004 NGrid=           0
         NMat0=    1 NMatS0=      1 NMatT0=    0 NMatD0=    1 NMtDS0=    0 NMtDT0=    0
 Petite list used in FoFCou.
 Keep R1 ints in memory in canonical form, NReq=5247406.
 Requested convergence on RMS density matrix=1.00D-08 within 128 cycles.
 Requested convergence on MAX density matrix=1.00D-06.
 Requested convergence on             energy=1.00D-06.
 No special actions if energy rises.
 Inv3:  Mode=1 IEnd=     1453248.
 Iteration    1 A*A^-1 deviation from unit magnitude is 2.66D-15 for    683.
 Iteration    1 A*A^-1 deviation from orthogonality  is 1.78D-15 for    633    398.
 Iteration    1 A^-1*A deviation from unit magnitude is 2.89D-15 for    683.
 Iteration    1 A^-1*A deviation from orthogonality  is 1.64D-15 for    695    429.
 Error on total polarization charges =  0.01054
 SCF Done:  E(RB3LYP) =  -169.874297412     A.U. after   10 cycles
            NFock= 10  Conv=0.82D-08     -V/T= 2.0099

 **********************************************************************

            Population analysis using the SCF density.

 **********************************************************************

 Orbital symmetries:
       Occupied  (A) (A) (A) (A) (A) (A) (A) (A) (A) (A) (A) (A)
       Virtual   (A) (A) (A) (A) (A) (A) (A) (A) (A) (A) (A) (A)
                 (A) (A) (A) (A) (A) (A) (A) (A) (A) (A) (A) (A)
                 (A) (A) (A) (A) (A) (A) (A) (A) (A) (A) (A) (A)
                 (A) (A) (A) (A) (A) (A) (A) (A) (A) (A) (A) (A)
                 (A) (A) (A) (A) (A) (A) (A) (A) (A) (A) (A) (A)
 The electronic state is 1-A.
 Alpha  occ. eigenvalues --  -19.17853 -14.34500 -10.32051  -1.06528  -0.88312
 Alpha  occ. eigenvalues --   -0.64083  -0.52217  -0.52125  -0.46791  -0.39375
 Alpha  occ. eigenvalues --   -0.29947  -0.26158
 Alpha virt. eigenvalues --   -0.05839   0.00829   0.03644   0.04690   0.05815
 Alpha virt. eigenvalues --    0.10485   0.11888   0.13934   0.15955   0.20030
 Alpha virt. eigenvalues --    0.21971   0.22925   0.25021   0.25250   0.27346
 Alpha virt. eigenvalues --    0.29830   0.31161   0.41734   0.63715   0.71824
 Alpha virt. eigenvalues --    0.74698   0.83383   0.88136   0.88576   0.95281
 Alpha virt. eigenvalues --    0.96365   0.99911   1.03541   1.18743   1.18789
 Alpha virt. eigenvalues --    1.24355   1.29724   1.38558   1.47714   1.51765
 Alpha virt. eigenvalues --    1.63522   1.69535   1.79338   1.83872   1.87651
 Alpha virt. eigenvalues --    2.00711   2.04159   2.10415   2.19382   2.32645
 Alpha virt. eigenvalues --    2.36922   2.49652   2.54282   2.68429   2.72373
 Alpha virt. eigenvalues --    2.74337   2.87565   2.98505   3.07528   3.32133
 Alpha virt. eigenvalues --    3.44708   3.59872   4.08011   4.16959   4.39735
          Condensed to atoms (all electrons):
               1          2          3          4          5          6
     1  N    7.020485   0.278085   0.328660   0.352475  -0.112836  -0.158489
     2  C    0.278085   4.581856  -0.009070  -0.012809   0.444091   0.421611
     3  H    0.328660  -0.009070   0.347408  -0.014531   0.001973   0.003496
     4  H    0.352475  -0.012809  -0.014531   0.334367   0.002994  -0.000455
     5  H   -0.112836   0.444091   0.001973   0.002994   0.583565  -0.074700
     6  O   -0.158489   0.421611   0.003496  -0.000455  -0.074700   8.231331
 Mulliken charges:
               1
     1  N   -0.708379
     2  C    0.296237
     3  H    0.342065
     4  H    0.337959
     5  H    0.154913
     6  O   -0.422794
 Sum of Mulliken charges =   0.00000
 Mulliken charges with hydrogens summed into heavy atoms:
               1
     1  N   -0.028356
     2  C    0.451150
     6  O   -0.422794
 Electronic spatial extent (au):  <R**2>=            152.2440
 Charge=              0.0000 electrons
 Dipole moment (field-independent basis, Debye):
    X=             -3.1244    Y=              1.4641    Z=              0.0332  Tot=              3.4506
 Quadrupole moment (field-independent basis, Debye-Ang):
   XX=            -19.9455   YY=            -18.1468   ZZ=            -15.5863
   XY=              3.1670   XZ=             -0.9925   YZ=              1.0176
 Traceless Quadrupole moment (field-independent basis, Debye-Ang):
   XX=             -2.0526   YY=             -0.2539   ZZ=              2.3066
   XY=              3.1670   XZ=             -0.9925   YZ=              1.0176
 Octapole moment (field-independent basis, Debye-Ang**2):
  XXX=             -9.0244  YYY=              2.4918  ZZZ=              0.5819  XYY=              0.8924
  XXY=             -2.9821  XXZ=              2.0260  XZZ=             -3.2866  YZZ=             -0.8103
  YYZ=             -0.8041  XYZ=             -1.4701
 Hexadecapole moment (field-independent basis, Debye-Ang**3):
 XXXX=           -133.1323 YYYY=            -36.8986 ZZZZ=            -18.8791 XXXY=              8.4915
 XXXZ=             -4.4476 YYYX=              2.5573 YYYZ=              1.0613 ZZZX=             -1.5458
 ZZZY=              1.4276 XXYY=            -29.4170 XXZZ=            -19.6744 YYZZ=             -9.6421
 XXYZ=              2.2455 YYXZ=              0.6317 ZZXY=              1.7447
 N-N= 6.961665557758D+01 E-N=-5.366825957534D+02  KE= 1.682150088251D+02
 1\1\GINC-NODE62\SP\RB3LYP\6-31+G(d,p)\C1H3N1O1\YANZ\22-Sep-2023\0\\# b
 3lyp/6-31+g(d,p) scrf=(iefpcm,solvent=acetonitrile)\\tmpdir/M2_ref_50.
 gjf\\0,1\N,0,1.269902,0.871483,0.319741\C,0,2.172272,1.543797,-0.57616
 5\H,0,1.66363747,0.33342543,1.14877347\H,0,0.32285297,0.76966432,0.080
 69087\H,0,2.51766479,2.45986605,-0.31576873\O,0,2.53247826,1.01731708,
 -1.63347384\\Version=ES64L-G16RevA.03\State=1-A\HF=-169.8742974\RMSD=8
 .216e-09\Dipole=-0.4783351,0.3065359,1.2329545\Quadrupole=1.1511317,0.
 3063213,-1.457453,0.9043854,1.6875925,-1.9688085\PG=C01 [X(C1H3N1O1)]\
 \@


 It is also a good rule not to put too much confidence in
 experimental results until they have been confirmed by
 Theory.
                             -- Sir Arthur Eddington
 Job cpu time:       0 days  0 hours  0 minutes 18.5 seconds.
 Elapsed time:       0 days  0 hours  0 minutes  9.5 seconds.
 File lengths (MBytes):  RWF=     15 Int=      0 D2E=      0 Chk=      2 Scr=      1
 Normal termination of Gaussian 16 at Fri Sep 22 17:08:14 2023.
