 Entering Gaussian System, Link 0=g16
 Initial command:
 /share/apps/gaussian/g16/l1.exe "/tmp/55647.mgr/Gau-1671.inp" -scrdir="/tmp/55647.mgr/"
 Entering Link 1 = /share/apps/gaussian/g16/l1.exe PID=      1672.
  
 Copyright (c) 1988,1990,1992,1993,1995,1998,2003,2009,2016,
            Gaussian, Inc.  All Rights Reserved.
  
 This is part of the Gaussian(R) 16 program.  It is based on
 the Gaussian(R) 09 system (copyright 2009, Gaussian, Inc.),
 the Gaussian(R) 03 system (copyright 2003, Gaussian, Inc.),
 the Gaussian(R) 98 system (copyright 1998, Gaussian, Inc.),
 the Gaussian(R) 94 system (copyright 1995, Gaussian, Inc.),
 the Gaussian 92(TM) system (copyright 1992, Gaussian, Inc.),
 the Gaussian 90(TM) system (copyright 1990, Gaussian, Inc.),
 the Gaussian 88(TM) system (copyright 1988, Gaussian, Inc.),
 the Gaussian 86(TM) system (copyright 1986, Carnegie Mellon
 University), and the Gaussian 82(TM) system (copyright 1983,
 Carnegie Mellon University). Gaussian is a federally registered
 trademark of Gaussian, Inc.
  
 This software contains proprietary and confidential information,
 including trade secrets, belonging to Gaussian, Inc.
  
 This software is provided under written license and may be
 used, copied, transmitted, or stored only in accord with that
 written license.
  
 The following legend is applicable only to US Government
 contracts under FAR:
  
                    RESTRICTED RIGHTS LEGEND
  
 Use, reproduction and disclosure by the US Government is
 subject to restrictions as set forth in subparagraphs (a)
 and (c) of the Commercial Computer Software - Restricted
 Rights clause in FAR 52.227-19.
  
 Gaussian, Inc.
 340 Quinnipiac St., Bldg. 40, Wallingford CT 06492
  
  
 ---------------------------------------------------------------
 Warning -- This program may not be used in any manner that
 competes with the business of Gaussian, Inc. or will provide
 assistance to any competitor of Gaussian, Inc.  The licensee
 of this program is prohibited from giving any competitor of
 Gaussian, Inc. access to this program.  By using this program,
 the user acknowledges that Gaussian, Inc. is engaged in the
 business of creating and licensing software in the field of
 computational chemistry and represents and warrants to the
 licensee that it is not a competitor of Gaussian, Inc. and that
 it will not use this program in any manner prohibited above.
 ---------------------------------------------------------------
  

 Cite this work as:
 Gaussian 16, Revision A.03,
 M. J. Frisch, G. W. Trucks, H. B. Schlegel, G. E. Scuseria, 
 M. A. Robb, J. R. Cheeseman, G. Scalmani, V. Barone, 
 G. A. Petersson, H. Nakatsuji, X. Li, M. Caricato, A. V. Marenich, 
 J. Bloino, B. G. Janesko, R. Gomperts, B. Mennucci, H. P. Hratchian, 
 J. V. Ortiz, A. F. Izmaylov, J. L. Sonnenberg, D. Williams-Young, 
 F. Ding, F. Lipparini, F. Egidi, J. Goings, B. Peng, A. Petrone, 
 T. Henderson, D. Ranasinghe, V. G. Zakrzewski, J. Gao, N. Rega, 
 G. Zheng, W. Liang, M. Hada, M. Ehara, K. Toyota, R. Fukuda, 
 J. Hasegawa, M. Ishida, T. Nakajima, Y. Honda, O. Kitao, H. Nakai, 
 T. Vreven, K. Throssell, J. A. Montgomery, Jr., J. E. Peralta, 
 F. Ogliaro, M. J. Bearpark, J. J. Heyd, E. N. Brothers, K. N. Kudin, 
 V. N. Staroverov, T. A. Keith, R. Kobayashi, J. Normand, 
 K. Raghavachari, A. P. Rendell, J. C. Burant, S. S. Iyengar, 
 J. Tomasi, M. Cossi, J. M. Millam, M. Klene, C. Adamo, R. Cammi, 
 J. W. Ochterski, R. L. Martin, K. Morokuma, O. Farkas, 
 J. B. Foresman, and D. J. Fox, Gaussian, Inc., Wallingford CT, 2016.
 
 ******************************************
 Gaussian 16:  ES64L-G16RevA.03 25-Dec-2016
                22-Sep-2023 
 ******************************************
 %nprocshared=2
 Will use up to    2 processors via shared memory.
 %mem=2GB
 ------------------------------------------------------
 # b3lyp/6-31+g(d,p) scrf=(iefpcm,solvent=acetonitrile)
 ------------------------------------------------------
 1/38=1,172=1/1;
 2/12=2,17=6,18=5,40=1/2;
 3/5=1,6=6,7=111,11=2,25=1,30=1,70=2201,72=2,74=-5/1,2,3;
 4//1;
 5/5=2,38=5,53=2/2;
 6/7=2,8=2,9=2,10=2,28=1/1;
 99/5=1,9=1/99;
 ---------------------
 tmpdir/M2_ref_125.gjf
 ---------------------
 Symbolic Z-matrix:
 Charge =  0 Multiplicity = 1
 C                    -5.7945   -1.24518   0.4755 
 C                    -6.71704  -2.05367  -0.19243 
 H                    -5.24837  -0.58451  -0.06259 
 H                    -5.67248  -1.31171   1.55099 
 H                    -6.82983  -1.97447  -1.19561 
 H                    -7.31484  -2.76337   0.37042 
 
                          Input orientation:                          
 ---------------------------------------------------------------------
 Center     Atomic      Atomic             Coordinates (Angstroms)
 Number     Number       Type             X           Y           Z
 ---------------------------------------------------------------------
      1          6           0       -5.794502   -1.245176    0.475502
      2          6           0       -6.717039   -2.053667   -0.192430
      3          1           0       -5.248365   -0.584506   -0.062586
      4          1           0       -5.672484   -1.311713    1.550985
      5          1           0       -6.829833   -1.974468   -1.195614
      6          1           0       -7.314841   -2.763369    0.370420
 ---------------------------------------------------------------------
                    Distance matrix (angstroms):
                    1          2          3          4          5
     1  C    0.000000
     2  C    1.396734   0.000000
     3  H    1.012072   2.081417   0.000000
     4  H    1.084426   2.163582   1.819977   0.000000
     5  H    2.096761   1.012608   2.390981   3.053279   0.000000
     6  H    2.151135   1.085285   3.034017   2.489654   1.819357
                    6
     6  H    0.000000
 Stoichiometry    C2H4
 Framework group  C1[X(C2H4)]
 Deg. of freedom    12
 Full point group                 C1      NOp   1
 Largest Abelian subgroup         C1      NOp   1
 Largest concise Abelian subgroup C1      NOp   1
                         Standard orientation:                         
 ---------------------------------------------------------------------
 Center     Atomic      Atomic             Coordinates (Angstroms)
 Number     Number       Type             X           Y           Z
 ---------------------------------------------------------------------
      1          6           0       -0.698525   -0.007603   -0.001715
      2          6           0        0.698207   -0.006227   -0.000442
      3          1           0       -1.183482   -0.895907    0.002849
      4          1           0       -1.255833    0.922629    0.005751
      5          1           0        1.207455   -0.881454    0.003805
      6          1           0        1.233769    0.937710    0.000539
 ---------------------------------------------------------------------
 Rotational constants (GHZ):         151.4444423          28.5367436          24.0123253
 Standard basis: 6-31+G(d,p) (6D, 7F)
 There are    58 symmetry adapted cartesian basis functions of A   symmetry.
 There are    58 symmetry adapted basis functions of A   symmetry.
    58 basis functions,    92 primitive gaussians,    58 cartesian basis functions
     8 alpha electrons        8 beta electrons
       nuclear repulsion energy        33.1118125992 Hartrees.
 NAtoms=    6 NActive=    6 NUniq=    6 SFac= 1.00D+00 NAtFMM=   60 NAOKFM=F Big=F
 Integral buffers will be    131072 words long.
 Raffenetti 2 integral format.
 Two-electron integral symmetry is turned on.
 ------------------------------------------------------------------------------
 Polarizable Continuum Model (PCM)
 =================================
 Model                : PCM.
 Atomic radii         : UFF (Universal Force Field).
 Polarization charges : Total charges.
 Charge compensation  : None.
 Solution method      : On-the-fly selection.
 Cavity type          : Scaled VdW (van der Waals Surface) (Alpha=1.100).
 Cavity algorithm     : GePol (No added spheres)
                        Default sphere list used, NSphG=    6.
                        Lebedev-Laikov grids with approx.  5.0 points / Ang**2.
                        Smoothing algorithm: York/Karplus (Gamma=1.0000).
                        Polarization charges: spherical gaussians, with
                                              point-specific exponents (IZeta= 3).
                        Self-potential: point-specific (ISelfS= 7).
                        Self-field    : sphere-specific E.n sum rule (ISelfD= 2).
 Solvent              : Acetonitrile, Eps=  35.688000 Eps(inf)=   1.806874
 ------------------------------------------------------------------------------
 Spheres list:
 ISph  on   Nord     Re0    Alpha      Xe            Ye            Ze
    1   C      1    1.9255  1.100     -0.698525     -0.007603     -0.001715
    2   C      2    1.9255  1.100      0.698207     -0.006227     -0.000442
    3   H      3    1.4430  1.100     -1.183482     -0.895907      0.002849
    4   H      4    1.4430  1.100     -1.255833      0.922629      0.005751
    5   H      5    1.4430  1.100      1.207455     -0.881454      0.003805
    6   H      6    1.4430  1.100      1.233769      0.937710      0.000539
 ------------------------------------------------------------------------------
 One-electron integrals computed using PRISM.
 NBasis=    58 RedAO= T EigKep=  2.82D-04  NBF=    58
 NBsUse=    58 1.00D-06 EigRej= -1.00D+00 NBFU=    58
 ExpMin= 4.38D-02 ExpMax= 3.05D+03 ExpMxC= 4.57D+02 IAcc=3 IRadAn=         5 AccDes= 0.00D+00
 Harris functional with IExCor=  402 and IRadAn=       5 diagonalized for initial guess.
 HarFok:  IExCor=  402 AccDes= 0.00D+00 IRadAn=         5 IDoV= 1 UseB2=F ITyADJ=14
 ICtDFT=  3500011 ScaDFX=  1.000000  1.000000  1.000000  1.000000
 FoFCou: FMM=F IPFlag=           0 FMFlag=      100000 FMFlg1=           0
         NFxFlg=           0 DoJE=T BraDBF=F KetDBF=T FulRan=T
         wScrn=  0.000000 ICntrl=       500 IOpCl=  0 I1Cent=   200000004 NGrid=           0
         NMat0=    1 NMatS0=      1 NMatT0=    0 NMatD0=    1 NMtDS0=    0 NMtDT0=    0
 Petite list used in FoFCou.
 Keep R1 ints in memory in canonical form, NReq=3224596.
 Requested convergence on RMS density matrix=1.00D-08 within 128 cycles.
 Requested convergence on MAX density matrix=1.00D-06.
 Requested convergence on             energy=1.00D-06.
 No special actions if energy rises.
 Inv3:  Mode=1 IEnd=     1164387.
 Iteration    1 A*A^-1 deviation from unit magnitude is 3.33D-15 for    603.
 Iteration    1 A*A^-1 deviation from orthogonality  is 1.69D-15 for    613    376.
 Iteration    1 A^-1*A deviation from unit magnitude is 3.11D-15 for    622.
 Iteration    1 A^-1*A deviation from orthogonality  is 1.71D-15 for    587    189.
 Error on total polarization charges =  0.01282
 SCF Done:  E(RB3LYP) =  -78.5888871205     A.U. after    9 cycles
            NFock=  9  Conv=0.32D-08     -V/T= 2.0098

 **********************************************************************

            Population analysis using the SCF density.

 **********************************************************************

 Orbital symmetries:
       Occupied  (A) (A) (A) (A) (A) (A) (A) (A)
       Virtual   (A) (A) (A) (A) (A) (A) (A) (A) (A) (A) (A) (A)
                 (A) (A) (A) (A) (A) (A) (A) (A) (A) (A) (A) (A)
                 (A) (A) (A) (A) (A) (A) (A) (A) (A) (A) (A) (A)
                 (A) (A) (A) (A) (A) (A) (A) (A) (A) (A) (A) (A)
                 (A) (A)
 The electronic state is 1-A.
 Alpha  occ. eigenvalues --  -10.19550 -10.19492  -0.75883  -0.59849  -0.48108
 Alpha  occ. eigenvalues --   -0.41308  -0.37849  -0.27104
 Alpha virt. eigenvalues --   -0.02196   0.02550   0.03717   0.05204   0.06699
 Alpha virt. eigenvalues --    0.08813   0.09084   0.12421   0.16009   0.18193
 Alpha virt. eigenvalues --    0.22040   0.25625   0.32610   0.35458   0.58333
 Alpha virt. eigenvalues --    0.63304   0.67752   0.71580   0.72102   0.81201
 Alpha virt. eigenvalues --    0.91947   0.92795   0.98008   1.02342   1.13082
 Alpha virt. eigenvalues --    1.20515   1.37118   1.38028   1.50069   1.87198
 Alpha virt. eigenvalues --    1.92201   1.97101   2.00088   2.09805   2.11932
 Alpha virt. eigenvalues --    2.25902   2.36902   2.51018   2.52023   2.56489
 Alpha virt. eigenvalues --    2.73198   2.77616   2.78993   3.01344   3.26284
 Alpha virt. eigenvalues --    3.47590   3.59419   3.78950   4.20207   4.50145
          Condensed to atoms (all electrons):
               1          2          3          4          5          6
     1  C    4.906434   0.661867   0.402042   0.392219  -0.033688  -0.030577
     2  C    0.661867   4.907450  -0.034705  -0.029942   0.401997   0.391709
     3  H    0.402042  -0.034705   0.523906  -0.035200  -0.008197   0.004449
     4  H    0.392219  -0.029942  -0.035200   0.524924   0.004243  -0.007110
     5  H   -0.033688   0.401997  -0.008197   0.004243   0.521867  -0.035253
     6  H   -0.030577   0.391709   0.004449  -0.007110  -0.035253   0.527710
 Mulliken charges:
               1
     1  C   -0.298297
     2  C   -0.298377
     3  H    0.147705
     4  H    0.150866
     5  H    0.149032
     6  H    0.149072
 Sum of Mulliken charges =  -0.00000
 Mulliken charges with hydrogens summed into heavy atoms:
               1
     1  C    0.000273
     2  C   -0.000273
 Electronic spatial extent (au):  <R**2>=             84.2446
 Charge=             -0.0000 electrons
 Dipole moment (field-independent basis, Debye):
    X=             -0.0016    Y=             -0.0424    Z=              0.0168  Tot=              0.0456
 Quadrupole moment (field-independent basis, Debye-Ang):
   XX=            -12.3019   YY=            -12.1989   ZZ=            -16.1804
   XY=             -0.0536   XZ=             -0.0064   YZ=             -0.0005
 Traceless Quadrupole moment (field-independent basis, Debye-Ang):
   XX=              1.2585   YY=              1.3615   ZZ=             -2.6200
   XY=             -0.0536   XZ=             -0.0064   YZ=             -0.0005
 Octapole moment (field-independent basis, Debye-Ang**2):
  XXX=             -0.0070  YYY=             -0.1942  ZZZ=              0.0358  XYY=             -0.0064
  XXY=              0.0251  XXZ=              0.0381  XZZ=             -0.0011  YZZ=             -0.1399
  YYZ=              0.0230  XYZ=             -0.0100
 Hexadecapole moment (field-independent basis, Debye-Ang**3):
 XXXX=            -71.8969 YYYY=            -26.8221 ZZZZ=            -23.6751 XXXY=             -0.2769
 XXXZ=             -0.0178 YYYX=             -0.0372 YYYZ=             -0.0017 ZZZX=             -0.0084
 ZZZY=             -0.0023 XXYY=            -13.9056 XXZZ=            -16.9920 YYZZ=             -9.0553
 XXYZ=              0.0006 YYXZ=             -0.0095 ZZXY=             -0.0174
 N-N= 3.311181259924D+01 E-N=-2.474902836778D+02  KE= 7.782377101477D+01
 1\1\GINC-NODE62\SP\RB3LYP\6-31+G(d,p)\C2H4\YANZ\22-Sep-2023\0\\# b3lyp
 /6-31+g(d,p) scrf=(iefpcm,solvent=acetonitrile)\\tmpdir/M2_ref_125.gjf
 \\0,1\C,0,-5.794502,-1.245176,0.475502\C,0,-6.717039,-2.053667,-0.1924
 3\H,0,-5.24836548,-0.58450552,-0.06258563\H,0,-5.672484,-1.311713,1.55
 0985\H,0,-6.82983347,-1.97446808,-1.19561438\H,0,-7.314841,-2.763369,0
 .37042\\Version=ES64L-G16RevA.03\State=1-A\HF=-78.5888871\RMSD=3.211e-
 09\Dipole=0.0000479,0.0120522,-0.0133046\Quadrupole=-0.5139417,-0.4642
 532,0.9781949,1.4087513,0.2645377,-0.2757216\PG=C01 [X(C2H4)]\\@


 THERE ONCE WAS A GIRL NAMED IRENE,
 WHO LIVED ON DISTILLED KEROSENE,
      BUT SHE STARTED ABSORBIN'
      A NEW HYDROCARBON,
 AND SINCE THEN HAS NEVER BENZENE.
 Job cpu time:       0 days  0 hours  0 minutes 13.4 seconds.
 Elapsed time:       0 days  0 hours  0 minutes  6.9 seconds.
 File lengths (MBytes):  RWF=     13 Int=      0 D2E=      0 Chk=      2 Scr=      1
 Normal termination of Gaussian 16 at Fri Sep 22 17:09:02 2023.
