 Entering Gaussian System, Link 0=g16
 Initial command:
 /share/apps/gaussian/g16/l1.exe "/tmp/55647.mgr/Gau-361.inp" -scrdir="/tmp/55647.mgr/"
 Entering Link 1 = /share/apps/gaussian/g16/l1.exe PID=       362.
  
 Copyright (c) 1988,1990,1992,1993,1995,1998,2003,2009,2016,
            Gaussian, Inc.  All Rights Reserved.
  
 This is part of the Gaussian(R) 16 program.  It is based on
 the Gaussian(R) 09 system (copyright 2009, Gaussian, Inc.),
 the Gaussian(R) 03 system (copyright 2003, Gaussian, Inc.),
 the Gaussian(R) 98 system (copyright 1998, Gaussian, Inc.),
 the Gaussian(R) 94 system (copyright 1995, Gaussian, Inc.),
 the Gaussian 92(TM) system (copyright 1992, Gaussian, Inc.),
 the Gaussian 90(TM) system (copyright 1990, Gaussian, Inc.),
 the Gaussian 88(TM) system (copyright 1988, Gaussian, Inc.),
 the Gaussian 86(TM) system (copyright 1986, Carnegie Mellon
 University), and the Gaussian 82(TM) system (copyright 1983,
 Carnegie Mellon University). Gaussian is a federally registered
 trademark of Gaussian, Inc.
  
 This software contains proprietary and confidential information,
 including trade secrets, belonging to Gaussian, Inc.
  
 This software is provided under written license and may be
 used, copied, transmitted, or stored only in accord with that
 written license.
  
 The following legend is applicable only to US Government
 contracts under FAR:
  
                    RESTRICTED RIGHTS LEGEND
  
 Use, reproduction and disclosure by the US Government is
 subject to restrictions as set forth in subparagraphs (a)
 and (c) of the Commercial Computer Software - Restricted
 Rights clause in FAR 52.227-19.
  
 Gaussian, Inc.
 340 Quinnipiac St., Bldg. 40, Wallingford CT 06492
  
  
 ---------------------------------------------------------------
 Warning -- This program may not be used in any manner that
 competes with the business of Gaussian, Inc. or will provide
 assistance to any competitor of Gaussian, Inc.  The licensee
 of this program is prohibited from giving any competitor of
 Gaussian, Inc. access to this program.  By using this program,
 the user acknowledges that Gaussian, Inc. is engaged in the
 business of creating and licensing software in the field of
 computational chemistry and represents and warrants to the
 licensee that it is not a competitor of Gaussian, Inc. and that
 it will not use this program in any manner prohibited above.
 ---------------------------------------------------------------
  

 Cite this work as:
 Gaussian 16, Revision A.03,
 M. J. Frisch, G. W. Trucks, H. B. Schlegel, G. E. Scuseria, 
 M. A. Robb, J. R. Cheeseman, G. Scalmani, V. Barone, 
 G. A. Petersson, H. Nakatsuji, X. Li, M. Caricato, A. V. Marenich, 
 J. Bloino, B. G. Janesko, R. Gomperts, B. Mennucci, H. P. Hratchian, 
 J. V. Ortiz, A. F. Izmaylov, J. L. Sonnenberg, D. Williams-Young, 
 F. Ding, F. Lipparini, F. Egidi, J. Goings, B. Peng, A. Petrone, 
 T. Henderson, D. Ranasinghe, V. G. Zakrzewski, J. Gao, N. Rega, 
 G. Zheng, W. Liang, M. Hada, M. Ehara, K. Toyota, R. Fukuda, 
 J. Hasegawa, M. Ishida, T. Nakajima, Y. Honda, O. Kitao, H. Nakai, 
 T. Vreven, K. Throssell, J. A. Montgomery, Jr., J. E. Peralta, 
 F. Ogliaro, M. J. Bearpark, J. J. Heyd, E. N. Brothers, K. N. Kudin, 
 V. N. Staroverov, T. A. Keith, R. Kobayashi, J. Normand, 
 K. Raghavachari, A. P. Rendell, J. C. Burant, S. S. Iyengar, 
 J. Tomasi, M. Cossi, J. M. Millam, M. Klene, C. Adamo, R. Cammi, 
 J. W. Ochterski, R. L. Martin, K. Morokuma, O. Farkas, 
 J. B. Foresman, and D. J. Fox, Gaussian, Inc., Wallingford CT, 2016.
 
 ******************************************
 Gaussian 16:  ES64L-G16RevA.03 25-Dec-2016
                22-Sep-2023 
 ******************************************
 %nprocshared=2
 Will use up to    2 processors via shared memory.
 %mem=2GB
 ------------------------------------------------------
 # b3lyp/6-31+g(d,p) scrf=(iefpcm,solvent=acetonitrile)
 ------------------------------------------------------
 1/38=1,172=1/1;
 2/12=2,17=6,18=5,40=1/2;
 3/5=1,6=6,7=111,11=2,25=1,30=1,70=2201,72=2,74=-5/1,2,3;
 4//1;
 5/5=2,38=5,53=2/2;
 6/7=2,8=2,9=2,10=2,28=1/1;
 99/5=1,9=1/99;
 --------------------
 tmpdir/M2_ref_20.gjf
 --------------------
 Symbolic Z-matrix:
 Charge =  0 Multiplicity = 1
 C                     3.16165  -1.04264   0.85348 
 C                     2.73512  -2.20513   0.20378 
 H                     1.681    -2.46535   0.16134 
 O                     4.35463  -0.75435   0.92254 
 H                     2.391    -0.40895   1.38698 
 O                     3.571    -2.93361  -0.32719 
 
                          Input orientation:                          
 ---------------------------------------------------------------------
 Center     Atomic      Atomic             Coordinates (Angstroms)
 Number     Number       Type             X           Y           Z
 ---------------------------------------------------------------------
      1          6           0        3.161650   -1.042641    0.853483
      2          6           0        2.735119   -2.205131    0.203778
      3          1           0        1.681001   -2.465345    0.161342
      4          8           0        4.354626   -0.754354    0.922536
      5          1           0        2.390995   -0.408954    1.386985
      6          8           0        3.571002   -2.933610   -0.327193
 ---------------------------------------------------------------------
                    Distance matrix (angstroms):
                    1          2          3          4          5
     1  C    0.000000
     2  C    1.398366   0.000000
     3  H    2.166903   1.086590   0.000000
     4  O    1.229256   2.290015   3.264227   0.000000
     5  H    1.131412   2.178222   2.497005   2.047159   0.000000
     6  O    2.266568   1.229355   2.007497   2.631548   3.271806
                    6
     6  O    0.000000
 Stoichiometry    C2H2O2
 Framework group  C1[X(C2H2O2)]
 Deg. of freedom    12
 Full point group                 C1      NOp   1
 Largest Abelian subgroup         C1      NOp   1
 Largest concise Abelian subgroup C1      NOp   1
                         Standard orientation:                         
 ---------------------------------------------------------------------
 Center     Atomic      Atomic             Coordinates (Angstroms)
 Number     Number       Type             X           Y           Z
 ---------------------------------------------------------------------
      1          6           0        0.691828    0.499617   -0.013723
      2          6           0       -0.706460    0.506188   -0.000513
      3          1           0       -1.259625    1.441427    0.003378
      4          8           0        1.322688   -0.555280    0.002965
      5          1           0        1.236632    1.489718    0.040860
      6          8           0       -1.308840   -0.565466    0.002183
 ---------------------------------------------------------------------
 Rotational constants (GHZ):          24.8884132           7.1929597           5.5807063
 Standard basis: 6-31+G(d,p) (6D, 7F)
 There are    86 symmetry adapted cartesian basis functions of A   symmetry.
 There are    86 symmetry adapted basis functions of A   symmetry.
    86 basis functions,   142 primitive gaussians,    86 cartesian basis functions
    15 alpha electrons       15 beta electrons
       nuclear repulsion energy       105.7471942625 Hartrees.
 NAtoms=    6 NActive=    6 NUniq=    6 SFac= 1.00D+00 NAtFMM=   60 NAOKFM=F Big=F
 Integral buffers will be    131072 words long.
 Raffenetti 2 integral format.
 Two-electron integral symmetry is turned on.
 ------------------------------------------------------------------------------
 Polarizable Continuum Model (PCM)
 =================================
 Model                : PCM.
 Atomic radii         : UFF (Universal Force Field).
 Polarization charges : Total charges.
 Charge compensation  : None.
 Solution method      : On-the-fly selection.
 Cavity type          : Scaled VdW (van der Waals Surface) (Alpha=1.100).
 Cavity algorithm     : GePol (No added spheres)
                        Default sphere list used, NSphG=    6.
                        Lebedev-Laikov grids with approx.  5.0 points / Ang**2.
                        Smoothing algorithm: York/Karplus (Gamma=1.0000).
                        Polarization charges: spherical gaussians, with
                                              point-specific exponents (IZeta= 3).
                        Self-potential: point-specific (ISelfS= 7).
                        Self-field    : sphere-specific E.n sum rule (ISelfD= 2).
 Solvent              : Acetonitrile, Eps=  35.688000 Eps(inf)=   1.806874
 ------------------------------------------------------------------------------
 Spheres list:
 ISph  on   Nord     Re0    Alpha      Xe            Ye            Ze
    1   C      1    1.9255  1.100      0.691828      0.499617     -0.013723
    2   C      2    1.9255  1.100     -0.706460      0.506188     -0.000513
    3   H      3    1.4430  1.100     -1.259625      1.441427      0.003378
    4   O      4    1.7500  1.100      1.322688     -0.555280      0.002965
    5   H      5    1.4430  1.100      1.236632      1.489718      0.040860
    6   O      6    1.7500  1.100     -1.308840     -0.565466      0.002183
 ------------------------------------------------------------------------------
 One-electron integrals computed using PRISM.
 NBasis=    86 RedAO= T EigKep=  1.31D-04  NBF=    86
 NBsUse=    86 1.00D-06 EigRej= -1.00D+00 NBFU=    86
 ExpMin= 4.38D-02 ExpMax= 5.48D+03 ExpMxC= 8.25D+02 IAcc=3 IRadAn=         5 AccDes= 0.00D+00
 Harris functional with IExCor=  402 and IRadAn=       5 diagonalized for initial guess.
 HarFok:  IExCor=  402 AccDes= 0.00D+00 IRadAn=         5 IDoV= 1 UseB2=F ITyADJ=14
 ICtDFT=  3500011 ScaDFX=  1.000000  1.000000  1.000000  1.000000
 FoFCou: FMM=F IPFlag=           0 FMFlag=      100000 FMFlg1=           0
         NFxFlg=           0 DoJE=T BraDBF=F KetDBF=T FulRan=T
         wScrn=  0.000000 ICntrl=       500 IOpCl=  0 I1Cent=   200000004 NGrid=           0
         NMat0=    1 NMatS0=      1 NMatT0=    0 NMatD0=    1 NMtDS0=    0 NMtDT0=    0
 Petite list used in FoFCou.
 Keep R1 ints in memory in canonical form, NReq=8817431.
 Requested convergence on RMS density matrix=1.00D-08 within 128 cycles.
 Requested convergence on MAX density matrix=1.00D-06.
 Requested convergence on             energy=1.00D-06.
 No special actions if energy rises.
 Inv3:  Mode=1 IEnd=     1701027.
 Iteration    1 A*A^-1 deviation from unit magnitude is 2.44D-15 for    736.
 Iteration    1 A*A^-1 deviation from orthogonality  is 2.38D-15 for    736     10.
 Iteration    1 A^-1*A deviation from unit magnitude is 2.44D-15 for    736.
 Iteration    1 A^-1*A deviation from orthogonality  is 9.20D-15 for    666    641.
 Error on total polarization charges =  0.00794
 SCF Done:  E(RB3LYP) =  -227.825668662     A.U. after   11 cycles
            NFock= 11  Conv=0.48D-08     -V/T= 2.0086

 **********************************************************************

            Population analysis using the SCF density.

 **********************************************************************

 Orbital symmetries:
       Occupied  (A) (A) (A) (A) (A) (A) (A) (A) (A) (A) (A) (A)
                 (A) (A) (A)
       Virtual   (A) (A) (A) (A) (A) (A) (A) (A) (A) (A) (A) (A)
                 (A) (A) (A) (A) (A) (A) (A) (A) (A) (A) (A) (A)
                 (A) (A) (A) (A) (A) (A) (A) (A) (A) (A) (A) (A)
                 (A) (A) (A) (A) (A) (A) (A) (A) (A) (A) (A) (A)
                 (A) (A) (A) (A) (A) (A) (A) (A) (A) (A) (A) (A)
                 (A) (A) (A) (A) (A) (A) (A) (A) (A) (A) (A)
 The electronic state is 1-A.
 Alpha  occ. eigenvalues --  -19.20303 -19.20223 -10.30979 -10.30662  -1.10331
 Alpha  occ. eigenvalues --   -1.06552  -0.75740  -0.57706  -0.55474  -0.48884
 Alpha  occ. eigenvalues --   -0.46269  -0.45651  -0.39159  -0.31979  -0.29279
 Alpha virt. eigenvalues --   -0.14490   0.01270   0.02214   0.03389   0.03807
 Alpha virt. eigenvalues --    0.06053   0.07234   0.08850   0.10186   0.15296
 Alpha virt. eigenvalues --    0.15788   0.19694   0.20003   0.21344   0.23602
 Alpha virt. eigenvalues --    0.24133   0.25237   0.26346   0.28349   0.32363
 Alpha virt. eigenvalues --    0.34982   0.40031   0.52720   0.61699   0.61825
 Alpha virt. eigenvalues --    0.66376   0.75760   0.77609   0.81166   0.87973
 Alpha virt. eigenvalues --    0.99640   1.12118   1.12210   1.12798   1.14986
 Alpha virt. eigenvalues --    1.20117   1.20423   1.25575   1.26513   1.30977
 Alpha virt. eigenvalues --    1.37772   1.45903   1.48832   1.63194   1.64915
 Alpha virt. eigenvalues --    1.71130   1.73698   1.80121   1.84908   1.97667
 Alpha virt. eigenvalues --    1.99440   2.05130   2.08124   2.20301   2.23385
 Alpha virt. eigenvalues --    2.30218   2.42588   2.44914   2.55767   2.67737
 Alpha virt. eigenvalues --    2.75719   2.79700   2.90579   3.10704   3.16742
 Alpha virt. eigenvalues --    3.22176   3.62267   3.99399   4.26121   4.30067
 Alpha virt. eigenvalues --    4.57058
          Condensed to atoms (all electrons):
               1          2          3          4          5          6
     1  C    5.096622   0.048724  -0.084481   0.499299   0.390886  -0.169568
     2  C    0.048724   5.085471   0.395587  -0.166776  -0.086317   0.499579
     3  H   -0.084481   0.395587   0.564675   0.004989   0.007107  -0.057440
     4  O    0.499299  -0.166776   0.004989   8.109467  -0.057955  -0.001368
     5  H    0.390886  -0.086317   0.007107  -0.057955   0.577893   0.005888
     6  O   -0.169568   0.499579  -0.057440  -0.001368   0.005888   8.109565
 Mulliken charges:
               1
     1  C    0.218518
     2  C    0.223733
     3  H    0.169563
     4  O   -0.387655
     5  H    0.162498
     6  O   -0.386657
 Sum of Mulliken charges =  -0.00000
 Mulliken charges with hydrogens summed into heavy atoms:
               1
     1  C    0.381017
     2  C    0.393296
     4  O   -0.387655
     6  O   -0.386657
 Electronic spatial extent (au):  <R**2>=            227.1573
 Charge=             -0.0000 electrons
 Dipole moment (field-independent basis, Debye):
    X=             -0.1226    Y=              4.8989    Z=             -0.0110  Tot=              4.9005
 Quadrupole moment (field-independent basis, Debye-Ang):
   XX=            -27.0249   YY=            -21.6199   ZZ=            -21.3289
   XY=             -0.1633   XZ=              0.0227   YZ=              0.0201
 Traceless Quadrupole moment (field-independent basis, Debye-Ang):
   XX=             -3.7003   YY=              1.7046   ZZ=              1.9957
   XY=             -0.1633   XZ=              0.0227   YZ=              0.0201
 Octapole moment (field-independent basis, Debye-Ang**2):
  XXX=             -0.4732  YYY=              3.0684  ZZZ=              0.0041  XYY=             -0.1449
  XXY=              6.9904  XXZ=             -0.0255  XZZ=             -0.0782  YZZ=             -0.5624
  YYZ=              0.0931  XYZ=              0.0470
 Hexadecapole moment (field-independent basis, Debye-Ang**3):
 XXXX=           -198.9480 YYYY=            -73.0194 ZZZZ=            -18.9331 XXXY=             -0.7352
 XXXZ=              0.1040 YYYX=             -0.3312 YYYZ=              0.0903 ZZZX=              0.0244
 ZZZY=             -0.0401 XXYY=            -40.3649 XXZZ=            -32.9197 YYZZ=            -15.8612
 XXYZ=              0.1165 YYXZ=              0.1341 ZZXY=             -0.1190
 N-N= 1.057471942625D+02 E-N=-7.453608656894D+02  KE= 2.258864388026D+02
 1\1\GINC-NODE62\SP\RB3LYP\6-31+G(d,p)\C2H2O2\YANZ\22-Sep-2023\0\\# b3l
 yp/6-31+g(d,p) scrf=(iefpcm,solvent=acetonitrile)\\tmpdir/M2_ref_20.gj
 f\\0,1\C,0,3.16165,-1.042641,0.853483\C,0,2.735119,-2.205131,0.203778\
 H,0,1.681001,-2.465345,0.161342\O,0,4.35462632,-0.75435433,0.92253645\
 H,0,2.39099503,-0.40895372,1.38698451\O,0,3.57100205,-2.9336103,-0.327
 19287\\Version=ES64L-G16RevA.03\State=1-A\HF=-227.8256687\RMSD=4.840e-
 09\Dipole=-1.8444064,0.3735199,0.4192829\Quadrupole=0.9718478,-1.48632
 96,0.5144818,-0.9186178,-0.5177842,-1.6976943\PG=C01 [X(C2H2O2)]\\@


 JUST WHEN YOU THINK YOU'VE GOT THE WORLD ON A STRING,
 YOU FIND OUT IT'S YOUR LEASH.
 Job cpu time:       0 days  0 hours  0 minutes 25.0 seconds.
 Elapsed time:       0 days  0 hours  0 minutes 12.7 seconds.
 File lengths (MBytes):  RWF=     16 Int=      0 D2E=      0 Chk=      2 Scr=      1
 Normal termination of Gaussian 16 at Fri Sep 22 17:07:23 2023.
