 Entering Gaussian System, Link 0=g16
 Initial command:
 /share/apps/gaussian/g16/l1.exe "/tmp/55647.mgr/Gau-1603.inp" -scrdir="/tmp/55647.mgr/"
 Entering Link 1 = /share/apps/gaussian/g16/l1.exe PID=      1604.
  
 Copyright (c) 1988,1990,1992,1993,1995,1998,2003,2009,2016,
            Gaussian, Inc.  All Rights Reserved.
  
 This is part of the Gaussian(R) 16 program.  It is based on
 the Gaussian(R) 09 system (copyright 2009, Gaussian, Inc.),
 the Gaussian(R) 03 system (copyright 2003, Gaussian, Inc.),
 the Gaussian(R) 98 system (copyright 1998, Gaussian, Inc.),
 the Gaussian(R) 94 system (copyright 1995, Gaussian, Inc.),
 the Gaussian 92(TM) system (copyright 1992, Gaussian, Inc.),
 the Gaussian 90(TM) system (copyright 1990, Gaussian, Inc.),
 the Gaussian 88(TM) system (copyright 1988, Gaussian, Inc.),
 the Gaussian 86(TM) system (copyright 1986, Carnegie Mellon
 University), and the Gaussian 82(TM) system (copyright 1983,
 Carnegie Mellon University). Gaussian is a federally registered
 trademark of Gaussian, Inc.
  
 This software contains proprietary and confidential information,
 including trade secrets, belonging to Gaussian, Inc.
  
 This software is provided under written license and may be
 used, copied, transmitted, or stored only in accord with that
 written license.
  
 The following legend is applicable only to US Government
 contracts under FAR:
  
                    RESTRICTED RIGHTS LEGEND
  
 Use, reproduction and disclosure by the US Government is
 subject to restrictions as set forth in subparagraphs (a)
 and (c) of the Commercial Computer Software - Restricted
 Rights clause in FAR 52.227-19.
  
 Gaussian, Inc.
 340 Quinnipiac St., Bldg. 40, Wallingford CT 06492
  
  
 ---------------------------------------------------------------
 Warning -- This program may not be used in any manner that
 competes with the business of Gaussian, Inc. or will provide
 assistance to any competitor of Gaussian, Inc.  The licensee
 of this program is prohibited from giving any competitor of
 Gaussian, Inc. access to this program.  By using this program,
 the user acknowledges that Gaussian, Inc. is engaged in the
 business of creating and licensing software in the field of
 computational chemistry and represents and warrants to the
 licensee that it is not a competitor of Gaussian, Inc. and that
 it will not use this program in any manner prohibited above.
 ---------------------------------------------------------------
  

 Cite this work as:
 Gaussian 16, Revision A.03,
 M. J. Frisch, G. W. Trucks, H. B. Schlegel, G. E. Scuseria, 
 M. A. Robb, J. R. Cheeseman, G. Scalmani, V. Barone, 
 G. A. Petersson, H. Nakatsuji, X. Li, M. Caricato, A. V. Marenich, 
 J. Bloino, B. G. Janesko, R. Gomperts, B. Mennucci, H. P. Hratchian, 
 J. V. Ortiz, A. F. Izmaylov, J. L. Sonnenberg, D. Williams-Young, 
 F. Ding, F. Lipparini, F. Egidi, J. Goings, B. Peng, A. Petrone, 
 T. Henderson, D. Ranasinghe, V. G. Zakrzewski, J. Gao, N. Rega, 
 G. Zheng, W. Liang, M. Hada, M. Ehara, K. Toyota, R. Fukuda, 
 J. Hasegawa, M. Ishida, T. Nakajima, Y. Honda, O. Kitao, H. Nakai, 
 T. Vreven, K. Throssell, J. A. Montgomery, Jr., J. E. Peralta, 
 F. Ogliaro, M. J. Bearpark, J. J. Heyd, E. N. Brothers, K. N. Kudin, 
 V. N. Staroverov, T. A. Keith, R. Kobayashi, J. Normand, 
 K. Raghavachari, A. P. Rendell, J. C. Burant, S. S. Iyengar, 
 J. Tomasi, M. Cossi, J. M. Millam, M. Klene, C. Adamo, R. Cammi, 
 J. W. Ochterski, R. L. Martin, K. Morokuma, O. Farkas, 
 J. B. Foresman, and D. J. Fox, Gaussian, Inc., Wallingford CT, 2016.
 
 ******************************************
 Gaussian 16:  ES64L-G16RevA.03 25-Dec-2016
                22-Sep-2023 
 ******************************************
 %nprocshared=2
 Will use up to    2 processors via shared memory.
 %mem=2GB
 ------------------------------------------------------
 # b3lyp/6-31+g(d,p) scrf=(iefpcm,solvent=acetonitrile)
 ------------------------------------------------------
 1/38=1,172=1/1;
 2/12=2,17=6,18=5,40=1/2;
 3/5=1,6=6,7=111,11=2,25=1,30=1,70=2201,72=2,74=-5/1,2,3;
 4//1;
 5/5=2,38=5,53=2/2;
 6/7=2,8=2,9=2,10=2,28=1/1;
 99/5=1,9=1/99;
 ---------------------
 tmpdir/M2_ref_130.gjf
 ---------------------
 Symbolic Z-matrix:
 Charge =  0 Multiplicity = 1
 C                    -6.1104   -1.0247   -2.30654 
 C                    -6.87286  -1.94426  -1.57826 
 H                    -5.4392   -0.43498  -1.83369 
 H                    -6.23845  -0.93746  -3.38068 
 H                    -6.76006  -2.02346  -0.57508 
 H                    -7.59263  -2.57454  -2.09133 
 
                          Input orientation:                          
 ---------------------------------------------------------------------
 Center     Atomic      Atomic             Coordinates (Angstroms)
 Number     Number       Type             X           Y           Z
 ---------------------------------------------------------------------
      1          6           0       -6.110395   -1.024696   -2.306535
      2          6           0       -6.872857   -1.944259   -1.578262
      3          1           0       -5.439198   -0.434979   -1.833688
      4          1           0       -6.238447   -0.937459   -3.380681
      5          1           0       -6.760063   -2.023458   -0.575078
      6          1           0       -7.592633   -2.574536   -2.091326
 ---------------------------------------------------------------------
                    Distance matrix (angstroms):
                    1          2          3          4          5
     1  C    0.000000
     2  C    1.399045   0.000000
     3  H    1.010868   2.097271   0.000000
     4  H    1.085264   2.159823   1.812311   0.000000
     5  H    2.101794   1.012608   2.419100   3.053340   0.000000
     6  H    2.155307   1.085616   3.046532   2.485212   1.815453
                    6
     6  H    0.000000
 Stoichiometry    C2H4
 Framework group  C1[X(C2H4)]
 Deg. of freedom    12
 Full point group                 C1      NOp   1
 Largest Abelian subgroup         C1      NOp   1
 Largest concise Abelian subgroup C1      NOp   1
                         Standard orientation:                         
 ---------------------------------------------------------------------
 Center     Atomic      Atomic             Coordinates (Angstroms)
 Number     Number       Type             X           Y           Z
 ---------------------------------------------------------------------
      1          6           0        0.699411   -0.008614   -0.000494
      2          6           0       -0.699633   -0.007892   -0.000408
      3          1           0        1.206222   -0.883256   -0.000042
      4          1           0        1.246594    0.928603    0.002855
      5          1           0       -1.212876   -0.880787    0.002845
      6          1           0       -1.238608    0.934481   -0.000244
 ---------------------------------------------------------------------
 Rotational constants (GHZ):         152.2889263          28.3837525          23.9246993
 Standard basis: 6-31+G(d,p) (6D, 7F)
 There are    58 symmetry adapted cartesian basis functions of A   symmetry.
 There are    58 symmetry adapted basis functions of A   symmetry.
    58 basis functions,    92 primitive gaussians,    58 cartesian basis functions
     8 alpha electrons        8 beta electrons
       nuclear repulsion energy        33.0733513450 Hartrees.
 NAtoms=    6 NActive=    6 NUniq=    6 SFac= 1.00D+00 NAtFMM=   60 NAOKFM=F Big=F
 Integral buffers will be    131072 words long.
 Raffenetti 2 integral format.
 Two-electron integral symmetry is turned on.
 ------------------------------------------------------------------------------
 Polarizable Continuum Model (PCM)
 =================================
 Model                : PCM.
 Atomic radii         : UFF (Universal Force Field).
 Polarization charges : Total charges.
 Charge compensation  : None.
 Solution method      : On-the-fly selection.
 Cavity type          : Scaled VdW (van der Waals Surface) (Alpha=1.100).
 Cavity algorithm     : GePol (No added spheres)
                        Default sphere list used, NSphG=    6.
                        Lebedev-Laikov grids with approx.  5.0 points / Ang**2.
                        Smoothing algorithm: York/Karplus (Gamma=1.0000).
                        Polarization charges: spherical gaussians, with
                                              point-specific exponents (IZeta= 3).
                        Self-potential: point-specific (ISelfS= 7).
                        Self-field    : sphere-specific E.n sum rule (ISelfD= 2).
 Solvent              : Acetonitrile, Eps=  35.688000 Eps(inf)=   1.806874
 ------------------------------------------------------------------------------
 Spheres list:
 ISph  on   Nord     Re0    Alpha      Xe            Ye            Ze
    1   C      1    1.9255  1.100      0.699411     -0.008614     -0.000494
    2   C      2    1.9255  1.100     -0.699633     -0.007892     -0.000408
    3   H      3    1.4430  1.100      1.206222     -0.883256     -0.000042
    4   H      4    1.4430  1.100      1.246594      0.928603      0.002855
    5   H      5    1.4430  1.100     -1.212876     -0.880787      0.002845
    6   H      6    1.4430  1.100     -1.238608      0.934481     -0.000244
 ------------------------------------------------------------------------------
 One-electron integrals computed using PRISM.
 NBasis=    58 RedAO= T EigKep=  2.85D-04  NBF=    58
 NBsUse=    58 1.00D-06 EigRej= -1.00D+00 NBFU=    58
 ExpMin= 4.38D-02 ExpMax= 3.05D+03 ExpMxC= 4.57D+02 IAcc=3 IRadAn=         5 AccDes= 0.00D+00
 Harris functional with IExCor=  402 and IRadAn=       5 diagonalized for initial guess.
 HarFok:  IExCor=  402 AccDes= 0.00D+00 IRadAn=         5 IDoV= 1 UseB2=F ITyADJ=14
 ICtDFT=  3500011 ScaDFX=  1.000000  1.000000  1.000000  1.000000
 FoFCou: FMM=F IPFlag=           0 FMFlag=      100000 FMFlg1=           0
         NFxFlg=           0 DoJE=T BraDBF=F KetDBF=T FulRan=T
         wScrn=  0.000000 ICntrl=       500 IOpCl=  0 I1Cent=   200000004 NGrid=           0
         NMat0=    1 NMatS0=      1 NMatT0=    0 NMatD0=    1 NMtDS0=    0 NMtDT0=    0
 Petite list used in FoFCou.
 Keep R1 ints in memory in canonical form, NReq=3224596.
 Requested convergence on RMS density matrix=1.00D-08 within 128 cycles.
 Requested convergence on MAX density matrix=1.00D-06.
 Requested convergence on             energy=1.00D-06.
 No special actions if energy rises.
 Inv3:  Mode=1 IEnd=     1156923.
 Iteration    1 A*A^-1 deviation from unit magnitude is 4.00D-15 for    620.
 Iteration    1 A*A^-1 deviation from orthogonality  is 2.53D-15 for    319     62.
 Iteration    1 A^-1*A deviation from unit magnitude is 3.77D-15 for    620.
 Iteration    1 A^-1*A deviation from orthogonality  is 1.51D-15 for    351     54.
 Error on total polarization charges =  0.01284
 SCF Done:  E(RB3LYP) =  -78.5886758527     A.U. after    9 cycles
            NFock=  9  Conv=0.31D-08     -V/T= 2.0099

 **********************************************************************

            Population analysis using the SCF density.

 **********************************************************************

 Orbital symmetries:
       Occupied  (A) (A) (A) (A) (A) (A) (A) (A)
       Virtual   (A) (A) (A) (A) (A) (A) (A) (A) (A) (A) (A) (A)
                 (A) (A) (A) (A) (A) (A) (A) (A) (A) (A) (A) (A)
                 (A) (A) (A) (A) (A) (A) (A) (A) (A) (A) (A) (A)
                 (A) (A) (A) (A) (A) (A) (A) (A) (A) (A) (A) (A)
                 (A) (A)
 The electronic state is 1-A.
 Alpha  occ. eigenvalues --  -10.19608 -10.19548  -0.75815  -0.59960  -0.48008
 Alpha  occ. eigenvalues --   -0.41407  -0.37820  -0.27080
 Alpha virt. eigenvalues --   -0.02253   0.02535   0.03702   0.05223   0.06702
 Alpha virt. eigenvalues --    0.08824   0.09086   0.12403   0.16009   0.18268
 Alpha virt. eigenvalues --    0.21969   0.25645   0.32480   0.35438   0.58407
 Alpha virt. eigenvalues --    0.63185   0.67761   0.71550   0.71877   0.81189
 Alpha virt. eigenvalues --    0.91831   0.92762   0.98255   1.02444   1.12949
 Alpha virt. eigenvalues --    1.19798   1.36932   1.38182   1.50109   1.87377
 Alpha virt. eigenvalues --    1.91658   1.97340   2.00966   2.09615   2.11491
 Alpha virt. eigenvalues --    2.25259   2.37158   2.50767   2.51802   2.56699
 Alpha virt. eigenvalues --    2.72992   2.77418   2.79043   3.02293   3.26052
 Alpha virt. eigenvalues --    3.47513   3.58348   3.79701   4.20138   4.49919
          Condensed to atoms (all electrons):
               1          2          3          4          5          6
     1  C    4.907362   0.661608   0.401846   0.391835  -0.033675  -0.030345
     2  C    0.661608   4.907168  -0.033816  -0.029939   0.401770   0.391781
     3  H    0.401846  -0.033816   0.522520  -0.035763  -0.007731   0.004313
     4  H    0.391835  -0.029939  -0.035763   0.526887   0.004246  -0.007184
     5  H   -0.033675   0.401770  -0.007731   0.004246   0.521819  -0.035569
     6  H   -0.030345   0.391781   0.004313  -0.007184  -0.035569   0.527489
 Mulliken charges:
               1
     1  C   -0.298631
     2  C   -0.298572
     3  H    0.148631
     4  H    0.149918
     5  H    0.149140
     6  H    0.149514
 Sum of Mulliken charges =  -0.00000
 Mulliken charges with hydrogens summed into heavy atoms:
               1
     1  C   -0.000082
     2  C    0.000082
 Electronic spatial extent (au):  <R**2>=             84.4392
 Charge=             -0.0000 electrons
 Dipole moment (field-independent basis, Debye):
    X=              0.0019    Y=             -0.0396    Z=              0.0070  Tot=              0.0402
 Quadrupole moment (field-independent basis, Debye-Ang):
   XX=            -12.2451   YY=            -12.2347   ZZ=            -16.1884
   XY=              0.0149   XZ=              0.0004   YZ=             -0.0002
 Traceless Quadrupole moment (field-independent basis, Debye-Ang):
   XX=              1.3110   YY=              1.3214   ZZ=             -2.6323
   XY=              0.0149   XZ=              0.0004   YZ=             -0.0002
 Octapole moment (field-independent basis, Debye-Ang**2):
  XXX=              0.0207  YYY=             -0.1625  ZZZ=              0.0150  XYY=             -0.0032
  XXY=             -0.0446  XXZ=              0.0160  XZZ=              0.0037  YZZ=             -0.1375
  YYZ=              0.0096  XYZ=              0.0096
 Hexadecapole moment (field-independent basis, Debye-Ang**3):
 XXXX=            -71.9868 YYYY=            -26.8433 ZZZZ=            -23.7096 XXXY=              0.0784
 XXXZ=              0.0010 YYYX=              0.0067 YYYZ=             -0.0006 ZZZX=             -0.0001
 ZZZY=             -0.0009 XXYY=            -13.9329 XXZZ=            -17.0463 YYZZ=             -9.0558
 XXYZ=              0.0000 YYXZ=              0.0009 ZZXY=              0.0032
 N-N= 3.307335134502D+01 E-N=-2.474061031206D+02  KE= 7.781756931374D+01
 1\1\GINC-NODE62\SP\RB3LYP\6-31+G(d,p)\C2H4\YANZ\22-Sep-2023\0\\# b3lyp
 /6-31+g(d,p) scrf=(iefpcm,solvent=acetonitrile)\\tmpdir/M2_ref_130.gjf
 \\0,1\C,0,-6.110395,-1.024696,-2.306535\C,0,-6.872857,-1.944259,-1.578
 262\H,0,-5.43919849,-0.43497937,-1.83368832\H,0,-6.238447,-0.937459,-3
 .380681\H,0,-6.76006253,-2.02345792,-0.57507762\H,0,-7.592633,-2.57453
 6,-2.091326\\Version=ES64L-G16RevA.03\State=1-A\HF=-78.5886759\RMSD=3.
 131e-09\Dipole=0.0054878,0.0069649,0.0131041\Quadrupole=-0.4920624,-0.
 4423903,0.9344527,1.4339145,0.2852048,-0.2824104\PG=C01 [X(C2H4)]\\@


 "MATHEMATICS IS THE ART OF GIVING THE SAME NAME
 TO DIFFERENT THINGS."
                    - H. POINCARE
 Job cpu time:       0 days  0 hours  0 minutes 12.3 seconds.
 Elapsed time:       0 days  0 hours  0 minutes  6.2 seconds.
 File lengths (MBytes):  RWF=     13 Int=      0 D2E=      0 Chk=      2 Scr=      1
 Normal termination of Gaussian 16 at Fri Sep 22 17:08:55 2023.
