 Entering Gaussian System, Link 0=g16
 Initial command:
 /share/apps/gaussian/g16/l1.exe "/tmp/55647.mgr/Gau-630.inp" -scrdir="/tmp/55647.mgr/"
 Entering Link 1 = /share/apps/gaussian/g16/l1.exe PID=       631.
  
 Copyright (c) 1988,1990,1992,1993,1995,1998,2003,2009,2016,
            Gaussian, Inc.  All Rights Reserved.
  
 This is part of the Gaussian(R) 16 program.  It is based on
 the Gaussian(R) 09 system (copyright 2009, Gaussian, Inc.),
 the Gaussian(R) 03 system (copyright 2003, Gaussian, Inc.),
 the Gaussian(R) 98 system (copyright 1998, Gaussian, Inc.),
 the Gaussian(R) 94 system (copyright 1995, Gaussian, Inc.),
 the Gaussian 92(TM) system (copyright 1992, Gaussian, Inc.),
 the Gaussian 90(TM) system (copyright 1990, Gaussian, Inc.),
 the Gaussian 88(TM) system (copyright 1988, Gaussian, Inc.),
 the Gaussian 86(TM) system (copyright 1986, Carnegie Mellon
 University), and the Gaussian 82(TM) system (copyright 1983,
 Carnegie Mellon University). Gaussian is a federally registered
 trademark of Gaussian, Inc.
  
 This software contains proprietary and confidential information,
 including trade secrets, belonging to Gaussian, Inc.
  
 This software is provided under written license and may be
 used, copied, transmitted, or stored only in accord with that
 written license.
  
 The following legend is applicable only to US Government
 contracts under FAR:
  
                    RESTRICTED RIGHTS LEGEND
  
 Use, reproduction and disclosure by the US Government is
 subject to restrictions as set forth in subparagraphs (a)
 and (c) of the Commercial Computer Software - Restricted
 Rights clause in FAR 52.227-19.
  
 Gaussian, Inc.
 340 Quinnipiac St., Bldg. 40, Wallingford CT 06492
  
  
 ---------------------------------------------------------------
 Warning -- This program may not be used in any manner that
 competes with the business of Gaussian, Inc. or will provide
 assistance to any competitor of Gaussian, Inc.  The licensee
 of this program is prohibited from giving any competitor of
 Gaussian, Inc. access to this program.  By using this program,
 the user acknowledges that Gaussian, Inc. is engaged in the
 business of creating and licensing software in the field of
 computational chemistry and represents and warrants to the
 licensee that it is not a competitor of Gaussian, Inc. and that
 it will not use this program in any manner prohibited above.
 ---------------------------------------------------------------
  

 Cite this work as:
 Gaussian 16, Revision A.03,
 M. J. Frisch, G. W. Trucks, H. B. Schlegel, G. E. Scuseria, 
 M. A. Robb, J. R. Cheeseman, G. Scalmani, V. Barone, 
 G. A. Petersson, H. Nakatsuji, X. Li, M. Caricato, A. V. Marenich, 
 J. Bloino, B. G. Janesko, R. Gomperts, B. Mennucci, H. P. Hratchian, 
 J. V. Ortiz, A. F. Izmaylov, J. L. Sonnenberg, D. Williams-Young, 
 F. Ding, F. Lipparini, F. Egidi, J. Goings, B. Peng, A. Petrone, 
 T. Henderson, D. Ranasinghe, V. G. Zakrzewski, J. Gao, N. Rega, 
 G. Zheng, W. Liang, M. Hada, M. Ehara, K. Toyota, R. Fukuda, 
 J. Hasegawa, M. Ishida, T. Nakajima, Y. Honda, O. Kitao, H. Nakai, 
 T. Vreven, K. Throssell, J. A. Montgomery, Jr., J. E. Peralta, 
 F. Ogliaro, M. J. Bearpark, J. J. Heyd, E. N. Brothers, K. N. Kudin, 
 V. N. Staroverov, T. A. Keith, R. Kobayashi, J. Normand, 
 K. Raghavachari, A. P. Rendell, J. C. Burant, S. S. Iyengar, 
 J. Tomasi, M. Cossi, J. M. Millam, M. Klene, C. Adamo, R. Cammi, 
 J. W. Ochterski, R. L. Martin, K. Morokuma, O. Farkas, 
 J. B. Foresman, and D. J. Fox, Gaussian, Inc., Wallingford CT, 2016.
 
 ******************************************
 Gaussian 16:  ES64L-G16RevA.03 25-Dec-2016
                22-Sep-2023 
 ******************************************
 %nprocshared=2
 Will use up to    2 processors via shared memory.
 %mem=2GB
 ------------------------------------------------------
 # b3lyp/6-31+g(d,p) scrf=(iefpcm,solvent=acetonitrile)
 ------------------------------------------------------
 1/38=1,172=1/1;
 2/12=2,17=6,18=5,40=1/2;
 3/5=1,6=6,7=111,11=2,25=1,30=1,70=2201,72=2,74=-5/1,2,3;
 4//1;
 5/5=2,38=5,53=2/2;
 6/7=2,8=2,9=2,10=2,28=1/1;
 99/5=1,9=1/99;
 --------------------
 tmpdir/M2_ref_63.gjf
 --------------------
 Symbolic Z-matrix:
 Charge =  0 Multiplicity = 1
 C                     2.17227   1.5438   -0.57617 
 C                     2.64941   2.80929  -0.21645 
 H                     2.31761   3.25887   0.71297 
 H                     1.463     1.01535   0.12803 
 O                     2.53248   1.01732  -1.63347 
 O                     3.43559   3.39976  -0.9601 
 
                          Input orientation:                          
 ---------------------------------------------------------------------
 Center     Atomic      Atomic             Coordinates (Angstroms)
 Number     Number       Type             X           Y           Z
 ---------------------------------------------------------------------
      1          6           0        2.172272    1.543797   -0.576165
      2          6           0        2.649409    2.809285   -0.216445
      3          1           0        2.317607    3.258866    0.712967
      4          1           0        1.462999    1.015351    0.128027
      5          8           0        2.532478    1.017317   -1.633474
      6          8           0        3.435587    3.399764   -0.960101
 ---------------------------------------------------------------------
                    Distance matrix (angstroms):
                    1          2          3          4          5
     1  C    0.000000
     2  C    1.399471   0.000000
     3  H    2.150452   1.084446   0.000000
     4  H    1.130579   2.178171   2.471006   0.000000
     5  O    1.234841   2.287530   3.252152   2.060746   0.000000
     6  O    2.277715   1.232788   2.017149   3.280328   2.635354
                    6
     6  O    0.000000
 Stoichiometry    C2H2O2
 Framework group  C1[X(C2H2O2)]
 Deg. of freedom    12
 Full point group                 C1      NOp   1
 Largest Abelian subgroup         C1      NOp   1
 Largest concise Abelian subgroup C1      NOp   1
                         Standard orientation:                         
 ---------------------------------------------------------------------
 Center     Atomic      Atomic             Coordinates (Angstroms)
 Number     Number       Type             X           Y           Z
 ---------------------------------------------------------------------
      1          6           0       -0.697145    0.502971   -0.000802
      2          6           0        0.702320    0.506883   -0.000702
      3          1           0        1.231988    1.453158   -0.006805
      4          1           0       -1.238590    1.495392    0.011339
      5          8           0       -1.319204   -0.563741   -0.000765
      6          8           0        1.316149   -0.562218    0.001326
 ---------------------------------------------------------------------
 Rotational constants (GHZ):          24.6609936           7.1817044           5.5619915
 Standard basis: 6-31+G(d,p) (6D, 7F)
 There are    86 symmetry adapted cartesian basis functions of A   symmetry.
 There are    86 symmetry adapted basis functions of A   symmetry.
    86 basis functions,   142 primitive gaussians,    86 cartesian basis functions
    15 alpha electrons       15 beta electrons
       nuclear repulsion energy       105.5231069245 Hartrees.
 NAtoms=    6 NActive=    6 NUniq=    6 SFac= 1.00D+00 NAtFMM=   60 NAOKFM=F Big=F
 Integral buffers will be    131072 words long.
 Raffenetti 2 integral format.
 Two-electron integral symmetry is turned on.
 ------------------------------------------------------------------------------
 Polarizable Continuum Model (PCM)
 =================================
 Model                : PCM.
 Atomic radii         : UFF (Universal Force Field).
 Polarization charges : Total charges.
 Charge compensation  : None.
 Solution method      : On-the-fly selection.
 Cavity type          : Scaled VdW (van der Waals Surface) (Alpha=1.100).
 Cavity algorithm     : GePol (No added spheres)
                        Default sphere list used, NSphG=    6.
                        Lebedev-Laikov grids with approx.  5.0 points / Ang**2.
                        Smoothing algorithm: York/Karplus (Gamma=1.0000).
                        Polarization charges: spherical gaussians, with
                                              point-specific exponents (IZeta= 3).
                        Self-potential: point-specific (ISelfS= 7).
                        Self-field    : sphere-specific E.n sum rule (ISelfD= 2).
 Solvent              : Acetonitrile, Eps=  35.688000 Eps(inf)=   1.806874
 ------------------------------------------------------------------------------
 Spheres list:
 ISph  on   Nord     Re0    Alpha      Xe            Ye            Ze
    1   C      1    1.9255  1.100     -0.697145      0.502971     -0.000802
    2   C      2    1.9255  1.100      0.702320      0.506883     -0.000702
    3   H      3    1.4430  1.100      1.231988      1.453158     -0.006805
    4   H      4    1.4430  1.100     -1.238590      1.495392      0.011339
    5   O      5    1.7500  1.100     -1.319204     -0.563741     -0.000765
    6   O      6    1.7500  1.100      1.316149     -0.562218      0.001326
 ------------------------------------------------------------------------------
 One-electron integrals computed using PRISM.
 NBasis=    86 RedAO= T EigKep=  1.32D-04  NBF=    86
 NBsUse=    86 1.00D-06 EigRej= -1.00D+00 NBFU=    86
 ExpMin= 4.38D-02 ExpMax= 5.48D+03 ExpMxC= 8.25D+02 IAcc=3 IRadAn=         5 AccDes= 0.00D+00
 Harris functional with IExCor=  402 and IRadAn=       5 diagonalized for initial guess.
 HarFok:  IExCor=  402 AccDes= 0.00D+00 IRadAn=         5 IDoV= 1 UseB2=F ITyADJ=14
 ICtDFT=  3500011 ScaDFX=  1.000000  1.000000  1.000000  1.000000
 FoFCou: FMM=F IPFlag=           0 FMFlag=      100000 FMFlg1=           0
         NFxFlg=           0 DoJE=T BraDBF=F KetDBF=T FulRan=T
         wScrn=  0.000000 ICntrl=       500 IOpCl=  0 I1Cent=   200000004 NGrid=           0
         NMat0=    1 NMatS0=      1 NMatT0=    0 NMatD0=    1 NMtDS0=    0 NMtDT0=    0
 Petite list used in FoFCou.
 Keep R1 ints in memory in canonical form, NReq=8817431.
 Requested convergence on RMS density matrix=1.00D-08 within 128 cycles.
 Requested convergence on MAX density matrix=1.00D-06.
 Requested convergence on             energy=1.00D-06.
 No special actions if energy rises.
 Inv3:  Mode=1 IEnd=     1683003.
 Iteration    1 A*A^-1 deviation from unit magnitude is 4.44D-15 for    748.
 Iteration    1 A*A^-1 deviation from orthogonality  is 1.66D-15 for    674    115.
 Iteration    1 A^-1*A deviation from unit magnitude is 4.22D-15 for    748.
 Iteration    1 A^-1*A deviation from orthogonality  is 6.21D-15 for    662    638.
 Error on total polarization charges =  0.00795
 SCF Done:  E(RB3LYP) =  -227.825968612     A.U. after   11 cycles
            NFock= 11  Conv=0.22D-08     -V/T= 2.0087

 **********************************************************************

            Population analysis using the SCF density.

 **********************************************************************

 Orbital symmetries:
       Occupied  (A) (A) (A) (A) (A) (A) (A) (A) (A) (A) (A) (A)
                 (A) (A) (A)
       Virtual   (A) (A) (A) (A) (A) (A) (A) (A) (A) (A) (A) (A)
                 (A) (A) (A) (A) (A) (A) (A) (A) (A) (A) (A) (A)
                 (A) (A) (A) (A) (A) (A) (A) (A) (A) (A) (A) (A)
                 (A) (A) (A) (A) (A) (A) (A) (A) (A) (A) (A) (A)
                 (A) (A) (A) (A) (A) (A) (A) (A) (A) (A) (A) (A)
                 (A) (A) (A) (A) (A) (A) (A) (A) (A) (A) (A)
 The electronic state is 1-A.
 Alpha  occ. eigenvalues --  -19.20350 -19.20278 -10.31051 -10.30694  -1.10091
 Alpha  occ. eigenvalues --   -1.06324  -0.75860  -0.57694  -0.55397  -0.48845
 Alpha  occ. eigenvalues --   -0.46114  -0.45654  -0.39041  -0.32009  -0.29340
 Alpha virt. eigenvalues --   -0.14604   0.01273   0.02114   0.03338   0.03826
 Alpha virt. eigenvalues --    0.06063   0.07219   0.08884   0.10190   0.15286
 Alpha virt. eigenvalues --    0.15728   0.19837   0.19954   0.21346   0.23567
 Alpha virt. eigenvalues --    0.24020   0.25194   0.26325   0.28319   0.32240
 Alpha virt. eigenvalues --    0.34831   0.39949   0.52319   0.61585   0.61710
 Alpha virt. eigenvalues --    0.66409   0.75392   0.77420   0.81188   0.87996
 Alpha virt. eigenvalues --    0.99509   1.12407   1.12578   1.13713   1.14794
 Alpha virt. eigenvalues --    1.20116   1.20322   1.25693   1.26175   1.30974
 Alpha virt. eigenvalues --    1.37415   1.46100   1.48449   1.63266   1.64845
 Alpha virt. eigenvalues --    1.71234   1.73785   1.80048   1.84418   1.97585
 Alpha virt. eigenvalues --    1.98957   2.05173   2.07518   2.19381   2.23673
 Alpha virt. eigenvalues --    2.29682   2.42528   2.45171   2.54795   2.67928
 Alpha virt. eigenvalues --    2.75132   2.79371   2.90234   3.10662   3.15959
 Alpha virt. eigenvalues --    3.22528   3.62009   3.99267   4.26031   4.30322
 Alpha virt. eigenvalues --    4.57334
          Condensed to atoms (all electrons):
               1          2          3          4          5          6
     1  C    5.093959   0.055182  -0.086399   0.388080   0.497081  -0.169069
     2  C    0.055182   5.077690   0.394829  -0.083927  -0.167681   0.499565
     3  H   -0.086399   0.394829   0.566607   0.007334   0.005591  -0.056732
     4  H    0.388080  -0.083927   0.007334   0.571246  -0.054912   0.005470
     5  O    0.497081  -0.167681   0.005591  -0.054912   8.111613  -0.001410
     6  O   -0.169069   0.499565  -0.056732   0.005470  -0.001410   8.112880
 Mulliken charges:
               1
     1  C    0.221165
     2  C    0.224342
     3  H    0.168771
     4  H    0.166708
     5  O   -0.390282
     6  O   -0.390704
 Sum of Mulliken charges =  -0.00000
 Mulliken charges with hydrogens summed into heavy atoms:
               1
     1  C    0.387873
     2  C    0.393113
     5  O   -0.390282
     6  O   -0.390704
 Electronic spatial extent (au):  <R**2>=            227.6968
 Charge=             -0.0000 electrons
 Dipole moment (field-independent basis, Debye):
    X=              0.0524    Y=              4.9456    Z=             -0.0014  Tot=              4.9459
 Quadrupole moment (field-independent basis, Debye-Ang):
   XX=            -27.1230   YY=            -21.5333   ZZ=            -21.3507
   XY=              0.0573   XZ=             -0.0182   YZ=              0.0022
 Traceless Quadrupole moment (field-independent basis, Debye-Ang):
   XX=             -3.7873   YY=              1.8023   ZZ=              1.9850
   XY=              0.0573   XZ=             -0.0182   YZ=              0.0022
 Octapole moment (field-independent basis, Debye-Ang**2):
  XXX=              0.2413  YYY=              3.2864  ZZZ=             -0.0007  XYY=              0.0613
  XXY=              6.9833  XXZ=             -0.0033  XZZ=              0.0853  YZZ=             -0.5526
  YYZ=              0.0099  XYZ=             -0.0154
 Hexadecapole moment (field-independent basis, Debye-Ang**3):
 XXXX=           -199.6858 YYYY=            -73.0258 ZZZZ=            -18.9629 XXXY=              0.3400
 XXXZ=             -0.0345 YYYX=              0.1324 YYYZ=              0.0103 ZZZX=              0.0014
 ZZZY=             -0.0056 XXYY=            -40.4794 XXZZ=            -32.9810 YYZZ=            -15.9313
 XXYZ=              0.0121 YYXZ=             -0.0506 ZZXY=              0.1124
 N-N= 1.055231069245D+02 E-N=-7.448952551451D+02  KE= 2.258547919435D+02
 1\1\GINC-NODE62\SP\RB3LYP\6-31+G(d,p)\C2H2O2\YANZ\22-Sep-2023\0\\# b3l
 yp/6-31+g(d,p) scrf=(iefpcm,solvent=acetonitrile)\\tmpdir/M2_ref_63.gj
 f\\0,1\C,0,2.172272,1.543797,-0.576165\C,0,2.649409,2.809285,-0.216445
 \H,0,2.317607,3.258866,0.712967\H,0,1.46299925,1.0153508,0.12802697\O,
 0,2.53247826,1.01731708,-1.63347384\O,0,3.43558742,3.39976407,-0.96010
 132\\Version=ES64L-G16RevA.03\State=1-A\HF=-227.8259686\RMSD=2.248e-09
 \Dipole=-1.0388578,-0.0469851,1.6446788\Quadrupole=0.9093039,-2.026689
 9,1.1173859,-1.3596996,-0.3104423,-0.9573231\PG=C01 [X(C2H2O2)]\\@


 IF YOU WANT TO LEARN FROM THE THEORETICAL PHYSICISTS ABOUT THE
 METHODS WHICH THEY USE, I ADVISE YOU TO FOLLOW THIS PRINCIPLE VERY STRICTLY:
 DON'T LISTEN TO THEIR WORDS; PAY ATTENTION, INSTEAD, TO THEIR ACTIONS.
 -- A.EINSTEIN, 1934
 Job cpu time:       0 days  0 hours  0 minutes 24.0 seconds.
 Elapsed time:       0 days  0 hours  0 minutes 12.2 seconds.
 File lengths (MBytes):  RWF=     16 Int=      0 D2E=      0 Chk=      2 Scr=      1
 Normal termination of Gaussian 16 at Fri Sep 22 17:07:38 2023.
