 Entering Gaussian System, Link 0=g16
 Initial command:
 /share/apps/gaussian/g16/l1.exe "/tmp/55647.mgr/Gau-1901.inp" -scrdir="/tmp/55647.mgr/"
 Entering Link 1 = /share/apps/gaussian/g16/l1.exe PID=      1902.
  
 Copyright (c) 1988,1990,1992,1993,1995,1998,2003,2009,2016,
            Gaussian, Inc.  All Rights Reserved.
  
 This is part of the Gaussian(R) 16 program.  It is based on
 the Gaussian(R) 09 system (copyright 2009, Gaussian, Inc.),
 the Gaussian(R) 03 system (copyright 2003, Gaussian, Inc.),
 the Gaussian(R) 98 system (copyright 1998, Gaussian, Inc.),
 the Gaussian(R) 94 system (copyright 1995, Gaussian, Inc.),
 the Gaussian 92(TM) system (copyright 1992, Gaussian, Inc.),
 the Gaussian 90(TM) system (copyright 1990, Gaussian, Inc.),
 the Gaussian 88(TM) system (copyright 1988, Gaussian, Inc.),
 the Gaussian 86(TM) system (copyright 1986, Carnegie Mellon
 University), and the Gaussian 82(TM) system (copyright 1983,
 Carnegie Mellon University). Gaussian is a federally registered
 trademark of Gaussian, Inc.
  
 This software contains proprietary and confidential information,
 including trade secrets, belonging to Gaussian, Inc.
  
 This software is provided under written license and may be
 used, copied, transmitted, or stored only in accord with that
 written license.
  
 The following legend is applicable only to US Government
 contracts under FAR:
  
                    RESTRICTED RIGHTS LEGEND
  
 Use, reproduction and disclosure by the US Government is
 subject to restrictions as set forth in subparagraphs (a)
 and (c) of the Commercial Computer Software - Restricted
 Rights clause in FAR 52.227-19.
  
 Gaussian, Inc.
 340 Quinnipiac St., Bldg. 40, Wallingford CT 06492
  
  
 ---------------------------------------------------------------
 Warning -- This program may not be used in any manner that
 competes with the business of Gaussian, Inc. or will provide
 assistance to any competitor of Gaussian, Inc.  The licensee
 of this program is prohibited from giving any competitor of
 Gaussian, Inc. access to this program.  By using this program,
 the user acknowledges that Gaussian, Inc. is engaged in the
 business of creating and licensing software in the field of
 computational chemistry and represents and warrants to the
 licensee that it is not a competitor of Gaussian, Inc. and that
 it will not use this program in any manner prohibited above.
 ---------------------------------------------------------------
  

 Cite this work as:
 Gaussian 16, Revision A.03,
 M. J. Frisch, G. W. Trucks, H. B. Schlegel, G. E. Scuseria, 
 M. A. Robb, J. R. Cheeseman, G. Scalmani, V. Barone, 
 G. A. Petersson, H. Nakatsuji, X. Li, M. Caricato, A. V. Marenich, 
 J. Bloino, B. G. Janesko, R. Gomperts, B. Mennucci, H. P. Hratchian, 
 J. V. Ortiz, A. F. Izmaylov, J. L. Sonnenberg, D. Williams-Young, 
 F. Ding, F. Lipparini, F. Egidi, J. Goings, B. Peng, A. Petrone, 
 T. Henderson, D. Ranasinghe, V. G. Zakrzewski, J. Gao, N. Rega, 
 G. Zheng, W. Liang, M. Hada, M. Ehara, K. Toyota, R. Fukuda, 
 J. Hasegawa, M. Ishida, T. Nakajima, Y. Honda, O. Kitao, H. Nakai, 
 T. Vreven, K. Throssell, J. A. Montgomery, Jr., J. E. Peralta, 
 F. Ogliaro, M. J. Bearpark, J. J. Heyd, E. N. Brothers, K. N. Kudin, 
 V. N. Staroverov, T. A. Keith, R. Kobayashi, J. Normand, 
 K. Raghavachari, A. P. Rendell, J. C. Burant, S. S. Iyengar, 
 J. Tomasi, M. Cossi, J. M. Millam, M. Klene, C. Adamo, R. Cammi, 
 J. W. Ochterski, R. L. Martin, K. Morokuma, O. Farkas, 
 J. B. Foresman, and D. J. Fox, Gaussian, Inc., Wallingford CT, 2016.
 
 ******************************************
 Gaussian 16:  ES64L-G16RevA.03 25-Dec-2016
                22-Sep-2023 
 ******************************************
 %nprocshared=2
 Will use up to    2 processors via shared memory.
 %mem=2GB
 ------------------------------------------------------
 # b3lyp/6-31+g(d,p) scrf=(iefpcm,solvent=acetonitrile)
 ------------------------------------------------------
 1/38=1,172=1/1;
 2/12=2,17=6,18=5,40=1/2;
 3/5=1,6=6,7=111,11=2,25=1,30=1,70=2201,72=2,74=-5/1,2,3;
 4//1;
 5/5=2,38=5,53=2/2;
 6/7=2,8=2,9=2,10=2,28=1/1;
 99/5=1,9=1/99;
 ---------------------
 tmpdir/M2_ref_137.gjf
 ---------------------
 Symbolic Z-matrix:
 Charge =  0 Multiplicity = 1
 C                    -5.7945   -1.24518   0.4755 
 C                    -6.71704  -2.05367  -0.19243 
 C                    -6.87286  -1.94426  -1.57826 
 H                    -5.24837  -0.58451  -0.06259 
 H                    -5.67248  -1.31171   1.55099 
 H                    -7.31484  -2.76337   0.37042 
 O                    -6.20066  -1.13356  -2.22032 
 H                    -7.59263  -2.57454  -2.09133 
 
                          Input orientation:                          
 ---------------------------------------------------------------------
 Center     Atomic      Atomic             Coordinates (Angstroms)
 Number     Number       Type             X           Y           Z
 ---------------------------------------------------------------------
      1          6           0       -5.794502   -1.245176    0.475502
      2          6           0       -6.717039   -2.053667   -0.192430
      3          6           0       -6.872857   -1.944259   -1.578262
      4          1           0       -5.248365   -0.584506   -0.062586
      5          1           0       -5.672484   -1.311713    1.550985
      6          1           0       -7.314841   -2.763369    0.370420
      7          8           0       -6.200658   -1.133558   -2.220319
      8          1           0       -7.592633   -2.574536   -2.091326
 ---------------------------------------------------------------------
                    Distance matrix (angstroms):
                    1          2          3          4          5
     1  C    0.000000
     2  C    1.396734   0.000000
     3  C    2.422708   1.398849   0.000000
     4  H    1.012072   2.081417   2.604837   0.000000
     5  H    1.084426   2.163582   3.410747   1.819977   0.000000
     6  H    2.151135   1.085285   2.159549   3.034017   2.489654
     7  O    2.728529   2.285954   1.233420   2.421597   3.812275
     8  H    3.404274   2.154942   1.085616   3.683965   4.306753
                    6          7          8
     6  H    0.000000
     7  O    3.257241   0.000000
     8  H    2.484556   2.007648   0.000000
 Stoichiometry    C3H4O
 Framework group  C1[X(C3H4O)]
 Deg. of freedom    18
 Full point group                 C1      NOp   1
 Largest Abelian subgroup         C1      NOp   1
 Largest concise Abelian subgroup C1      NOp   1
                         Standard orientation:                         
 ---------------------------------------------------------------------
 Center     Atomic      Atomic             Coordinates (Angstroms)
 Number     Number       Type             X           Y           Z
 ---------------------------------------------------------------------
      1          6           0       -1.425349   -0.474821   -0.001863
      2          6           0       -0.589882    0.644491   -0.001021
      3          6           0        0.799692    0.483670   -0.000838
      4          1           0       -1.004455   -1.395221   -0.001163
      5          1           0       -2.504030   -0.363976    0.009981
      6          1           0       -1.024996    1.638722    0.004060
      7          8           0        1.297888   -0.644657    0.001025
      8          1           0        1.443615    1.357695    0.001262
 ---------------------------------------------------------------------
 Rotational constants (GHZ):          21.3674706           6.8640775           5.1951997
 Standard basis: 6-31+G(d,p) (6D, 7F)
 There are    96 symmetry adapted cartesian basis functions of A   symmetry.
 There are    96 symmetry adapted basis functions of A   symmetry.
    96 basis functions,   156 primitive gaussians,    96 cartesian basis functions
    15 alpha electrons       15 beta electrons
       nuclear repulsion energy       105.9700010737 Hartrees.
 NAtoms=    8 NActive=    8 NUniq=    8 SFac= 1.00D+00 NAtFMM=   60 NAOKFM=F Big=F
 Integral buffers will be    131072 words long.
 Raffenetti 2 integral format.
 Two-electron integral symmetry is turned on.
 ------------------------------------------------------------------------------
 Polarizable Continuum Model (PCM)
 =================================
 Model                : PCM.
 Atomic radii         : UFF (Universal Force Field).
 Polarization charges : Total charges.
 Charge compensation  : None.
 Solution method      : On-the-fly selection.
 Cavity type          : Scaled VdW (van der Waals Surface) (Alpha=1.100).
 Cavity algorithm     : GePol (No added spheres)
                        Default sphere list used, NSphG=    8.
                        Lebedev-Laikov grids with approx.  5.0 points / Ang**2.
                        Smoothing algorithm: York/Karplus (Gamma=1.0000).
                        Polarization charges: spherical gaussians, with
                                              point-specific exponents (IZeta= 3).
                        Self-potential: point-specific (ISelfS= 7).
                        Self-field    : sphere-specific E.n sum rule (ISelfD= 2).
 Solvent              : Acetonitrile, Eps=  35.688000 Eps(inf)=   1.806874
 ------------------------------------------------------------------------------
 Spheres list:
 ISph  on   Nord     Re0    Alpha      Xe            Ye            Ze
    1   C      1    1.9255  1.100     -1.425349     -0.474821     -0.001863
    2   C      2    1.9255  1.100     -0.589882      0.644491     -0.001021
    3   C      3    1.9255  1.100      0.799692      0.483670     -0.000838
    4   H      4    1.4430  1.100     -1.004455     -1.395221     -0.001163
    5   H      5    1.4430  1.100     -2.504030     -0.363976      0.009981
    6   H      6    1.4430  1.100     -1.024996      1.638722      0.004060
    7   O      7    1.7500  1.100      1.297888     -0.644657      0.001025
    8   H      8    1.4430  1.100      1.443615      1.357695      0.001262
 ------------------------------------------------------------------------------
 One-electron integrals computed using PRISM.
 NBasis=    96 RedAO= T EigKep=  1.29D-04  NBF=    96
 NBsUse=    96 1.00D-06 EigRej= -1.00D+00 NBFU=    96
 ExpMin= 4.38D-02 ExpMax= 5.48D+03 ExpMxC= 8.25D+02 IAcc=3 IRadAn=         5 AccDes= 0.00D+00
 Harris functional with IExCor=  402 and IRadAn=       5 diagonalized for initial guess.
 HarFok:  IExCor=  402 AccDes= 0.00D+00 IRadAn=         5 IDoV= 1 UseB2=F ITyADJ=14
 ICtDFT=  3500011 ScaDFX=  1.000000  1.000000  1.000000  1.000000
 FoFCou: FMM=F IPFlag=           0 FMFlag=      100000 FMFlg1=           0
         NFxFlg=           0 DoJE=T BraDBF=F KetDBF=T FulRan=T
         wScrn=  0.000000 ICntrl=       500 IOpCl=  0 I1Cent=   200000004 NGrid=           0
         NMat0=    1 NMatS0=      1 NMatT0=    0 NMatD0=    1 NMtDS0=    0 NMtDT0=    0
 Petite list used in FoFCou.
 Keep R1 ints in memory in canonical form, NReq=12684406.
 Requested convergence on RMS density matrix=1.00D-08 within 128 cycles.
 Requested convergence on MAX density matrix=1.00D-06.
 Requested convergence on             energy=1.00D-06.
 No special actions if energy rises.
 Inv3:  Mode=1 IEnd=     2121843.
 Iteration    1 A*A^-1 deviation from unit magnitude is 3.77D-15 for    830.
 Iteration    1 A*A^-1 deviation from orthogonality  is 1.67D-15 for    839    658.
 Iteration    1 A^-1*A deviation from unit magnitude is 4.00D-15 for    830.
 Iteration    1 A^-1*A deviation from orthogonality  is 1.44D-15 for    836    760.
 Error on total polarization charges =  0.01115
 SCF Done:  E(RB3LYP) =  -191.920217781     A.U. after   12 cycles
            NFock= 12  Conv=0.14D-08     -V/T= 2.0088

 **********************************************************************

            Population analysis using the SCF density.

 **********************************************************************

 Orbital symmetries:
       Occupied  (A) (A) (A) (A) (A) (A) (A) (A) (A) (A) (A) (A)
                 (A) (A) (A)
       Virtual   (A) (A) (A) (A) (A) (A) (A) (A) (A) (A) (A) (A)
                 (A) (A) (A) (A) (A) (A) (A) (A) (A) (A) (A) (A)
                 (A) (A) (A) (A) (A) (A) (A) (A) (A) (A) (A) (A)
                 (A) (A) (A) (A) (A) (A) (A) (A) (A) (A) (A) (A)
                 (A) (A) (A) (A) (A) (A) (A) (A) (A) (A) (A) (A)
                 (A) (A) (A) (A) (A) (A) (A) (A) (A) (A) (A) (A)
                 (A) (A) (A) (A) (A) (A) (A) (A) (A)
 The electronic state is 1-A.
 Alpha  occ. eigenvalues --  -19.15864 -10.28122 -10.22387 -10.21202  -1.05064
 Alpha  occ. eigenvalues --   -0.79990  -0.67960  -0.55683  -0.52414  -0.46091
 Alpha  occ. eigenvalues --   -0.42720  -0.41071  -0.39704  -0.28609  -0.27421
 Alpha virt. eigenvalues --   -0.09721   0.01410   0.03138   0.03961   0.04169
 Alpha virt. eigenvalues --    0.06271   0.06546   0.07532   0.09690   0.09806
 Alpha virt. eigenvalues --    0.12254   0.12395   0.14285   0.16403   0.20024
 Alpha virt. eigenvalues --    0.22147   0.23420   0.24381   0.26392   0.26937
 Alpha virt. eigenvalues --    0.28944   0.31819   0.32437   0.41199   0.46075
 Alpha virt. eigenvalues --    0.63043   0.64904   0.67596   0.68487   0.70834
 Alpha virt. eigenvalues --    0.72008   0.76640   0.86913   0.90455   0.91700
 Alpha virt. eigenvalues --    0.95175   1.03636   1.07377   1.09635   1.16160
 Alpha virt. eigenvalues --    1.20303   1.24964   1.27847   1.29245   1.32614
 Alpha virt. eigenvalues --    1.32953   1.43957   1.48010   1.58210   1.76322
 Alpha virt. eigenvalues --    1.78289   1.82329   1.87272   1.92536   2.01408
 Alpha virt. eigenvalues --    2.02680   2.06320   2.09862   2.17940   2.19083
 Alpha virt. eigenvalues --    2.35231   2.36459   2.45011   2.48283   2.50079
 Alpha virt. eigenvalues --    2.50671   2.65970   2.69214   2.77566   2.80807
 Alpha virt. eigenvalues --    2.91469   3.07904   3.16247   3.25874   3.39803
 Alpha virt. eigenvalues --    3.58637   3.76492   4.12386   4.27670   4.36249
 Alpha virt. eigenvalues --    4.60005
          Condensed to atoms (all electrons):
               1          2          3          4          5          6
     1  C    4.905505   0.522645   0.040468   0.423125   0.361689   0.000765
     2  C    0.522645   5.477949   0.092467  -0.060586  -0.020908   0.291273
     3  C    0.040468   0.092467   4.854929  -0.005109   0.016881   0.015843
     4  H    0.423125  -0.060586  -0.005109   0.493368  -0.032463   0.004224
     5  H    0.361689  -0.020908   0.016881  -0.032463   0.505415  -0.004690
     6  H    0.000765   0.291273   0.015843   0.004224  -0.004690   0.528013
     7  O    0.009454  -0.208790   0.455933   0.002014   0.001156   0.006440
     8  H    0.016101  -0.163649   0.460521   0.000078  -0.000082   0.000264
               7          8
     1  C    0.009454   0.016101
     2  C   -0.208790  -0.163649
     3  C    0.455933   0.460521
     4  H    0.002014   0.000078
     5  H    0.001156  -0.000082
     6  H    0.006440   0.000264
     7  O    8.306921  -0.070176
     8  H   -0.070176   0.618126
 Mulliken charges:
               1
     1  C   -0.279752
     2  C    0.069600
     3  C    0.068067
     4  H    0.175350
     5  H    0.173002
     6  H    0.157869
     7  O   -0.502952
     8  H    0.138817
 Sum of Mulliken charges =   0.00000
 Mulliken charges with hydrogens summed into heavy atoms:
               1
     1  C    0.068600
     2  C    0.227468
     3  C    0.206884
     7  O   -0.502952
 Electronic spatial extent (au):  <R**2>=            257.5127
 Charge=              0.0000 electrons
 Dipole moment (field-independent basis, Debye):
    X=             -2.9586    Y=              2.3786    Z=              0.0106  Tot=              3.7962
 Quadrupole moment (field-independent basis, Debye-Ang):
   XX=            -24.0452   YY=            -22.4643   ZZ=            -25.1797
   XY=              4.0424   XZ=             -0.0345   YZ=              0.0077
 Traceless Quadrupole moment (field-independent basis, Debye-Ang):
   XX=             -0.1488   YY=              1.4321   ZZ=             -1.2833
   XY=              4.0424   XZ=             -0.0345   YZ=              0.0077
 Octapole moment (field-independent basis, Debye-Ang**2):
  XXX=            -10.4095  YYY=              1.2339  ZZZ=              0.0286  XYY=             -1.3224
  XXY=              3.8849  XXZ=              0.0776  XZZ=              2.9879  YZZ=             -0.7953
  YYZ=              0.0235  XYZ=              0.0027
 Hexadecapole moment (field-independent basis, Debye-Ang**3):
 XXXX=           -210.9981 YYYY=            -88.0750 ZZZZ=            -28.3381 XXXY=              9.1117
 XXXZ=             -0.2310 YYYX=              0.5231 YYYZ=              0.0245 ZZZX=             -0.0401
 ZZZY=              0.0032 XXYY=            -51.3848 XXZZ=            -44.0070 YYZZ=            -21.0711
 XXYZ=             -0.0029 YYXZ=             -0.0266 ZZXY=              0.1633
 N-N= 1.059700010737D+02 E-N=-6.592987083745D+02  KE= 1.902386448572D+02
 1\1\GINC-NODE62\SP\RB3LYP\6-31+G(d,p)\C3H4O1\YANZ\22-Sep-2023\0\\# b3l
 yp/6-31+g(d,p) scrf=(iefpcm,solvent=acetonitrile)\\tmpdir/M2_ref_137.g
 jf\\0,1\C,0,-5.794502,-1.245176,0.475502\C,0,-6.717039,-2.053667,-0.19
 243\C,0,-6.872857,-1.944259,-1.578262\H,0,-5.24836548,-0.58450552,-0.0
 6258563\H,0,-5.672484,-1.311713,1.550985\H,0,-7.314841,-2.763369,0.370
 42\O,0,-6.2006583,-1.13355755,-2.22031913\H,0,-7.592633,-2.574536,-2.0
 91326\\Version=ES64L-G16RevA.03\State=1-A\HF=-191.9202178\RMSD=1.428e-
 09\Dipole=-0.4182402,-0.6649652,1.2702611\Quadrupole=0.7935496,0.10512
 56,-0.8986752,1.4156917,1.8846637,1.9444264\PG=C01 [X(C3H4O1)]\\@


 ... FOR AFTERWARDS A MAN FINDS PLEASURE IN HIS PAINS,
 WHEN HE HAS SUFFERED LONG AND WANDERED FAR.

                                    -- HOMER
 Job cpu time:       0 days  0 hours  0 minutes 35.3 seconds.
 Elapsed time:       0 days  0 hours  0 minutes 17.9 seconds.
 File lengths (MBytes):  RWF=     19 Int=      0 D2E=      0 Chk=      2 Scr=      1
 Normal termination of Gaussian 16 at Fri Sep 22 17:09:36 2023.
