 Entering Gaussian System, Link 0=g16
 Initial command:
 /share/apps/gaussian/g16/l1.exe "/tmp/55647.mgr/Gau-852.inp" -scrdir="/tmp/55647.mgr/"
 Entering Link 1 = /share/apps/gaussian/g16/l1.exe PID=       853.
  
 Copyright (c) 1988,1990,1992,1993,1995,1998,2003,2009,2016,
            Gaussian, Inc.  All Rights Reserved.
  
 This is part of the Gaussian(R) 16 program.  It is based on
 the Gaussian(R) 09 system (copyright 2009, Gaussian, Inc.),
 the Gaussian(R) 03 system (copyright 2003, Gaussian, Inc.),
 the Gaussian(R) 98 system (copyright 1998, Gaussian, Inc.),
 the Gaussian(R) 94 system (copyright 1995, Gaussian, Inc.),
 the Gaussian 92(TM) system (copyright 1992, Gaussian, Inc.),
 the Gaussian 90(TM) system (copyright 1990, Gaussian, Inc.),
 the Gaussian 88(TM) system (copyright 1988, Gaussian, Inc.),
 the Gaussian 86(TM) system (copyright 1986, Carnegie Mellon
 University), and the Gaussian 82(TM) system (copyright 1983,
 Carnegie Mellon University). Gaussian is a federally registered
 trademark of Gaussian, Inc.
  
 This software contains proprietary and confidential information,
 including trade secrets, belonging to Gaussian, Inc.
  
 This software is provided under written license and may be
 used, copied, transmitted, or stored only in accord with that
 written license.
  
 The following legend is applicable only to US Government
 contracts under FAR:
  
                    RESTRICTED RIGHTS LEGEND
  
 Use, reproduction and disclosure by the US Government is
 subject to restrictions as set forth in subparagraphs (a)
 and (c) of the Commercial Computer Software - Restricted
 Rights clause in FAR 52.227-19.
  
 Gaussian, Inc.
 340 Quinnipiac St., Bldg. 40, Wallingford CT 06492
  
  
 ---------------------------------------------------------------
 Warning -- This program may not be used in any manner that
 competes with the business of Gaussian, Inc. or will provide
 assistance to any competitor of Gaussian, Inc.  The licensee
 of this program is prohibited from giving any competitor of
 Gaussian, Inc. access to this program.  By using this program,
 the user acknowledges that Gaussian, Inc. is engaged in the
 business of creating and licensing software in the field of
 computational chemistry and represents and warrants to the
 licensee that it is not a competitor of Gaussian, Inc. and that
 it will not use this program in any manner prohibited above.
 ---------------------------------------------------------------
  

 Cite this work as:
 Gaussian 16, Revision A.03,
 M. J. Frisch, G. W. Trucks, H. B. Schlegel, G. E. Scuseria, 
 M. A. Robb, J. R. Cheeseman, G. Scalmani, V. Barone, 
 G. A. Petersson, H. Nakatsuji, X. Li, M. Caricato, A. V. Marenich, 
 J. Bloino, B. G. Janesko, R. Gomperts, B. Mennucci, H. P. Hratchian, 
 J. V. Ortiz, A. F. Izmaylov, J. L. Sonnenberg, D. Williams-Young, 
 F. Ding, F. Lipparini, F. Egidi, J. Goings, B. Peng, A. Petrone, 
 T. Henderson, D. Ranasinghe, V. G. Zakrzewski, J. Gao, N. Rega, 
 G. Zheng, W. Liang, M. Hada, M. Ehara, K. Toyota, R. Fukuda, 
 J. Hasegawa, M. Ishida, T. Nakajima, Y. Honda, O. Kitao, H. Nakai, 
 T. Vreven, K. Throssell, J. A. Montgomery, Jr., J. E. Peralta, 
 F. Ogliaro, M. J. Bearpark, J. J. Heyd, E. N. Brothers, K. N. Kudin, 
 V. N. Staroverov, T. A. Keith, R. Kobayashi, J. Normand, 
 K. Raghavachari, A. P. Rendell, J. C. Burant, S. S. Iyengar, 
 J. Tomasi, M. Cossi, J. M. Millam, M. Klene, C. Adamo, R. Cammi, 
 J. W. Ochterski, R. L. Martin, K. Morokuma, O. Farkas, 
 J. B. Foresman, and D. J. Fox, Gaussian, Inc., Wallingford CT, 2016.
 
 ******************************************
 Gaussian 16:  ES64L-G16RevA.03 25-Dec-2016
                22-Sep-2023 
 ******************************************
 %nprocshared=2
 Will use up to    2 processors via shared memory.
 %mem=2GB
 ------------------------------------------------------
 # b3lyp/6-31+g(d,p) scrf=(iefpcm,solvent=acetonitrile)
 ------------------------------------------------------
 1/38=1,172=1/1;
 2/12=2,17=6,18=5,40=1/2;
 3/5=1,6=6,7=111,11=2,25=1,30=1,70=2201,72=2,74=-5/1,2,3;
 4//1;
 5/5=2,38=5,53=2/2;
 6/7=2,8=2,9=2,10=2,28=1/1;
 99/5=1,9=1/99;
 --------------------
 tmpdir/M2_ref_55.gjf
 --------------------
 Symbolic Z-matrix:
 Charge =  0 Multiplicity = 1
 C                     2.17227   1.5438   -0.57617 
 C                     2.64941   2.80929  -0.21645 
 H                     1.463     1.01535   0.12803 
 C                     2.58085   0.94662  -1.77545 
 C                     3.54116   3.47905  -1.05996 
 H                     2.31761   3.25887   0.71297 
 
                          Input orientation:                          
 ---------------------------------------------------------------------
 Center     Atomic      Atomic             Coordinates (Angstroms)
 Number     Number       Type             X           Y           Z
 ---------------------------------------------------------------------
      1          6           0        2.172272    1.543797   -0.576165
      2          6           0        2.649409    2.809285   -0.216445
      3          1           0        1.462999    1.015351    0.128027
      4          6           0        2.580847    0.946621   -1.775450
      5          6           0        3.541156    3.479054   -1.059960
      6          1           0        2.317607    3.258866    0.712967
 ---------------------------------------------------------------------
                    Distance matrix (angstroms):
                    1          2          3          4          5
     1  C    0.000000
     2  C    1.399471   0.000000
     3  H    1.130579   2.178171   0.000000
     4  C    1.400656   2.429962   2.208514   0.000000
     5  C    2.419322   1.398328   3.435096   2.801310   0.000000
     6  H    2.150452   1.084446   2.471006   3.407050   2.165369
                    6
     6  H    0.000000
 Stoichiometry    C4H2
 Framework group  C1[X(C4H2)]
 Deg. of freedom    12
 Full point group                 C1      NOp   1
 Largest Abelian subgroup         C1      NOp   1
 Largest concise Abelian subgroup C1      NOp   1
                         Standard orientation:                         
 ---------------------------------------------------------------------
 Center     Atomic      Atomic             Coordinates (Angstroms)
 Number     Number       Type             X           Y           Z
 ---------------------------------------------------------------------
      1          6           0       -0.697178    0.482468   -0.000833
      2          6           0        0.702287    0.486531   -0.000637
      3          1           0       -1.238731    1.474829    0.011348
      4          6           0       -1.402636   -0.727559   -0.000933
      5          6           0        1.398673   -0.726055    0.001617
      6          1           0        1.231853    1.432864   -0.006630
 ---------------------------------------------------------------------
 Rotational constants (GHZ):          22.5546659           8.1629468           5.9937435
 Standard basis: 6-31+G(d,p) (6D, 7F)
 There are    86 symmetry adapted cartesian basis functions of A   symmetry.
 There are    86 symmetry adapted basis functions of A   symmetry.
    86 basis functions,   142 primitive gaussians,    86 cartesian basis functions
    13 alpha electrons       13 beta electrons
       nuclear repulsion energy        76.9964759800 Hartrees.
 NAtoms=    6 NActive=    6 NUniq=    6 SFac= 1.00D+00 NAtFMM=   60 NAOKFM=F Big=F
 Integral buffers will be    131072 words long.
 Raffenetti 2 integral format.
 Two-electron integral symmetry is turned on.
 ------------------------------------------------------------------------------
 Polarizable Continuum Model (PCM)
 =================================
 Model                : PCM.
 Atomic radii         : UFF (Universal Force Field).
 Polarization charges : Total charges.
 Charge compensation  : None.
 Solution method      : On-the-fly selection.
 Cavity type          : Scaled VdW (van der Waals Surface) (Alpha=1.100).
 Cavity algorithm     : GePol (No added spheres)
                        Default sphere list used, NSphG=    6.
                        Lebedev-Laikov grids with approx.  5.0 points / Ang**2.
                        Smoothing algorithm: York/Karplus (Gamma=1.0000).
                        Polarization charges: spherical gaussians, with
                                              point-specific exponents (IZeta= 3).
                        Self-potential: point-specific (ISelfS= 7).
                        Self-field    : sphere-specific E.n sum rule (ISelfD= 2).
 Solvent              : Acetonitrile, Eps=  35.688000 Eps(inf)=   1.806874
 ------------------------------------------------------------------------------
 Spheres list:
 ISph  on   Nord     Re0    Alpha      Xe            Ye            Ze
    1   C      1    1.9255  1.100     -0.697178      0.482468     -0.000833
    2   C      2    1.9255  1.100      0.702287      0.486531     -0.000637
    3   H      3    1.4430  1.100     -1.238731      1.474829      0.011348
    4   C      4    1.9255  1.100     -1.402636     -0.727559     -0.000933
    5   C      5    1.9255  1.100      1.398673     -0.726055      0.001617
    6   H      6    1.4430  1.100      1.231853      1.432864     -0.006630
 ------------------------------------------------------------------------------
 One-electron integrals computed using PRISM.
 NBasis=    86 RedAO= T EigKep=  4.41D-05  NBF=    86
 NBsUse=    86 1.00D-06 EigRej= -1.00D+00 NBFU=    86
 ExpMin= 4.38D-02 ExpMax= 3.05D+03 ExpMxC= 4.57D+02 IAcc=3 IRadAn=         5 AccDes= 0.00D+00
 Harris functional with IExCor=  402 and IRadAn=       5 diagonalized for initial guess.
 HarFok:  IExCor=  402 AccDes= 0.00D+00 IRadAn=         5 IDoV= 1 UseB2=F ITyADJ=14
 ICtDFT=  3500011 ScaDFX=  1.000000  1.000000  1.000000  1.000000
 FoFCou: FMM=F IPFlag=           0 FMFlag=      100000 FMFlg1=           0
         NFxFlg=           0 DoJE=T BraDBF=F KetDBF=T FulRan=T
         wScrn=  0.000000 ICntrl=       500 IOpCl=  0 I1Cent=   200000004 NGrid=           0
         NMat0=    1 NMatS0=      1 NMatT0=    0 NMatD0=    1 NMtDS0=    0 NMtDT0=    0
 Petite list used in FoFCou.
 Keep R1 ints in memory in canonical form, NReq=8817431.
 Requested convergence on RMS density matrix=1.00D-08 within 128 cycles.
 Requested convergence on MAX density matrix=1.00D-06.
 Requested convergence on             energy=1.00D-06.
 No special actions if energy rises.
 Inv3:  Mode=1 IEnd=     1732800.
 Iteration    1 A*A^-1 deviation from unit magnitude is 4.44D-15 for    754.
 Iteration    1 A*A^-1 deviation from orthogonality  is 1.38D-15 for    750    597.
 Iteration    1 A^-1*A deviation from unit magnitude is 4.66D-15 for    754.
 Iteration    1 A^-1*A deviation from orthogonality  is 2.24D-15 for    577     80.
 Error on total polarization charges =  0.01630
 SCF Done:  E(RB3LYP) =  -153.323263982     A.U. after   14 cycles
            NFock= 14  Conv=0.19D-08     -V/T= 2.0115

 **********************************************************************

            Population analysis using the SCF density.

 **********************************************************************

 Orbital symmetries:
       Occupied  (A) (A) (A) (A) (A) (A) (A) (A) (A) (A) (A) (A)
                 (A)
       Virtual   (A) (A) (A) (A) (A) (A) (A) (A) (A) (A) (A) (A)
                 (A) (A) (A) (A) (A) (A) (A) (A) (A) (A) (A) (A)
                 (A) (A) (A) (A) (A) (A) (A) (A) (A) (A) (A) (A)
                 (A) (A) (A) (A) (A) (A) (A) (A) (A) (A) (A) (A)
                 (A) (A) (A) (A) (A) (A) (A) (A) (A) (A) (A) (A)
                 (A) (A) (A) (A) (A) (A) (A) (A) (A) (A) (A) (A)
                 (A)
 The electronic state is 1-A.
 Alpha  occ. eigenvalues --  -10.29061 -10.29053 -10.24465 -10.24076  -0.85581
 Alpha  occ. eigenvalues --   -0.72717  -0.61412  -0.49887  -0.48543  -0.36829
 Alpha  occ. eigenvalues --   -0.33643  -0.31496  -0.25334
 Alpha virt. eigenvalues --   -0.14569  -0.11520  -0.08345   0.02175   0.03704
 Alpha virt. eigenvalues --    0.04174   0.04465   0.05782   0.06089   0.08839
 Alpha virt. eigenvalues --    0.09199   0.09342   0.10619   0.12140   0.12848
 Alpha virt. eigenvalues --    0.15440   0.16292   0.17692   0.18089   0.21153
 Alpha virt. eigenvalues --    0.21963   0.26735   0.28434   0.37315   0.42911
 Alpha virt. eigenvalues --    0.57529   0.63266   0.63536   0.67430   0.69024
 Alpha virt. eigenvalues --    0.69545   0.69879   0.72618   0.73267   0.75490
 Alpha virt. eigenvalues --    0.78838   0.79741   0.88973   0.93917   1.06018
 Alpha virt. eigenvalues --    1.06399   1.18321   1.23620   1.29178   1.31936
 Alpha virt. eigenvalues --    1.41838   1.62918   1.65429   1.69594   1.70901
 Alpha virt. eigenvalues --    1.72807   1.83763   1.84990   1.95281   2.00946
 Alpha virt. eigenvalues --    2.04847   2.09193   2.15904   2.37445   2.43641
 Alpha virt. eigenvalues --    2.44947   2.46727   2.53755   2.57049   2.61430
 Alpha virt. eigenvalues --    2.77203   3.05888   3.19883   3.50995   4.05601
 Alpha virt. eigenvalues --    4.13907   4.26604   4.53568
          Condensed to atoms (all electrons):
               1          2          3          4          5          6
     1  C    6.980461  -0.698852   0.182481  -1.568375   0.837346   0.071369
     2  C   -0.698852   6.957016   0.073929   0.841557  -1.542742   0.194978
     3  H    0.182481   0.073929   0.446126   0.109524  -0.042667  -0.009160
     4  C   -1.568375   0.841557   0.109524   7.802034  -0.711380  -0.042867
     5  C    0.837346  -1.542742  -0.042667  -0.711380   7.766762   0.105662
     6  H    0.071369   0.194978  -0.009160  -0.042867   0.105662   0.445995
 Mulliken charges:
               1
     1  C    0.195570
     2  C    0.174114
     3  H    0.239767
     4  C   -0.430494
     5  C   -0.412981
     6  H    0.234023
 Sum of Mulliken charges =  -0.00000
 Mulliken charges with hydrogens summed into heavy atoms:
               1
     1  C    0.435338
     2  C    0.408137
     4  C   -0.430494
     5  C   -0.412981
 Electronic spatial extent (au):  <R**2>=            221.5051
 Charge=             -0.0000 electrons
 Dipole moment (field-independent basis, Debye):
    X=              0.0305    Y=              4.8142    Z=              0.0061  Tot=              4.8143
 Quadrupole moment (field-independent basis, Debye-Ang):
   XX=            -26.3878   YY=            -24.3129   ZZ=            -26.9858
   XY=             -0.0767   XZ=             -0.0631   YZ=              0.0135
 Traceless Quadrupole moment (field-independent basis, Debye-Ang):
   XX=             -0.4923   YY=              1.5826   ZZ=             -1.0903
   XY=             -0.0767   XZ=             -0.0631   YZ=              0.0135
 Octapole moment (field-independent basis, Debye-Ang**2):
  XXX=              0.4116  YYY=             20.7484  ZZZ=              0.0069  XYY=             -0.1369
  XXY=             17.2759  XXZ=              0.0254  XZZ=              0.1040  YZZ=              3.2950
  YYZ=              0.0153  XYZ=             -0.0264
 Hexadecapole moment (field-independent basis, Debye-Ang**3):
 XXXX=           -225.0471 YYYY=           -103.7327 ZZZZ=            -36.9898 XXXY=             -0.1786
 XXXZ=             -0.2905 YYYX=             -0.3796 YYYZ=              0.0439 ZZZX=             -0.0917
 ZZZY=              0.0113 XXYY=            -64.2317 XXZZ=            -48.7832 YYZZ=            -25.1883
 XXYZ=              0.0224 YYXZ=             -0.1056 ZZXY=              0.0465
 N-N= 7.699647598003D+01 E-N=-5.081688900170D+02  KE= 1.515862329071D+02
 1\1\GINC-NODE62\SP\RB3LYP\6-31+G(d,p)\C4H2\YANZ\22-Sep-2023\0\\# b3lyp
 /6-31+g(d,p) scrf=(iefpcm,solvent=acetonitrile)\\tmpdir/M2_ref_55.gjf\
 \0,1\C,0,2.172272,1.543797,-0.576165\C,0,2.649409,2.809285,-0.216445\H
 ,0,1.46299925,1.0153508,0.12802697\C,0,2.580847,0.946621,-1.77545\C,0,
 3.541156,3.479054,-1.05996\H,0,2.317607,3.258866,0.712967\\Version=ES6
 4L-G16RevA.03\State=1-A\HF=-153.323264\RMSD=1.902e-09\Dipole=-1.011781
 5,-0.0540389,1.6002895\Quadrupole=-0.196842,-0.4047935,0.6016356,0.178
 2253,-0.882622,-0.0159281\PG=C01 [X(C4H2)]\\@


 The theorems and results in mathematical physics are
 not theorems and results about Nature, but about our
 description of it.
                   --Gerard 't Hooft
 Job cpu time:       0 days  0 hours  0 minutes 31.5 seconds.
 Elapsed time:       0 days  0 hours  0 minutes 16.1 seconds.
 File lengths (MBytes):  RWF=     16 Int=      0 D2E=      0 Chk=      2 Scr=      1
 Normal termination of Gaussian 16 at Fri Sep 22 17:08:06 2023.
