 Entering Gaussian System, Link 0=g16
 Initial command:
 /share/apps/gaussian/g16/l1.exe "/tmp/55647.mgr/Gau-1422.inp" -scrdir="/tmp/55647.mgr/"
 Entering Link 1 = /share/apps/gaussian/g16/l1.exe PID=      1423.
  
 Copyright (c) 1988,1990,1992,1993,1995,1998,2003,2009,2016,
            Gaussian, Inc.  All Rights Reserved.
  
 This is part of the Gaussian(R) 16 program.  It is based on
 the Gaussian(R) 09 system (copyright 2009, Gaussian, Inc.),
 the Gaussian(R) 03 system (copyright 2003, Gaussian, Inc.),
 the Gaussian(R) 98 system (copyright 1998, Gaussian, Inc.),
 the Gaussian(R) 94 system (copyright 1995, Gaussian, Inc.),
 the Gaussian 92(TM) system (copyright 1992, Gaussian, Inc.),
 the Gaussian 90(TM) system (copyright 1990, Gaussian, Inc.),
 the Gaussian 88(TM) system (copyright 1988, Gaussian, Inc.),
 the Gaussian 86(TM) system (copyright 1986, Carnegie Mellon
 University), and the Gaussian 82(TM) system (copyright 1983,
 Carnegie Mellon University). Gaussian is a federally registered
 trademark of Gaussian, Inc.
  
 This software contains proprietary and confidential information,
 including trade secrets, belonging to Gaussian, Inc.
  
 This software is provided under written license and may be
 used, copied, transmitted, or stored only in accord with that
 written license.
  
 The following legend is applicable only to US Government
 contracts under FAR:
  
                    RESTRICTED RIGHTS LEGEND
  
 Use, reproduction and disclosure by the US Government is
 subject to restrictions as set forth in subparagraphs (a)
 and (c) of the Commercial Computer Software - Restricted
 Rights clause in FAR 52.227-19.
  
 Gaussian, Inc.
 340 Quinnipiac St., Bldg. 40, Wallingford CT 06492
  
  
 ---------------------------------------------------------------
 Warning -- This program may not be used in any manner that
 competes with the business of Gaussian, Inc. or will provide
 assistance to any competitor of Gaussian, Inc.  The licensee
 of this program is prohibited from giving any competitor of
 Gaussian, Inc. access to this program.  By using this program,
 the user acknowledges that Gaussian, Inc. is engaged in the
 business of creating and licensing software in the field of
 computational chemistry and represents and warrants to the
 licensee that it is not a competitor of Gaussian, Inc. and that
 it will not use this program in any manner prohibited above.
 ---------------------------------------------------------------
  

 Cite this work as:
 Gaussian 16, Revision A.03,
 M. J. Frisch, G. W. Trucks, H. B. Schlegel, G. E. Scuseria, 
 M. A. Robb, J. R. Cheeseman, G. Scalmani, V. Barone, 
 G. A. Petersson, H. Nakatsuji, X. Li, M. Caricato, A. V. Marenich, 
 J. Bloino, B. G. Janesko, R. Gomperts, B. Mennucci, H. P. Hratchian, 
 J. V. Ortiz, A. F. Izmaylov, J. L. Sonnenberg, D. Williams-Young, 
 F. Ding, F. Lipparini, F. Egidi, J. Goings, B. Peng, A. Petrone, 
 T. Henderson, D. Ranasinghe, V. G. Zakrzewski, J. Gao, N. Rega, 
 G. Zheng, W. Liang, M. Hada, M. Ehara, K. Toyota, R. Fukuda, 
 J. Hasegawa, M. Ishida, T. Nakajima, Y. Honda, O. Kitao, H. Nakai, 
 T. Vreven, K. Throssell, J. A. Montgomery, Jr., J. E. Peralta, 
 F. Ogliaro, M. J. Bearpark, J. J. Heyd, E. N. Brothers, K. N. Kudin, 
 V. N. Staroverov, T. A. Keith, R. Kobayashi, J. Normand, 
 K. Raghavachari, A. P. Rendell, J. C. Burant, S. S. Iyengar, 
 J. Tomasi, M. Cossi, J. M. Millam, M. Klene, C. Adamo, R. Cammi, 
 J. W. Ochterski, R. L. Martin, K. Morokuma, O. Farkas, 
 J. B. Foresman, and D. J. Fox, Gaussian, Inc., Wallingford CT, 2016.
 
 ******************************************
 Gaussian 16:  ES64L-G16RevA.03 25-Dec-2016
                22-Sep-2023 
 ******************************************
 %nprocshared=2
 Will use up to    2 processors via shared memory.
 %mem=2GB
 ------------------------------------------------------
 # b3lyp/6-31+g(d,p) scrf=(iefpcm,solvent=acetonitrile)
 ------------------------------------------------------
 1/38=1,172=1/1;
 2/12=2,17=6,18=5,40=1/2;
 3/5=1,6=6,7=111,11=2,25=1,30=1,70=2201,72=2,74=-5/1,2,3;
 4//1;
 5/5=2,38=5,53=2/2;
 6/7=2,8=2,9=2,10=2,28=1/1;
 99/5=1,9=1/99;
 --------------------
 tmpdir/M2_ref_92.gjf
 --------------------
 Symbolic Z-matrix:
 Charge =  0 Multiplicity = 2
 C                    -1.0642    0.38535   1.02363 
 C                    -0.96888   0.81581   2.45386 
 H                    -0.13728   1.49835   2.63446 
 H                    -0.35368   0.63199   0.26695 
 H                    -1.94464  -0.13481   0.68913 
 H                    -0.86043  -0.05097   3.12135 
 H                    -1.89563   1.31779   2.75588 
 
                          Input orientation:                          
 ---------------------------------------------------------------------
 Center     Atomic      Atomic             Coordinates (Angstroms)
 Number     Number       Type             X           Y           Z
 ---------------------------------------------------------------------
      1          6           0       -1.064198    0.385348    1.023625
      2          6           0       -0.968876    0.815813    2.453864
      3          1           0       -0.137284    1.498349    2.634459
      4          1           0       -0.353676    0.631990    0.266953
      5          1           0       -1.944637   -0.134813    0.689130
      6          1           0       -0.860427   -0.050966    3.121345
      7          1           0       -1.895625    1.317792    2.755882
 ---------------------------------------------------------------------
                    Distance matrix (angstroms):
                    1          2          3          4          5
     1  C    0.000000
     2  C    1.496653   0.000000
     3  H    2.166270   1.090878   0.000000
     4  H    1.066877   2.279220   2.530314   0.000000
     5  H    1.075930   2.229368   3.117378   1.815867   0.000000
     6  H    2.152283   1.099362   1.777743   2.978385   2.664246
     7  H    2.135752   1.096386   1.771753   3.007108   2.526643
                    6          7
     6  H    0.000000
     7  H    1.754621   0.000000
 Stoichiometry    C2H5(2)
 Framework group  C1[X(C2H5)]
 Deg. of freedom    15
 Full point group                 C1      NOp   1
 Largest Abelian subgroup         C1      NOp   1
 Largest concise Abelian subgroup C1      NOp   1
                         Standard orientation:                         
 ---------------------------------------------------------------------
 Center     Atomic      Atomic             Coordinates (Angstroms)
 Number     Number       Type             X           Y           Z
 ---------------------------------------------------------------------
      1          6           0        0.795728    0.005741    0.014265
      2          6           0       -0.700836    0.009229   -0.001613
      3          1           0       -1.118821    1.005892   -0.149824
      4          1           0        1.405072    0.880807   -0.020185
      5          1           0        1.319400   -0.932998   -0.032234
      6          1           0       -1.107200   -0.404457    0.932374
      7          1           0       -1.067804   -0.639064   -0.806046
 ---------------------------------------------------------------------
 Rotational constants (GHZ):         104.9914771          22.5325528          20.9454354
 Standard basis: 6-31+G(d,p) (6D, 7F)
 There are    63 symmetry adapted cartesian basis functions of A   symmetry.
 There are    63 symmetry adapted basis functions of A   symmetry.
    63 basis functions,    99 primitive gaussians,    63 cartesian basis functions
     9 alpha electrons        8 beta electrons
       nuclear repulsion energy        36.9249805227 Hartrees.
 NAtoms=    7 NActive=    7 NUniq=    7 SFac= 1.00D+00 NAtFMM=   60 NAOKFM=F Big=F
 Integral buffers will be    131072 words long.
 Raffenetti 2 integral format.
 Two-electron integral symmetry is turned on.
 ------------------------------------------------------------------------------
 Polarizable Continuum Model (PCM)
 =================================
 Model                : PCM.
 Atomic radii         : UFF (Universal Force Field).
 Polarization charges : Total charges.
 Charge compensation  : None.
 Solution method      : On-the-fly selection.
 Cavity type          : Scaled VdW (van der Waals Surface) (Alpha=1.100).
 Cavity algorithm     : GePol (No added spheres)
                        Default sphere list used, NSphG=    7.
                        Lebedev-Laikov grids with approx.  5.0 points / Ang**2.
                        Smoothing algorithm: York/Karplus (Gamma=1.0000).
                        Polarization charges: spherical gaussians, with
                                              point-specific exponents (IZeta= 3).
                        Self-potential: point-specific (ISelfS= 7).
                        Self-field    : sphere-specific E.n sum rule (ISelfD= 2).
 Solvent              : Acetonitrile, Eps=  35.688000 Eps(inf)=   1.806874
 ------------------------------------------------------------------------------
 Spheres list:
 ISph  on   Nord     Re0    Alpha      Xe            Ye            Ze
    1   C      1    1.9255  1.100      0.795728      0.005741      0.014265
    2   C      2    1.9255  1.100     -0.700836      0.009229     -0.001613
    3   H      3    1.4430  1.100     -1.118821      1.005892     -0.149824
    4   H      4    1.4430  1.100      1.405072      0.880807     -0.020185
    5   H      5    1.4430  1.100      1.319400     -0.932998     -0.032234
    6   H      6    1.4430  1.100     -1.107200     -0.404457      0.932374
    7   H      7    1.4430  1.100     -1.067804     -0.639064     -0.806046
 ------------------------------------------------------------------------------
 One-electron integrals computed using PRISM.
 NBasis=    63 RedAO= T EigKep=  3.56D-04  NBF=    63
 NBsUse=    63 1.00D-06 EigRej= -1.00D+00 NBFU=    63
 ExpMin= 4.38D-02 ExpMax= 3.05D+03 ExpMxC= 4.57D+02 IAcc=3 IRadAn=         5 AccDes= 0.00D+00
 Harris functional with IExCor=  402 and IRadAn=       5 diagonalized for initial guess.
 HarFok:  IExCor=  402 AccDes= 0.00D+00 IRadAn=         5 IDoV= 1 UseB2=F ITyADJ=14
 ICtDFT=  3500011 ScaDFX=  1.000000  1.000000  1.000000  1.000000
 FoFCou: FMM=F IPFlag=           0 FMFlag=      100000 FMFlg1=           0
         NFxFlg=           0 DoJE=T BraDBF=F KetDBF=T FulRan=T
         wScrn=  0.000000 ICntrl=       500 IOpCl=  0 I1Cent=   200000004 NGrid=           0
         NMat0=    1 NMatS0=      1 NMatT0=    0 NMatD0=    1 NMtDS0=    0 NMtDT0=    0
 Petite list used in FoFCou.
 Initial guess <Sx>= 0.0000 <Sy>= 0.0000 <Sz>= 0.5000 <S**2>= 0.7500 S= 0.5000
 Keep R1 and R2 ints in memory in canonical form, NReq=5834809.
 Requested convergence on RMS density matrix=1.00D-08 within 128 cycles.
 Requested convergence on MAX density matrix=1.00D-06.
 Requested convergence on             energy=1.00D-06.
 No special actions if energy rises.
 Inv3:  Mode=1 IEnd=     1354752.
 Iteration    1 A*A^-1 deviation from unit magnitude is 3.11D-15 for    668.
 Iteration    1 A*A^-1 deviation from orthogonality  is 1.42D-15 for    609    216.
 Iteration    1 A^-1*A deviation from unit magnitude is 3.11D-15 for    668.
 Iteration    1 A^-1*A deviation from orthogonality  is 1.16D-15 for    653    168.
 Error on total polarization charges =  0.01270
 SCF Done:  E(UB3LYP) =  -79.1698299114     A.U. after   11 cycles
            NFock= 11  Conv=0.86D-08     -V/T= 2.0103
 <Sx>= 0.0000 <Sy>= 0.0000 <Sz>= 0.5000 <S**2>= 0.7537 S= 0.5018
 <L.S>= 0.000000000000E+00
 Annihilation of the first spin contaminant:
 S**2 before annihilation     0.7537,   after     0.7500

 **********************************************************************

            Population analysis using the SCF density.

 **********************************************************************

 Orbital symmetries:
 Alpha Orbitals:
       Occupied  (A) (A) (A) (A) (A) (A) (A) (A) (A)
       Virtual   (A) (A) (A) (A) (A) (A) (A) (A) (A) (A) (A) (A)
                 (A) (A) (A) (A) (A) (A) (A) (A) (A) (A) (A) (A)
                 (A) (A) (A) (A) (A) (A) (A) (A) (A) (A) (A) (A)
                 (A) (A) (A) (A) (A) (A) (A) (A) (A) (A) (A) (A)
                 (A) (A) (A) (A) (A) (A)
 Beta  Orbitals:
       Occupied  (A) (A) (A) (A) (A) (A) (A) (A)
       Virtual   (A) (A) (A) (A) (A) (A) (A) (A) (A) (A) (A) (A)
                 (A) (A) (A) (A) (A) (A) (A) (A) (A) (A) (A) (A)
                 (A) (A) (A) (A) (A) (A) (A) (A) (A) (A) (A) (A)
                 (A) (A) (A) (A) (A) (A) (A) (A) (A) (A) (A) (A)
                 (A) (A) (A) (A) (A) (A) (A)
 The electronic state is 2-A.
 Alpha  occ. eigenvalues --  -10.19432 -10.18527  -0.75804  -0.61425  -0.45238
 Alpha  occ. eigenvalues --   -0.41510  -0.39443  -0.36096  -0.20514
 Alpha virt. eigenvalues --    0.02090   0.03151   0.05466   0.05923   0.08430
 Alpha virt. eigenvalues --    0.09033   0.09837   0.15073   0.17087   0.19237
 Alpha virt. eigenvalues --    0.22499   0.26345   0.29314   0.31075   0.61199
 Alpha virt. eigenvalues --    0.63361   0.65629   0.67926   0.68631   0.73302
 Alpha virt. eigenvalues --    0.89118   0.90005   0.91416   0.98938   1.01645
 Alpha virt. eigenvalues --    1.08598   1.29094   1.31122   1.43570   1.56147
 Alpha virt. eigenvalues --    1.82650   1.86450   1.94595   1.99472   2.04069
 Alpha virt. eigenvalues --    2.11078   2.12805   2.23342   2.33394   2.40359
 Alpha virt. eigenvalues --    2.50826   2.55906   2.58679   2.68327   2.84667
 Alpha virt. eigenvalues --    2.86391   2.93403   3.23143   3.30308   3.41742
 Alpha virt. eigenvalues --    3.45711   3.56349   4.25630   4.53255
  Beta  occ. eigenvalues --  -10.18605 -10.18094  -0.74127  -0.59070  -0.44599
  Beta  occ. eigenvalues --   -0.40069  -0.38601  -0.35639
  Beta virt. eigenvalues --   -0.05810   0.02243   0.03342   0.05469   0.06377
  Beta virt. eigenvalues --    0.08405   0.09013   0.11261   0.15296   0.17528
  Beta virt. eigenvalues --    0.20173   0.23868   0.27215   0.29780   0.31418
  Beta virt. eigenvalues --    0.61689   0.63667   0.66964   0.69385   0.73358
  Beta virt. eigenvalues --    0.73866   0.90754   0.90890   0.91778   1.00413
  Beta virt. eigenvalues --    1.01939   1.09110   1.30134   1.32875   1.47617
  Beta virt. eigenvalues --    1.56496   1.85469   1.87487   1.97871   2.01578
  Beta virt. eigenvalues --    2.04683   2.11675   2.13326   2.23442   2.34073
  Beta virt. eigenvalues --    2.42161   2.52814   2.58428   2.59253   2.68667
  Beta virt. eigenvalues --    2.85188   2.87132   2.93774   3.23609   3.30821
  Beta virt. eigenvalues --    3.42293   3.46217   3.56987   4.27948   4.54241
          Condensed to atoms (all electrons):
               1          2          3          4          5          6
     1  C    5.372835   0.269420  -0.048350   0.393989   0.384135  -0.058203
     2  C    0.269420   5.088459   0.411772  -0.028149  -0.026592   0.401396
     3  H   -0.048350   0.411772   0.535616  -0.006022   0.003673  -0.027665
     4  H    0.393989  -0.028149  -0.006022   0.517934  -0.033933   0.002207
     5  H    0.384135  -0.026592   0.003673  -0.033933   0.534643  -0.001406
     6  H   -0.058203   0.401396  -0.027665   0.002207  -0.001406   0.553100
     7  H   -0.056988   0.405876  -0.027063   0.002760  -0.004132  -0.033555
               7
     1  C   -0.056988
     2  C    0.405876
     3  H   -0.027063
     4  H    0.002760
     5  H   -0.004132
     6  H   -0.033555
     7  H    0.551075
          Atomic-Atomic Spin Densities.
               1          2          3          4          5          6
     1  C    1.303475  -0.111855  -0.002564   0.003938   0.005606  -0.034124
     2  C   -0.111855  -0.045799   0.003463  -0.008283  -0.010166   0.021408
     3  H   -0.002564   0.003463   0.003017   0.000434  -0.000111  -0.003160
     4  H    0.003938  -0.008283   0.000434  -0.046155   0.000922   0.000074
     5  H    0.005606  -0.010166  -0.000111   0.000922  -0.045737   0.000364
     6  H   -0.034124   0.021408  -0.003160   0.000074   0.000364   0.083160
     7  H   -0.028262   0.020122   0.001861  -0.000097   0.000250  -0.016158
               7
     1  C   -0.028262
     2  C    0.020122
     3  H    0.001861
     4  H   -0.000097
     5  H    0.000250
     6  H   -0.016158
     7  H    0.060717
 Mulliken charges and spin densities:
               1          2
     1  C   -0.256837   1.136214
     2  C   -0.522182  -0.131109
     3  H    0.158040   0.002939
     4  H    0.151213  -0.049168
     5  H    0.143613  -0.048872
     6  H    0.164125   0.051563
     7  H    0.162028   0.038432
 Sum of Mulliken charges =  -0.00000   1.00000
 Mulliken charges and spin densities with hydrogens summed into heavy atoms:
               1          2
     1  C    0.037989   1.038174
     2  C   -0.037989  -0.038174
 Electronic spatial extent (au):  <R**2>=             99.9527
 Charge=             -0.0000 electrons
 Dipole moment (field-independent basis, Debye):
    X=             -0.3735    Y=             -0.0472    Z=             -0.0874  Tot=              0.3864
 Quadrupole moment (field-independent basis, Debye-Ang):
   XX=            -14.4978   YY=            -13.7636   ZZ=            -15.6188
   XY=              0.0722   XZ=             -0.1322   YZ=             -0.0056
 Traceless Quadrupole moment (field-independent basis, Debye-Ang):
   XX=              0.1289   YY=              0.8631   ZZ=             -0.9921
   XY=              0.0722   XZ=             -0.1322   YZ=             -0.0056
 Octapole moment (field-independent basis, Debye-Ang**2):
  XXX=             -0.3180  YYY=              0.4032  ZZZ=              0.0164  XYY=              0.2472
  XXY=              0.2388  XXZ=             -0.1738  XZZ=             -2.1012  YZZ=             -0.5633
  YYZ=             -0.3383  XYZ=              0.0569
 Hexadecapole moment (field-independent basis, Debye-Ang**3):
 XXXX=            -90.2525 YYYY=            -29.6959 ZZZZ=            -27.5720 XXXY=              0.3908
 XXXZ=             -0.4178 YYYX=             -0.6222 YYYZ=              0.0110 ZZZX=             -0.5199
 ZZZY=             -0.0020 XXYY=            -17.9841 XXZZ=            -20.8409 YYZZ=             -9.8029
 XXYZ=             -0.0552 YYXZ=              0.1366 ZZXY=              0.6341
 N-N= 3.692498052267D+01 E-N=-2.562963485997D+02  KE= 7.836613502507D+01
                          Isotropic Fermi Contact Couplings
        Atom                 a.u.       MegaHertz       Gauss      10(-4) cm-1
     1  C(13)              0.10338     116.21709      41.46915      38.76585
     2  C(13)             -0.02618     -29.42977     -10.50127      -9.81671
     3  H(1)               0.00122       5.43584       1.93964       1.81320
     4  H(1)              -0.01475     -65.91420     -23.51983     -21.98661
     5  H(1)              -0.01427     -63.80518     -22.76728     -21.28312
     6  H(1)               0.02742     122.54602      43.72747      40.87695
     7  H(1)               0.02041      91.25067      32.56051      30.43795
 --------------------------------------------------------
       Center         ----  Spin Dipole Couplings  ----
                      3XX-RR        3YY-RR        3ZZ-RR
 --------------------------------------------------------
     1   Atom       -0.522931     -0.516076      1.039006
     2   Atom        0.009582     -0.020907      0.011325
     3   Atom        0.010604     -0.003412     -0.007192
     4   Atom       -0.027403      0.025282      0.002121
     5   Atom       -0.039430      0.038902      0.000528
     6   Atom        0.012995     -0.008792     -0.004203
     7   Atom        0.011607     -0.005415     -0.006192
 --------------------------------------------------------
                        XY            XZ            YZ
 --------------------------------------------------------
     1   Atom       -0.001106      0.028355     -0.009546
     2   Atom       -0.000477      0.002217      0.000014
     3   Atom       -0.010043      0.001447     -0.000138
     4   Atom        0.067734     -0.000468     -0.002690
     5   Atom       -0.059872     -0.000876      0.002850
     6   Atom        0.005254     -0.008897     -0.004206
     7   Atom        0.007280      0.007381      0.004579
 --------------------------------------------------------


 ---------------------------------------------------------------------------------
              Anisotropic Spin Dipole Couplings in Principal Axis System
 ---------------------------------------------------------------------------------

       Atom             a.u.   MegaHertz   Gauss  10(-4) cm-1        Axes

              Baa    -0.5236   -70.257   -25.069   -23.435  0.9921  0.1246 -0.0172
     1 C(13)  Bbb    -0.5160   -69.245   -24.708   -23.098 -0.1245  0.9922  0.0084
              Bcc     1.0396   139.502    49.778    46.533  0.0181 -0.0061  0.9998
 
              Baa    -0.0209    -2.807    -1.001    -0.936  0.0157  0.9999 -0.0015
     2 C(13)  Bbb     0.0081     1.084     0.387     0.362  0.8259 -0.0139 -0.5637
              Bcc     0.0128     1.723     0.615     0.575  0.5637 -0.0076  0.8260
 
              Baa    -0.0088    -4.717    -1.683    -1.573  0.4527  0.8292 -0.3278
     3 H(1)   Bbb    -0.0071    -3.778    -1.348    -1.260  0.1027  0.3167  0.9430
              Bcc     0.0159     8.495     3.031     2.834  0.8857 -0.4605  0.0582
 
              Baa    -0.0738   -39.351   -14.042   -13.126  0.8251 -0.5647 -0.0149
     4 H(1)   Bbb     0.0020     1.094     0.390     0.365  0.0325  0.0210  0.9993
              Bcc     0.0717    38.258    13.651    12.761  0.5640  0.8250 -0.0357
 
              Baa    -0.0718   -38.316   -13.672   -12.781  0.8795  0.4758 -0.0081
     5 H(1)   Bbb     0.0004     0.220     0.078     0.073  0.0267 -0.0324  0.9991
              Bcc     0.0714    38.096    13.594    12.708 -0.4751  0.8789  0.0412
 
              Baa    -0.0113    -6.023    -2.149    -2.009  0.0018  0.8589  0.5121
     6 H(1)   Bbb    -0.0070    -3.754    -1.340    -1.252  0.4584 -0.4558  0.7629
              Bcc     0.0183     9.777     3.489     3.261  0.8887  0.2334 -0.3946
 
              Baa    -0.0104    -5.562    -1.985    -1.855 -0.0489 -0.6343  0.7716
     7 H(1)   Bbb    -0.0070    -3.713    -1.325    -1.239 -0.4843  0.6907  0.5371
              Bcc     0.0174     9.275     3.310     3.094  0.8735  0.3474  0.3410
 

 ---------------------------------------------------------------------------------

 1\1\GINC-NODE62\SP\UB3LYP\6-31+G(d,p)\C2H5(2)\YANZ\22-Sep-2023\0\\# b3
 lyp/6-31+g(d,p) scrf=(iefpcm,solvent=acetonitrile)\\tmpdir/M2_ref_92.g
 jf\\0,2\C,0,-1.064198,0.385348,1.023625\C,0,-0.968876,0.815813,2.45386
 4\H,0,-0.137284,1.498349,2.634459\H,0,-0.35367638,0.63198971,0.2669527
 6\H,0,-1.94463665,-0.13481259,0.68913031\H,0,-0.860427,-0.050966,3.121
 345\H,0,-1.895625,1.317792,2.755882\\Version=ES64L-G16RevA.03\State=2-
 A\HF=-79.1698299\S2=0.753688\S2-1=0.\S2A=0.750009\RMSD=8.623e-09\Dipol
 e=-0.0228401,0.061909,0.1369663\Quadrupole=0.323751,-0.4610286,0.13727
 76,0.5445763,-0.1739668,0.0111504\PG=C01 [X(C2H5)]\\@


 THE VALUE OF PHILOSOPHY IS, IN FACT, TO BE SOUGHT LARGELY IN ITS
 VERY UNCERTAINTY.  THE MAN WHO HAS NO TINCTURE OF PHILOSOPHY GOES
 THROUGH LIFE IMPRISONED IN THE PREJUDICES DERIVED FROM COMMON SENSE,
 FROM THE HABITUAL BELIEFS OF HIS AGE OR HIS NATION, AND FROM
 CONVICTIONS WHICH HAVE GROWN UP IN HIS MIND WITHOUT THE CO-OPERATION
 OR CONSENT OF HIS DELIBERATE REASON.  TO SUCH A MAN THE WORLD TENDS
 TO BE DEFINITE, FINITE, OBVIOUS; COMMON OBJECTS ROUSE NO QUESTIONS,
 AND UNFAMILIAR POSSIBILITIES ARE CONTEMPTUOUSLY REJECTED.

                             -- BERTRAND RUSSELL
 Job cpu time:       0 days  0 hours  0 minutes 25.3 seconds.
 Elapsed time:       0 days  0 hours  0 minutes 12.8 seconds.
 File lengths (MBytes):  RWF=     14 Int=      0 D2E=      0 Chk=      2 Scr=      1
 Normal termination of Gaussian 16 at Fri Sep 22 17:08:42 2023.
