 Entering Gaussian System, Link 0=g16
 Initial command:
 /share/apps/gaussian/g16/l1.exe "/tmp/55647.mgr/Gau-196603.inp" -scrdir="/tmp/55647.mgr/"
 Entering Link 1 = /share/apps/gaussian/g16/l1.exe PID=    196604.
  
 Copyright (c) 1988,1990,1992,1993,1995,1998,2003,2009,2016,
            Gaussian, Inc.  All Rights Reserved.
  
 This is part of the Gaussian(R) 16 program.  It is based on
 the Gaussian(R) 09 system (copyright 2009, Gaussian, Inc.),
 the Gaussian(R) 03 system (copyright 2003, Gaussian, Inc.),
 the Gaussian(R) 98 system (copyright 1998, Gaussian, Inc.),
 the Gaussian(R) 94 system (copyright 1995, Gaussian, Inc.),
 the Gaussian 92(TM) system (copyright 1992, Gaussian, Inc.),
 the Gaussian 90(TM) system (copyright 1990, Gaussian, Inc.),
 the Gaussian 88(TM) system (copyright 1988, Gaussian, Inc.),
 the Gaussian 86(TM) system (copyright 1986, Carnegie Mellon
 University), and the Gaussian 82(TM) system (copyright 1983,
 Carnegie Mellon University). Gaussian is a federally registered
 trademark of Gaussian, Inc.
  
 This software contains proprietary and confidential information,
 including trade secrets, belonging to Gaussian, Inc.
  
 This software is provided under written license and may be
 used, copied, transmitted, or stored only in accord with that
 written license.
  
 The following legend is applicable only to US Government
 contracts under FAR:
  
                    RESTRICTED RIGHTS LEGEND
  
 Use, reproduction and disclosure by the US Government is
 subject to restrictions as set forth in subparagraphs (a)
 and (c) of the Commercial Computer Software - Restricted
 Rights clause in FAR 52.227-19.
  
 Gaussian, Inc.
 340 Quinnipiac St., Bldg. 40, Wallingford CT 06492
  
  
 ---------------------------------------------------------------
 Warning -- This program may not be used in any manner that
 competes with the business of Gaussian, Inc. or will provide
 assistance to any competitor of Gaussian, Inc.  The licensee
 of this program is prohibited from giving any competitor of
 Gaussian, Inc. access to this program.  By using this program,
 the user acknowledges that Gaussian, Inc. is engaged in the
 business of creating and licensing software in the field of
 computational chemistry and represents and warrants to the
 licensee that it is not a competitor of Gaussian, Inc. and that
 it will not use this program in any manner prohibited above.
 ---------------------------------------------------------------
  

 Cite this work as:
 Gaussian 16, Revision A.03,
 M. J. Frisch, G. W. Trucks, H. B. Schlegel, G. E. Scuseria, 
 M. A. Robb, J. R. Cheeseman, G. Scalmani, V. Barone, 
 G. A. Petersson, H. Nakatsuji, X. Li, M. Caricato, A. V. Marenich, 
 J. Bloino, B. G. Janesko, R. Gomperts, B. Mennucci, H. P. Hratchian, 
 J. V. Ortiz, A. F. Izmaylov, J. L. Sonnenberg, D. Williams-Young, 
 F. Ding, F. Lipparini, F. Egidi, J. Goings, B. Peng, A. Petrone, 
 T. Henderson, D. Ranasinghe, V. G. Zakrzewski, J. Gao, N. Rega, 
 G. Zheng, W. Liang, M. Hada, M. Ehara, K. Toyota, R. Fukuda, 
 J. Hasegawa, M. Ishida, T. Nakajima, Y. Honda, O. Kitao, H. Nakai, 
 T. Vreven, K. Throssell, J. A. Montgomery, Jr., J. E. Peralta, 
 F. Ogliaro, M. J. Bearpark, J. J. Heyd, E. N. Brothers, K. N. Kudin, 
 V. N. Staroverov, T. A. Keith, R. Kobayashi, J. Normand, 
 K. Raghavachari, A. P. Rendell, J. C. Burant, S. S. Iyengar, 
 J. Tomasi, M. Cossi, J. M. Millam, M. Klene, C. Adamo, R. Cammi, 
 J. W. Ochterski, R. L. Martin, K. Morokuma, O. Farkas, 
 J. B. Foresman, and D. J. Fox, Gaussian, Inc., Wallingford CT, 2016.
 
 ******************************************
 Gaussian 16:  ES64L-G16RevA.03 25-Dec-2016
                22-Sep-2023 
 ******************************************
 %nprocshared=2
 Will use up to    2 processors via shared memory.
 %mem=2GB
 ------------------------------------------------------
 # b3lyp/6-31+g(d,p) scrf=(iefpcm,solvent=acetonitrile)
 ------------------------------------------------------
 1/38=1,172=1/1;
 2/12=2,17=6,18=5,40=1/2;
 3/5=1,6=6,7=111,11=2,25=1,30=1,70=2201,72=2,74=-5/1,2,3;
 4//1;
 5/5=2,38=5,53=2/2;
 6/7=2,8=2,9=2,10=2,28=1/1;
 99/5=1,9=1/99;
 --------------------
 tmpdir/M2_ref_29.gjf
 --------------------
 Symbolic Z-matrix:
 Charge =  0 Multiplicity = 1
 C                     2.73512  -2.20513   0.20378 
 C                     3.68325  -3.03143  -0.39849 
 C                     5.05368  -2.72183  -0.34813 
 H                     3.04388  -1.36362   0.67409 
 H                     1.681    -2.46535   0.16134 
 H                     3.3548   -3.93225  -0.90957 
 O                     5.40365  -1.69284   0.24425 
 H                     5.79205  -3.38892  -0.79952 
 
                          Input orientation:                          
 ---------------------------------------------------------------------
 Center     Atomic      Atomic             Coordinates (Angstroms)
 Number     Number       Type             X           Y           Z
 ---------------------------------------------------------------------
      1          6           0        2.735119   -2.205131    0.203778
      2          6           0        3.683245   -3.031431   -0.398492
      3          6           0        5.053677   -2.721825   -0.348130
      4          1           0        3.043879   -1.363621    0.674090
      5          1           0        1.681001   -2.465345    0.161342
      6          1           0        3.354800   -3.932251   -0.909566
      7          8           0        5.403649   -1.692844    0.244248
      8          1           0        5.792045   -3.388921   -0.799521
 ---------------------------------------------------------------------
                    Distance matrix (angstroms):
                    1          2          3          4          5
     1  C    0.000000
     2  C    1.394433   0.000000
     3  C    2.438706   1.405872   0.000000
     4  H    1.012258   2.083462   2.632288   0.000000
     5  H    1.086590   2.154727   3.420568   1.825964   0.000000
     6  H    2.146272   1.086531   2.160214   3.033562   2.469870
     7  O    2.717560   2.272602   1.237818   2.421089   3.802860
     8  H    3.428231   2.176157   1.092684   3.718305   4.321682
                    6          7          8
     6  H    0.000000
     7  O    3.247155   0.000000
     8  H    2.499496   2.029035   0.000000
 Stoichiometry    C3H4O
 Framework group  C1[X(C3H4O)]
 Deg. of freedom    18
 Full point group                 C1      NOp   1
 Largest Abelian subgroup         C1      NOp   1
 Largest concise Abelian subgroup C1      NOp   1
                         Standard orientation:                         
 ---------------------------------------------------------------------
 Center     Atomic      Atomic             Coordinates (Angstroms)
 Number     Number       Type             X           Y           Z
 ---------------------------------------------------------------------
      1          6           0        1.428897   -0.466814    0.001833
      2          6           0        0.582775    0.641560   -0.003376
      3          6           0       -0.814774    0.488804   -0.002885
      4          1           0        1.024164   -1.394608   -0.005522
      5          1           0        2.506645   -0.328699    0.009701
      6          1           0        1.013812    1.638934   -0.001812
      7          8           0       -1.281967   -0.657457    0.000491
      8          1           0       -1.470278    1.362724    0.020274
 ---------------------------------------------------------------------
 Rotational constants (GHZ):          21.2089526           6.8857050           5.1981741
 Standard basis: 6-31+G(d,p) (6D, 7F)
 There are    96 symmetry adapted cartesian basis functions of A   symmetry.
 There are    96 symmetry adapted basis functions of A   symmetry.
    96 basis functions,   156 primitive gaussians,    96 cartesian basis functions
    15 alpha electrons       15 beta electrons
       nuclear repulsion energy       105.8277408272 Hartrees.
 NAtoms=    8 NActive=    8 NUniq=    8 SFac= 1.00D+00 NAtFMM=   60 NAOKFM=F Big=F
 Integral buffers will be    131072 words long.
 Raffenetti 2 integral format.
 Two-electron integral symmetry is turned on.
 ------------------------------------------------------------------------------
 Polarizable Continuum Model (PCM)
 =================================
 Model                : PCM.
 Atomic radii         : UFF (Universal Force Field).
 Polarization charges : Total charges.
 Charge compensation  : None.
 Solution method      : On-the-fly selection.
 Cavity type          : Scaled VdW (van der Waals Surface) (Alpha=1.100).
 Cavity algorithm     : GePol (No added spheres)
                        Default sphere list used, NSphG=    8.
                        Lebedev-Laikov grids with approx.  5.0 points / Ang**2.
                        Smoothing algorithm: York/Karplus (Gamma=1.0000).
                        Polarization charges: spherical gaussians, with
                                              point-specific exponents (IZeta= 3).
                        Self-potential: point-specific (ISelfS= 7).
                        Self-field    : sphere-specific E.n sum rule (ISelfD= 2).
 Solvent              : Acetonitrile, Eps=  35.688000 Eps(inf)=   1.806874
 ------------------------------------------------------------------------------
 Spheres list:
 ISph  on   Nord     Re0    Alpha      Xe            Ye            Ze
    1   C      1    1.9255  1.100      1.428897     -0.466814      0.001833
    2   C      2    1.9255  1.100      0.582775      0.641560     -0.003376
    3   C      3    1.9255  1.100     -0.814774      0.488804     -0.002885
    4   H      4    1.4430  1.100      1.024164     -1.394608     -0.005522
    5   H      5    1.4430  1.100      2.506645     -0.328699      0.009701
    6   H      6    1.4430  1.100      1.013812      1.638934     -0.001812
    7   O      7    1.7500  1.100     -1.281967     -0.657457      0.000491
    8   H      8    1.4430  1.100     -1.470278      1.362724      0.020274
 ------------------------------------------------------------------------------
 One-electron integrals computed using PRISM.
 NBasis=    96 RedAO= T EigKep=  1.30D-04  NBF=    96
 NBsUse=    96 1.00D-06 EigRej= -1.00D+00 NBFU=    96
 ExpMin= 4.38D-02 ExpMax= 5.48D+03 ExpMxC= 8.25D+02 IAcc=3 IRadAn=         5 AccDes= 0.00D+00
 Harris functional with IExCor=  402 and IRadAn=       5 diagonalized for initial guess.
 HarFok:  IExCor=  402 AccDes= 0.00D+00 IRadAn=         5 IDoV= 1 UseB2=F ITyADJ=14
 ICtDFT=  3500011 ScaDFX=  1.000000  1.000000  1.000000  1.000000
 FoFCou: FMM=F IPFlag=           0 FMFlag=      100000 FMFlg1=           0
         NFxFlg=           0 DoJE=T BraDBF=F KetDBF=T FulRan=T
         wScrn=  0.000000 ICntrl=       500 IOpCl=  0 I1Cent=   200000004 NGrid=           0
         NMat0=    1 NMatS0=      1 NMatT0=    0 NMatD0=    1 NMtDS0=    0 NMtDT0=    0
 Petite list used in FoFCou.
 Keep R1 ints in memory in canonical form, NReq=12684406.
 Requested convergence on RMS density matrix=1.00D-08 within 128 cycles.
 Requested convergence on MAX density matrix=1.00D-06.
 Requested convergence on             energy=1.00D-06.
 No special actions if energy rises.
 Inv3:  Mode=1 IEnd=     2091675.
 Iteration    1 A*A^-1 deviation from unit magnitude is 3.33D-15 for    810.
 Iteration    1 A*A^-1 deviation from orthogonality  is 1.32D-15 for    812    275.
 Iteration    1 A^-1*A deviation from unit magnitude is 3.00D-15 for    815.
 Iteration    1 A^-1*A deviation from orthogonality  is 1.56D-15 for    727    304.
 Error on total polarization charges =  0.01121
 SCF Done:  E(RB3LYP) =  -191.920090478     A.U. after   12 cycles
            NFock= 12  Conv=0.15D-08     -V/T= 2.0090

 **********************************************************************

            Population analysis using the SCF density.

 **********************************************************************

 Orbital symmetries:
       Occupied  (A) (A) (A) (A) (A) (A) (A) (A) (A) (A) (A) (A)
                 (A) (A) (A)
       Virtual   (A) (A) (A) (A) (A) (A) (A) (A) (A) (A) (A) (A)
                 (A) (A) (A) (A) (A) (A) (A) (A) (A) (A) (A) (A)
                 (A) (A) (A) (A) (A) (A) (A) (A) (A) (A) (A) (A)
                 (A) (A) (A) (A) (A) (A) (A) (A) (A) (A) (A) (A)
                 (A) (A) (A) (A) (A) (A) (A) (A) (A) (A) (A) (A)
                 (A) (A) (A) (A) (A) (A) (A) (A) (A) (A) (A) (A)
                 (A) (A) (A) (A) (A) (A) (A) (A) (A)
 The electronic state is 1-A.
 Alpha  occ. eigenvalues --  -19.15931 -10.28363 -10.22294 -10.21197  -1.04918
 Alpha  occ. eigenvalues --   -0.79785  -0.67854  -0.55672  -0.52284  -0.46061
 Alpha  occ. eigenvalues --   -0.42731  -0.40977  -0.39537  -0.28538  -0.27458
 Alpha virt. eigenvalues --   -0.09722   0.01426   0.03132   0.03947   0.04028
 Alpha virt. eigenvalues --    0.06214   0.06536   0.07487   0.09699   0.09804
 Alpha virt. eigenvalues --    0.12272   0.12418   0.14267   0.16403   0.20010
 Alpha virt. eigenvalues --    0.21909   0.23376   0.24260   0.26428   0.26821
 Alpha virt. eigenvalues --    0.28805   0.31700   0.32381   0.40920   0.45789
 Alpha virt. eigenvalues --    0.63173   0.64903   0.67652   0.68453   0.70881
 Alpha virt. eigenvalues --    0.72095   0.76446   0.86352   0.90263   0.91671
 Alpha virt. eigenvalues --    0.95181   1.03572   1.07244   1.09409   1.16238
 Alpha virt. eigenvalues --    1.20141   1.24839   1.28055   1.29099   1.32937
 Alpha virt. eigenvalues --    1.33294   1.43967   1.47955   1.57032   1.76649
 Alpha virt. eigenvalues --    1.78348   1.81503   1.87898   1.91607   2.01060
 Alpha virt. eigenvalues --    2.02363   2.05749   2.10216   2.18032   2.18748
 Alpha virt. eigenvalues --    2.34686   2.36170   2.44796   2.48291   2.49695
 Alpha virt. eigenvalues --    2.49965   2.65353   2.69024   2.77255   2.79922
 Alpha virt. eigenvalues --    2.90523   3.06695   3.14249   3.25669   3.39090
 Alpha virt. eigenvalues --    3.58796   3.75411   4.11904   4.27741   4.36093
 Alpha virt. eigenvalues --    4.59677
          Condensed to atoms (all electrons):
               1          2          3          4          5          6
     1  C    4.900014   0.536127   0.033973   0.424206   0.361823   0.001069
     2  C    0.536127   5.464979   0.106791  -0.061228  -0.021115   0.285723
     3  C    0.033973   0.106791   4.844719  -0.005308   0.016639   0.017785
     4  H    0.424206  -0.061228  -0.005308   0.493465  -0.032268   0.004281
     5  H    0.361823  -0.021115   0.016639  -0.032268   0.506608  -0.004994
     6  H    0.001069   0.285723   0.017785   0.004281  -0.004994   0.532892
     7  O    0.007316  -0.214977   0.458501   0.002083   0.001179   0.006982
     8  H    0.014123  -0.154632   0.452845   0.000047  -0.000072   0.000787
               7          8
     1  C    0.007316   0.014123
     2  C   -0.214977  -0.154632
     3  C    0.458501   0.452845
     4  H    0.002083   0.000047
     5  H    0.001179  -0.000072
     6  H    0.006982   0.000787
     7  O    8.305281  -0.066279
     8  H   -0.066279   0.609235
 Mulliken charges:
               1
     1  C   -0.278649
     2  C    0.058334
     3  C    0.074056
     4  H    0.174723
     5  H    0.172201
     6  H    0.155475
     7  O   -0.500086
     8  H    0.143947
 Sum of Mulliken charges =  -0.00000
 Mulliken charges with hydrogens summed into heavy atoms:
               1
     1  C    0.068275
     2  C    0.213809
     3  C    0.218002
     7  O   -0.500086
 Electronic spatial extent (au):  <R**2>=            257.5531
 Charge=             -0.0000 electrons
 Dipole moment (field-independent basis, Debye):
    X=              2.8195    Y=              2.4454    Z=              0.0087  Tot=              3.7322
 Quadrupole moment (field-independent basis, Debye-Ang):
   XX=            -23.9230   YY=            -22.5026   ZZ=            -25.2199
   XY=             -4.1438   XZ=              0.0111   YZ=              0.0133
 Traceless Quadrupole moment (field-independent basis, Debye-Ang):
   XX=             -0.0412   YY=              1.3792   ZZ=             -1.3381
   XY=             -4.1438   XZ=              0.0111   YZ=              0.0133
 Octapole moment (field-independent basis, Debye-Ang**2):
  XXX=              9.9248  YYY=              1.2055  ZZZ=              0.0181  XYY=              1.1325
  XXY=              4.1682  XXZ=              0.0722  XZZ=             -3.0145  YZZ=             -0.8108
  YYZ=              0.0191  XYZ=             -0.0197
 Hexadecapole moment (field-independent basis, Debye-Ang**3):
 XXXX=           -210.6987 YYYY=            -88.4159 ZZZZ=            -28.4578 XXXY=             -9.1048
 XXXZ=              0.1292 YYYX=             -0.9859 YYYZ=              0.0498 ZZZX=              0.0145
 ZZZY=              0.0037 XXYY=            -51.4968 XXZZ=            -44.0783 YYZZ=            -21.1586
 XXYZ=              0.0581 YYXZ=             -0.0605 ZZXY=             -0.1788
 N-N= 1.058277408272D+02 E-N=-6.589966484396D+02  KE= 1.901996886509D+02
 1\1\GINC-NODE62\SP\RB3LYP\6-31+G(d,p)\C3H4O1\YANZ\22-Sep-2023\0\\# b3l
 yp/6-31+g(d,p) scrf=(iefpcm,solvent=acetonitrile)\\tmpdir/M2_ref_29.gj
 f\\0,1\C,0,2.735119,-2.205131,0.203778\C,0,3.683245,-3.031431,-0.39849
 2\C,0,5.053677,-2.721825,-0.34813\H,0,3.04387882,-1.36362076,0.6740903
 5\H,0,1.681001,-2.465345,0.161342\H,0,3.3548,-3.932251,-0.909566\O,0,5
 .40364946,-1.69284424,0.24424807\H,0,5.79204506,-3.38892142,-0.7995207
 \\Version=ES64L-G16RevA.03\State=1-A\HF=-191.9200905\RMSD=1.503e-09\Di
 pole=-1.0041643,-0.9595378,-0.4765145\Quadrupole=0.5762262,-0.1950334,
 -0.3811928,-2.5891728,-1.7356382,0.7340978\PG=C01 [X(C3H4O1)]\\@


 MAN IS THE MEASURE OF ALL THINGS.
  -- PROTAGORAS (5TH CENTURY B.C.)
 Job cpu time:       0 days  0 hours  0 minutes 35.9 seconds.
 Elapsed time:       0 days  0 hours  0 minutes 18.2 seconds.
 File lengths (MBytes):  RWF=     19 Int=      0 D2E=      0 Chk=      2 Scr=      1
 Normal termination of Gaussian 16 at Fri Sep 22 17:07:24 2023.
