 Entering Gaussian System, Link 0=g16
 Initial command:
 /share/apps/gaussian/g16/l1.exe "/tmp/55647.mgr/Gau-196452.inp" -scrdir="/tmp/55647.mgr/"
 Entering Link 1 = /share/apps/gaussian/g16/l1.exe PID=    196453.
  
 Copyright (c) 1988,1990,1992,1993,1995,1998,2003,2009,2016,
            Gaussian, Inc.  All Rights Reserved.
  
 This is part of the Gaussian(R) 16 program.  It is based on
 the Gaussian(R) 09 system (copyright 2009, Gaussian, Inc.),
 the Gaussian(R) 03 system (copyright 2003, Gaussian, Inc.),
 the Gaussian(R) 98 system (copyright 1998, Gaussian, Inc.),
 the Gaussian(R) 94 system (copyright 1995, Gaussian, Inc.),
 the Gaussian 92(TM) system (copyright 1992, Gaussian, Inc.),
 the Gaussian 90(TM) system (copyright 1990, Gaussian, Inc.),
 the Gaussian 88(TM) system (copyright 1988, Gaussian, Inc.),
 the Gaussian 86(TM) system (copyright 1986, Carnegie Mellon
 University), and the Gaussian 82(TM) system (copyright 1983,
 Carnegie Mellon University). Gaussian is a federally registered
 trademark of Gaussian, Inc.
  
 This software contains proprietary and confidential information,
 including trade secrets, belonging to Gaussian, Inc.
  
 This software is provided under written license and may be
 used, copied, transmitted, or stored only in accord with that
 written license.
  
 The following legend is applicable only to US Government
 contracts under FAR:
  
                    RESTRICTED RIGHTS LEGEND
  
 Use, reproduction and disclosure by the US Government is
 subject to restrictions as set forth in subparagraphs (a)
 and (c) of the Commercial Computer Software - Restricted
 Rights clause in FAR 52.227-19.
  
 Gaussian, Inc.
 340 Quinnipiac St., Bldg. 40, Wallingford CT 06492
  
  
 ---------------------------------------------------------------
 Warning -- This program may not be used in any manner that
 competes with the business of Gaussian, Inc. or will provide
 assistance to any competitor of Gaussian, Inc.  The licensee
 of this program is prohibited from giving any competitor of
 Gaussian, Inc. access to this program.  By using this program,
 the user acknowledges that Gaussian, Inc. is engaged in the
 business of creating and licensing software in the field of
 computational chemistry and represents and warrants to the
 licensee that it is not a competitor of Gaussian, Inc. and that
 it will not use this program in any manner prohibited above.
 ---------------------------------------------------------------
  

 Cite this work as:
 Gaussian 16, Revision A.03,
 M. J. Frisch, G. W. Trucks, H. B. Schlegel, G. E. Scuseria, 
 M. A. Robb, J. R. Cheeseman, G. Scalmani, V. Barone, 
 G. A. Petersson, H. Nakatsuji, X. Li, M. Caricato, A. V. Marenich, 
 J. Bloino, B. G. Janesko, R. Gomperts, B. Mennucci, H. P. Hratchian, 
 J. V. Ortiz, A. F. Izmaylov, J. L. Sonnenberg, D. Williams-Young, 
 F. Ding, F. Lipparini, F. Egidi, J. Goings, B. Peng, A. Petrone, 
 T. Henderson, D. Ranasinghe, V. G. Zakrzewski, J. Gao, N. Rega, 
 G. Zheng, W. Liang, M. Hada, M. Ehara, K. Toyota, R. Fukuda, 
 J. Hasegawa, M. Ishida, T. Nakajima, Y. Honda, O. Kitao, H. Nakai, 
 T. Vreven, K. Throssell, J. A. Montgomery, Jr., J. E. Peralta, 
 F. Ogliaro, M. J. Bearpark, J. J. Heyd, E. N. Brothers, K. N. Kudin, 
 V. N. Staroverov, T. A. Keith, R. Kobayashi, J. Normand, 
 K. Raghavachari, A. P. Rendell, J. C. Burant, S. S. Iyengar, 
 J. Tomasi, M. Cossi, J. M. Millam, M. Klene, C. Adamo, R. Cammi, 
 J. W. Ochterski, R. L. Martin, K. Morokuma, O. Farkas, 
 J. B. Foresman, and D. J. Fox, Gaussian, Inc., Wallingford CT, 2016.
 
 ******************************************
 Gaussian 16:  ES64L-G16RevA.03 25-Dec-2016
                22-Sep-2023 
 ******************************************
 %nprocshared=2
 Will use up to    2 processors via shared memory.
 %mem=2GB
 ------------------------------------------------------
 # b3lyp/6-31+g(d,p) scrf=(iefpcm,solvent=acetonitrile)
 ------------------------------------------------------
 1/38=1,172=1/1;
 2/12=2,17=6,18=5,40=1/2;
 3/5=1,6=6,7=111,11=2,25=1,30=1,70=2201,72=2,74=-5/1,2,3;
 4//1;
 5/5=2,38=5,53=2/2;
 6/7=2,8=2,9=2,10=2,28=1/1;
 99/5=1,9=1/99;
 --------------------
 tmpdir/M2_ref_31.gjf
 --------------------
 Symbolic Z-matrix:
 Charge =  0 Multiplicity = 1
 C                     5.05368  -2.72183  -0.34813 
 C                     3.68325  -3.03143  -0.39849 
 H                     3.3548   -3.93225  -0.90957 
 O                     5.40365  -1.69284   0.24425 
 H                     5.79205  -3.38892  -0.79952 
 O                     2.84736  -2.30295   0.13248 
 
                          Input orientation:                          
 ---------------------------------------------------------------------
 Center     Atomic      Atomic             Coordinates (Angstroms)
 Number     Number       Type             X           Y           Z
 ---------------------------------------------------------------------
      1          6           0        5.053677   -2.721825   -0.348130
      2          6           0        3.683245   -3.031431   -0.398492
      3          1           0        3.354800   -3.932251   -0.909566
      4          8           0        5.403649   -1.692844    0.244248
      5          1           0        5.792045   -3.388921   -0.799521
      6          8           0        2.847362   -2.302952    0.132479
 ---------------------------------------------------------------------
                    Distance matrix (angstroms):
                    1          2          3          4          5
     1  C    0.000000
     2  C    1.405872   0.000000
     3  H    2.160214   1.086531   0.000000
     4  O    1.237818   2.272602   3.247155   0.000000
     5  H    1.092684   2.176157   2.499496   2.029035   0.000000
     6  O    2.296577   1.229355   1.999492   2.630462   3.274006
                    6
     6  O    0.000000
 Stoichiometry    C2H2O2
 Framework group  C1[X(C2H2O2)]
 Deg. of freedom    12
 Full point group                 C1      NOp   1
 Largest Abelian subgroup         C1      NOp   1
 Largest concise Abelian subgroup C1      NOp   1
                         Standard orientation:                         
 ---------------------------------------------------------------------
 Center     Atomic      Atomic             Coordinates (Angstroms)
 Number     Number       Type             X           Y           Z
 ---------------------------------------------------------------------
      1          6           0       -0.711499    0.512544   -0.003135
      2          6           0        0.694346    0.503881   -0.002789
      3          1           0        1.237011    1.445189   -0.000918
      4          8           0       -1.307174   -0.572516   -0.000096
      5          1           0       -1.262377    1.455927    0.019682
      6          8           0        1.323210   -0.552442    0.002193
 ---------------------------------------------------------------------
 Rotational constants (GHZ):          24.7455941           7.1843005           5.5678929
 Standard basis: 6-31+G(d,p) (6D, 7F)
 There are    86 symmetry adapted cartesian basis functions of A   symmetry.
 There are    86 symmetry adapted basis functions of A   symmetry.
    86 basis functions,   142 primitive gaussians,    86 cartesian basis functions
    15 alpha electrons       15 beta electrons
       nuclear repulsion energy       105.6135898244 Hartrees.
 NAtoms=    6 NActive=    6 NUniq=    6 SFac= 1.00D+00 NAtFMM=   60 NAOKFM=F Big=F
 Integral buffers will be    131072 words long.
 Raffenetti 2 integral format.
 Two-electron integral symmetry is turned on.
 ------------------------------------------------------------------------------
 Polarizable Continuum Model (PCM)
 =================================
 Model                : PCM.
 Atomic radii         : UFF (Universal Force Field).
 Polarization charges : Total charges.
 Charge compensation  : None.
 Solution method      : On-the-fly selection.
 Cavity type          : Scaled VdW (van der Waals Surface) (Alpha=1.100).
 Cavity algorithm     : GePol (No added spheres)
                        Default sphere list used, NSphG=    6.
                        Lebedev-Laikov grids with approx.  5.0 points / Ang**2.
                        Smoothing algorithm: York/Karplus (Gamma=1.0000).
                        Polarization charges: spherical gaussians, with
                                              point-specific exponents (IZeta= 3).
                        Self-potential: point-specific (ISelfS= 7).
                        Self-field    : sphere-specific E.n sum rule (ISelfD= 2).
 Solvent              : Acetonitrile, Eps=  35.688000 Eps(inf)=   1.806874
 ------------------------------------------------------------------------------
 Spheres list:
 ISph  on   Nord     Re0    Alpha      Xe            Ye            Ze
    1   C      1    1.9255  1.100     -0.711499      0.512544     -0.003135
    2   C      2    1.9255  1.100      0.694346      0.503881     -0.002789
    3   H      3    1.4430  1.100      1.237011      1.445189     -0.000918
    4   O      4    1.7500  1.100     -1.307174     -0.572516     -0.000096
    5   H      5    1.4430  1.100     -1.262377      1.455927      0.019682
    6   O      6    1.7500  1.100      1.323210     -0.552442      0.002193
 ------------------------------------------------------------------------------
 One-electron integrals computed using PRISM.
 NBasis=    86 RedAO= T EigKep=  1.36D-04  NBF=    86
 NBsUse=    86 1.00D-06 EigRej= -1.00D+00 NBFU=    86
 ExpMin= 4.38D-02 ExpMax= 5.48D+03 ExpMxC= 8.25D+02 IAcc=3 IRadAn=         5 AccDes= 0.00D+00
 Harris functional with IExCor=  402 and IRadAn=       5 diagonalized for initial guess.
 HarFok:  IExCor=  402 AccDes= 0.00D+00 IRadAn=         5 IDoV= 1 UseB2=F ITyADJ=14
 ICtDFT=  3500011 ScaDFX=  1.000000  1.000000  1.000000  1.000000
 FoFCou: FMM=F IPFlag=           0 FMFlag=      100000 FMFlg1=           0
         NFxFlg=           0 DoJE=T BraDBF=F KetDBF=T FulRan=T
         wScrn=  0.000000 ICntrl=       500 IOpCl=  0 I1Cent=   200000004 NGrid=           0
         NMat0=    1 NMatS0=      1 NMatT0=    0 NMatD0=    1 NMtDS0=    0 NMtDT0=    0
 Petite list used in FoFCou.
 Keep R1 ints in memory in canonical form, NReq=8817431.
 Requested convergence on RMS density matrix=1.00D-08 within 128 cycles.
 Requested convergence on MAX density matrix=1.00D-06.
 Requested convergence on             energy=1.00D-06.
 No special actions if energy rises.
 Inv3:  Mode=1 IEnd=     1701027.
 Iteration    1 A*A^-1 deviation from unit magnitude is 4.44D-15 for    745.
 Iteration    1 A*A^-1 deviation from orthogonality  is 1.89D-15 for    641    467.
 Iteration    1 A^-1*A deviation from unit magnitude is 4.44D-15 for    745.
 Iteration    1 A^-1*A deviation from orthogonality  is 2.75D-15 for    550    525.
 Error on total polarization charges =  0.00784
 SCF Done:  E(RB3LYP) =  -227.826906185     A.U. after   11 cycles
            NFock= 11  Conv=0.25D-08     -V/T= 2.0086

 **********************************************************************

            Population analysis using the SCF density.

 **********************************************************************

 Orbital symmetries:
       Occupied  (A) (A) (A) (A) (A) (A) (A) (A) (A) (A) (A) (A)
                 (A) (A) (A)
       Virtual   (A) (A) (A) (A) (A) (A) (A) (A) (A) (A) (A) (A)
                 (A) (A) (A) (A) (A) (A) (A) (A) (A) (A) (A) (A)
                 (A) (A) (A) (A) (A) (A) (A) (A) (A) (A) (A) (A)
                 (A) (A) (A) (A) (A) (A) (A) (A) (A) (A) (A) (A)
                 (A) (A) (A) (A) (A) (A) (A) (A) (A) (A) (A) (A)
                 (A) (A) (A) (A) (A) (A) (A) (A) (A) (A) (A)
 The electronic state is 1-A.
 Alpha  occ. eigenvalues --  -19.20257 -19.20134 -10.30855 -10.30616  -1.10039
 Alpha  occ. eigenvalues --   -1.06270  -0.75640  -0.58029  -0.55759  -0.48737
 Alpha  occ. eigenvalues --   -0.46028  -0.45734  -0.39001  -0.31932  -0.29293
 Alpha virt. eigenvalues --   -0.14480   0.01312   0.02010   0.03475   0.03823
 Alpha virt. eigenvalues --    0.06093   0.07311   0.08849   0.10189   0.15321
 Alpha virt. eigenvalues --    0.15840   0.19846   0.20269   0.21530   0.23883
 Alpha virt. eigenvalues --    0.24084   0.25289   0.26327   0.28366   0.32169
 Alpha virt. eigenvalues --    0.34561   0.39976   0.52228   0.61792   0.61899
 Alpha virt. eigenvalues --    0.66415   0.75254   0.77331   0.81993   0.88719
 Alpha virt. eigenvalues --    0.99652   1.11376   1.12358   1.13766   1.14840
 Alpha virt. eigenvalues --    1.20192   1.20384   1.25416   1.26142   1.31102
 Alpha virt. eigenvalues --    1.37653   1.46128   1.48375   1.63107   1.65384
 Alpha virt. eigenvalues --    1.71250   1.74338   1.80039   1.84952   1.97963
 Alpha virt. eigenvalues --    1.99779   2.04572   2.07581   2.19666   2.23891
 Alpha virt. eigenvalues --    2.30961   2.42832   2.45990   2.56311   2.67800
 Alpha virt. eigenvalues --    2.77328   2.79891   2.89946   3.11694   3.17516
 Alpha virt. eigenvalues --    3.25350   3.64288   3.99273   4.25789   4.29680
 Alpha virt. eigenvalues --    4.57400
          Condensed to atoms (all electrons):
               1          2          3          4          5          6
     1  C    5.089135   0.056982  -0.090413   0.494955   0.390643  -0.165698
     2  C    0.056982   5.071957   0.398513  -0.167509  -0.080204   0.501934
     3  H   -0.090413   0.398513   0.576470   0.006372   0.007041  -0.061668
     4  O    0.494955  -0.167509   0.006372   8.112517  -0.054872  -0.002301
     5  H    0.390643  -0.080204   0.007041  -0.054872   0.559781   0.004678
     6  O   -0.165698   0.501934  -0.061668  -0.002301   0.004678   8.113234
 Mulliken charges:
               1
     1  C    0.224397
     2  C    0.218326
     3  H    0.163685
     4  O   -0.389162
     5  H    0.172933
     6  O   -0.390178
 Sum of Mulliken charges =  -0.00000
 Mulliken charges with hydrogens summed into heavy atoms:
               1
     1  C    0.397330
     2  C    0.382011
     4  O   -0.389162
     6  O   -0.390178
 Electronic spatial extent (au):  <R**2>=            227.2896
 Charge=             -0.0000 electrons
 Dipole moment (field-independent basis, Debye):
    X=             -0.1060    Y=              4.9954    Z=             -0.0032  Tot=              4.9966
 Quadrupole moment (field-independent basis, Debye-Ang):
   XX=            -26.9992   YY=            -21.5411   ZZ=            -21.3215
   XY=             -0.1697   XZ=             -0.0212   YZ=              0.0093
 Traceless Quadrupole moment (field-independent basis, Debye-Ang):
   XX=             -3.7119   YY=              1.7462   ZZ=              1.9658
   XY=             -0.1697   XZ=             -0.0212   YZ=              0.0093
 Octapole moment (field-independent basis, Debye-Ang**2):
  XXX=             -0.2027  YYY=              3.3449  ZZZ=              0.0046  XYY=             -0.1744
  XXY=              7.1971  XXZ=             -0.0080  XZZ=              0.0202  YZZ=             -0.4737
  YYZ=              0.0410  XYZ=             -0.0198
 Hexadecapole moment (field-independent basis, Debye-Ang**3):
 XXXX=           -199.2156 YYYY=            -72.5108 ZZZZ=            -18.9275 XXXY=             -0.4883
 XXXZ=             -0.0437 YYYX=             -0.3923 YYYZ=              0.0407 ZZZX=             -0.0007
 ZZZY=             -0.0131 XXYY=            -40.2533 XXZZ=            -32.9436 YYZZ=            -15.7466
 XXYZ=              0.0538 YYXZ=             -0.0589 ZZXY=             -0.0134
 N-N= 1.056135898244D+02 E-N=-7.451177208910D+02  KE= 2.258900733698D+02
 1\1\GINC-NODE62\SP\RB3LYP\6-31+G(d,p)\C2H2O2\YANZ\22-Sep-2023\0\\# b3l
 yp/6-31+g(d,p) scrf=(iefpcm,solvent=acetonitrile)\\tmpdir/M2_ref_31.gj
 f\\0,1\C,0,5.053677,-2.721825,-0.34813\C,0,3.683245,-3.031431,-0.39849
 2\H,0,3.3548,-3.932251,-0.909566\O,0,5.40364946,-1.69284424,0.24424807
 \H,0,5.79204506,-3.38892142,-0.7995207\O,0,2.84736195,-2.3029517,0.132
 47887\\Version=ES64L-G16RevA.03\State=1-A\HF=-227.8269062\RMSD=2.505e-
 09\Dipole=0.4574419,-1.6135985,-1.0253776\Quadrupole=-2.4915074,1.0912
 541,1.4002533,-1.001142,-0.1922177,-0.1269341\PG=C01 [X(C2H2O2)]\\@


 NO SCIENCE HAS EVER MADE MORE RAPID PROGRESS IN A
 SHORTER TIME THAN CHEMISTRY.
   -- MARTIN HEINRICH KLOPROTH, 1791
 (FIRST PROFESSOR OF CHEMISTRY AT THE UNIVERSITY OF BERLIN)
 Job cpu time:       0 days  0 hours  0 minutes 26.4 seconds.
 Elapsed time:       0 days  0 hours  0 minutes 13.5 seconds.
 File lengths (MBytes):  RWF=     16 Int=      0 D2E=      0 Chk=      2 Scr=      1
 Normal termination of Gaussian 16 at Fri Sep 22 17:07:06 2023.
