 Entering Gaussian System, Link 0=g16
 Initial command:
 /share/apps/gaussian/g16/l1.exe "/tmp/55647.mgr/Gau-962.inp" -scrdir="/tmp/55647.mgr/"
 Entering Link 1 = /share/apps/gaussian/g16/l1.exe PID=       963.
  
 Copyright (c) 1988,1990,1992,1993,1995,1998,2003,2009,2016,
            Gaussian, Inc.  All Rights Reserved.
  
 This is part of the Gaussian(R) 16 program.  It is based on
 the Gaussian(R) 09 system (copyright 2009, Gaussian, Inc.),
 the Gaussian(R) 03 system (copyright 2003, Gaussian, Inc.),
 the Gaussian(R) 98 system (copyright 1998, Gaussian, Inc.),
 the Gaussian(R) 94 system (copyright 1995, Gaussian, Inc.),
 the Gaussian 92(TM) system (copyright 1992, Gaussian, Inc.),
 the Gaussian 90(TM) system (copyright 1990, Gaussian, Inc.),
 the Gaussian 88(TM) system (copyright 1988, Gaussian, Inc.),
 the Gaussian 86(TM) system (copyright 1986, Carnegie Mellon
 University), and the Gaussian 82(TM) system (copyright 1983,
 Carnegie Mellon University). Gaussian is a federally registered
 trademark of Gaussian, Inc.
  
 This software contains proprietary and confidential information,
 including trade secrets, belonging to Gaussian, Inc.
  
 This software is provided under written license and may be
 used, copied, transmitted, or stored only in accord with that
 written license.
  
 The following legend is applicable only to US Government
 contracts under FAR:
  
                    RESTRICTED RIGHTS LEGEND
  
 Use, reproduction and disclosure by the US Government is
 subject to restrictions as set forth in subparagraphs (a)
 and (c) of the Commercial Computer Software - Restricted
 Rights clause in FAR 52.227-19.
  
 Gaussian, Inc.
 340 Quinnipiac St., Bldg. 40, Wallingford CT 06492
  
  
 ---------------------------------------------------------------
 Warning -- This program may not be used in any manner that
 competes with the business of Gaussian, Inc. or will provide
 assistance to any competitor of Gaussian, Inc.  The licensee
 of this program is prohibited from giving any competitor of
 Gaussian, Inc. access to this program.  By using this program,
 the user acknowledges that Gaussian, Inc. is engaged in the
 business of creating and licensing software in the field of
 computational chemistry and represents and warrants to the
 licensee that it is not a competitor of Gaussian, Inc. and that
 it will not use this program in any manner prohibited above.
 ---------------------------------------------------------------
  

 Cite this work as:
 Gaussian 16, Revision A.03,
 M. J. Frisch, G. W. Trucks, H. B. Schlegel, G. E. Scuseria, 
 M. A. Robb, J. R. Cheeseman, G. Scalmani, V. Barone, 
 G. A. Petersson, H. Nakatsuji, X. Li, M. Caricato, A. V. Marenich, 
 J. Bloino, B. G. Janesko, R. Gomperts, B. Mennucci, H. P. Hratchian, 
 J. V. Ortiz, A. F. Izmaylov, J. L. Sonnenberg, D. Williams-Young, 
 F. Ding, F. Lipparini, F. Egidi, J. Goings, B. Peng, A. Petrone, 
 T. Henderson, D. Ranasinghe, V. G. Zakrzewski, J. Gao, N. Rega, 
 G. Zheng, W. Liang, M. Hada, M. Ehara, K. Toyota, R. Fukuda, 
 J. Hasegawa, M. Ishida, T. Nakajima, Y. Honda, O. Kitao, H. Nakai, 
 T. Vreven, K. Throssell, J. A. Montgomery, Jr., J. E. Peralta, 
 F. Ogliaro, M. J. Bearpark, J. J. Heyd, E. N. Brothers, K. N. Kudin, 
 V. N. Staroverov, T. A. Keith, R. Kobayashi, J. Normand, 
 K. Raghavachari, A. P. Rendell, J. C. Burant, S. S. Iyengar, 
 J. Tomasi, M. Cossi, J. M. Millam, M. Klene, C. Adamo, R. Cammi, 
 J. W. Ochterski, R. L. Martin, K. Morokuma, O. Farkas, 
 J. B. Foresman, and D. J. Fox, Gaussian, Inc., Wallingford CT, 2016.
 
 ******************************************
 Gaussian 16:  ES64L-G16RevA.03 25-Dec-2016
                22-Sep-2023 
 ******************************************
 %nprocshared=2
 Will use up to    2 processors via shared memory.
 %mem=2GB
 ------------------------------------------------------
 # b3lyp/6-31+g(d,p) scrf=(iefpcm,solvent=acetonitrile)
 ------------------------------------------------------
 1/38=1,172=1/1;
 2/12=2,17=6,18=5,40=1/2;
 3/5=1,6=6,7=111,11=2,25=1,30=1,70=2201,72=2,74=-5/1,2,3;
 4//1;
 5/5=2,38=5,53=2/2;
 6/7=2,8=2,9=2,10=2,28=1/1;
 99/5=1,9=1/99;
 --------------------
 tmpdir/M2_ref_76.gjf
 --------------------
 Symbolic Z-matrix:
 Charge =  0 Multiplicity = 1
 C                     3.463     1.62538  -2.61765 
 H                     3.77392   1.1665   -3.55134 
 H                     2.82442   1.13404  -2.00799 
 O                     3.88939   2.74     -2.30286 
 
                          Input orientation:                          
 ---------------------------------------------------------------------
 Center     Atomic      Atomic             Coordinates (Angstroms)
 Number     Number       Type             X           Y           Z
 ---------------------------------------------------------------------
      1          6           0        3.462995    1.625383   -2.617646
      2          1           0        3.773922    1.166503   -3.551336
      3          1           0        2.824420    1.134037   -2.007992
      4          8           0        3.889392    2.740000   -2.302863
 ---------------------------------------------------------------------
                    Distance matrix (angstroms):
                    1          2          3          4
     1  C    0.000000
     2  H    1.085828   0.000000
     3  H    1.010384   1.812324   0.000000
     4  O    1.234210   2.011942   1.949419   0.000000
 Stoichiometry    CH2O
 Framework group  C1[X(CH2O)]
 Deg. of freedom     6
 Full point group                 C1      NOp   1
 Largest Abelian subgroup         C1      NOp   1
 Largest concise Abelian subgroup C1      NOp   1
                         Standard orientation:                         
 ---------------------------------------------------------------------
 Center     Atomic      Atomic             Coordinates (Angstroms)
 Number     Number       Type             X           Y           Z
 ---------------------------------------------------------------------
      1          6           0        0.551085   -0.013343   -0.000240
      2          1           0        1.111825    0.916492    0.000487
      3          1           0        1.045295   -0.894610    0.000524
      4          8           0       -0.682953    0.007272    0.000054
 ---------------------------------------------------------------------
 Rotational constants (GHZ):         305.2779744          37.9976753          33.7916630
 Standard basis: 6-31+G(d,p) (6D, 7F)
 There are    48 symmetry adapted cartesian basis functions of A   symmetry.
 There are    48 symmetry adapted basis functions of A   symmetry.
    48 basis functions,    78 primitive gaussians,    48 cartesian basis functions
     8 alpha electrons        8 beta electrons
       nuclear repulsion energy        31.2146617748 Hartrees.
 NAtoms=    4 NActive=    4 NUniq=    4 SFac= 1.00D+00 NAtFMM=   60 NAOKFM=F Big=F
 Integral buffers will be    131072 words long.
 Raffenetti 2 integral format.
 Two-electron integral symmetry is turned on.
 ------------------------------------------------------------------------------
 Polarizable Continuum Model (PCM)
 =================================
 Model                : PCM.
 Atomic radii         : UFF (Universal Force Field).
 Polarization charges : Total charges.
 Charge compensation  : None.
 Solution method      : On-the-fly selection.
 Cavity type          : Scaled VdW (van der Waals Surface) (Alpha=1.100).
 Cavity algorithm     : GePol (No added spheres)
                        Default sphere list used, NSphG=    4.
                        Lebedev-Laikov grids with approx.  5.0 points / Ang**2.
                        Smoothing algorithm: York/Karplus (Gamma=1.0000).
                        Polarization charges: spherical gaussians, with
                                              point-specific exponents (IZeta= 3).
                        Self-potential: point-specific (ISelfS= 7).
                        Self-field    : sphere-specific E.n sum rule (ISelfD= 2).
 Solvent              : Acetonitrile, Eps=  35.688000 Eps(inf)=   1.806874
 ------------------------------------------------------------------------------
 Spheres list:
 ISph  on   Nord     Re0    Alpha      Xe            Ye            Ze
    1   C      1    1.9255  1.100      0.551085     -0.013343     -0.000240
    2   H      2    1.4430  1.100      1.111825      0.916492      0.000487
    3   H      3    1.4430  1.100      1.045295     -0.894610      0.000524
    4   O      4    1.7500  1.100     -0.682953      0.007272      0.000054
 ------------------------------------------------------------------------------
 One-electron integrals computed using PRISM.
 NBasis=    48 RedAO= T EigKep=  6.32D-03  NBF=    48
 NBsUse=    48 1.00D-06 EigRej= -1.00D+00 NBFU=    48
 ExpMin= 4.38D-02 ExpMax= 5.48D+03 ExpMxC= 8.25D+02 IAcc=3 IRadAn=         5 AccDes= 0.00D+00
 Harris functional with IExCor=  402 and IRadAn=       5 diagonalized for initial guess.
 HarFok:  IExCor=  402 AccDes= 0.00D+00 IRadAn=         5 IDoV= 1 UseB2=F ITyADJ=14
 ICtDFT=  3500011 ScaDFX=  1.000000  1.000000  1.000000  1.000000
 FoFCou: FMM=F IPFlag=           0 FMFlag=      100000 FMFlg1=           0
         NFxFlg=           0 DoJE=T BraDBF=F KetDBF=T FulRan=T
         wScrn=  0.000000 ICntrl=       500 IOpCl=  0 I1Cent=   200000004 NGrid=           0
         NMat0=    1 NMatS0=      1 NMatT0=    0 NMatD0=    1 NMtDS0=    0 NMtDT0=    0
 Petite list used in FoFCou.
 Keep R1 ints in memory in canonical form, NReq=2434982.
 Requested convergence on RMS density matrix=1.00D-08 within 128 cycles.
 Requested convergence on MAX density matrix=1.00D-06.
 Requested convergence on             energy=1.00D-06.
 No special actions if energy rises.
 Inv3:  Mode=1 IEnd=      817452.
 Iteration    1 A*A^-1 deviation from unit magnitude is 2.22D-15 for    522.
 Iteration    1 A*A^-1 deviation from orthogonality  is 1.19D-15 for    455     56.
 Iteration    1 A^-1*A deviation from unit magnitude is 2.00D-15 for    522.
 Iteration    1 A^-1*A deviation from orthogonality  is 1.10D-15 for    510    241.
 Error on total polarization charges =  0.00688
 SCF Done:  E(RB3LYP) =  -114.510640133     A.U. after    9 cycles
            NFock=  9  Conv=0.38D-08     -V/T= 2.0086

 **********************************************************************

            Population analysis using the SCF density.

 **********************************************************************

 Orbital symmetries:
       Occupied  (A) (A) (A) (A) (A) (A) (A) (A)
       Virtual   (A) (A) (A) (A) (A) (A) (A) (A) (A) (A) (A) (A)
                 (A) (A) (A) (A) (A) (A) (A) (A) (A) (A) (A) (A)
                 (A) (A) (A) (A) (A) (A) (A) (A) (A) (A) (A) (A)
                 (A) (A) (A) (A)
 The electronic state is 1-A.
 Alpha  occ. eigenvalues --  -19.18399 -10.28871  -1.06064  -0.65775  -0.51351
 Alpha  occ. eigenvalues --   -0.46039  -0.40349  -0.28342
 Alpha virt. eigenvalues --   -0.06573   0.02131   0.04252   0.05291   0.07328
 Alpha virt. eigenvalues --    0.16979   0.19499   0.20754   0.21404   0.25931
 Alpha virt. eigenvalues --    0.27397   0.35489   0.63227   0.65880   0.72285
 Alpha virt. eigenvalues --    0.90786   0.94718   1.02530   1.16903   1.17261
 Alpha virt. eigenvalues --    1.21181   1.35577   1.45418   1.49322   1.68775
 Alpha virt. eigenvalues --    1.79845   1.85863   2.00225   2.04597   2.17637
 Alpha virt. eigenvalues --    2.26493   2.57686   2.63261   2.80015   2.87604
 Alpha virt. eigenvalues --    2.94799   3.42948   3.62808   4.03648   4.39137
          Condensed to atoms (all electrons):
               1          2          3          4
     1  C    4.698897   0.393270   0.394869   0.386614
     2  H    0.393270   0.608405  -0.072831  -0.070056
     3  H    0.394869  -0.072831   0.598799  -0.068467
     4  O    0.386614  -0.070056  -0.068467   8.167103
 Mulliken charges:
               1
     1  C    0.126351
     2  H    0.141212
     3  H    0.147631
     4  O   -0.415194
 Sum of Mulliken charges =   0.00000
 Mulliken charges with hydrogens summed into heavy atoms:
               1
     1  C    0.415194
     4  O   -0.415194
 Electronic spatial extent (au):  <R**2>=             60.3754
 Charge=              0.0000 electrons
 Dipole moment (field-independent basis, Debye):
    X=              3.2729    Y=             -0.0982    Z=              0.0002  Tot=              3.2744
 Quadrupole moment (field-independent basis, Debye-Ang):
   XX=            -12.2689   YY=            -11.4897   ZZ=            -11.7019
   XY=             -0.0331   XZ=              0.0005   YZ=              0.0000
 Traceless Quadrupole moment (field-independent basis, Debye-Ang):
   XX=             -0.4487   YY=              0.3305   ZZ=              0.1183
   XY=             -0.0331   XZ=              0.0005   YZ=              0.0000
 Octapole moment (field-independent basis, Debye-Ang**2):
  XXX=              1.6317  YYY=             -0.2105  ZZZ=              0.0006  XYY=              1.3543
  XXY=             -0.0612  XXZ=              0.0014  XZZ=             -0.0749  YZZ=             -0.0918
  YYZ=              0.0013  XYZ=              0.0000
 Hexadecapole moment (field-independent basis, Debye-Ang**3):
 XXXX=            -46.3892 YYYY=            -17.2958 ZZZZ=            -10.7381 XXXY=             -0.2095
 XXXZ=              0.0014 YYYX=             -0.1594 YYYZ=             -0.0000 ZZZX=             -0.0000
 ZZZY=             -0.0000 XXYY=            -10.3417 XXZZ=             -9.5067 YYZZ=             -4.9662
 XXYZ=              0.0001 YYXZ=              0.0013 ZZXY=             -0.1078
 N-N= 3.121466177479D+01 E-N=-3.307770703148D+02  KE= 1.135354403135D+02
 1\1\GINC-NODE62\SP\RB3LYP\6-31+G(d,p)\C1H2O1\YANZ\22-Sep-2023\0\\# b3l
 yp/6-31+g(d,p) scrf=(iefpcm,solvent=acetonitrile)\\tmpdir/M2_ref_76.gj
 f\\0,1\C,0,3.462995,1.625383,-2.617646\H,0,3.773922,1.166503,-3.551336
 \H,0,2.82442041,1.13403669,-2.00799211\O,0,3.8893921,2.74000041,-2.302
 86324\\Version=ES64L-G16RevA.03\State=1-A\HF=-114.5106401\RMSD=3.796e-
 09\Dipole=-0.4538258,-1.1641039,-0.3138616\Quadrupole=0.094375,-0.2524
 362,0.1580612,-0.1115153,-0.1130412,-0.1276198\PG=C01 [X(C1H2O1)]\\@


 I LOVE THOSE WHO LONG FOR THE IMPOSSIBLE.

                                 -- GOETHE
 Job cpu time:       0 days  0 hours  0 minutes  8.1 seconds.
 Elapsed time:       0 days  0 hours  0 minutes  4.2 seconds.
 File lengths (MBytes):  RWF=     11 Int=      0 D2E=      0 Chk=      1 Scr=      1
 Normal termination of Gaussian 16 at Fri Sep 22 17:08:04 2023.
