 Entering Gaussian System, Link 0=g16
 Initial command:
 /share/apps/gaussian/g16/l1.exe "/tmp/55647.mgr/Gau-1403.inp" -scrdir="/tmp/55647.mgr/"
 Entering Link 1 = /share/apps/gaussian/g16/l1.exe PID=      1404.
  
 Copyright (c) 1988,1990,1992,1993,1995,1998,2003,2009,2016,
            Gaussian, Inc.  All Rights Reserved.
  
 This is part of the Gaussian(R) 16 program.  It is based on
 the Gaussian(R) 09 system (copyright 2009, Gaussian, Inc.),
 the Gaussian(R) 03 system (copyright 2003, Gaussian, Inc.),
 the Gaussian(R) 98 system (copyright 1998, Gaussian, Inc.),
 the Gaussian(R) 94 system (copyright 1995, Gaussian, Inc.),
 the Gaussian 92(TM) system (copyright 1992, Gaussian, Inc.),
 the Gaussian 90(TM) system (copyright 1990, Gaussian, Inc.),
 the Gaussian 88(TM) system (copyright 1988, Gaussian, Inc.),
 the Gaussian 86(TM) system (copyright 1986, Carnegie Mellon
 University), and the Gaussian 82(TM) system (copyright 1983,
 Carnegie Mellon University). Gaussian is a federally registered
 trademark of Gaussian, Inc.
  
 This software contains proprietary and confidential information,
 including trade secrets, belonging to Gaussian, Inc.
  
 This software is provided under written license and may be
 used, copied, transmitted, or stored only in accord with that
 written license.
  
 The following legend is applicable only to US Government
 contracts under FAR:
  
                    RESTRICTED RIGHTS LEGEND
  
 Use, reproduction and disclosure by the US Government is
 subject to restrictions as set forth in subparagraphs (a)
 and (c) of the Commercial Computer Software - Restricted
 Rights clause in FAR 52.227-19.
  
 Gaussian, Inc.
 340 Quinnipiac St., Bldg. 40, Wallingford CT 06492
  
  
 ---------------------------------------------------------------
 Warning -- This program may not be used in any manner that
 competes with the business of Gaussian, Inc. or will provide
 assistance to any competitor of Gaussian, Inc.  The licensee
 of this program is prohibited from giving any competitor of
 Gaussian, Inc. access to this program.  By using this program,
 the user acknowledges that Gaussian, Inc. is engaged in the
 business of creating and licensing software in the field of
 computational chemistry and represents and warrants to the
 licensee that it is not a competitor of Gaussian, Inc. and that
 it will not use this program in any manner prohibited above.
 ---------------------------------------------------------------
  

 Cite this work as:
 Gaussian 16, Revision A.03,
 M. J. Frisch, G. W. Trucks, H. B. Schlegel, G. E. Scuseria, 
 M. A. Robb, J. R. Cheeseman, G. Scalmani, V. Barone, 
 G. A. Petersson, H. Nakatsuji, X. Li, M. Caricato, A. V. Marenich, 
 J. Bloino, B. G. Janesko, R. Gomperts, B. Mennucci, H. P. Hratchian, 
 J. V. Ortiz, A. F. Izmaylov, J. L. Sonnenberg, D. Williams-Young, 
 F. Ding, F. Lipparini, F. Egidi, J. Goings, B. Peng, A. Petrone, 
 T. Henderson, D. Ranasinghe, V. G. Zakrzewski, J. Gao, N. Rega, 
 G. Zheng, W. Liang, M. Hada, M. Ehara, K. Toyota, R. Fukuda, 
 J. Hasegawa, M. Ishida, T. Nakajima, Y. Honda, O. Kitao, H. Nakai, 
 T. Vreven, K. Throssell, J. A. Montgomery, Jr., J. E. Peralta, 
 F. Ogliaro, M. J. Bearpark, J. J. Heyd, E. N. Brothers, K. N. Kudin, 
 V. N. Staroverov, T. A. Keith, R. Kobayashi, J. Normand, 
 K. Raghavachari, A. P. Rendell, J. C. Burant, S. S. Iyengar, 
 J. Tomasi, M. Cossi, J. M. Millam, M. Klene, C. Adamo, R. Cammi, 
 J. W. Ochterski, R. L. Martin, K. Morokuma, O. Farkas, 
 J. B. Foresman, and D. J. Fox, Gaussian, Inc., Wallingford CT, 2016.
 
 ******************************************
 Gaussian 16:  ES64L-G16RevA.03 25-Dec-2016
                22-Sep-2023 
 ******************************************
 %nprocshared=2
 Will use up to    2 processors via shared memory.
 %mem=2GB
 ------------------------------------------------------
 # b3lyp/6-31+g(d,p) scrf=(iefpcm,solvent=acetonitrile)
 ------------------------------------------------------
 1/38=1,172=1/1;
 2/12=2,17=6,18=5,40=1/2;
 3/5=1,6=6,7=111,11=2,25=1,30=1,70=2201,72=2,74=-5/1,2,3;
 4//1;
 5/5=2,38=5,53=2/2;
 6/7=2,8=2,9=2,10=2,28=1/1;
 99/5=1,9=1/99;
 ---------------------
 tmpdir/M2_ref_117.gjf
 ---------------------
 Symbolic Z-matrix:
 Charge =  0 Multiplicity = 1
 S                    -3.83661   0.70238   0.57894 
 C                    -5.04005  -0.3325   -0.26783 
 C                    -5.18318  -0.21004  -1.65333 
 H                    -2.65149  -0.08631   0.56569 
 O                    -3.61698   1.92367  -0.22715 
 O                    -4.26549   0.85346   1.99073 
 H                    -5.58619  -0.99317   0.27026 
 H                    -5.85438  -0.79976  -2.12618 
 H                    -4.59275   0.51388  -2.20413 
 
                          Input orientation:                          
 ---------------------------------------------------------------------
 Center     Atomic      Atomic             Coordinates (Angstroms)
 Number     Number       Type             X           Y           Z
 ---------------------------------------------------------------------
      1         16           0       -3.836607    0.702377    0.578940
      2          6           0       -5.040051   -0.332504   -0.267830
      3          6           0       -5.183182   -0.210042   -1.653329
      4          1           0       -2.651488   -0.086307    0.565691
      5          8           0       -3.616977    1.923666   -0.227148
      6          8           0       -4.265488    0.853458    1.990729
      7          1           0       -5.586188   -0.993174    0.270258
      8          1           0       -5.854379   -0.799759   -2.126176
      9          1           0       -4.592746    0.513878   -2.204127
 ---------------------------------------------------------------------
                    Distance matrix (angstroms):
                    1          2          3          4          5
     1  S    0.000000
     2  C    1.798965   0.000000
     3  C    2.762028   1.398246   0.000000
     4  H    1.423624   2.541772   3.368803   0.000000
     5  O    1.479717   2.667789   3.006609   2.366591   0.000000
     6  O    1.483210   2.665997   3.905426   2.349231   2.546545
     7  H    2.455853   1.012072   2.115631   3.085798   3.554316
     8  H    3.693977   2.082043   1.010868   4.244251   4.003662
     9  H    2.890111   2.160021   1.084460   3.435199   2.616882
                    6          7          8          9
     6  O    0.000000
     7  H    2.848565   0.000000
     8  H    4.712388   2.419138   0.000000
     9  H    4.221283   3.062795   1.823029   0.000000
 Stoichiometry    C2H4O2S
 Framework group  C1[X(C2H4O2S)]
 Deg. of freedom    21
 Full point group                 C1      NOp   1
 Largest Abelian subgroup         C1      NOp   1
 Largest concise Abelian subgroup C1      NOp   1
                         Standard orientation:                         
 ---------------------------------------------------------------------
 Center     Atomic      Atomic             Coordinates (Angstroms)
 Number     Number       Type             X           Y           Z
 ---------------------------------------------------------------------
      1         16           0       -0.543766    0.037797    0.237290
      2          6           0        1.049344   -0.757215   -0.020059
      3          6           0        2.200473    0.034556   -0.075654
      4          1           0       -0.690814    0.037974    1.653300
      5          8           0       -0.454962    1.434739   -0.242531
      6          8           0       -1.597491   -0.839498   -0.328333
      7          1           0        1.087836   -1.764540   -0.110078
      8          1           0        3.094488   -0.417222   -0.211628
      9          1           0        2.129476    1.113056    0.012947
 ---------------------------------------------------------------------
 Rotational constants (GHZ):           8.0234063           3.4193425           2.5761222
 Standard basis: 6-31+G(d,p) (6D, 7F)
 There are   119 symmetry adapted cartesian basis functions of A   symmetry.
 There are   119 symmetry adapted basis functions of A   symmetry.
   119 basis functions,   212 primitive gaussians,   119 cartesian basis functions
    24 alpha electrons       24 beta electrons
       nuclear repulsion energy       241.4857464590 Hartrees.
 NAtoms=    9 NActive=    9 NUniq=    9 SFac= 1.00D+00 NAtFMM=   60 NAOKFM=F Big=F
 Integral buffers will be    131072 words long.
 Raffenetti 2 integral format.
 Two-electron integral symmetry is turned on.
 ------------------------------------------------------------------------------
 Polarizable Continuum Model (PCM)
 =================================
 Model                : PCM.
 Atomic radii         : UFF (Universal Force Field).
 Polarization charges : Total charges.
 Charge compensation  : None.
 Solution method      : On-the-fly selection.
 Cavity type          : Scaled VdW (van der Waals Surface) (Alpha=1.100).
 Cavity algorithm     : GePol (No added spheres)
                        Default sphere list used, NSphG=    9.
                        Lebedev-Laikov grids with approx.  5.0 points / Ang**2.
                        Smoothing algorithm: York/Karplus (Gamma=1.0000).
                        Polarization charges: spherical gaussians, with
                                              point-specific exponents (IZeta= 3).
                        Self-potential: point-specific (ISelfS= 7).
                        Self-field    : sphere-specific E.n sum rule (ISelfD= 2).
 Solvent              : Acetonitrile, Eps=  35.688000 Eps(inf)=   1.806874
 ------------------------------------------------------------------------------
 Spheres list:
 ISph  on   Nord     Re0    Alpha      Xe            Ye            Ze
    1   S      1    2.0175  1.100     -0.543766      0.037797      0.237290
    2   C      2    1.9255  1.100      1.049344     -0.757215     -0.020059
    3   C      3    1.9255  1.100      2.200473      0.034556     -0.075654
    4   H      4    1.4430  1.100     -0.690814      0.037974      1.653300
    5   O      5    1.7500  1.100     -0.454962      1.434739     -0.242531
    6   O      6    1.7500  1.100     -1.597491     -0.839498     -0.328333
    7   H      7    1.4430  1.100      1.087836     -1.764540     -0.110078
    8   H      8    1.4430  1.100      3.094488     -0.417222     -0.211628
    9   H      9    1.4430  1.100      2.129476      1.113056      0.012947
 ------------------------------------------------------------------------------
 One-electron integrals computed using PRISM.
 NBasis=   119 RedAO= T EigKep=  1.57D-04  NBF=   119
 NBsUse=   119 1.00D-06 EigRej= -1.00D+00 NBFU=   119
 ExpMin= 4.05D-02 ExpMax= 2.19D+04 ExpMxC= 3.30D+03 IAcc=3 IRadAn=         5 AccDes= 0.00D+00
 Harris functional with IExCor=  402 and IRadAn=       5 diagonalized for initial guess.
 HarFok:  IExCor=  402 AccDes= 0.00D+00 IRadAn=         5 IDoV= 1 UseB2=F ITyADJ=14
 ICtDFT=  3500011 ScaDFX=  1.000000  1.000000  1.000000  1.000000
 FoFCou: FMM=F IPFlag=           0 FMFlag=      100000 FMFlg1=           0
         NFxFlg=           0 DoJE=T BraDBF=F KetDBF=T FulRan=T
         wScrn=  0.000000 ICntrl=       500 IOpCl=  0 I1Cent=   200000004 NGrid=           0
         NMat0=    1 NMatS0=      1 NMatT0=    0 NMatD0=    1 NMtDS0=    0 NMtDT0=    0
 Petite list used in FoFCou.
 Keep R1 ints in memory in canonical form, NReq=27378272.
 Requested convergence on RMS density matrix=1.00D-08 within 128 cycles.
 Requested convergence on MAX density matrix=1.00D-06.
 Requested convergence on             energy=1.00D-06.
 No special actions if energy rises.
 Inv3:  Mode=1 IEnd=     3012012.
 Iteration    1 A*A^-1 deviation from unit magnitude is 4.22D-15 for    995.
 Iteration    1 A*A^-1 deviation from orthogonality  is 1.44D-15 for    770    275.
 Iteration    1 A^-1*A deviation from unit magnitude is 4.22D-15 for    995.
 Iteration    1 A^-1*A deviation from orthogonality  is 1.54D-15 for    728    247.
 Error on total polarization charges =  0.01183
 SCF Done:  E(RB3LYP) =  -627.161583144     A.U. after   12 cycles
            NFock= 12  Conv=0.47D-08     -V/T= 2.0060

 **********************************************************************

            Population analysis using the SCF density.

 **********************************************************************

 Orbital symmetries:
       Occupied  (A) (A) (A) (A) (A) (A) (A) (A) (A) (A) (A) (A)
                 (A) (A) (A) (A) (A) (A) (A) (A) (A) (A) (A) (A)
       Virtual   (A) (A) (A) (A) (A) (A) (A) (A) (A) (A) (A) (A)
                 (A) (A) (A) (A) (A) (A) (A) (A) (A) (A) (A) (A)
                 (A) (A) (A) (A) (A) (A) (A) (A) (A) (A) (A) (A)
                 (A) (A) (A) (A) (A) (A) (A) (A) (A) (A) (A) (A)
                 (A) (A) (A) (A) (A) (A) (A) (A) (A) (A) (A) (A)
                 (A) (A) (A) (A) (A) (A) (A) (A) (A) (A) (A) (A)
                 (A) (A) (A) (A) (A) (A) (A) (A) (A) (A) (A) (A)
                 (A) (A) (A) (A) (A) (A) (A) (A) (A) (A) (A)
 The electronic state is 1-A.
 Alpha  occ. eigenvalues --  -89.12456 -19.17380 -19.17133 -10.24640 -10.23844
 Alpha  occ. eigenvalues --   -8.15306  -6.11762  -6.11673  -6.11604  -1.12019
 Alpha  occ. eigenvalues --   -1.01904  -0.81715  -0.71278  -0.61999  -0.54579
 Alpha  occ. eigenvalues --   -0.51521  -0.48663  -0.46197  -0.43168  -0.35897
 Alpha  occ. eigenvalues --   -0.34494  -0.32823  -0.32151  -0.30906
 Alpha virt. eigenvalues --   -0.07255  -0.01108   0.01094   0.01735   0.03016
 Alpha virt. eigenvalues --    0.04486   0.05546   0.06822   0.07984   0.08626
 Alpha virt. eigenvalues --    0.09619   0.10261   0.11092   0.12528   0.13885
 Alpha virt. eigenvalues --    0.14225   0.17044   0.17900   0.19659   0.21990
 Alpha virt. eigenvalues --    0.22907   0.24012   0.26005   0.27296   0.27609
 Alpha virt. eigenvalues --    0.29177   0.31550   0.32408   0.33341   0.45159
 Alpha virt. eigenvalues --    0.49667   0.52041   0.55874   0.61228   0.64752
 Alpha virt. eigenvalues --    0.66058   0.68583   0.72278   0.75316   0.78862
 Alpha virt. eigenvalues --    0.88897   0.90498   0.94798   0.96721   0.99037
 Alpha virt. eigenvalues --    1.02425   1.05795   1.11343   1.13084   1.20038
 Alpha virt. eigenvalues --    1.21786   1.23377   1.24017   1.26169   1.26383
 Alpha virt. eigenvalues --    1.32708   1.34495   1.41301   1.48416   1.55456
 Alpha virt. eigenvalues --    1.63880   1.77572   1.79108   1.79607   1.80720
 Alpha virt. eigenvalues --    1.82034   1.87789   1.92387   1.93415   1.98607
 Alpha virt. eigenvalues --    2.01077   2.04863   2.12435   2.14689   2.18887
 Alpha virt. eigenvalues --    2.21625   2.30567   2.42146   2.46885   2.51638
 Alpha virt. eigenvalues --    2.60158   2.60458   2.67281   2.77311   2.79598
 Alpha virt. eigenvalues --    2.82396   2.94665   3.43305   3.45677   3.68791
 Alpha virt. eigenvalues --    3.93486   4.02729   4.05808   4.24544   4.44231
          Condensed to atoms (all electrons):
               1          2          3          4          5          6
     1  S   14.110213   0.068883   0.004521   0.377098   0.198793   0.169039
     2  C    0.068883   5.885564   0.371300  -0.093458  -0.113418  -0.094898
     3  C    0.004521   0.371300   4.983908   0.008841   0.020331   0.004913
     4  H    0.377098  -0.093458   0.008841   0.760731  -0.071453  -0.080859
     5  O    0.198793  -0.113418   0.020331  -0.071453   8.726776  -0.126365
     6  O    0.169039  -0.094898   0.004913  -0.080859  -0.126365   8.771005
     7  H   -0.002503   0.354980  -0.023153   0.000765   0.006722  -0.005601
     8  H    0.004904  -0.014545   0.374333  -0.000132   0.000199  -0.000518
     9  H   -0.000614  -0.046276   0.401702   0.000095   0.001598   0.000716
               7          8          9
     1  S   -0.002503   0.004904  -0.000614
     2  C    0.354980  -0.014545  -0.046276
     3  C   -0.023153   0.374333   0.401702
     4  H    0.000765  -0.000132   0.000095
     5  O    0.006722   0.000199   0.001598
     6  O   -0.005601  -0.000518   0.000716
     7  H    0.467649  -0.004895   0.003075
     8  H   -0.004895   0.484642  -0.027121
     9  H    0.003075  -0.027121   0.475507
 Mulliken charges:
               1
     1  S    1.069666
     2  C   -0.318134
     3  C   -0.146697
     4  H    0.098371
     5  O   -0.643183
     6  O   -0.637433
     7  H    0.202960
     8  H    0.183133
     9  H    0.191316
 Sum of Mulliken charges =  -0.00000
 Mulliken charges with hydrogens summed into heavy atoms:
               1
     1  S    1.168037
     2  C   -0.115174
     3  C    0.227752
     5  O   -0.643183
     6  O   -0.637433
 Electronic spatial extent (au):  <R**2>=            487.9008
 Charge=             -0.0000 electrons
 Dipole moment (field-independent basis, Debye):
    X=              5.1440    Y=             -1.6224    Z=              3.2567  Tot=              6.3007
 Quadrupole moment (field-independent basis, Debye-Ang):
   XX=            -35.1970   YY=            -40.7638   ZZ=            -35.6071
   XY=             -2.3365   XZ=             -3.6553   YZ=              0.6097
 Traceless Quadrupole moment (field-independent basis, Debye-Ang):
   XX=              1.9923   YY=             -3.5745   ZZ=              1.5822
   XY=             -2.3365   XZ=             -3.6553   YZ=              0.6097
 Octapole moment (field-independent basis, Debye-Ang**2):
  XXX=             23.4907  YYY=             -7.9055  ZZZ=              5.7394  XYY=              7.5389
  XXY=              4.8873  XXZ=              2.0779  XZZ=             -5.7525  YZZ=              1.1546
  YYZ=              1.8769  XYZ=              1.2212
 Hexadecapole moment (field-independent basis, Debye-Ang**3):
 XXXX=           -361.7423 YYYY=           -176.5470 ZZZZ=            -57.7063 XXXY=            -12.6834
 XXXZ=            -10.6790 YYYX=             -0.2850 YYYZ=              1.5716 ZZZX=             -3.9412
 ZZZY=              0.4013 XXYY=            -95.7965 XXZZ=            -81.4900 YYZZ=            -40.8325
 XXYZ=              0.7339 YYXZ=             -2.2518 ZZXY=              0.6762
 N-N= 2.414857464590D+02 E-N=-1.963148756091D+03  KE= 6.233945458750D+02
 1\1\GINC-NODE62\SP\RB3LYP\6-31+G(d,p)\C2H4O2S1\YANZ\22-Sep-2023\0\\# b
 3lyp/6-31+g(d,p) scrf=(iefpcm,solvent=acetonitrile)\\tmpdir/M2_ref_117
 .gjf\\0,1\S,0,-3.836607,0.702377,0.57894\C,0,-5.040051,-0.332504,-0.26
 783\C,0,-5.183182,-0.210042,-1.653329\H,0,-2.65148816,-0.08630702,0.56
 569088\O,0,-3.616977,1.923666,-0.227148\O,0,-4.265488,0.853458,1.99072
 9\H,0,-5.58618752,-0.99317448,0.27025763\H,0,-5.85437851,-0.79975863,-
 2.12617568\H,0,-4.592746,0.513878,-2.204127\\Version=ES64L-G16RevA.03\
 State=1-A\HF=-627.1615831\RMSD=4.709e-09\Dipole=-0.08022,-2.0193723,-1
 .4354539\Quadrupole=3.1166086,-1.3352881,-1.7813205,-0.024708,2.80036,
 0.8670186\PG=C01 [X(C2H4O2S1)]\\@


      LET US REMEMBER, PLEASE, THAT THE SEARCH FOR THE CONSTITUTION
      OF THE WORLD IS ONE OF THE GREATEST AND NOBLEST PROBLEMS PRESENTED 
      BY NATURE.

                                                  -- GALILEO
 Job cpu time:       0 days  0 hours  1 minutes  0.0 seconds.
 Elapsed time:       0 days  0 hours  0 minutes 30.6 seconds.
 File lengths (MBytes):  RWF=     29 Int=      0 D2E=      0 Chk=      2 Scr=      1
 Normal termination of Gaussian 16 at Fri Sep 22 17:08:59 2023.
