 Entering Gaussian System, Link 0=g16
 Initial command:
 /share/apps/gaussian/g16/l1.exe "/tmp/55647.mgr/Gau-1144.inp" -scrdir="/tmp/55647.mgr/"
 Entering Link 1 = /share/apps/gaussian/g16/l1.exe PID=      1145.
  
 Copyright (c) 1988,1990,1992,1993,1995,1998,2003,2009,2016,
            Gaussian, Inc.  All Rights Reserved.
  
 This is part of the Gaussian(R) 16 program.  It is based on
 the Gaussian(R) 09 system (copyright 2009, Gaussian, Inc.),
 the Gaussian(R) 03 system (copyright 2003, Gaussian, Inc.),
 the Gaussian(R) 98 system (copyright 1998, Gaussian, Inc.),
 the Gaussian(R) 94 system (copyright 1995, Gaussian, Inc.),
 the Gaussian 92(TM) system (copyright 1992, Gaussian, Inc.),
 the Gaussian 90(TM) system (copyright 1990, Gaussian, Inc.),
 the Gaussian 88(TM) system (copyright 1988, Gaussian, Inc.),
 the Gaussian 86(TM) system (copyright 1986, Carnegie Mellon
 University), and the Gaussian 82(TM) system (copyright 1983,
 Carnegie Mellon University). Gaussian is a federally registered
 trademark of Gaussian, Inc.
  
 This software contains proprietary and confidential information,
 including trade secrets, belonging to Gaussian, Inc.
  
 This software is provided under written license and may be
 used, copied, transmitted, or stored only in accord with that
 written license.
  
 The following legend is applicable only to US Government
 contracts under FAR:
  
                    RESTRICTED RIGHTS LEGEND
  
 Use, reproduction and disclosure by the US Government is
 subject to restrictions as set forth in subparagraphs (a)
 and (c) of the Commercial Computer Software - Restricted
 Rights clause in FAR 52.227-19.
  
 Gaussian, Inc.
 340 Quinnipiac St., Bldg. 40, Wallingford CT 06492
  
  
 ---------------------------------------------------------------
 Warning -- This program may not be used in any manner that
 competes with the business of Gaussian, Inc. or will provide
 assistance to any competitor of Gaussian, Inc.  The licensee
 of this program is prohibited from giving any competitor of
 Gaussian, Inc. access to this program.  By using this program,
 the user acknowledges that Gaussian, Inc. is engaged in the
 business of creating and licensing software in the field of
 computational chemistry and represents and warrants to the
 licensee that it is not a competitor of Gaussian, Inc. and that
 it will not use this program in any manner prohibited above.
 ---------------------------------------------------------------
  

 Cite this work as:
 Gaussian 16, Revision A.03,
 M. J. Frisch, G. W. Trucks, H. B. Schlegel, G. E. Scuseria, 
 M. A. Robb, J. R. Cheeseman, G. Scalmani, V. Barone, 
 G. A. Petersson, H. Nakatsuji, X. Li, M. Caricato, A. V. Marenich, 
 J. Bloino, B. G. Janesko, R. Gomperts, B. Mennucci, H. P. Hratchian, 
 J. V. Ortiz, A. F. Izmaylov, J. L. Sonnenberg, D. Williams-Young, 
 F. Ding, F. Lipparini, F. Egidi, J. Goings, B. Peng, A. Petrone, 
 T. Henderson, D. Ranasinghe, V. G. Zakrzewski, J. Gao, N. Rega, 
 G. Zheng, W. Liang, M. Hada, M. Ehara, K. Toyota, R. Fukuda, 
 J. Hasegawa, M. Ishida, T. Nakajima, Y. Honda, O. Kitao, H. Nakai, 
 T. Vreven, K. Throssell, J. A. Montgomery, Jr., J. E. Peralta, 
 F. Ogliaro, M. J. Bearpark, J. J. Heyd, E. N. Brothers, K. N. Kudin, 
 V. N. Staroverov, T. A. Keith, R. Kobayashi, J. Normand, 
 K. Raghavachari, A. P. Rendell, J. C. Burant, S. S. Iyengar, 
 J. Tomasi, M. Cossi, J. M. Millam, M. Klene, C. Adamo, R. Cammi, 
 J. W. Ochterski, R. L. Martin, K. Morokuma, O. Farkas, 
 J. B. Foresman, and D. J. Fox, Gaussian, Inc., Wallingford CT, 2016.
 
 ******************************************
 Gaussian 16:  ES64L-G16RevA.03 25-Dec-2016
                22-Sep-2023 
 ******************************************
 %nprocshared=2
 Will use up to    2 processors via shared memory.
 %mem=2GB
 ------------------------------------------------------
 # b3lyp/6-31+g(d,p) scrf=(iefpcm,solvent=acetonitrile)
 ------------------------------------------------------
 1/38=1,172=1/1;
 2/12=2,17=6,18=5,40=1/2;
 3/5=1,6=6,7=111,11=2,25=1,30=1,70=2201,72=2,74=-5/1,2,3;
 4//1;
 5/5=2,38=5,53=2/2;
 6/7=2,8=2,9=2,10=2,28=1/1;
 99/5=1,9=1/99;
 --------------------
 tmpdir/M2_ref_71.gjf
 --------------------
 Symbolic Z-matrix:
 Charge =  0 Multiplicity = 1
 C                     3.54116   3.47905  -1.05996 
 H                     3.9117    4.46046  -0.77997 
 O                     2.75498   2.88857  -0.3163 
 H                     3.83469   3.05241  -1.92908 
 
                          Input orientation:                          
 ---------------------------------------------------------------------
 Center     Atomic      Atomic             Coordinates (Angstroms)
 Number     Number       Type             X           Y           Z
 ---------------------------------------------------------------------
      1          6           0        3.541156    3.479054   -1.059960
      2          1           0        3.911703    4.460463   -0.779971
      3          8           0        2.754978    2.888575   -0.316304
      4          1           0        3.834687    3.052409   -1.929082
 ---------------------------------------------------------------------
                    Distance matrix (angstroms):
                    1          2          3          4
     1  C    0.000000
     2  H    1.085754   0.000000
     3  O    1.232788   2.005949   0.000000
     4  H    1.011711   1.819067   1.947734   0.000000
 Stoichiometry    CH2O
 Framework group  C1[X(CH2O)]
 Deg. of freedom     6
 Full point group                 C1      NOp   1
 Largest Abelian subgroup         C1      NOp   1
 Largest concise Abelian subgroup C1      NOp   1
                         Standard orientation:                         
 ---------------------------------------------------------------------
 Center     Atomic      Atomic             Coordinates (Angstroms)
 Number     Number       Type             X           Y           Z
 ---------------------------------------------------------------------
      1          6           0       -0.550964   -0.013197   -0.000760
      2          1           0       -1.103699    0.921331    0.001542
      3          8           0        0.681661    0.006825    0.000169
      4          1           0       -1.043801   -0.896750    0.001661
 ---------------------------------------------------------------------
 Rotational constants (GHZ):         302.9500729          38.1403725          33.8756074
 Standard basis: 6-31+G(d,p) (6D, 7F)
 There are    48 symmetry adapted cartesian basis functions of A   symmetry.
 There are    48 symmetry adapted basis functions of A   symmetry.
    48 basis functions,    78 primitive gaussians,    48 cartesian basis functions
     8 alpha electrons        8 beta electrons
       nuclear repulsion energy        31.2415596281 Hartrees.
 NAtoms=    4 NActive=    4 NUniq=    4 SFac= 1.00D+00 NAtFMM=   60 NAOKFM=F Big=F
 Integral buffers will be    131072 words long.
 Raffenetti 2 integral format.
 Two-electron integral symmetry is turned on.
 ------------------------------------------------------------------------------
 Polarizable Continuum Model (PCM)
 =================================
 Model                : PCM.
 Atomic radii         : UFF (Universal Force Field).
 Polarization charges : Total charges.
 Charge compensation  : None.
 Solution method      : On-the-fly selection.
 Cavity type          : Scaled VdW (van der Waals Surface) (Alpha=1.100).
 Cavity algorithm     : GePol (No added spheres)
                        Default sphere list used, NSphG=    4.
                        Lebedev-Laikov grids with approx.  5.0 points / Ang**2.
                        Smoothing algorithm: York/Karplus (Gamma=1.0000).
                        Polarization charges: spherical gaussians, with
                                              point-specific exponents (IZeta= 3).
                        Self-potential: point-specific (ISelfS= 7).
                        Self-field    : sphere-specific E.n sum rule (ISelfD= 2).
 Solvent              : Acetonitrile, Eps=  35.688000 Eps(inf)=   1.806874
 ------------------------------------------------------------------------------
 Spheres list:
 ISph  on   Nord     Re0    Alpha      Xe            Ye            Ze
    1   C      1    1.9255  1.100     -0.550964     -0.013197     -0.000760
    2   H      2    1.4430  1.100     -1.103699      0.921331      0.001542
    3   O      3    1.7500  1.100      0.681661      0.006825      0.000169
    4   H      4    1.4430  1.100     -1.043801     -0.896750      0.001661
 ------------------------------------------------------------------------------
 One-electron integrals computed using PRISM.
 NBasis=    48 RedAO= T EigKep=  6.29D-03  NBF=    48
 NBsUse=    48 1.00D-06 EigRej= -1.00D+00 NBFU=    48
 ExpMin= 4.38D-02 ExpMax= 5.48D+03 ExpMxC= 8.25D+02 IAcc=3 IRadAn=         5 AccDes= 0.00D+00
 Harris functional with IExCor=  402 and IRadAn=       5 diagonalized for initial guess.
 HarFok:  IExCor=  402 AccDes= 0.00D+00 IRadAn=         5 IDoV= 1 UseB2=F ITyADJ=14
 ICtDFT=  3500011 ScaDFX=  1.000000  1.000000  1.000000  1.000000
 FoFCou: FMM=F IPFlag=           0 FMFlag=      100000 FMFlg1=           0
         NFxFlg=           0 DoJE=T BraDBF=F KetDBF=T FulRan=T
         wScrn=  0.000000 ICntrl=       500 IOpCl=  0 I1Cent=   200000004 NGrid=           0
         NMat0=    1 NMatS0=      1 NMatT0=    0 NMatD0=    1 NMtDS0=    0 NMtDT0=    0
 Petite list used in FoFCou.
 Keep R1 ints in memory in canonical form, NReq=2434982.
 Requested convergence on RMS density matrix=1.00D-08 within 128 cycles.
 Requested convergence on MAX density matrix=1.00D-06.
 Requested convergence on             energy=1.00D-06.
 No special actions if energy rises.
 Inv3:  Mode=1 IEnd=      817452.
 Iteration    1 A*A^-1 deviation from unit magnitude is 2.89D-15 for    518.
 Iteration    1 A*A^-1 deviation from orthogonality  is 9.31D-16 for    364     62.
 Iteration    1 A^-1*A deviation from unit magnitude is 2.89D-15 for    518.
 Iteration    1 A^-1*A deviation from orthogonality  is 1.17D-15 for    400    130.
 Error on total polarization charges =  0.00688
 SCF Done:  E(RB3LYP) =  -114.510799981     A.U. after    9 cycles
            NFock=  9  Conv=0.38D-08     -V/T= 2.0086

 **********************************************************************

            Population analysis using the SCF density.

 **********************************************************************

 Orbital symmetries:
       Occupied  (A) (A) (A) (A) (A) (A) (A) (A)
       Virtual   (A) (A) (A) (A) (A) (A) (A) (A) (A) (A) (A) (A)
                 (A) (A) (A) (A) (A) (A) (A) (A) (A) (A) (A) (A)
                 (A) (A) (A) (A) (A) (A) (A) (A) (A) (A) (A) (A)
                 (A) (A) (A) (A)
 The electronic state is 1-A.
 Alpha  occ. eigenvalues --  -19.18364 -10.28851  -1.06129  -0.65685  -0.51431
 Alpha  occ. eigenvalues --   -0.46011  -0.40381  -0.28316
 Alpha virt. eigenvalues --   -0.06525   0.02132   0.04270   0.05280   0.07329
 Alpha virt. eigenvalues --    0.16926   0.19451   0.20749   0.21410   0.25958
 Alpha virt. eigenvalues --    0.27439   0.35551   0.63228   0.66008   0.72517
 Alpha virt. eigenvalues --    0.90840   0.94598   1.02541   1.16886   1.17288
 Alpha virt. eigenvalues --    1.21199   1.35473   1.45553   1.49347   1.68786
 Alpha virt. eigenvalues --    1.79862   1.85830   2.00054   2.04801   2.17875
 Alpha virt. eigenvalues --    2.26542   2.57627   2.63340   2.80391   2.86934
 Alpha virt. eigenvalues --    2.94749   3.43344   3.62358   4.03644   4.39233
          Condensed to atoms (all electrons):
               1          2          3          4
     1  C    4.699196   0.393637   0.386469   0.394724
     2  H    0.393637   0.608794  -0.071169  -0.072174
     3  O    0.386469  -0.071169   8.168037  -0.068967
     4  H    0.394724  -0.072174  -0.068967   0.598931
 Mulliken charges:
               1
     1  C    0.125973
     2  H    0.140912
     3  O   -0.414371
     4  H    0.147486
 Sum of Mulliken charges =  -0.00000
 Mulliken charges with hydrogens summed into heavy atoms:
               1
     1  C    0.414371
     3  O   -0.414371
 Electronic spatial extent (au):  <R**2>=             60.2940
 Charge=             -0.0000 electrons
 Dipole moment (field-independent basis, Debye):
    X=             -3.2632    Y=             -0.0955    Z=              0.0006  Tot=              3.2646
 Quadrupole moment (field-independent basis, Debye-Ang):
   XX=            -12.2910   YY=            -11.4714   ZZ=            -11.7010
   XY=              0.0391   XZ=             -0.0016   YZ=              0.0001
 Traceless Quadrupole moment (field-independent basis, Debye-Ang):
   XX=             -0.4698   YY=              0.3497   ZZ=              0.1201
   XY=              0.0391   XZ=             -0.0016   YZ=              0.0001
 Octapole moment (field-independent basis, Debye-Ang**2):
  XXX=             -1.5856  YYY=             -0.2000  ZZZ=              0.0020  XYY=             -1.3586
  XXY=             -0.0695  XXZ=              0.0043  XZZ=              0.0783  YZZ=             -0.0904
  YYZ=              0.0043  XYZ=             -0.0000
 Hexadecapole moment (field-independent basis, Debye-Ang**3):
 XXXX=            -46.3254 YYYY=            -17.3095 ZZZZ=            -10.7349 XXXY=              0.2302
 XXXZ=             -0.0043 YYYX=              0.1612 YYYZ=             -0.0001 ZZZX=              0.0002
 ZZZY=             -0.0001 XXYY=            -10.3334 XXZZ=             -9.4854 YYZZ=             -4.9735
 XXYZ=              0.0003 YYXZ=             -0.0041 ZZXY=              0.1077
 N-N= 3.124155962808D+01 E-N=-3.308347297920D+02  KE= 1.135391412971D+02
 1\1\GINC-NODE62\SP\RB3LYP\6-31+G(d,p)\C1H2O1\YANZ\22-Sep-2023\0\\# b3l
 yp/6-31+g(d,p) scrf=(iefpcm,solvent=acetonitrile)\\tmpdir/M2_ref_71.gj
 f\\0,1\C,0,3.541156,3.479054,-1.05996\H,0,3.911703,4.460463,-0.779971\
 O,0,2.75497758,2.88857493,-0.31630368\H,0,3.83468671,3.05240862,-1.929
 08214\\Version=ES64L-G16RevA.03\State=1-A\HF=-114.5108\RMSD=3.798e-09\
 Dipole=0.8175546,0.6028602,-0.7860128\Quadrupole=-0.0908754,0.060297,0
 .0305783,-0.1493053,0.1566531,0.2154035\PG=C01 [X(C1H2O1)]\\@


 LOVE IS BLIND, THAT'S WHY ALL THE WORLD LOVES A LOUVER.
 Job cpu time:       0 days  0 hours  0 minutes  8.9 seconds.
 Elapsed time:       0 days  0 hours  0 minutes  4.6 seconds.
 File lengths (MBytes):  RWF=     11 Int=      0 D2E=      0 Chk=      1 Scr=      1
 Normal termination of Gaussian 16 at Fri Sep 22 17:08:16 2023.
