 Entering Gaussian System, Link 0=g16
 Initial command:
 /share/apps/gaussian/g16/l1.exe "/tmp/55647.mgr/Gau-1874.inp" -scrdir="/tmp/55647.mgr/"
 Entering Link 1 = /share/apps/gaussian/g16/l1.exe PID=      1875.
  
 Copyright (c) 1988,1990,1992,1993,1995,1998,2003,2009,2016,
            Gaussian, Inc.  All Rights Reserved.
  
 This is part of the Gaussian(R) 16 program.  It is based on
 the Gaussian(R) 09 system (copyright 2009, Gaussian, Inc.),
 the Gaussian(R) 03 system (copyright 2003, Gaussian, Inc.),
 the Gaussian(R) 98 system (copyright 1998, Gaussian, Inc.),
 the Gaussian(R) 94 system (copyright 1995, Gaussian, Inc.),
 the Gaussian 92(TM) system (copyright 1992, Gaussian, Inc.),
 the Gaussian 90(TM) system (copyright 1990, Gaussian, Inc.),
 the Gaussian 88(TM) system (copyright 1988, Gaussian, Inc.),
 the Gaussian 86(TM) system (copyright 1986, Carnegie Mellon
 University), and the Gaussian 82(TM) system (copyright 1983,
 Carnegie Mellon University). Gaussian is a federally registered
 trademark of Gaussian, Inc.
  
 This software contains proprietary and confidential information,
 including trade secrets, belonging to Gaussian, Inc.
  
 This software is provided under written license and may be
 used, copied, transmitted, or stored only in accord with that
 written license.
  
 The following legend is applicable only to US Government
 contracts under FAR:
  
                    RESTRICTED RIGHTS LEGEND
  
 Use, reproduction and disclosure by the US Government is
 subject to restrictions as set forth in subparagraphs (a)
 and (c) of the Commercial Computer Software - Restricted
 Rights clause in FAR 52.227-19.
  
 Gaussian, Inc.
 340 Quinnipiac St., Bldg. 40, Wallingford CT 06492
  
  
 ---------------------------------------------------------------
 Warning -- This program may not be used in any manner that
 competes with the business of Gaussian, Inc. or will provide
 assistance to any competitor of Gaussian, Inc.  The licensee
 of this program is prohibited from giving any competitor of
 Gaussian, Inc. access to this program.  By using this program,
 the user acknowledges that Gaussian, Inc. is engaged in the
 business of creating and licensing software in the field of
 computational chemistry and represents and warrants to the
 licensee that it is not a competitor of Gaussian, Inc. and that
 it will not use this program in any manner prohibited above.
 ---------------------------------------------------------------
  

 Cite this work as:
 Gaussian 16, Revision A.03,
 M. J. Frisch, G. W. Trucks, H. B. Schlegel, G. E. Scuseria, 
 M. A. Robb, J. R. Cheeseman, G. Scalmani, V. Barone, 
 G. A. Petersson, H. Nakatsuji, X. Li, M. Caricato, A. V. Marenich, 
 J. Bloino, B. G. Janesko, R. Gomperts, B. Mennucci, H. P. Hratchian, 
 J. V. Ortiz, A. F. Izmaylov, J. L. Sonnenberg, D. Williams-Young, 
 F. Ding, F. Lipparini, F. Egidi, J. Goings, B. Peng, A. Petrone, 
 T. Henderson, D. Ranasinghe, V. G. Zakrzewski, J. Gao, N. Rega, 
 G. Zheng, W. Liang, M. Hada, M. Ehara, K. Toyota, R. Fukuda, 
 J. Hasegawa, M. Ishida, T. Nakajima, Y. Honda, O. Kitao, H. Nakai, 
 T. Vreven, K. Throssell, J. A. Montgomery, Jr., J. E. Peralta, 
 F. Ogliaro, M. J. Bearpark, J. J. Heyd, E. N. Brothers, K. N. Kudin, 
 V. N. Staroverov, T. A. Keith, R. Kobayashi, J. Normand, 
 K. Raghavachari, A. P. Rendell, J. C. Burant, S. S. Iyengar, 
 J. Tomasi, M. Cossi, J. M. Millam, M. Klene, C. Adamo, R. Cammi, 
 J. W. Ochterski, R. L. Martin, K. Morokuma, O. Farkas, 
 J. B. Foresman, and D. J. Fox, Gaussian, Inc., Wallingford CT, 2016.
 
 ******************************************
 Gaussian 16:  ES64L-G16RevA.03 25-Dec-2016
                22-Sep-2023 
 ******************************************
 %nprocshared=2
 Will use up to    2 processors via shared memory.
 %mem=2GB
 ------------------------------------------------------
 # b3lyp/6-31+g(d,p) scrf=(iefpcm,solvent=acetonitrile)
 ------------------------------------------------------
 1/38=1,172=1/1;
 2/12=2,17=6,18=5,40=1/2;
 3/5=1,6=6,7=111,11=2,25=1,30=1,70=2201,72=2,74=-5/1,2,3;
 4//1;
 5/5=2,38=5,53=2/2;
 6/7=2,8=2,9=2,10=2,28=1/1;
 99/5=1,9=1/99;
 ---------------------
 tmpdir/M2_ref_133.gjf
 ---------------------
 Symbolic Z-matrix:
 Charge =  0 Multiplicity = 1
 C                    -5.18318  -0.21004  -1.65333 
 C                    -6.1104   -1.0247   -2.30654 
 H                    -6.23845  -0.93746  -3.38068 
 O                    -5.057    -0.31801  -0.43185 
 H                    -4.59275   0.51388  -2.20413 
 O                    -6.78259  -1.8354   -1.66448 
 
                          Input orientation:                          
 ---------------------------------------------------------------------
 Center     Atomic      Atomic             Coordinates (Angstroms)
 Number     Number       Type             X           Y           Z
 ---------------------------------------------------------------------
      1          6           0       -5.183182   -0.210042   -1.653329
      2          6           0       -6.110395   -1.024696   -2.306535
      3          1           0       -6.238447   -0.937459   -3.380681
      4          8           0       -5.056995   -0.318006   -0.431851
      5          1           0       -4.592746    0.513878   -2.204127
      6          8           0       -6.782594   -1.835397   -1.664478
 ---------------------------------------------------------------------
                    Distance matrix (angstroms):
                    1          2          3          4          5
     1  C    0.000000
     2  C    1.396447   0.000000
     3  H    2.150922   1.085264   0.000000
     4  O    1.232716   2.263515   3.236533   0.000000
     5  H    1.084460   2.163552   2.489777   2.012094   0.000000
     6  O    2.280356   1.233420   2.011900   2.607592   3.256647
                    6
     6  O    0.000000
 Stoichiometry    C2H2O2
 Framework group  C1[X(C2H2O2)]
 Deg. of freedom    12
 Full point group                 C1      NOp   1
 Largest Abelian subgroup         C1      NOp   1
 Largest concise Abelian subgroup C1      NOp   1
                         Standard orientation:                         
 ---------------------------------------------------------------------
 Center     Atomic      Atomic             Coordinates (Angstroms)
 Number     Number       Type             X           Y           Z
 ---------------------------------------------------------------------
      1          6           0        0.704370    0.510790   -0.002346
      2          6           0       -0.692076    0.509913   -0.000757
      3          1           0       -1.229241    1.452905    0.003338
      4          8           0        1.297216   -0.570002    0.000665
      5          1           0        1.260509    1.441748    0.006625
      6          8           0       -1.310345   -0.557357    0.000418
 ---------------------------------------------------------------------
 Rotational constants (GHZ):          24.6557365           7.3026738           5.6339882
 Standard basis: 6-31+G(d,p) (6D, 7F)
 There are    86 symmetry adapted cartesian basis functions of A   symmetry.
 There are    86 symmetry adapted basis functions of A   symmetry.
    86 basis functions,   142 primitive gaussians,    86 cartesian basis functions
    15 alpha electrons       15 beta electrons
       nuclear repulsion energy       106.0151556591 Hartrees.
 NAtoms=    6 NActive=    6 NUniq=    6 SFac= 1.00D+00 NAtFMM=   60 NAOKFM=F Big=F
 Integral buffers will be    131072 words long.
 Raffenetti 2 integral format.
 Two-electron integral symmetry is turned on.
 ------------------------------------------------------------------------------
 Polarizable Continuum Model (PCM)
 =================================
 Model                : PCM.
 Atomic radii         : UFF (Universal Force Field).
 Polarization charges : Total charges.
 Charge compensation  : None.
 Solution method      : On-the-fly selection.
 Cavity type          : Scaled VdW (van der Waals Surface) (Alpha=1.100).
 Cavity algorithm     : GePol (No added spheres)
                        Default sphere list used, NSphG=    6.
                        Lebedev-Laikov grids with approx.  5.0 points / Ang**2.
                        Smoothing algorithm: York/Karplus (Gamma=1.0000).
                        Polarization charges: spherical gaussians, with
                                              point-specific exponents (IZeta= 3).
                        Self-potential: point-specific (ISelfS= 7).
                        Self-field    : sphere-specific E.n sum rule (ISelfD= 2).
 Solvent              : Acetonitrile, Eps=  35.688000 Eps(inf)=   1.806874
 ------------------------------------------------------------------------------
 Spheres list:
 ISph  on   Nord     Re0    Alpha      Xe            Ye            Ze
    1   C      1    1.9255  1.100      0.704370      0.510790     -0.002346
    2   C      2    1.9255  1.100     -0.692076      0.509913     -0.000757
    3   H      3    1.4430  1.100     -1.229241      1.452905      0.003338
    4   O      4    1.7500  1.100      1.297216     -0.570002      0.000665
    5   H      5    1.4430  1.100      1.260509      1.441748      0.006625
    6   O      6    1.7500  1.100     -1.310345     -0.557357      0.000418
 ------------------------------------------------------------------------------
 One-electron integrals computed using PRISM.
 NBasis=    86 RedAO= T EigKep=  1.31D-04  NBF=    86
 NBsUse=    86 1.00D-06 EigRej= -1.00D+00 NBFU=    86
 ExpMin= 4.38D-02 ExpMax= 5.48D+03 ExpMxC= 8.25D+02 IAcc=3 IRadAn=         5 AccDes= 0.00D+00
 Harris functional with IExCor=  402 and IRadAn=       5 diagonalized for initial guess.
 HarFok:  IExCor=  402 AccDes= 0.00D+00 IRadAn=         5 IDoV= 1 UseB2=F ITyADJ=14
 ICtDFT=  3500011 ScaDFX=  1.000000  1.000000  1.000000  1.000000
 FoFCou: FMM=F IPFlag=           0 FMFlag=      100000 FMFlg1=           0
         NFxFlg=           0 DoJE=T BraDBF=F KetDBF=T FulRan=T
         wScrn=  0.000000 ICntrl=       500 IOpCl=  0 I1Cent=   200000004 NGrid=           0
         NMat0=    1 NMatS0=      1 NMatT0=    0 NMatD0=    1 NMtDS0=    0 NMtDT0=    0
 Petite list used in FoFCou.
 Keep R1 ints in memory in canonical form, NReq=8817431.
 Requested convergence on RMS density matrix=1.00D-08 within 128 cycles.
 Requested convergence on MAX density matrix=1.00D-06.
 Requested convergence on             energy=1.00D-06.
 No special actions if energy rises.
 Inv3:  Mode=1 IEnd=     1687500.
 Iteration    1 A*A^-1 deviation from unit magnitude is 2.66D-15 for    743.
 Iteration    1 A*A^-1 deviation from orthogonality  is 2.48D-15 for    525    285.
 Iteration    1 A^-1*A deviation from unit magnitude is 2.33D-15 for    743.
 Iteration    1 A^-1*A deviation from orthogonality  is 1.89D-15 for    551    525.
 Error on total polarization charges =  0.00778
 SCF Done:  E(RB3LYP) =  -227.825150043     A.U. after   11 cycles
            NFock= 11  Conv=0.23D-08     -V/T= 2.0084

 **********************************************************************

            Population analysis using the SCF density.

 **********************************************************************

 Orbital symmetries:
       Occupied  (A) (A) (A) (A) (A) (A) (A) (A) (A) (A) (A) (A)
                 (A) (A) (A)
       Virtual   (A) (A) (A) (A) (A) (A) (A) (A) (A) (A) (A) (A)
                 (A) (A) (A) (A) (A) (A) (A) (A) (A) (A) (A) (A)
                 (A) (A) (A) (A) (A) (A) (A) (A) (A) (A) (A) (A)
                 (A) (A) (A) (A) (A) (A) (A) (A) (A) (A) (A) (A)
                 (A) (A) (A) (A) (A) (A) (A) (A) (A) (A) (A) (A)
                 (A) (A) (A) (A) (A) (A) (A) (A) (A) (A) (A)
 The electronic state is 1-A.
 Alpha  occ. eigenvalues --  -19.20137 -19.20134 -10.30599 -10.30545  -1.10133
 Alpha  occ. eigenvalues --   -1.06207  -0.75866  -0.58068  -0.55933  -0.48744
 Alpha  occ. eigenvalues --   -0.46117  -0.45700  -0.38920  -0.31800  -0.29364
 Alpha virt. eigenvalues --   -0.14525   0.01328   0.02155   0.03493   0.03842
 Alpha virt. eigenvalues --    0.06081   0.07359   0.08851   0.10231   0.15341
 Alpha virt. eigenvalues --    0.15816   0.19856   0.20459   0.21601   0.24046
 Alpha virt. eigenvalues --    0.24152   0.25363   0.26347   0.28425   0.32251
 Alpha virt. eigenvalues --    0.34883   0.40163   0.52573   0.61754   0.61784
 Alpha virt. eigenvalues --    0.66451   0.75286   0.77647   0.82138   0.88621
 Alpha virt. eigenvalues --    0.99672   1.11603   1.12172   1.13937   1.14775
 Alpha virt. eigenvalues --    1.19910   1.20478   1.25339   1.26212   1.31402
 Alpha virt. eigenvalues --    1.37572   1.45676   1.48480   1.63811   1.65805
 Alpha virt. eigenvalues --    1.71454   1.74904   1.80026   1.85768   1.98768
 Alpha virt. eigenvalues --    1.99477   2.05073   2.07665   2.20052   2.24020
 Alpha virt. eigenvalues --    2.31151   2.43394   2.46156   2.56891   2.68499
 Alpha virt. eigenvalues --    2.78023   2.81068   2.90149   3.12464   3.18127
 Alpha virt. eigenvalues --    3.26400   3.65933   3.99233   4.26310   4.30297
 Alpha virt. eigenvalues --    4.57862
          Condensed to atoms (all electrons):
               1          2          3          4          5          6
     1  C    5.080196   0.055981  -0.087464   0.502546   0.394978  -0.169647
     2  C    0.055981   5.078457   0.395417  -0.171327  -0.084297   0.504453
     3  H   -0.087464   0.395417   0.571704   0.005987   0.007075  -0.059059
     4  O    0.502546  -0.171327   0.005987   8.113954  -0.057158  -0.005146
     5  H    0.394978  -0.084297   0.007075  -0.057158   0.564304   0.005024
     6  O   -0.169647   0.504453  -0.059059  -0.005146   0.005024   8.116656
 Mulliken charges:
               1
     1  C    0.223410
     2  C    0.221315
     3  H    0.166341
     4  O   -0.388856
     5  H    0.170073
     6  O   -0.392283
 Sum of Mulliken charges =  -0.00000
 Mulliken charges with hydrogens summed into heavy atoms:
               1
     1  C    0.393483
     2  C    0.387656
     4  O   -0.388856
     6  O   -0.392283
 Electronic spatial extent (au):  <R**2>=            225.2192
 Charge=             -0.0000 electrons
 Dipole moment (field-independent basis, Debye):
    X=              0.0865    Y=              5.0062    Z=             -0.0018  Tot=              5.0069
 Quadrupole moment (field-independent basis, Debye-Ang):
   XX=            -26.9328   YY=            -21.5145   ZZ=            -21.2928
   XY=              0.0964   XZ=              0.0017   YZ=              0.0043
 Traceless Quadrupole moment (field-independent basis, Debye-Ang):
   XX=             -3.6861   YY=              1.7322   ZZ=              1.9539
   XY=              0.0964   XZ=              0.0017   YZ=              0.0043
 Octapole moment (field-independent basis, Debye-Ang**2):
  XXX=              0.3047  YYY=              3.3672  ZZZ=              0.0023  XYY=              0.0610
  XXY=              7.1385  XXZ=             -0.0048  XZZ=              0.0107  YZZ=             -0.4592
  YYZ=              0.0207  XYZ=              0.0055
 Hexadecapole moment (field-independent basis, Debye-Ang**3):
 XXXX=           -196.3480 YYYY=            -72.4779 ZZZZ=            -18.8723 XXXY=              0.3829
 XXXZ=              0.0112 YYYX=              0.1365 YYYZ=              0.0192 ZZZX=              0.0036
 ZZZY=             -0.0073 XXYY=            -39.8771 XXZZ=            -32.5151 YYZZ=            -15.7203
 XXYZ=              0.0273 YYXZ=              0.0127 ZZXY=              0.0113
 N-N= 1.060151556591D+02 E-N=-7.459570787284D+02  KE= 2.259334310847D+02
 1\1\GINC-NODE62\SP\RB3LYP\6-31+G(d,p)\C2H2O2\YANZ\22-Sep-2023\0\\# b3l
 yp/6-31+g(d,p) scrf=(iefpcm,solvent=acetonitrile)\\tmpdir/M2_ref_133.g
 jf\\0,1\C,0,-5.183182,-0.210042,-1.653329\C,0,-6.110395,-1.024696,-2.3
 06535\H,0,-6.238447,-0.937459,-3.380681\O,0,-5.05699542,-0.31800646,-0
 .43185091\H,0,-4.592746,0.513878,-2.204127\O,0,-6.7825937,-1.83539745,
 -1.66447787\\Version=ES64L-G16RevA.03\State=1-A\HF=-227.82515\RMSD=2.2
 75e-09\Dipole=0.5055553,0.8507674,-1.703247\Quadrupole=-0.3795312,0.03
 18945,0.3476367,-1.6104142,-1.2986641,-1.1099108\PG=C01 [X(C2H2O2)]\\@


 ART, GLORY, FREEDOM FAIL, BUT NATURE STILL IS FAIR.

                                           -- BYRON
 Job cpu time:       0 days  0 hours  0 minutes 24.6 seconds.
 Elapsed time:       0 days  0 hours  0 minutes 12.5 seconds.
 File lengths (MBytes):  RWF=     16 Int=      0 D2E=      0 Chk=      2 Scr=      1
 Normal termination of Gaussian 16 at Fri Sep 22 17:09:28 2023.
