 Entering Gaussian System, Link 0=g16
 Initial command:
 /share/apps/gaussian/g16/l1.exe "/tmp/55647.mgr/Gau-882.inp" -scrdir="/tmp/55647.mgr/"
 Entering Link 1 = /share/apps/gaussian/g16/l1.exe PID=       883.
  
 Copyright (c) 1988,1990,1992,1993,1995,1998,2003,2009,2016,
            Gaussian, Inc.  All Rights Reserved.
  
 This is part of the Gaussian(R) 16 program.  It is based on
 the Gaussian(R) 09 system (copyright 2009, Gaussian, Inc.),
 the Gaussian(R) 03 system (copyright 2003, Gaussian, Inc.),
 the Gaussian(R) 98 system (copyright 1998, Gaussian, Inc.),
 the Gaussian(R) 94 system (copyright 1995, Gaussian, Inc.),
 the Gaussian 92(TM) system (copyright 1992, Gaussian, Inc.),
 the Gaussian 90(TM) system (copyright 1990, Gaussian, Inc.),
 the Gaussian 88(TM) system (copyright 1988, Gaussian, Inc.),
 the Gaussian 86(TM) system (copyright 1986, Carnegie Mellon
 University), and the Gaussian 82(TM) system (copyright 1983,
 Carnegie Mellon University). Gaussian is a federally registered
 trademark of Gaussian, Inc.
  
 This software contains proprietary and confidential information,
 including trade secrets, belonging to Gaussian, Inc.
  
 This software is provided under written license and may be
 used, copied, transmitted, or stored only in accord with that
 written license.
  
 The following legend is applicable only to US Government
 contracts under FAR:
  
                    RESTRICTED RIGHTS LEGEND
  
 Use, reproduction and disclosure by the US Government is
 subject to restrictions as set forth in subparagraphs (a)
 and (c) of the Commercial Computer Software - Restricted
 Rights clause in FAR 52.227-19.
  
 Gaussian, Inc.
 340 Quinnipiac St., Bldg. 40, Wallingford CT 06492
  
  
 ---------------------------------------------------------------
 Warning -- This program may not be used in any manner that
 competes with the business of Gaussian, Inc. or will provide
 assistance to any competitor of Gaussian, Inc.  The licensee
 of this program is prohibited from giving any competitor of
 Gaussian, Inc. access to this program.  By using this program,
 the user acknowledges that Gaussian, Inc. is engaged in the
 business of creating and licensing software in the field of
 computational chemistry and represents and warrants to the
 licensee that it is not a competitor of Gaussian, Inc. and that
 it will not use this program in any manner prohibited above.
 ---------------------------------------------------------------
  

 Cite this work as:
 Gaussian 16, Revision A.03,
 M. J. Frisch, G. W. Trucks, H. B. Schlegel, G. E. Scuseria, 
 M. A. Robb, J. R. Cheeseman, G. Scalmani, V. Barone, 
 G. A. Petersson, H. Nakatsuji, X. Li, M. Caricato, A. V. Marenich, 
 J. Bloino, B. G. Janesko, R. Gomperts, B. Mennucci, H. P. Hratchian, 
 J. V. Ortiz, A. F. Izmaylov, J. L. Sonnenberg, D. Williams-Young, 
 F. Ding, F. Lipparini, F. Egidi, J. Goings, B. Peng, A. Petrone, 
 T. Henderson, D. Ranasinghe, V. G. Zakrzewski, J. Gao, N. Rega, 
 G. Zheng, W. Liang, M. Hada, M. Ehara, K. Toyota, R. Fukuda, 
 J. Hasegawa, M. Ishida, T. Nakajima, Y. Honda, O. Kitao, H. Nakai, 
 T. Vreven, K. Throssell, J. A. Montgomery, Jr., J. E. Peralta, 
 F. Ogliaro, M. J. Bearpark, J. J. Heyd, E. N. Brothers, K. N. Kudin, 
 V. N. Staroverov, T. A. Keith, R. Kobayashi, J. Normand, 
 K. Raghavachari, A. P. Rendell, J. C. Burant, S. S. Iyengar, 
 J. Tomasi, M. Cossi, J. M. Millam, M. Klene, C. Adamo, R. Cammi, 
 J. W. Ochterski, R. L. Martin, K. Morokuma, O. Farkas, 
 J. B. Foresman, and D. J. Fox, Gaussian, Inc., Wallingford CT, 2016.
 
 ******************************************
 Gaussian 16:  ES64L-G16RevA.03 25-Dec-2016
                22-Sep-2023 
 ******************************************
 %nprocshared=2
 Will use up to    2 processors via shared memory.
 %mem=2GB
 ------------------------------------------------------
 # b3lyp/6-31+g(d,p) scrf=(iefpcm,solvent=acetonitrile)
 ------------------------------------------------------
 1/38=1,172=1/1;
 2/12=2,17=6,18=5,40=1/2;
 3/5=1,6=6,7=111,11=2,25=1,30=1,70=2201,72=2,74=-5/1,2,3;
 4//1;
 5/5=2,38=5,53=2/2;
 6/7=2,8=2,9=2,10=2,28=1/1;
 99/5=1,9=1/99;
 --------------------
 tmpdir/M2_ref_49.gjf
 --------------------
 Symbolic Z-matrix:
 Charge =  0 Multiplicity = 1
 O                     2.71058   0.95044   2.55118 
 S                     1.92875  -0.02886   1.70698 
 N                     1.2699    0.87148   0.31974 
 H                     2.8677   -0.80093   1.05698 
 H                     1.90173   1.34223  -0.30756 
 H                     0.32285   0.76966   0.08069 
 
                          Input orientation:                          
 ---------------------------------------------------------------------
 Center     Atomic      Atomic             Coordinates (Angstroms)
 Number     Number       Type             X           Y           Z
 ---------------------------------------------------------------------
      1          8           0        2.710581    0.950442    2.551184
      2         16           0        1.928750   -0.028863    1.706983
      3          7           0        1.269902    0.871483    0.319741
      4          1           0        2.867696   -0.800931    1.056979
      5          1           0        1.901732    1.342230   -0.307563
      6          1           0        0.322853    0.769664    0.080691
 ---------------------------------------------------------------------
                    Distance matrix (angstroms):
                    1          2          3          4          5
     1  O    0.000000
     2  S    1.510951   0.000000
     3  N    2.657278   1.780209   0.000000
     4  H    2.307519   1.378482   2.427639   0.000000
     5  H    2.996693   2.437010   1.007135   2.718124   0.000000
     6  H    3.440532   2.421028   0.982046   3.145812   1.723784
                    6
     6  H    0.000000
 Stoichiometry    H3NOS
 Framework group  C1[X(H3NOS)]
 Deg. of freedom    12
 Full point group                 C1      NOp   1
 Largest Abelian subgroup         C1      NOp   1
 Largest concise Abelian subgroup C1      NOp   1
                         Standard orientation:                         
 ---------------------------------------------------------------------
 Center     Atomic      Atomic             Coordinates (Angstroms)
 Number     Number       Type             X           Y           Z
 ---------------------------------------------------------------------
      1          8           0       -1.241894    0.645799   -0.002020
      2         16           0       -0.207819   -0.453037   -0.080889
      3          7           0        1.395001    0.317308    0.000846
      4          1           0       -0.226895   -1.078539    1.147361
      5          1           0        1.634818    0.872332    0.806301
      6          1           0        2.087324    0.067255   -0.649212
 ---------------------------------------------------------------------
 Rotational constants (GHZ):          26.4556854           8.0356486           6.5749195
 Standard basis: 6-31+G(d,p) (6D, 7F)
 There are    76 symmetry adapted cartesian basis functions of A   symmetry.
 There are    76 symmetry adapted basis functions of A   symmetry.
    76 basis functions,   141 primitive gaussians,    76 cartesian basis functions
    17 alpha electrons       17 beta electrons
       nuclear repulsion energy       116.5108866745 Hartrees.
 NAtoms=    6 NActive=    6 NUniq=    6 SFac= 1.00D+00 NAtFMM=   60 NAOKFM=F Big=F
 Integral buffers will be    131072 words long.
 Raffenetti 2 integral format.
 Two-electron integral symmetry is turned on.
 ------------------------------------------------------------------------------
 Polarizable Continuum Model (PCM)
 =================================
 Model                : PCM.
 Atomic radii         : UFF (Universal Force Field).
 Polarization charges : Total charges.
 Charge compensation  : None.
 Solution method      : On-the-fly selection.
 Cavity type          : Scaled VdW (van der Waals Surface) (Alpha=1.100).
 Cavity algorithm     : GePol (No added spheres)
                        Default sphere list used, NSphG=    6.
                        Lebedev-Laikov grids with approx.  5.0 points / Ang**2.
                        Smoothing algorithm: York/Karplus (Gamma=1.0000).
                        Polarization charges: spherical gaussians, with
                                              point-specific exponents (IZeta= 3).
                        Self-potential: point-specific (ISelfS= 7).
                        Self-field    : sphere-specific E.n sum rule (ISelfD= 2).
 Solvent              : Acetonitrile, Eps=  35.688000 Eps(inf)=   1.806874
 ------------------------------------------------------------------------------
 Spheres list:
 ISph  on   Nord     Re0    Alpha      Xe            Ye            Ze
    1   O      1    1.7500  1.100     -1.241894      0.645799     -0.002020
    2   S      2    2.0175  1.100     -0.207819     -0.453037     -0.080889
    3   N      3    1.8300  1.100      1.395001      0.317308      0.000846
    4   H      4    1.4430  1.100     -0.226895     -1.078539      1.147361
    5   H      5    1.4430  1.100      1.634818      0.872332      0.806301
    6   H      6    1.4430  1.100      2.087324      0.067255     -0.649212
 ------------------------------------------------------------------------------
 One-electron integrals computed using PRISM.
 NBasis=    76 RedAO= T EigKep=  3.91D-03  NBF=    76
 NBsUse=    76 1.00D-06 EigRej= -1.00D+00 NBFU=    76
 ExpMin= 4.05D-02 ExpMax= 2.19D+04 ExpMxC= 3.30D+03 IAcc=3 IRadAn=         5 AccDes= 0.00D+00
 Harris functional with IExCor=  402 and IRadAn=       5 diagonalized for initial guess.
 HarFok:  IExCor=  402 AccDes= 0.00D+00 IRadAn=         5 IDoV= 1 UseB2=F ITyADJ=14
 ICtDFT=  3500011 ScaDFX=  1.000000  1.000000  1.000000  1.000000
 FoFCou: FMM=F IPFlag=           0 FMFlag=      100000 FMFlg1=           0
         NFxFlg=           0 DoJE=T BraDBF=F KetDBF=T FulRan=T
         wScrn=  0.000000 ICntrl=       500 IOpCl=  0 I1Cent=   200000004 NGrid=           0
         NMat0=    1 NMatS0=      1 NMatT0=    0 NMatD0=    1 NMtDS0=    0 NMtDT0=    0
 Petite list used in FoFCou.
 Keep R1 ints in memory in canonical form, NReq=6083404.
 Requested convergence on RMS density matrix=1.00D-08 within 128 cycles.
 Requested convergence on MAX density matrix=1.00D-06.
 Requested convergence on             energy=1.00D-06.
 No special actions if energy rises.
 Inv3:  Mode=1 IEnd=     1806528.
 Iteration    1 A*A^-1 deviation from unit magnitude is 2.44D-15 for    776.
 Iteration    1 A*A^-1 deviation from orthogonality  is 1.42D-15 for    501    160.
 Iteration    1 A^-1*A deviation from unit magnitude is 2.44D-15 for    214.
 Iteration    1 A^-1*A deviation from orthogonality  is 1.57D-15 for    539    156.
 Error on total polarization charges =  0.01284
 SCF Done:  E(RB3LYP) =  -529.919755038     A.U. after   11 cycles
            NFock= 11  Conv=0.75D-08     -V/T= 2.0053

 **********************************************************************

            Population analysis using the SCF density.

 **********************************************************************

 Orbital symmetries:
       Occupied  (A) (A) (A) (A) (A) (A) (A) (A) (A) (A) (A) (A)
                 (A) (A) (A) (A) (A)
       Virtual   (A) (A) (A) (A) (A) (A) (A) (A) (A) (A) (A) (A)
                 (A) (A) (A) (A) (A) (A) (A) (A) (A) (A) (A) (A)
                 (A) (A) (A) (A) (A) (A) (A) (A) (A) (A) (A) (A)
                 (A) (A) (A) (A) (A) (A) (A) (A) (A) (A) (A) (A)
                 (A) (A) (A) (A) (A) (A) (A) (A) (A) (A) (A)
 The electronic state is 1-A.
 Alpha  occ. eigenvalues --  -89.03601 -19.14572 -14.36196  -8.07811  -6.04314
 Alpha  occ. eigenvalues --   -6.04133  -6.03522  -1.03970  -0.88688  -0.70263
 Alpha  occ. eigenvalues --   -0.53576  -0.51055  -0.46049  -0.40357  -0.31580
 Alpha  occ. eigenvalues --   -0.28644  -0.26181
 Alpha virt. eigenvalues --   -0.02212  -0.00933   0.00775   0.03950   0.05922
 Alpha virt. eigenvalues --    0.07751   0.08869   0.11196   0.12267   0.14489
 Alpha virt. eigenvalues --    0.16514   0.19691   0.20167   0.22878   0.24177
 Alpha virt. eigenvalues --    0.27163   0.29207   0.43125   0.46246   0.51862
 Alpha virt. eigenvalues --    0.59447   0.64191   0.64362   0.69956   0.82427
 Alpha virt. eigenvalues --    0.87134   0.92031   0.97193   0.98106   1.01851
 Alpha virt. eigenvalues --    1.06494   1.13239   1.21383   1.23495   1.24990
 Alpha virt. eigenvalues --    1.27659   1.44882   1.49840   1.66372   1.80815
 Alpha virt. eigenvalues --    1.82361   1.92950   1.99776   2.04164   2.06820
 Alpha virt. eigenvalues --    2.09711   2.17787   2.23383   2.47644   2.48843
 Alpha virt. eigenvalues --    2.64060   2.67267   2.77445   2.90709   3.34315
 Alpha virt. eigenvalues --    3.41228   3.96764   3.99038   4.07481
          Condensed to atoms (all electrons):
               1          2          3          4          5          6
     1  O    8.810740   0.119341  -0.107550  -0.090731   0.004923   0.006229
     2  S    0.119341  14.850723  -0.024371   0.253021  -0.000564   0.001848
     3  N   -0.107550  -0.024371   7.338411  -0.016889   0.316627   0.322815
     4  H   -0.090731   0.253021  -0.016889   0.783891  -0.005772   0.001284
     5  H    0.004923  -0.000564   0.316627  -0.005772   0.349020  -0.013017
     6  H    0.006229   0.001848   0.322815   0.001284  -0.013017   0.332828
 Mulliken charges:
               1
     1  O   -0.742952
     2  S    0.800002
     3  N   -0.829043
     4  H    0.075196
     5  H    0.348782
     6  H    0.348015
 Sum of Mulliken charges =   0.00000
 Mulliken charges with hydrogens summed into heavy atoms:
               1
     1  O   -0.742952
     2  S    0.875198
     3  N   -0.132246
 Electronic spatial extent (au):  <R**2>=            218.7313
 Charge=              0.0000 electrons
 Dipole moment (field-independent basis, Debye):
    X=              4.2591    Y=             -2.9215    Z=              1.1791  Tot=              5.2977
 Quadrupole moment (field-independent basis, Debye-Ang):
   XX=            -25.8365   YY=            -26.3489   ZZ=            -23.5695
   XY=              4.0931   XZ=             -0.5748   YZ=              0.2811
 Traceless Quadrupole moment (field-independent basis, Debye-Ang):
   XX=             -0.5849   YY=             -1.0973   ZZ=              1.6821
   XY=              4.0931   XZ=             -0.5748   YZ=              0.2811
 Octapole moment (field-independent basis, Debye-Ang**2):
  XXX=             17.1068  YYY=             -3.4847  ZZZ=              1.7606  XYY=              1.6330
  XXY=             -1.7184  XXZ=             -2.0327  XZZ=              2.9247  YZZ=             -0.1172
  YYZ=              3.3598  XYZ=              3.0617
 Hexadecapole moment (field-independent basis, Debye-Ang**3):
 XXXX=           -163.8820 YYYY=            -71.6380 ZZZZ=            -35.8191 XXXY=             11.1134
 XXXZ=             -7.0323 YYYX=              2.9480 YYYZ=             -0.0525 ZZZX=             -0.1731
 ZZZY=              0.4456 XXYY=            -42.1316 XXZZ=            -31.8372 YYZZ=            -17.4942
 XXYZ=              4.4218 YYXZ=              2.0077 ZZXY=              2.5676
 N-N= 1.165108866745D+02 E-N=-1.487382010981D+03  KE= 5.271335261611D+02
 1\1\GINC-NODE62\SP\RB3LYP\6-31+G(d,p)\H3N1O1S1\YANZ\22-Sep-2023\0\\# b
 3lyp/6-31+g(d,p) scrf=(iefpcm,solvent=acetonitrile)\\tmpdir/M2_ref_49.
 gjf\\0,1\O,0,2.710581,0.950442,2.551184\S,0,1.92875,-0.028863,1.706983
 \N,0,1.269902,0.871483,0.319741\H,0,2.86769582,-0.80093098,1.05697874\
 H,0,1.90173155,1.34222987,-0.30756253\H,0,0.32285297,0.76966432,0.0806
 9087\\Version=ES64L-G16RevA.03\State=1-A\HF=-529.919755\RMSD=7.508e-09
 \Dipole=-0.6751912,-1.036775,-1.6773143\Quadrupole=0.6650094,-0.261319
 ,-0.4036904,-1.6690343,-1.007301,-2.5610773\PG=C01 [X(H3N1O1S1)]\\@


 I LOVE THOSE WHO LONG FOR THE IMPOSSIBLE.

                                 -- GOETHE
 Job cpu time:       0 days  0 hours  0 minutes 23.0 seconds.
 Elapsed time:       0 days  0 hours  0 minutes 11.8 seconds.
 File lengths (MBytes):  RWF=     17 Int=      0 D2E=      0 Chk=      2 Scr=      1
 Normal termination of Gaussian 16 at Fri Sep 22 17:08:04 2023.
