 Entering Gaussian System, Link 0=g16
 Initial command:
 /share/apps/gaussian/g16/l1.exe "/tmp/55647.mgr/Gau-1251.inp" -scrdir="/tmp/55647.mgr/"
 Entering Link 1 = /share/apps/gaussian/g16/l1.exe PID=      1254.
  
 Copyright (c) 1988,1990,1992,1993,1995,1998,2003,2009,2016,
            Gaussian, Inc.  All Rights Reserved.
  
 This is part of the Gaussian(R) 16 program.  It is based on
 the Gaussian(R) 09 system (copyright 2009, Gaussian, Inc.),
 the Gaussian(R) 03 system (copyright 2003, Gaussian, Inc.),
 the Gaussian(R) 98 system (copyright 1998, Gaussian, Inc.),
 the Gaussian(R) 94 system (copyright 1995, Gaussian, Inc.),
 the Gaussian 92(TM) system (copyright 1992, Gaussian, Inc.),
 the Gaussian 90(TM) system (copyright 1990, Gaussian, Inc.),
 the Gaussian 88(TM) system (copyright 1988, Gaussian, Inc.),
 the Gaussian 86(TM) system (copyright 1986, Carnegie Mellon
 University), and the Gaussian 82(TM) system (copyright 1983,
 Carnegie Mellon University). Gaussian is a federally registered
 trademark of Gaussian, Inc.
  
 This software contains proprietary and confidential information,
 including trade secrets, belonging to Gaussian, Inc.
  
 This software is provided under written license and may be
 used, copied, transmitted, or stored only in accord with that
 written license.
  
 The following legend is applicable only to US Government
 contracts under FAR:
  
                    RESTRICTED RIGHTS LEGEND
  
 Use, reproduction and disclosure by the US Government is
 subject to restrictions as set forth in subparagraphs (a)
 and (c) of the Commercial Computer Software - Restricted
 Rights clause in FAR 52.227-19.
  
 Gaussian, Inc.
 340 Quinnipiac St., Bldg. 40, Wallingford CT 06492
  
  
 ---------------------------------------------------------------
 Warning -- This program may not be used in any manner that
 competes with the business of Gaussian, Inc. or will provide
 assistance to any competitor of Gaussian, Inc.  The licensee
 of this program is prohibited from giving any competitor of
 Gaussian, Inc. access to this program.  By using this program,
 the user acknowledges that Gaussian, Inc. is engaged in the
 business of creating and licensing software in the field of
 computational chemistry and represents and warrants to the
 licensee that it is not a competitor of Gaussian, Inc. and that
 it will not use this program in any manner prohibited above.
 ---------------------------------------------------------------
  

 Cite this work as:
 Gaussian 16, Revision A.03,
 M. J. Frisch, G. W. Trucks, H. B. Schlegel, G. E. Scuseria, 
 M. A. Robb, J. R. Cheeseman, G. Scalmani, V. Barone, 
 G. A. Petersson, H. Nakatsuji, X. Li, M. Caricato, A. V. Marenich, 
 J. Bloino, B. G. Janesko, R. Gomperts, B. Mennucci, H. P. Hratchian, 
 J. V. Ortiz, A. F. Izmaylov, J. L. Sonnenberg, D. Williams-Young, 
 F. Ding, F. Lipparini, F. Egidi, J. Goings, B. Peng, A. Petrone, 
 T. Henderson, D. Ranasinghe, V. G. Zakrzewski, J. Gao, N. Rega, 
 G. Zheng, W. Liang, M. Hada, M. Ehara, K. Toyota, R. Fukuda, 
 J. Hasegawa, M. Ishida, T. Nakajima, Y. Honda, O. Kitao, H. Nakai, 
 T. Vreven, K. Throssell, J. A. Montgomery, Jr., J. E. Peralta, 
 F. Ogliaro, M. J. Bearpark, J. J. Heyd, E. N. Brothers, K. N. Kudin, 
 V. N. Staroverov, T. A. Keith, R. Kobayashi, J. Normand, 
 K. Raghavachari, A. P. Rendell, J. C. Burant, S. S. Iyengar, 
 J. Tomasi, M. Cossi, J. M. Millam, M. Klene, C. Adamo, R. Cammi, 
 J. W. Ochterski, R. L. Martin, K. Morokuma, O. Farkas, 
 J. B. Foresman, and D. J. Fox, Gaussian, Inc., Wallingford CT, 2016.
 
 ******************************************
 Gaussian 16:  ES64L-G16RevA.03 25-Dec-2016
                22-Sep-2023 
 ******************************************
 %nprocshared=2
 Will use up to    2 processors via shared memory.
 %mem=2GB
 ------------------------------------------------------
 # b3lyp/6-31+g(d,p) scrf=(iefpcm,solvent=acetonitrile)
 ------------------------------------------------------
 1/38=1,172=1/1;
 2/12=2,17=6,18=5,40=1/2;
 3/5=1,6=6,7=111,11=2,25=1,30=1,70=2201,72=2,74=-5/1,2,3;
 4//1;
 5/5=2,38=5,53=2/2;
 6/7=2,8=2,9=2,10=2,28=1/1;
 99/5=1,9=1/99;
 --------------------
 tmpdir/M2_ref_80.gjf
 --------------------
 Symbolic Z-matrix:
 Charge =  0 Multiplicity = 1
 C                     3.94665   2.88967  -2.26059 
 H                     4.63497   3.41274  -2.91775 
 H                     3.65312   3.31632  -1.39147 
 O                     3.52025   1.77505  -2.57538 
 
                          Input orientation:                          
 ---------------------------------------------------------------------
 Center     Atomic      Atomic             Coordinates (Angstroms)
 Number     Number       Type             X           Y           Z
 ---------------------------------------------------------------------
      1          6           0        3.946649    2.889672   -2.260594
      2          1           0        4.634973    3.412738   -2.917751
      3          1           0        3.653118    3.316317   -1.391472
      4          8           0        3.520252    1.775055   -2.575377
 ---------------------------------------------------------------------
                    Distance matrix (angstroms):
                    1          2          3          4
     1  C    0.000000
     2  H    1.085930   0.000000
     3  H    1.011711   1.817378   0.000000
     4  O    1.234210   2.010430   1.948018   0.000000
 Stoichiometry    CH2O
 Framework group  C1[X(CH2O)]
 Deg. of freedom     6
 Full point group                 C1      NOp   1
 Largest Abelian subgroup         C1      NOp   1
 Largest concise Abelian subgroup C1      NOp   1
                         Standard orientation:                         
 ---------------------------------------------------------------------
 Center     Atomic      Atomic             Coordinates (Angstroms)
 Number     Number       Type             X           Y           Z
 ---------------------------------------------------------------------
      1          6           0        0.551454   -0.013142   -0.000291
      2          1           0        1.109514    0.918422    0.000591
      3          1           0        1.042456   -0.897718    0.000634
      4          8           0       -0.682587    0.007268    0.000065
 ---------------------------------------------------------------------
 Rotational constants (GHZ):         303.6033832          38.0363918          33.8016256
 Standard basis: 6-31+G(d,p) (6D, 7F)
 There are    48 symmetry adapted cartesian basis functions of A   symmetry.
 There are    48 symmetry adapted basis functions of A   symmetry.
    48 basis functions,    78 primitive gaussians,    48 cartesian basis functions
     8 alpha electrons        8 beta electrons
       nuclear repulsion energy        31.2125989975 Hartrees.
 NAtoms=    4 NActive=    4 NUniq=    4 SFac= 1.00D+00 NAtFMM=   60 NAOKFM=F Big=F
 Integral buffers will be    131072 words long.
 Raffenetti 2 integral format.
 Two-electron integral symmetry is turned on.
 ------------------------------------------------------------------------------
 Polarizable Continuum Model (PCM)
 =================================
 Model                : PCM.
 Atomic radii         : UFF (Universal Force Field).
 Polarization charges : Total charges.
 Charge compensation  : None.
 Solution method      : On-the-fly selection.
 Cavity type          : Scaled VdW (van der Waals Surface) (Alpha=1.100).
 Cavity algorithm     : GePol (No added spheres)
                        Default sphere list used, NSphG=    4.
                        Lebedev-Laikov grids with approx.  5.0 points / Ang**2.
                        Smoothing algorithm: York/Karplus (Gamma=1.0000).
                        Polarization charges: spherical gaussians, with
                                              point-specific exponents (IZeta= 3).
                        Self-potential: point-specific (ISelfS= 7).
                        Self-field    : sphere-specific E.n sum rule (ISelfD= 2).
 Solvent              : Acetonitrile, Eps=  35.688000 Eps(inf)=   1.806874
 ------------------------------------------------------------------------------
 Spheres list:
 ISph  on   Nord     Re0    Alpha      Xe            Ye            Ze
    1   C      1    1.9255  1.100      0.551454     -0.013142     -0.000291
    2   H      2    1.4430  1.100      1.109514      0.918422      0.000591
    3   H      3    1.4430  1.100      1.042456     -0.897718      0.000634
    4   O      4    1.7500  1.100     -0.682587      0.007268      0.000065
 ------------------------------------------------------------------------------
 One-electron integrals computed using PRISM.
 NBasis=    48 RedAO= T EigKep=  6.31D-03  NBF=    48
 NBsUse=    48 1.00D-06 EigRej= -1.00D+00 NBFU=    48
 ExpMin= 4.38D-02 ExpMax= 5.48D+03 ExpMxC= 8.25D+02 IAcc=3 IRadAn=         5 AccDes= 0.00D+00
 Harris functional with IExCor=  402 and IRadAn=       5 diagonalized for initial guess.
 HarFok:  IExCor=  402 AccDes= 0.00D+00 IRadAn=         5 IDoV= 1 UseB2=F ITyADJ=14
 ICtDFT=  3500011 ScaDFX=  1.000000  1.000000  1.000000  1.000000
 FoFCou: FMM=F IPFlag=           0 FMFlag=      100000 FMFlg1=           0
         NFxFlg=           0 DoJE=T BraDBF=F KetDBF=T FulRan=T
         wScrn=  0.000000 ICntrl=       500 IOpCl=  0 I1Cent=   200000004 NGrid=           0
         NMat0=    1 NMatS0=      1 NMatT0=    0 NMatD0=    1 NMtDS0=    0 NMtDT0=    0
 Petite list used in FoFCou.
 Keep R1 ints in memory in canonical form, NReq=2434982.
 Requested convergence on RMS density matrix=1.00D-08 within 128 cycles.
 Requested convergence on MAX density matrix=1.00D-06.
 Requested convergence on             energy=1.00D-06.
 No special actions if energy rises.
 Inv3:  Mode=1 IEnd=      817452.
 Iteration    1 A*A^-1 deviation from unit magnitude is 3.55D-15 for    522.
 Iteration    1 A*A^-1 deviation from orthogonality  is 1.04D-15 for    503      9.
 Iteration    1 A^-1*A deviation from unit magnitude is 3.55D-15 for    522.
 Iteration    1 A^-1*A deviation from orthogonality  is 1.04D-15 for    387     79.
 Error on total polarization charges =  0.00689
 SCF Done:  E(RB3LYP) =  -114.510781102     A.U. after    9 cycles
            NFock=  9  Conv=0.38D-08     -V/T= 2.0086

 **********************************************************************

            Population analysis using the SCF density.

 **********************************************************************

 Orbital symmetries:
       Occupied  (A) (A) (A) (A) (A) (A) (A) (A)
       Virtual   (A) (A) (A) (A) (A) (A) (A) (A) (A) (A) (A) (A)
                 (A) (A) (A) (A) (A) (A) (A) (A) (A) (A) (A) (A)
                 (A) (A) (A) (A) (A) (A) (A) (A) (A) (A) (A) (A)
                 (A) (A) (A) (A)
 The electronic state is 1-A.
 Alpha  occ. eigenvalues --  -19.18383 -10.28877  -1.06061  -0.65718  -0.51389
 Alpha  occ. eigenvalues --   -0.46009  -0.40344  -0.28332
 Alpha virt. eigenvalues --   -0.06566   0.02131   0.04260   0.05284   0.07328
 Alpha virt. eigenvalues --    0.16941   0.19450   0.20750   0.21404   0.25937
 Alpha virt. eigenvalues --    0.27406   0.35490   0.63228   0.65910   0.72424
 Alpha virt. eigenvalues --    0.90797   0.94624   1.02500   1.16894   1.17271
 Alpha virt. eigenvalues --    1.21200   1.35516   1.45474   1.49330   1.68798
 Alpha virt. eigenvalues --    1.79855   1.85751   2.00122   2.04657   2.17689
 Alpha virt. eigenvalues --    2.26463   2.57672   2.63141   2.80129   2.87014
 Alpha virt. eigenvalues --    2.94658   3.43155   3.62295   4.03615   4.39182
          Condensed to atoms (all electrons):
               1          2          3          4
     1  C    4.699786   0.393133   0.394923   0.386280
     2  H    0.393133   0.607962  -0.072227  -0.070382
     3  H    0.394923  -0.072227   0.598635  -0.068942
     4  O    0.386280  -0.070382  -0.068942   8.168046
 Mulliken charges:
               1
     1  C    0.125878
     2  H    0.141513
     3  H    0.147611
     4  O   -0.415003
 Sum of Mulliken charges =   0.00000
 Mulliken charges with hydrogens summed into heavy atoms:
               1
     1  C    0.415003
     4  O   -0.415003
 Electronic spatial extent (au):  <R**2>=             60.3652
 Charge=              0.0000 electrons
 Dipole moment (field-independent basis, Debye):
    X=              3.2714    Y=             -0.0965    Z=              0.0002  Tot=              3.2728
 Quadrupole moment (field-independent basis, Debye-Ang):
   XX=            -12.2813   YY=            -11.4776   ZZ=            -11.7048
   XY=             -0.0297   XZ=              0.0006   YZ=              0.0000
 Traceless Quadrupole moment (field-independent basis, Debye-Ang):
   XX=             -0.4601   YY=              0.3436   ZZ=              0.1164
   XY=             -0.0297   XZ=              0.0006   YZ=              0.0000
 Octapole moment (field-independent basis, Debye-Ang**2):
  XXX=              1.6101  YYY=             -0.2080  ZZZ=              0.0008  XYY=              1.3633
  XXY=             -0.0565  XXZ=              0.0016  XZZ=             -0.0766  YZZ=             -0.0902
  YYZ=              0.0016  XYZ=              0.0000
 Hexadecapole moment (field-independent basis, Debye-Ang**3):
 XXXX=            -46.3907 YYYY=            -17.3052 ZZZZ=            -10.7437 XXXY=             -0.1979
 XXXZ=              0.0017 YYYX=             -0.1528 YYYZ=             -0.0001 ZZZX=             -0.0001
 ZZZY=             -0.0000 XXYY=            -10.3391 XXZZ=             -9.5029 YYZZ=             -4.9731
 XXYZ=              0.0001 YYXZ=              0.0016 ZZXY=             -0.1052
 N-N= 3.121259899747D+01 E-N=-3.307732742006D+02  KE= 1.135335930304D+02
 1\1\GINC-NODE62\SP\RB3LYP\6-31+G(d,p)\C1H2O1\YANZ\22-Sep-2023\0\\# b3l
 yp/6-31+g(d,p) scrf=(iefpcm,solvent=acetonitrile)\\tmpdir/M2_ref_80.gj
 f\\0,1\C,0,3.946649,2.889672,-2.260594\H,0,4.634973,3.412738,-2.917751
 \H,0,3.65311829,3.31631738,-1.39147186\O,0,3.5202519,1.77505459,-2.575
 37676\\Version=ES64L-G16RevA.03\State=1-A\HF=-114.5107811\RMSD=3.786e-
 09\Dipole=0.4355513,1.1623687,0.3422628\Quadrupole=0.0713358,-0.263818
 5,0.1924827,-0.1462862,-0.108548,-0.0794791\PG=C01 [X(C1H2O1)]\\@


 THE ENLIGHTENED ONE, BECAUSE HE SAW MANKIND DROWNING  
 IN THE GREAT SEA OF BIRTH, DEATH, AND SORROW, LONGED TO SAVE 
 THEM, FOR THIS HE WAS MOVED TO PITY.                         
 BECAUSE HE SAW MEN OF THE WORLD STRAYING IN FALSE PATHS, AND 
 NONE TO GUIDE THEM, FOR THIS HE WAS MOVED TO PITY.           
                     ..................                       
 BECAUSE HE SAW THE MEN OF THE WORLD PLOUGHING THEIR FIELDS,  
 SOWING THE SEED, TRAFFICKING, HUCKSTERING, BUYING, SELLING,  
 AND AT THE END WINNOWING NOTHING BUT BITTERNESS,             
 FOR THIS HE WAS MOVED TO PITY......                   
                   BUDAH'S PITY - UPSAKA SILA SUTRA           
 Job cpu time:       0 days  0 hours  0 minutes  8.0 seconds.
 Elapsed time:       0 days  0 hours  0 minutes  4.1 seconds.
 File lengths (MBytes):  RWF=     11 Int=      0 D2E=      0 Chk=      1 Scr=      1
 Normal termination of Gaussian 16 at Fri Sep 22 17:08:21 2023.
