 Entering Gaussian System, Link 0=g16
 Initial command:
 /share/apps/gaussian/g16/l1.exe "/tmp/55647.mgr/Gau-1130.inp" -scrdir="/tmp/55647.mgr/"
 Entering Link 1 = /share/apps/gaussian/g16/l1.exe PID=      1131.
  
 Copyright (c) 1988,1990,1992,1993,1995,1998,2003,2009,2016,
            Gaussian, Inc.  All Rights Reserved.
  
 This is part of the Gaussian(R) 16 program.  It is based on
 the Gaussian(R) 09 system (copyright 2009, Gaussian, Inc.),
 the Gaussian(R) 03 system (copyright 2003, Gaussian, Inc.),
 the Gaussian(R) 98 system (copyright 1998, Gaussian, Inc.),
 the Gaussian(R) 94 system (copyright 1995, Gaussian, Inc.),
 the Gaussian 92(TM) system (copyright 1992, Gaussian, Inc.),
 the Gaussian 90(TM) system (copyright 1990, Gaussian, Inc.),
 the Gaussian 88(TM) system (copyright 1988, Gaussian, Inc.),
 the Gaussian 86(TM) system (copyright 1986, Carnegie Mellon
 University), and the Gaussian 82(TM) system (copyright 1983,
 Carnegie Mellon University). Gaussian is a federally registered
 trademark of Gaussian, Inc.
  
 This software contains proprietary and confidential information,
 including trade secrets, belonging to Gaussian, Inc.
  
 This software is provided under written license and may be
 used, copied, transmitted, or stored only in accord with that
 written license.
  
 The following legend is applicable only to US Government
 contracts under FAR:
  
                    RESTRICTED RIGHTS LEGEND
  
 Use, reproduction and disclosure by the US Government is
 subject to restrictions as set forth in subparagraphs (a)
 and (c) of the Commercial Computer Software - Restricted
 Rights clause in FAR 52.227-19.
  
 Gaussian, Inc.
 340 Quinnipiac St., Bldg. 40, Wallingford CT 06492
  
  
 ---------------------------------------------------------------
 Warning -- This program may not be used in any manner that
 competes with the business of Gaussian, Inc. or will provide
 assistance to any competitor of Gaussian, Inc.  The licensee
 of this program is prohibited from giving any competitor of
 Gaussian, Inc. access to this program.  By using this program,
 the user acknowledges that Gaussian, Inc. is engaged in the
 business of creating and licensing software in the field of
 computational chemistry and represents and warrants to the
 licensee that it is not a competitor of Gaussian, Inc. and that
 it will not use this program in any manner prohibited above.
 ---------------------------------------------------------------
  

 Cite this work as:
 Gaussian 16, Revision A.03,
 M. J. Frisch, G. W. Trucks, H. B. Schlegel, G. E. Scuseria, 
 M. A. Robb, J. R. Cheeseman, G. Scalmani, V. Barone, 
 G. A. Petersson, H. Nakatsuji, X. Li, M. Caricato, A. V. Marenich, 
 J. Bloino, B. G. Janesko, R. Gomperts, B. Mennucci, H. P. Hratchian, 
 J. V. Ortiz, A. F. Izmaylov, J. L. Sonnenberg, D. Williams-Young, 
 F. Ding, F. Lipparini, F. Egidi, J. Goings, B. Peng, A. Petrone, 
 T. Henderson, D. Ranasinghe, V. G. Zakrzewski, J. Gao, N. Rega, 
 G. Zheng, W. Liang, M. Hada, M. Ehara, K. Toyota, R. Fukuda, 
 J. Hasegawa, M. Ishida, T. Nakajima, Y. Honda, O. Kitao, H. Nakai, 
 T. Vreven, K. Throssell, J. A. Montgomery, Jr., J. E. Peralta, 
 F. Ogliaro, M. J. Bearpark, J. J. Heyd, E. N. Brothers, K. N. Kudin, 
 V. N. Staroverov, T. A. Keith, R. Kobayashi, J. Normand, 
 K. Raghavachari, A. P. Rendell, J. C. Burant, S. S. Iyengar, 
 J. Tomasi, M. Cossi, J. M. Millam, M. Klene, C. Adamo, R. Cammi, 
 J. W. Ochterski, R. L. Martin, K. Morokuma, O. Farkas, 
 J. B. Foresman, and D. J. Fox, Gaussian, Inc., Wallingford CT, 2016.
 
 ******************************************
 Gaussian 16:  ES64L-G16RevA.03 25-Dec-2016
                22-Sep-2023 
 ******************************************
 %nprocshared=2
 Will use up to    2 processors via shared memory.
 %mem=2GB
 ------------------------------------------------------
 # b3lyp/6-31+g(d,p) scrf=(iefpcm,solvent=acetonitrile)
 ------------------------------------------------------
 1/38=1,172=1/1;
 2/12=2,17=6,18=5,40=1/2;
 3/5=1,6=6,7=111,11=2,25=1,30=1,70=2201,72=2,74=-5/1,2,3;
 4//1;
 5/5=2,38=5,53=2/2;
 6/7=2,8=2,9=2,10=2,28=1/1;
 99/5=1,9=1/99;
 --------------------
 tmpdir/M2_ref_79.gjf
 --------------------
 Symbolic Z-matrix:
 Charge =  0 Multiplicity = 1
 C                     3.94665   2.88967  -2.26059 
 C                     3.463     1.62538  -2.61765 
 H                     3.77392   1.1665   -3.55134 
 H                     3.65312   3.31632  -1.39147 
 H                     4.63497   3.41274  -2.91775 
 H                     2.82442   1.13404  -2.00799 
 
                          Input orientation:                          
 ---------------------------------------------------------------------
 Center     Atomic      Atomic             Coordinates (Angstroms)
 Number     Number       Type             X           Y           Z
 ---------------------------------------------------------------------
      1          6           0        3.946649    2.889672   -2.260594
      2          6           0        3.462995    1.625383   -2.617646
      3          1           0        3.773922    1.166503   -3.551336
      4          1           0        3.653118    3.316317   -1.391472
      5          1           0        4.634973    3.412738   -2.917751
      6          1           0        2.824420    1.134037   -2.007992
 ---------------------------------------------------------------------
                    Distance matrix (angstroms):
                    1          2          3          4          5
     1  C    0.000000
     2  C    1.399941   0.000000
     3  H    2.159898   1.085828   0.000000
     4  H    1.011711   2.097358   3.049805   0.000000
     5  H    1.085930   2.158294   2.487652   1.817378   0.000000
     6  H    2.098919   1.010384   1.812324   2.414371   3.049302
                    6
     6  H    0.000000
 Stoichiometry    C2H4
 Framework group  C1[X(C2H4)]
 Deg. of freedom    12
 Full point group                 C1      NOp   1
 Largest Abelian subgroup         C1      NOp   1
 Largest concise Abelian subgroup C1      NOp   1
                         Standard orientation:                         
 ---------------------------------------------------------------------
 Center     Atomic      Atomic             Coordinates (Angstroms)
 Number     Number       Type             X           Y           Z
 ---------------------------------------------------------------------
      1          6           0        0.700338   -0.008023   -0.000281
      2          6           0       -0.699603   -0.008291    0.000234
      3          1           0       -1.244914    0.930676    0.001021
      4          1           0        1.206069   -0.884260    0.001946
      5          1           0        1.242736    0.932746   -0.000883
      6          1           0       -1.208297   -0.881276   -0.001807
 ---------------------------------------------------------------------
 Rotational constants (GHZ):         152.1406500          28.3684569          23.9101492
 Standard basis: 6-31+G(d,p) (6D, 7F)
 There are    58 symmetry adapted cartesian basis functions of A   symmetry.
 There are    58 symmetry adapted basis functions of A   symmetry.
    58 basis functions,    92 primitive gaussians,    58 cartesian basis functions
     8 alpha electrons        8 beta electrons
       nuclear repulsion energy        33.0664181671 Hartrees.
 NAtoms=    6 NActive=    6 NUniq=    6 SFac= 1.00D+00 NAtFMM=   60 NAOKFM=F Big=F
 Integral buffers will be    131072 words long.
 Raffenetti 2 integral format.
 Two-electron integral symmetry is turned on.
 ------------------------------------------------------------------------------
 Polarizable Continuum Model (PCM)
 =================================
 Model                : PCM.
 Atomic radii         : UFF (Universal Force Field).
 Polarization charges : Total charges.
 Charge compensation  : None.
 Solution method      : On-the-fly selection.
 Cavity type          : Scaled VdW (van der Waals Surface) (Alpha=1.100).
 Cavity algorithm     : GePol (No added spheres)
                        Default sphere list used, NSphG=    6.
                        Lebedev-Laikov grids with approx.  5.0 points / Ang**2.
                        Smoothing algorithm: York/Karplus (Gamma=1.0000).
                        Polarization charges: spherical gaussians, with
                                              point-specific exponents (IZeta= 3).
                        Self-potential: point-specific (ISelfS= 7).
                        Self-field    : sphere-specific E.n sum rule (ISelfD= 2).
 Solvent              : Acetonitrile, Eps=  35.688000 Eps(inf)=   1.806874
 ------------------------------------------------------------------------------
 Spheres list:
 ISph  on   Nord     Re0    Alpha      Xe            Ye            Ze
    1   C      1    1.9255  1.100      0.700338     -0.008023     -0.000281
    2   C      2    1.9255  1.100     -0.699603     -0.008291      0.000234
    3   H      3    1.4430  1.100     -1.244914      0.930676      0.001021
    4   H      4    1.4430  1.100      1.206069     -0.884260      0.001946
    5   H      5    1.4430  1.100      1.242736      0.932746     -0.000883
    6   H      6    1.4430  1.100     -1.208297     -0.881276     -0.001807
 ------------------------------------------------------------------------------
 One-electron integrals computed using PRISM.
 NBasis=    58 RedAO= T EigKep=  2.86D-04  NBF=    58
 NBsUse=    58 1.00D-06 EigRej= -1.00D+00 NBFU=    58
 ExpMin= 4.38D-02 ExpMax= 3.05D+03 ExpMxC= 4.57D+02 IAcc=3 IRadAn=         5 AccDes= 0.00D+00
 Harris functional with IExCor=  402 and IRadAn=       5 diagonalized for initial guess.
 HarFok:  IExCor=  402 AccDes= 0.00D+00 IRadAn=         5 IDoV= 1 UseB2=F ITyADJ=14
 ICtDFT=  3500011 ScaDFX=  1.000000  1.000000  1.000000  1.000000
 FoFCou: FMM=F IPFlag=           0 FMFlag=      100000 FMFlg1=           0
         NFxFlg=           0 DoJE=T BraDBF=F KetDBF=T FulRan=T
         wScrn=  0.000000 ICntrl=       500 IOpCl=  0 I1Cent=   200000004 NGrid=           0
         NMat0=    1 NMatS0=      1 NMatT0=    0 NMatD0=    1 NMtDS0=    0 NMtDT0=    0
 Petite list used in FoFCou.
 Keep R1 ints in memory in canonical form, NReq=3224596.
 Requested convergence on RMS density matrix=1.00D-08 within 128 cycles.
 Requested convergence on MAX density matrix=1.00D-06.
 Requested convergence on             energy=1.00D-06.
 No special actions if energy rises.
 Inv3:  Mode=1 IEnd=     1156923.
 Iteration    1 A*A^-1 deviation from unit magnitude is 2.22D-15 for     15.
 Iteration    1 A*A^-1 deviation from orthogonality  is 2.04D-15 for    317     76.
 Iteration    1 A^-1*A deviation from unit magnitude is 2.00D-15 for     15.
 Iteration    1 A^-1*A deviation from orthogonality  is 1.03D-15 for    432    108.
 Error on total polarization charges =  0.01285
 SCF Done:  E(RB3LYP) =  -78.5883916301     A.U. after    9 cycles
            NFock=  9  Conv=0.31D-08     -V/T= 2.0099

 **********************************************************************

            Population analysis using the SCF density.

 **********************************************************************

 Orbital symmetries:
       Occupied  (A) (A) (A) (A) (A) (A) (A) (A)
       Virtual   (A) (A) (A) (A) (A) (A) (A) (A) (A) (A) (A) (A)
                 (A) (A) (A) (A) (A) (A) (A) (A) (A) (A) (A) (A)
                 (A) (A) (A) (A) (A) (A) (A) (A) (A) (A) (A) (A)
                 (A) (A) (A) (A) (A) (A) (A) (A) (A) (A) (A) (A)
                 (A) (A)
 The electronic state is 1-A.
 Alpha  occ. eigenvalues --  -10.19615 -10.19556  -0.75806  -0.59960  -0.48022
 Alpha  occ. eigenvalues --   -0.41371  -0.37848  -0.27068
 Alpha virt. eigenvalues --   -0.02267   0.02536   0.03702   0.05221   0.06703
 Alpha virt. eigenvalues --    0.08823   0.09083   0.12398   0.16007   0.18242
 Alpha virt. eigenvalues --    0.22004   0.25627   0.32444   0.35439   0.58421
 Alpha virt. eigenvalues --    0.63185   0.67767   0.71545   0.71838   0.81196
 Alpha virt. eigenvalues --    0.91855   0.92745   0.98248   1.02454   1.12925
 Alpha virt. eigenvalues --    1.19884   1.36950   1.38175   1.50076   1.87302
 Alpha virt. eigenvalues --    1.91616   1.97381   2.00775   2.09688   2.11485
 Alpha virt. eigenvalues --    2.25354   2.37084   2.50758   2.51926   2.56555
 Alpha virt. eigenvalues --    2.73046   2.77494   2.78929   3.02073   3.25997
 Alpha virt. eigenvalues --    3.47753   3.58512   3.79597   4.20109   4.49897
          Condensed to atoms (all electrons):
               1          2          3          4          5          6
     1  C    4.907022   0.661254  -0.029898   0.401991   0.391861  -0.033616
     2  C    0.661254   4.908361   0.391589  -0.034024  -0.030299   0.401811
     3  H   -0.029898   0.391589   0.527224   0.004279  -0.007135  -0.035758
     4  H    0.401991  -0.034024   0.004279   0.522090  -0.035409  -0.007791
     5  H    0.391861  -0.030299  -0.007135  -0.035409   0.526744   0.004280
     6  H   -0.033616   0.401811  -0.035758  -0.007791   0.004280   0.522292
 Mulliken charges:
               1
     1  C   -0.298613
     2  C   -0.298692
     3  H    0.149700
     4  H    0.148865
     5  H    0.149959
     6  H    0.148782
 Sum of Mulliken charges =  -0.00000
 Mulliken charges with hydrogens summed into heavy atoms:
               1
     1  C    0.000211
     2  C   -0.000211
 Electronic spatial extent (au):  <R**2>=             84.4621
 Charge=             -0.0000 electrons
 Dipole moment (field-independent basis, Debye):
    X=             -0.0025    Y=             -0.0406    Z=              0.0004  Tot=              0.0407
 Quadrupole moment (field-independent basis, Debye-Ang):
   XX=            -12.2529   YY=            -12.2284   ZZ=            -16.1921
   XY=              0.0021   XZ=              0.0027   YZ=             -0.0000
 Traceless Quadrupole moment (field-independent basis, Debye-Ang):
   XX=              1.3049   YY=              1.3294   ZZ=             -2.6343
   XY=              0.0021   XZ=              0.0027   YZ=             -0.0000
 Octapole moment (field-independent basis, Debye-Ang**2):
  XXX=             -0.0326  YYY=             -0.1707  ZZZ=              0.0008  XYY=              0.0109
  XXY=             -0.0320  XXZ=              0.0008  XZZ=             -0.0040  YZZ=             -0.1404
  YYZ=              0.0005  XYZ=             -0.0090
 Hexadecapole moment (field-independent basis, Debye-Ang**3):
 XXXX=            -72.0448 YYYY=            -26.8373 ZZZZ=            -23.7279 XXXY=              0.0091
 XXXZ=              0.0074 YYYX=              0.0053 YYYZ=             -0.0001 ZZZX=              0.0043
 ZZZY=             -0.0000 XXYY=            -13.9342 XXZZ=            -17.0560 YYZZ=             -9.0597
 XXYZ=              0.0000 YYXZ=              0.0034 ZZXY=              0.0020
 N-N= 3.306641816710D+01 E-N=-2.473909446112D+02  KE= 7.781673624753D+01
 1\1\GINC-NODE62\SP\RB3LYP\6-31+G(d,p)\C2H4\YANZ\22-Sep-2023\0\\# b3lyp
 /6-31+g(d,p) scrf=(iefpcm,solvent=acetonitrile)\\tmpdir/M2_ref_79.gjf\
 \0,1\C,0,3.946649,2.889672,-2.260594\C,0,3.462995,1.625383,-2.617646\H
 ,0,3.773922,1.166503,-3.551336\H,0,3.65311829,3.31631738,-1.39147186\H
 ,0,4.634973,3.412738,-2.917751\H,0,2.82442041,1.13403669,-2.00799211\\
 Version=ES64L-G16RevA.03\State=1-A\HF=-78.5883916\RMSD=3.111e-09\Dipol
 e=-0.0089447,-0.0013849,0.0131944\Quadrupole=-0.7755511,0.4362374,0.33
 93137,0.9682835,-1.0698568,0.5843479\PG=C01 [X(C2H4)]\\@


 Not by the face shall a man be known, but by the mask.
                               -- Karen Blixen
 Job cpu time:       0 days  0 hours  0 minutes 12.4 seconds.
 Elapsed time:       0 days  0 hours  0 minutes  6.4 seconds.
 File lengths (MBytes):  RWF=     13 Int=      0 D2E=      0 Chk=      2 Scr=      1
 Normal termination of Gaussian 16 at Fri Sep 22 17:08:17 2023.
