 Entering Gaussian System, Link 0=g16
 Initial command:
 /share/apps/gaussian/g16/l1.exe "/tmp/55647.mgr/Gau-196298.inp" -scrdir="/tmp/55647.mgr/"
 Entering Link 1 = /share/apps/gaussian/g16/l1.exe PID=    196309.
  
 Copyright (c) 1988,1990,1992,1993,1995,1998,2003,2009,2016,
            Gaussian, Inc.  All Rights Reserved.
  
 This is part of the Gaussian(R) 16 program.  It is based on
 the Gaussian(R) 09 system (copyright 2009, Gaussian, Inc.),
 the Gaussian(R) 03 system (copyright 2003, Gaussian, Inc.),
 the Gaussian(R) 98 system (copyright 1998, Gaussian, Inc.),
 the Gaussian(R) 94 system (copyright 1995, Gaussian, Inc.),
 the Gaussian 92(TM) system (copyright 1992, Gaussian, Inc.),
 the Gaussian 90(TM) system (copyright 1990, Gaussian, Inc.),
 the Gaussian 88(TM) system (copyright 1988, Gaussian, Inc.),
 the Gaussian 86(TM) system (copyright 1986, Carnegie Mellon
 University), and the Gaussian 82(TM) system (copyright 1983,
 Carnegie Mellon University). Gaussian is a federally registered
 trademark of Gaussian, Inc.
  
 This software contains proprietary and confidential information,
 including trade secrets, belonging to Gaussian, Inc.
  
 This software is provided under written license and may be
 used, copied, transmitted, or stored only in accord with that
 written license.
  
 The following legend is applicable only to US Government
 contracts under FAR:
  
                    RESTRICTED RIGHTS LEGEND
  
 Use, reproduction and disclosure by the US Government is
 subject to restrictions as set forth in subparagraphs (a)
 and (c) of the Commercial Computer Software - Restricted
 Rights clause in FAR 52.227-19.
  
 Gaussian, Inc.
 340 Quinnipiac St., Bldg. 40, Wallingford CT 06492
  
  
 ---------------------------------------------------------------
 Warning -- This program may not be used in any manner that
 competes with the business of Gaussian, Inc. or will provide
 assistance to any competitor of Gaussian, Inc.  The licensee
 of this program is prohibited from giving any competitor of
 Gaussian, Inc. access to this program.  By using this program,
 the user acknowledges that Gaussian, Inc. is engaged in the
 business of creating and licensing software in the field of
 computational chemistry and represents and warrants to the
 licensee that it is not a competitor of Gaussian, Inc. and that
 it will not use this program in any manner prohibited above.
 ---------------------------------------------------------------
  

 Cite this work as:
 Gaussian 16, Revision A.03,
 M. J. Frisch, G. W. Trucks, H. B. Schlegel, G. E. Scuseria, 
 M. A. Robb, J. R. Cheeseman, G. Scalmani, V. Barone, 
 G. A. Petersson, H. Nakatsuji, X. Li, M. Caricato, A. V. Marenich, 
 J. Bloino, B. G. Janesko, R. Gomperts, B. Mennucci, H. P. Hratchian, 
 J. V. Ortiz, A. F. Izmaylov, J. L. Sonnenberg, D. Williams-Young, 
 F. Ding, F. Lipparini, F. Egidi, J. Goings, B. Peng, A. Petrone, 
 T. Henderson, D. Ranasinghe, V. G. Zakrzewski, J. Gao, N. Rega, 
 G. Zheng, W. Liang, M. Hada, M. Ehara, K. Toyota, R. Fukuda, 
 J. Hasegawa, M. Ishida, T. Nakajima, Y. Honda, O. Kitao, H. Nakai, 
 T. Vreven, K. Throssell, J. A. Montgomery, Jr., J. E. Peralta, 
 F. Ogliaro, M. J. Bearpark, J. J. Heyd, E. N. Brothers, K. N. Kudin, 
 V. N. Staroverov, T. A. Keith, R. Kobayashi, J. Normand, 
 K. Raghavachari, A. P. Rendell, J. C. Burant, S. S. Iyengar, 
 J. Tomasi, M. Cossi, J. M. Millam, M. Klene, C. Adamo, R. Cammi, 
 J. W. Ochterski, R. L. Martin, K. Morokuma, O. Farkas, 
 J. B. Foresman, and D. J. Fox, Gaussian, Inc., Wallingford CT, 2016.
 
 ******************************************
 Gaussian 16:  ES64L-G16RevA.03 25-Dec-2016
                22-Sep-2023 
 ******************************************
 %nprocshared=2
 Will use up to    2 processors via shared memory.
 %mem=2GB
 ------------------------------------------------------
 # b3lyp/6-31+g(d,p) scrf=(iefpcm,solvent=acetonitrile)
 ------------------------------------------------------
 1/38=1,172=1/1;
 2/12=2,17=6,18=5,40=1/2;
 3/5=1,6=6,7=111,11=2,25=1,30=1,70=2201,72=2,74=-5/1,2,3;
 4//1;
 5/5=2,38=5,53=2/2;
 6/7=2,8=2,9=2,10=2,28=1/1;
 99/5=1,9=1/99;
 -------------------
 tmpdir/M2_ref_9.gjf
 -------------------
 Symbolic Z-matrix:
 Charge =  0 Multiplicity = 1
 C                     4.51482  -0.71564   0.93181 
 C                     3.16165  -1.04264   0.85348 
 C                     2.73512  -2.20513   0.20378 
 H                     5.19225  -1.323     0.49167 
 H                     4.82478   0.17845   1.46245 
 H                     2.391    -0.40895   1.38698 
 O                     3.571    -2.93361  -0.32719 
 H                     1.681    -2.46535   0.16134 
 
                          Input orientation:                          
 ---------------------------------------------------------------------
 Center     Atomic      Atomic             Coordinates (Angstroms)
 Number     Number       Type             X           Y           Z
 ---------------------------------------------------------------------
      1          6           0        4.514820   -0.715643    0.931809
      2          6           0        3.161650   -1.042641    0.853483
      3          6           0        2.735119   -2.205131    0.203778
      4          1           0        5.192250   -1.323004    0.491675
      5          1           0        4.824778    0.178450    1.462445
      6          1           0        2.390995   -0.408954    1.386985
      7          8           0        3.571002   -2.933610   -0.327193
      8          1           0        1.681001   -2.465345    0.161342
 ---------------------------------------------------------------------
                    Distance matrix (angstroms):
                    1          2          3          4          5
     1  C    0.000000
     2  C    1.394321   0.000000
     3  C    2.432270   1.398366   0.000000
     4  H    1.010701   2.081549   2.626504   0.000000
     5  H    1.084920   2.151254   3.410627   1.825321   0.000000
     6  H    2.193599   1.131412   2.178222   3.079626   2.504803
     7  O    2.719422   2.266568   1.229355   2.427558   3.802588
     8  H    3.418422   2.166903   1.086590   3.707146   4.308811
                    6          7          8
     6  H    0.000000
     7  O    3.271806   0.000000
     8  H    2.497005   2.007497   0.000000
 Stoichiometry    C3H4O
 Framework group  C1[X(C3H4O)]
 Deg. of freedom    18
 Full point group                 C1      NOp   1
 Largest Abelian subgroup         C1      NOp   1
 Largest concise Abelian subgroup C1      NOp   1
                         Standard orientation:                         
 ---------------------------------------------------------------------
 Center     Atomic      Atomic             Coordinates (Angstroms)
 Number     Number       Type             X           Y           Z
 ---------------------------------------------------------------------
      1          6           0        1.428788   -0.470147    0.000889
      2          6           0        0.580881    0.636622   -0.014866
      3          6           0       -0.808939    0.483016    0.000442
      4          1           0        1.025361   -1.396841    0.002766
      5          1           0        2.504121   -0.326820    0.013797
      6          1           0        1.008822    1.682508    0.040648
      7          8           0       -1.284643   -0.650569    0.002149
      8          1           0       -1.465546    1.348755    0.006804
 ---------------------------------------------------------------------
 Rotational constants (GHZ):          21.3235884           6.8924075           5.2092413
 Standard basis: 6-31+G(d,p) (6D, 7F)
 There are    96 symmetry adapted cartesian basis functions of A   symmetry.
 There are    96 symmetry adapted basis functions of A   symmetry.
    96 basis functions,   156 primitive gaussians,    96 cartesian basis functions
    15 alpha electrons       15 beta electrons
       nuclear repulsion energy       105.9740306372 Hartrees.
 NAtoms=    8 NActive=    8 NUniq=    8 SFac= 1.00D+00 NAtFMM=   60 NAOKFM=F Big=F
 Integral buffers will be    131072 words long.
 Raffenetti 2 integral format.
 Two-electron integral symmetry is turned on.
 ------------------------------------------------------------------------------
 Polarizable Continuum Model (PCM)
 =================================
 Model                : PCM.
 Atomic radii         : UFF (Universal Force Field).
 Polarization charges : Total charges.
 Charge compensation  : None.
 Solution method      : On-the-fly selection.
 Cavity type          : Scaled VdW (van der Waals Surface) (Alpha=1.100).
 Cavity algorithm     : GePol (No added spheres)
                        Default sphere list used, NSphG=    8.
                        Lebedev-Laikov grids with approx.  5.0 points / Ang**2.
                        Smoothing algorithm: York/Karplus (Gamma=1.0000).
                        Polarization charges: spherical gaussians, with
                                              point-specific exponents (IZeta= 3).
                        Self-potential: point-specific (ISelfS= 7).
                        Self-field    : sphere-specific E.n sum rule (ISelfD= 2).
 Solvent              : Acetonitrile, Eps=  35.688000 Eps(inf)=   1.806874
 ------------------------------------------------------------------------------
 Spheres list:
 ISph  on   Nord     Re0    Alpha      Xe            Ye            Ze
    1   C      1    1.9255  1.100      1.428788     -0.470147      0.000889
    2   C      2    1.9255  1.100      0.580881      0.636622     -0.014866
    3   C      3    1.9255  1.100     -0.808939      0.483016      0.000442
    4   H      4    1.4430  1.100      1.025361     -1.396841      0.002766
    5   H      5    1.4430  1.100      2.504121     -0.326820      0.013797
    6   H      6    1.4430  1.100      1.008822      1.682508      0.040648
    7   O      7    1.7500  1.100     -1.284643     -0.650569      0.002149
    8   H      8    1.4430  1.100     -1.465546      1.348755      0.006804
 ------------------------------------------------------------------------------
 One-electron integrals computed using PRISM.
 NBasis=    96 RedAO= T EigKep=  1.28D-04  NBF=    96
 NBsUse=    96 1.00D-06 EigRej= -1.00D+00 NBFU=    96
 ExpMin= 4.38D-02 ExpMax= 5.48D+03 ExpMxC= 8.25D+02 IAcc=3 IRadAn=         5 AccDes= 0.00D+00
 Harris functional with IExCor=  402 and IRadAn=       5 diagonalized for initial guess.
 HarFok:  IExCor=  402 AccDes= 0.00D+00 IRadAn=         5 IDoV= 1 UseB2=F ITyADJ=14
 ICtDFT=  3500011 ScaDFX=  1.000000  1.000000  1.000000  1.000000
 FoFCou: FMM=F IPFlag=           0 FMFlag=      100000 FMFlg1=           0
         NFxFlg=           0 DoJE=T BraDBF=F KetDBF=T FulRan=T
         wScrn=  0.000000 ICntrl=       500 IOpCl=  0 I1Cent=   200000004 NGrid=           0
         NMat0=    1 NMatS0=      1 NMatT0=    0 NMatD0=    1 NMtDS0=    0 NMtDT0=    0
 Petite list used in FoFCou.
 Keep R1 ints in memory in canonical form, NReq=12684406.
 Requested convergence on RMS density matrix=1.00D-08 within 128 cycles.
 Requested convergence on MAX density matrix=1.00D-06.
 Requested convergence on             energy=1.00D-06.
 No special actions if energy rises.
 Inv3:  Mode=1 IEnd=     2051787.
 Iteration    1 A*A^-1 deviation from unit magnitude is 3.33D-15 for    823.
 Iteration    1 A*A^-1 deviation from orthogonality  is 1.67D-15 for    822    777.
 Iteration    1 A^-1*A deviation from unit magnitude is 3.55D-15 for    823.
 Iteration    1 A^-1*A deviation from orthogonality  is 1.78D-15 for    536    353.
 Error on total polarization charges =  0.01124
 SCF Done:  E(RB3LYP) =  -191.918093747     A.U. after   12 cycles
            NFock= 12  Conv=0.15D-08     -V/T= 2.0090

 **********************************************************************

            Population analysis using the SCF density.

 **********************************************************************

 Orbital symmetries:
       Occupied  (A) (A) (A) (A) (A) (A) (A) (A) (A) (A) (A) (A)
                 (A) (A) (A)
       Virtual   (A) (A) (A) (A) (A) (A) (A) (A) (A) (A) (A) (A)
                 (A) (A) (A) (A) (A) (A) (A) (A) (A) (A) (A) (A)
                 (A) (A) (A) (A) (A) (A) (A) (A) (A) (A) (A) (A)
                 (A) (A) (A) (A) (A) (A) (A) (A) (A) (A) (A) (A)
                 (A) (A) (A) (A) (A) (A) (A) (A) (A) (A) (A) (A)
                 (A) (A) (A) (A) (A) (A) (A) (A) (A) (A) (A) (A)
                 (A) (A) (A) (A) (A) (A) (A) (A) (A)
 The electronic state is 1-A.
 Alpha  occ. eigenvalues --  -19.15868 -10.28115 -10.22349 -10.21547  -1.05352
 Alpha  occ. eigenvalues --   -0.79798  -0.67952  -0.55517  -0.52067  -0.46158
 Alpha  occ. eigenvalues --   -0.42839  -0.41238  -0.39231  -0.28600  -0.27413
 Alpha virt. eigenvalues --   -0.09680   0.01367   0.03083   0.03901   0.04193
 Alpha virt. eigenvalues --    0.06241   0.06539   0.07514   0.09597   0.09805
 Alpha virt. eigenvalues --    0.12185   0.12394   0.14288   0.16389   0.19330
 Alpha virt. eigenvalues --    0.22023   0.23419   0.24328   0.26027   0.26893
 Alpha virt. eigenvalues --    0.28947   0.31725   0.32449   0.41172   0.46003
 Alpha virt. eigenvalues --    0.63543   0.64885   0.67589   0.68443   0.71373
 Alpha virt. eigenvalues --    0.71975   0.76669   0.86207   0.89989   0.91513
 Alpha virt. eigenvalues --    0.94266   1.03697   1.07337   1.09659   1.16610
 Alpha virt. eigenvalues --    1.20267   1.24509   1.26033   1.29352   1.31072
 Alpha virt. eigenvalues --    1.35786   1.43987   1.48480   1.57330   1.75858
 Alpha virt. eigenvalues --    1.78482   1.81799   1.87442   1.92141   2.01493
 Alpha virt. eigenvalues --    2.02869   2.06196   2.08100   2.18237   2.19558
 Alpha virt. eigenvalues --    2.34160   2.34773   2.45009   2.47319   2.49373
 Alpha virt. eigenvalues --    2.50756   2.66085   2.67786   2.76143   2.80099
 Alpha virt. eigenvalues --    2.91004   3.07121   3.13469   3.21731   3.39814
 Alpha virt. eigenvalues --    3.57729   3.74359   4.12145   4.27965   4.36161
 Alpha virt. eigenvalues --    4.59365
          Condensed to atoms (all electrons):
               1          2          3          4          5          6
     1  C    4.902806   0.526712   0.039198   0.424891   0.361741   0.005166
     2  C    0.526712   5.494182   0.090902  -0.061452  -0.021149   0.278358
     3  C    0.039198   0.090902   4.850392  -0.004892   0.016847   0.019865
     4  H    0.424891  -0.061452  -0.004892   0.491991  -0.031959   0.003860
     5  H    0.361741  -0.021149   0.016847  -0.031959   0.505300  -0.004676
     6  H    0.005166   0.278358   0.019865   0.003860  -0.004676   0.532566
     7  O    0.008661  -0.215376   0.461697   0.001905   0.001190   0.006585
     8  H    0.014596  -0.159970   0.458549   0.000050  -0.000076   0.000734
               7          8
     1  C    0.008661   0.014596
     2  C   -0.215376  -0.159970
     3  C    0.461697   0.458549
     4  H    0.001905   0.000050
     5  H    0.001190  -0.000076
     6  H    0.006585   0.000734
     7  O    8.302448  -0.069402
     8  H   -0.069402   0.615201
 Mulliken charges:
               1
     1  C   -0.283772
     2  C    0.067793
     3  C    0.067441
     4  H    0.175605
     5  H    0.172781
     6  H    0.157542
     7  O   -0.497708
     8  H    0.140317
 Sum of Mulliken charges =  -0.00000
 Mulliken charges with hydrogens summed into heavy atoms:
               1
     1  C    0.064615
     2  C    0.225335
     3  C    0.207758
     7  O   -0.497708
 Electronic spatial extent (au):  <R**2>=            257.3827
 Charge=             -0.0000 electrons
 Dipole moment (field-independent basis, Debye):
    X=              2.8227    Y=              2.3698    Z=              0.0641  Tot=              3.6862
 Quadrupole moment (field-independent basis, Debye-Ang):
   XX=            -23.9658   YY=            -22.5263   ZZ=            -25.2205
   XY=             -4.0993   XZ=              0.1084   YZ=              0.0805
 Traceless Quadrupole moment (field-independent basis, Debye-Ang):
   XX=             -0.0616   YY=              1.3779   ZZ=             -1.3163
   XY=             -4.0993   XZ=              0.1084   YZ=              0.0805
 Octapole moment (field-independent basis, Debye-Ang**2):
  XXX=              9.7386  YYY=              1.0157  ZZZ=              0.1366  XYY=              1.2015
  XXY=              3.9537  XXZ=              0.1575  XZZ=             -3.0895  YZZ=             -0.8959
  YYZ=              0.2062  XYZ=              0.0667
 Hexadecapole moment (field-independent basis, Debye-Ang**3):
 XXXX=           -210.3757 YYYY=            -88.6540 ZZZZ=            -28.4338 XXXY=             -9.1510
 XXXZ=              0.4344 YYYX=             -0.8306 YYYZ=              0.3119 ZZZX=              0.1586
 ZZZY=              0.0731 XXYY=            -51.6249 XXZZ=            -43.9979 YYZZ=            -21.2808
 XXYZ=              0.1253 YYXZ=              0.2180 ZZXY=             -0.2534
 N-N= 1.059740306372D+02 E-N=-6.592816240449D+02  KE= 1.902038046191D+02
 1\1\GINC-NODE62\SP\RB3LYP\6-31+G(d,p)\C3H4O1\YANZ\22-Sep-2023\0\\# b3l
 yp/6-31+g(d,p) scrf=(iefpcm,solvent=acetonitrile)\\tmpdir/M2_ref_9.gjf
 \\0,1\C,0,4.51482,-0.715643,0.931809\C,0,3.16165,-1.042641,0.853483\C,
 0,2.735119,-2.205131,0.203778\H,0,5.19224989,-1.32300435,0.49167473\H,
 0,4.824778,0.17845,1.462445\H,0,2.39099503,-0.40895372,1.38698451\O,0,
 3.57100205,-2.9336103,-0.32719287\H,0,1.681001,-2.465345,0.161342\\Ver
 sion=ES64L-G16RevA.03\State=1-A\HF=-191.9180937\RMSD=1.506e-09\Dipole=
 -0.3914877,1.1583724,0.7798257\Quadrupole=3.0878756,-1.7764345,-1.3114
 41,1.5858045,0.5237487,-0.5560721\PG=C01 [X(C3H4O1)]\\@


 NO SCIENCE HAS EVER MADE MORE RAPID PROGRESS IN A
 SHORTER TIME THAN CHEMISTRY.
   -- MARTIN HEINRICH KLOPROTH, 1791
 (FIRST PROFESSOR OF CHEMISTRY AT THE UNIVERSITY OF BERLIN)
 Job cpu time:       0 days  0 hours  0 minutes 40.0 seconds.
 Elapsed time:       0 days  0 hours  0 minutes 20.4 seconds.
 File lengths (MBytes):  RWF=     18 Int=      0 D2E=      0 Chk=      2 Scr=      1
 Normal termination of Gaussian 16 at Fri Sep 22 17:07:06 2023.
