 Entering Gaussian System, Link 0=g16
 Initial command:
 /share/apps/gaussian/g16/l1.exe "/tmp/55647.mgr/Gau-196555.inp" -scrdir="/tmp/55647.mgr/"
 Entering Link 1 = /share/apps/gaussian/g16/l1.exe PID=    196556.
  
 Copyright (c) 1988,1990,1992,1993,1995,1998,2003,2009,2016,
            Gaussian, Inc.  All Rights Reserved.
  
 This is part of the Gaussian(R) 16 program.  It is based on
 the Gaussian(R) 09 system (copyright 2009, Gaussian, Inc.),
 the Gaussian(R) 03 system (copyright 2003, Gaussian, Inc.),
 the Gaussian(R) 98 system (copyright 1998, Gaussian, Inc.),
 the Gaussian(R) 94 system (copyright 1995, Gaussian, Inc.),
 the Gaussian 92(TM) system (copyright 1992, Gaussian, Inc.),
 the Gaussian 90(TM) system (copyright 1990, Gaussian, Inc.),
 the Gaussian 88(TM) system (copyright 1988, Gaussian, Inc.),
 the Gaussian 86(TM) system (copyright 1986, Carnegie Mellon
 University), and the Gaussian 82(TM) system (copyright 1983,
 Carnegie Mellon University). Gaussian is a federally registered
 trademark of Gaussian, Inc.
  
 This software contains proprietary and confidential information,
 including trade secrets, belonging to Gaussian, Inc.
  
 This software is provided under written license and may be
 used, copied, transmitted, or stored only in accord with that
 written license.
  
 The following legend is applicable only to US Government
 contracts under FAR:
  
                    RESTRICTED RIGHTS LEGEND
  
 Use, reproduction and disclosure by the US Government is
 subject to restrictions as set forth in subparagraphs (a)
 and (c) of the Commercial Computer Software - Restricted
 Rights clause in FAR 52.227-19.
  
 Gaussian, Inc.
 340 Quinnipiac St., Bldg. 40, Wallingford CT 06492
  
  
 ---------------------------------------------------------------
 Warning -- This program may not be used in any manner that
 competes with the business of Gaussian, Inc. or will provide
 assistance to any competitor of Gaussian, Inc.  The licensee
 of this program is prohibited from giving any competitor of
 Gaussian, Inc. access to this program.  By using this program,
 the user acknowledges that Gaussian, Inc. is engaged in the
 business of creating and licensing software in the field of
 computational chemistry and represents and warrants to the
 licensee that it is not a competitor of Gaussian, Inc. and that
 it will not use this program in any manner prohibited above.
 ---------------------------------------------------------------
  

 Cite this work as:
 Gaussian 16, Revision A.03,
 M. J. Frisch, G. W. Trucks, H. B. Schlegel, G. E. Scuseria, 
 M. A. Robb, J. R. Cheeseman, G. Scalmani, V. Barone, 
 G. A. Petersson, H. Nakatsuji, X. Li, M. Caricato, A. V. Marenich, 
 J. Bloino, B. G. Janesko, R. Gomperts, B. Mennucci, H. P. Hratchian, 
 J. V. Ortiz, A. F. Izmaylov, J. L. Sonnenberg, D. Williams-Young, 
 F. Ding, F. Lipparini, F. Egidi, J. Goings, B. Peng, A. Petrone, 
 T. Henderson, D. Ranasinghe, V. G. Zakrzewski, J. Gao, N. Rega, 
 G. Zheng, W. Liang, M. Hada, M. Ehara, K. Toyota, R. Fukuda, 
 J. Hasegawa, M. Ishida, T. Nakajima, Y. Honda, O. Kitao, H. Nakai, 
 T. Vreven, K. Throssell, J. A. Montgomery, Jr., J. E. Peralta, 
 F. Ogliaro, M. J. Bearpark, J. J. Heyd, E. N. Brothers, K. N. Kudin, 
 V. N. Staroverov, T. A. Keith, R. Kobayashi, J. Normand, 
 K. Raghavachari, A. P. Rendell, J. C. Burant, S. S. Iyengar, 
 J. Tomasi, M. Cossi, J. M. Millam, M. Klene, C. Adamo, R. Cammi, 
 J. W. Ochterski, R. L. Martin, K. Morokuma, O. Farkas, 
 J. B. Foresman, and D. J. Fox, Gaussian, Inc., Wallingford CT, 2016.
 
 ******************************************
 Gaussian 16:  ES64L-G16RevA.03 25-Dec-2016
                22-Sep-2023 
 ******************************************
 %nprocshared=2
 Will use up to    2 processors via shared memory.
 %mem=2GB
 ------------------------------------------------------
 # b3lyp/6-31+g(d,p) scrf=(iefpcm,solvent=acetonitrile)
 ------------------------------------------------------
 1/38=1,172=1/1;
 2/12=2,17=6,18=5,40=1/2;
 3/5=1,6=6,7=111,11=2,25=1,30=1,70=2201,72=2,74=-5/1,2,3;
 4//1;
 5/5=2,38=5,53=2/2;
 6/7=2,8=2,9=2,10=2,28=1/1;
 99/5=1,9=1/99;
 --------------------
 tmpdir/M2_ref_14.gjf
 --------------------
 Symbolic Z-matrix:
 Charge =  0 Multiplicity = 1
 C                     3.16165  -1.04264   0.85348 
 C                     4.51482  -0.71564   0.93181 
 C                     5.45064  -1.55467   0.32379 
 H                     2.85289  -1.88415   0.38317 
 H                     2.391    -0.40895   1.38698 
 H                     4.82478   0.17845   1.46245 
 O                     5.10067  -2.58365  -0.26859 
 H                     6.50545  -1.29901   0.37566 
 
                          Input orientation:                          
 ---------------------------------------------------------------------
 Center     Atomic      Atomic             Coordinates (Angstroms)
 Number     Number       Type             X           Y           Z
 ---------------------------------------------------------------------
      1          6           0        3.161650   -1.042641    0.853483
      2          6           0        4.514820   -0.715643    0.931809
      3          6           0        5.450644   -1.554672    0.323793
      4          1           0        2.852890   -1.884151    0.383171
      5          1           0        2.390995   -0.408954    1.386985
      6          1           0        4.824778    0.178450    1.462445
      7          8           0        5.100672   -2.583653   -0.268585
      8          1           0        6.505451   -1.299006    0.375655
 ---------------------------------------------------------------------
                    Distance matrix (angstroms):
                    1          2          3          4          5
     1  C    0.000000
     2  C    1.394321   0.000000
     3  C    2.404629   1.396216   0.000000
     4  H    1.012258   2.104383   2.619238   0.000000
     5  H    1.131412   2.193599   3.435768   1.843149   0.000000
     6  H    2.151254   1.084920   2.166091   3.050819   2.504803
     7  O    2.719110   2.296438   1.237818   2.442664   3.848711
     8  H    3.387484   2.147611   1.086588   3.699142   4.329403
                    6          7          8
     6  H    0.000000
     7  O    3.271360   0.000000
     8  H    2.487700   2.009669   0.000000
 Stoichiometry    C3H4O
 Framework group  C1[X(C3H4O)]
 Deg. of freedom    18
 Full point group                 C1      NOp   1
 Largest Abelian subgroup         C1      NOp   1
 Largest concise Abelian subgroup C1      NOp   1
                         Standard orientation:                         
 ---------------------------------------------------------------------
 Center     Atomic      Atomic             Coordinates (Angstroms)
 Number     Number       Type             X           Y           Z
 ---------------------------------------------------------------------
      1          6           0       -1.409689   -0.482257   -0.011351
      2          6           0       -0.594946    0.649214   -0.001345
      3          6           0        0.791626    0.485393   -0.001007
      4          1           0       -1.012641   -1.413296    0.002270
      5          1           0       -2.534484   -0.374416    0.046082
      6          1           0       -1.042714    1.637368    0.008922
      7          8           0        1.304740   -0.641057    0.003294
      8          1           0        1.429976    1.364700   -0.001413
 ---------------------------------------------------------------------
 Rotational constants (GHZ):          21.2070768           6.8790994           5.1946064
 Standard basis: 6-31+G(d,p) (6D, 7F)
 There are    96 symmetry adapted cartesian basis functions of A   symmetry.
 There are    96 symmetry adapted basis functions of A   symmetry.
    96 basis functions,   156 primitive gaussians,    96 cartesian basis functions
    15 alpha electrons       15 beta electrons
       nuclear repulsion energy       105.7771549613 Hartrees.
 NAtoms=    8 NActive=    8 NUniq=    8 SFac= 1.00D+00 NAtFMM=   60 NAOKFM=F Big=F
 Integral buffers will be    131072 words long.
 Raffenetti 2 integral format.
 Two-electron integral symmetry is turned on.
 ------------------------------------------------------------------------------
 Polarizable Continuum Model (PCM)
 =================================
 Model                : PCM.
 Atomic radii         : UFF (Universal Force Field).
 Polarization charges : Total charges.
 Charge compensation  : None.
 Solution method      : On-the-fly selection.
 Cavity type          : Scaled VdW (van der Waals Surface) (Alpha=1.100).
 Cavity algorithm     : GePol (No added spheres)
                        Default sphere list used, NSphG=    8.
                        Lebedev-Laikov grids with approx.  5.0 points / Ang**2.
                        Smoothing algorithm: York/Karplus (Gamma=1.0000).
                        Polarization charges: spherical gaussians, with
                                              point-specific exponents (IZeta= 3).
                        Self-potential: point-specific (ISelfS= 7).
                        Self-field    : sphere-specific E.n sum rule (ISelfD= 2).
 Solvent              : Acetonitrile, Eps=  35.688000 Eps(inf)=   1.806874
 ------------------------------------------------------------------------------
 Spheres list:
 ISph  on   Nord     Re0    Alpha      Xe            Ye            Ze
    1   C      1    1.9255  1.100     -1.409689     -0.482257     -0.011351
    2   C      2    1.9255  1.100     -0.594946      0.649214     -0.001345
    3   C      3    1.9255  1.100      0.791626      0.485393     -0.001007
    4   H      4    1.4430  1.100     -1.012641     -1.413296      0.002270
    5   H      5    1.4430  1.100     -2.534484     -0.374416      0.046082
    6   H      6    1.4430  1.100     -1.042714      1.637368      0.008922
    7   O      7    1.7500  1.100      1.304740     -0.641057      0.003294
    8   H      8    1.4430  1.100      1.429976      1.364700     -0.001413
 ------------------------------------------------------------------------------
 One-electron integrals computed using PRISM.
 NBasis=    96 RedAO= T EigKep=  1.28D-04  NBF=    96
 NBsUse=    96 1.00D-06 EigRej= -1.00D+00 NBFU=    96
 ExpMin= 4.38D-02 ExpMax= 5.48D+03 ExpMxC= 8.25D+02 IAcc=3 IRadAn=         5 AccDes= 0.00D+00
 Harris functional with IExCor=  402 and IRadAn=       5 diagonalized for initial guess.
 HarFok:  IExCor=  402 AccDes= 0.00D+00 IRadAn=         5 IDoV= 1 UseB2=F ITyADJ=14
 ICtDFT=  3500011 ScaDFX=  1.000000  1.000000  1.000000  1.000000
 FoFCou: FMM=F IPFlag=           0 FMFlag=      100000 FMFlg1=           0
         NFxFlg=           0 DoJE=T BraDBF=F KetDBF=T FulRan=T
         wScrn=  0.000000 ICntrl=       500 IOpCl=  0 I1Cent=   200000004 NGrid=           0
         NMat0=    1 NMatS0=      1 NMatT0=    0 NMatD0=    1 NMtDS0=    0 NMtDT0=    0
 Petite list used in FoFCou.
 Keep R1 ints in memory in canonical form, NReq=12684406.
 Requested convergence on RMS density matrix=1.00D-08 within 128 cycles.
 Requested convergence on MAX density matrix=1.00D-06.
 Requested convergence on             energy=1.00D-06.
 No special actions if energy rises.
 Inv3:  Mode=1 IEnd=     2152227.
 Iteration    1 A*A^-1 deviation from unit magnitude is 5.11D-15 for    830.
 Iteration    1 A*A^-1 deviation from orthogonality  is 1.61D-15 for    830    174.
 Iteration    1 A^-1*A deviation from unit magnitude is 5.11D-15 for    830.
 Iteration    1 A^-1*A deviation from orthogonality  is 1.24D-15 for    509     56.
 Error on total polarization charges =  0.01118
 SCF Done:  E(RB3LYP) =  -191.918928220     A.U. after   12 cycles
            NFock= 12  Conv=0.15D-08     -V/T= 2.0092

 **********************************************************************

            Population analysis using the SCF density.

 **********************************************************************

 Orbital symmetries:
       Occupied  (A) (A) (A) (A) (A) (A) (A) (A) (A) (A) (A) (A)
                 (A) (A) (A)
       Virtual   (A) (A) (A) (A) (A) (A) (A) (A) (A) (A) (A) (A)
                 (A) (A) (A) (A) (A) (A) (A) (A) (A) (A) (A) (A)
                 (A) (A) (A) (A) (A) (A) (A) (A) (A) (A) (A) (A)
                 (A) (A) (A) (A) (A) (A) (A) (A) (A) (A) (A) (A)
                 (A) (A) (A) (A) (A) (A) (A) (A) (A) (A) (A) (A)
                 (A) (A) (A) (A) (A) (A) (A) (A) (A) (A) (A) (A)
                 (A) (A) (A) (A) (A) (A) (A) (A) (A)
 The electronic state is 1-A.
 Alpha  occ. eigenvalues --  -19.15848 -10.28140 -10.22866 -10.21288  -1.04799
 Alpha  occ. eigenvalues --   -0.80092  -0.67779  -0.55675  -0.52239  -0.46180
 Alpha  occ. eigenvalues --   -0.42000  -0.40961  -0.39762  -0.28691  -0.27410
 Alpha virt. eigenvalues --   -0.09775   0.01320   0.03111   0.03908   0.04143
 Alpha virt. eigenvalues --    0.06247   0.06522   0.07448   0.09661   0.09778
 Alpha virt. eigenvalues --    0.12177   0.12365   0.14093   0.16429   0.19504
 Alpha virt. eigenvalues --    0.22018   0.23351   0.24433   0.26102   0.26519
 Alpha virt. eigenvalues --    0.29081   0.31619   0.32338   0.41052   0.46272
 Alpha virt. eigenvalues --    0.62564   0.64864   0.68308   0.68422   0.70647
 Alpha virt. eigenvalues --    0.71878   0.76714   0.86853   0.89892   0.90519
 Alpha virt. eigenvalues --    0.95102   1.03467   1.06851   1.09339   1.16290
 Alpha virt. eigenvalues --    1.20326   1.24943   1.27201   1.29352   1.31939
 Alpha virt. eigenvalues --    1.33240   1.44961   1.47784   1.58754   1.75642
 Alpha virt. eigenvalues --    1.78353   1.82211   1.84681   1.92706   2.01639
 Alpha virt. eigenvalues --    2.02490   2.06548   2.09001   2.17184   2.18906
 Alpha virt. eigenvalues --    2.34218   2.35048   2.44793   2.46758   2.49398
 Alpha virt. eigenvalues --    2.50306   2.66287   2.67345   2.75517   2.79673
 Alpha virt. eigenvalues --    2.90059   3.07551   3.15681   3.22525   3.35591
 Alpha virt. eigenvalues --    3.56451   3.76409   4.12555   4.27854   4.36168
 Alpha virt. eigenvalues --    4.59751
          Condensed to atoms (all electrons):
               1          2          3          4          5          6
     1  C    4.916454   0.516506   0.043065   0.419841   0.353165  -0.000053
     2  C    0.516506   5.467383   0.093564  -0.055059  -0.017928   0.297133
     3  C    0.043065   0.093564   4.859224  -0.006457   0.016508   0.013520
     4  H    0.419841  -0.055059  -0.006457   0.490460  -0.031865   0.003977
     5  H    0.353165  -0.017928   0.016508  -0.031865   0.512748  -0.004626
     6  H   -0.000053   0.297133   0.013520   0.003977  -0.004626   0.522419
     7  O    0.011324  -0.206443   0.453624   0.001207   0.001101   0.006095
     8  H    0.018099  -0.166358   0.461054   0.000064  -0.000084   0.000006
               7          8
     1  C    0.011324   0.018099
     2  C   -0.206443  -0.166358
     3  C    0.453624   0.461054
     4  H    0.001207   0.000064
     5  H    0.001101  -0.000084
     6  H    0.006095   0.000006
     7  O    8.310356  -0.070530
     8  H   -0.070530   0.620054
 Mulliken charges:
               1
     1  C   -0.278401
     2  C    0.071201
     3  C    0.065899
     4  H    0.177831
     5  H    0.170981
     6  H    0.161530
     7  O   -0.506734
     8  H    0.137693
 Sum of Mulliken charges =   0.00000
 Mulliken charges with hydrogens summed into heavy atoms:
               1
     1  C    0.070411
     2  C    0.232731
     3  C    0.203592
     7  O   -0.506734
 Electronic spatial extent (au):  <R**2>=            258.0728
 Charge=              0.0000 electrons
 Dipole moment (field-independent basis, Debye):
    X=             -3.0385    Y=              2.3703    Z=              0.0464  Tot=              3.8539
 Quadrupole moment (field-independent basis, Debye-Ang):
   XX=            -24.2422   YY=            -22.3532   ZZ=            -25.2178
   XY=              4.0107   XZ=             -0.1465   YZ=              0.0019
 Traceless Quadrupole moment (field-independent basis, Debye-Ang):
   XX=             -0.3045   YY=              1.5845   ZZ=             -1.2801
   XY=              4.0107   XZ=             -0.1465   YZ=              0.0019
 Octapole moment (field-independent basis, Debye-Ang**2):
  XXX=            -10.3774  YYY=              1.2550  ZZZ=              0.1082  XYY=             -1.4882
  XXY=              3.8666  XXZ=              0.3554  XZZ=              3.0362  YZZ=             -0.7620
  YYZ=              0.0759  XYZ=              0.0358
 Hexadecapole moment (field-independent basis, Debye-Ang**3):
 XXXX=           -212.7284 YYYY=            -88.0771 ZZZZ=            -28.3520 XXXY=              8.8425
 XXXZ=             -1.0854 YYYX=              0.3862 YYYZ=             -0.0043 ZZZX=             -0.1627
 ZZZY=             -0.0093 XXYY=            -51.4617 XXZZ=            -44.3154 YYZZ=            -21.1576
 XXYZ=             -0.0944 YYXZ=             -0.1153 ZZXY=              0.1105
 N-N= 1.057771549613D+02 E-N=-6.588686012256D+02  KE= 1.901730128764D+02
 1\1\GINC-NODE62\SP\RB3LYP\6-31+G(d,p)\C3H4O1\YANZ\22-Sep-2023\0\\# b3l
 yp/6-31+g(d,p) scrf=(iefpcm,solvent=acetonitrile)\\tmpdir/M2_ref_14.gj
 f\\0,1\C,0,3.16165,-1.042641,0.853483\C,0,4.51482,-0.715643,0.931809\C
 ,0,5.450644,-1.554672,0.323793\H,0,2.85289018,-1.88415124,0.38317065\H
 ,0,2.39099503,-0.40895372,1.38698451\H,0,4.824778,0.17845,1.462445\O,0
 ,5.10067154,-2.58365276,-0.26858507\H,0,6.505451,-1.299006,0.375655\\V
 ersion=ES64L-G16RevA.03\State=1-A\HF=-191.9189282\RMSD=1.454e-09\Dipol
 e=-0.2880512,1.2455159,0.8153199\Quadrupole=3.2865456,-1.9566211,-1.32
 99245,1.1788914,0.2080959,-0.6659239\PG=C01 [X(C3H4O1)]\\@


 NATURE REVEALS EVERY SECRET ONCE.
                    - RALPH WALDO EMERSON
 Job cpu time:       0 days  0 hours  0 minutes 36.0 seconds.
 Elapsed time:       0 days  0 hours  0 minutes 18.2 seconds.
 File lengths (MBytes):  RWF=     19 Int=      0 D2E=      0 Chk=      2 Scr=      1
 Normal termination of Gaussian 16 at Fri Sep 22 17:07:22 2023.
