 Entering Gaussian System, Link 0=g16
 Initial command:
 /share/apps/gaussian/g16/l1.exe "/tmp/55647.mgr/Gau-840.inp" -scrdir="/tmp/55647.mgr/"
 Entering Link 1 = /share/apps/gaussian/g16/l1.exe PID=       841.
  
 Copyright (c) 1988,1990,1992,1993,1995,1998,2003,2009,2016,
            Gaussian, Inc.  All Rights Reserved.
  
 This is part of the Gaussian(R) 16 program.  It is based on
 the Gaussian(R) 09 system (copyright 2009, Gaussian, Inc.),
 the Gaussian(R) 03 system (copyright 2003, Gaussian, Inc.),
 the Gaussian(R) 98 system (copyright 1998, Gaussian, Inc.),
 the Gaussian(R) 94 system (copyright 1995, Gaussian, Inc.),
 the Gaussian 92(TM) system (copyright 1992, Gaussian, Inc.),
 the Gaussian 90(TM) system (copyright 1990, Gaussian, Inc.),
 the Gaussian 88(TM) system (copyright 1988, Gaussian, Inc.),
 the Gaussian 86(TM) system (copyright 1986, Carnegie Mellon
 University), and the Gaussian 82(TM) system (copyright 1983,
 Carnegie Mellon University). Gaussian is a federally registered
 trademark of Gaussian, Inc.
  
 This software contains proprietary and confidential information,
 including trade secrets, belonging to Gaussian, Inc.
  
 This software is provided under written license and may be
 used, copied, transmitted, or stored only in accord with that
 written license.
  
 The following legend is applicable only to US Government
 contracts under FAR:
  
                    RESTRICTED RIGHTS LEGEND
  
 Use, reproduction and disclosure by the US Government is
 subject to restrictions as set forth in subparagraphs (a)
 and (c) of the Commercial Computer Software - Restricted
 Rights clause in FAR 52.227-19.
  
 Gaussian, Inc.
 340 Quinnipiac St., Bldg. 40, Wallingford CT 06492
  
  
 ---------------------------------------------------------------
 Warning -- This program may not be used in any manner that
 competes with the business of Gaussian, Inc. or will provide
 assistance to any competitor of Gaussian, Inc.  The licensee
 of this program is prohibited from giving any competitor of
 Gaussian, Inc. access to this program.  By using this program,
 the user acknowledges that Gaussian, Inc. is engaged in the
 business of creating and licensing software in the field of
 computational chemistry and represents and warrants to the
 licensee that it is not a competitor of Gaussian, Inc. and that
 it will not use this program in any manner prohibited above.
 ---------------------------------------------------------------
  

 Cite this work as:
 Gaussian 16, Revision A.03,
 M. J. Frisch, G. W. Trucks, H. B. Schlegel, G. E. Scuseria, 
 M. A. Robb, J. R. Cheeseman, G. Scalmani, V. Barone, 
 G. A. Petersson, H. Nakatsuji, X. Li, M. Caricato, A. V. Marenich, 
 J. Bloino, B. G. Janesko, R. Gomperts, B. Mennucci, H. P. Hratchian, 
 J. V. Ortiz, A. F. Izmaylov, J. L. Sonnenberg, D. Williams-Young, 
 F. Ding, F. Lipparini, F. Egidi, J. Goings, B. Peng, A. Petrone, 
 T. Henderson, D. Ranasinghe, V. G. Zakrzewski, J. Gao, N. Rega, 
 G. Zheng, W. Liang, M. Hada, M. Ehara, K. Toyota, R. Fukuda, 
 J. Hasegawa, M. Ishida, T. Nakajima, Y. Honda, O. Kitao, H. Nakai, 
 T. Vreven, K. Throssell, J. A. Montgomery, Jr., J. E. Peralta, 
 F. Ogliaro, M. J. Bearpark, J. J. Heyd, E. N. Brothers, K. N. Kudin, 
 V. N. Staroverov, T. A. Keith, R. Kobayashi, J. Normand, 
 K. Raghavachari, A. P. Rendell, J. C. Burant, S. S. Iyengar, 
 J. Tomasi, M. Cossi, J. M. Millam, M. Klene, C. Adamo, R. Cammi, 
 J. W. Ochterski, R. L. Martin, K. Morokuma, O. Farkas, 
 J. B. Foresman, and D. J. Fox, Gaussian, Inc., Wallingford CT, 2016.
 
 ******************************************
 Gaussian 16:  ES64L-G16RevA.03 25-Dec-2016
                22-Sep-2023 
 ******************************************
 %nprocshared=2
 Will use up to    2 processors via shared memory.
 %mem=2GB
 ------------------------------------------------------
 # b3lyp/6-31+g(d,p) scrf=(iefpcm,solvent=acetonitrile)
 ------------------------------------------------------
 1/38=1,172=1/1;
 2/12=2,17=6,18=5,40=1/2;
 3/5=1,6=6,7=111,11=2,25=1,30=1,70=2201,72=2,74=-5/1,2,3;
 4//1;
 5/5=2,38=5,53=2/2;
 6/7=2,8=2,9=2,10=2,28=1/1;
 99/5=1,9=1/99;
 --------------------
 tmpdir/M2_ref_58.gjf
 --------------------
 Symbolic Z-matrix:
 Charge =  0 Multiplicity = 1
 N                     1.2699    0.87148   0.31974 
 C                     2.17227   1.5438   -0.57617 
 C                     2.58085   0.94662  -1.77545 
 H                     1.66364   0.33343   1.14877 
 H                     0.32285   0.76966   0.08069 
 H                     2.51766   2.45987  -0.31577 
 H                     3.21942   1.43797  -2.3851 
 H                     2.20392  -0.03358  -2.0441 
 
                          Input orientation:                          
 ---------------------------------------------------------------------
 Center     Atomic      Atomic             Coordinates (Angstroms)
 Number     Number       Type             X           Y           Z
 ---------------------------------------------------------------------
      1          7           0        1.269902    0.871483    0.319741
      2          6           0        2.172272    1.543797   -0.576165
      3          6           0        2.580847    0.946621   -1.775450
      4          1           0        1.663637    0.333425    1.148773
      5          1           0        0.322853    0.769664    0.080691
      6          1           0        2.517665    2.459866   -0.315769
      7          1           0        3.219422    1.437967   -2.385104
      8          1           0        2.203919   -0.033582   -2.044101
 ---------------------------------------------------------------------
                    Distance matrix (angstroms):
                    1          2          3          4          5
     1  N    0.000000
     2  C    1.438376   0.000000
     3  C    2.472660   1.400656   0.000000
     4  H    1.063874   2.167746   3.125438   0.000000
     5  H    0.982046   2.109761   2.928329   1.768844   0.000000
     6  H    2.117486   1.013057   2.103467   2.719558   2.798421
     7  H    3.381969   2.092841   1.010384   4.016064   3.862238
     8  H    2.698014   2.154985   1.083995   3.258995   2.949297
                    6          7          8
     6  H    0.000000
     7  H    2.412237   0.000000
     8  H    3.050058   1.820161   0.000000
 Stoichiometry    C2H5N
 Framework group  C1[X(C2H5N)]
 Deg. of freedom    18
 Full point group                 C1      NOp   1
 Largest Abelian subgroup         C1      NOp   1
 Largest concise Abelian subgroup C1      NOp   1
                         Standard orientation:                         
 ---------------------------------------------------------------------
 Center     Atomic      Atomic             Coordinates (Angstroms)
 Number     Number       Type             X           Y           Z
 ---------------------------------------------------------------------
      1          7           0       -1.200139   -0.145736   -0.011600
      2          6           0        0.086268    0.497498   -0.029863
      3          6           0        1.270109   -0.249180    0.023328
      4          1           0       -1.727259   -0.230133    0.908645
      5          1           0       -1.512856   -0.644697   -0.797514
      6          1           0        0.119519    1.509161   -0.071285
      7          1           0        2.161110    0.227169    0.014093
      8          1           0        1.222200   -1.331256    0.066466
 ---------------------------------------------------------------------
 Rotational constants (GHZ):          49.9898304           9.5971789           8.4552013
 Standard basis: 6-31+G(d,p) (6D, 7F)
 There are    82 symmetry adapted cartesian basis functions of A   symmetry.
 There are    82 symmetry adapted basis functions of A   symmetry.
    82 basis functions,   131 primitive gaussians,    82 cartesian basis functions
    12 alpha electrons       12 beta electrons
       nuclear repulsion energy        70.2649816147 Hartrees.
 NAtoms=    8 NActive=    8 NUniq=    8 SFac= 1.00D+00 NAtFMM=   60 NAOKFM=F Big=F
 Integral buffers will be    131072 words long.
 Raffenetti 2 integral format.
 Two-electron integral symmetry is turned on.
 ------------------------------------------------------------------------------
 Polarizable Continuum Model (PCM)
 =================================
 Model                : PCM.
 Atomic radii         : UFF (Universal Force Field).
 Polarization charges : Total charges.
 Charge compensation  : None.
 Solution method      : On-the-fly selection.
 Cavity type          : Scaled VdW (van der Waals Surface) (Alpha=1.100).
 Cavity algorithm     : GePol (No added spheres)
                        Default sphere list used, NSphG=    8.
                        Lebedev-Laikov grids with approx.  5.0 points / Ang**2.
                        Smoothing algorithm: York/Karplus (Gamma=1.0000).
                        Polarization charges: spherical gaussians, with
                                              point-specific exponents (IZeta= 3).
                        Self-potential: point-specific (ISelfS= 7).
                        Self-field    : sphere-specific E.n sum rule (ISelfD= 2).
 Solvent              : Acetonitrile, Eps=  35.688000 Eps(inf)=   1.806874
 ------------------------------------------------------------------------------
 Spheres list:
 ISph  on   Nord     Re0    Alpha      Xe            Ye            Ze
    1   N      1    1.8300  1.100     -1.200139     -0.145736     -0.011600
    2   C      2    1.9255  1.100      0.086268      0.497498     -0.029863
    3   C      3    1.9255  1.100      1.270109     -0.249180      0.023328
    4   H      4    1.4430  1.100     -1.727259     -0.230133      0.908645
    5   H      5    1.4430  1.100     -1.512856     -0.644697     -0.797514
    6   H      6    1.4430  1.100      0.119519      1.509161     -0.071285
    7   H      7    1.4430  1.100      2.161110      0.227169      0.014093
    8   H      8    1.4430  1.100      1.222200     -1.331256      0.066466
 ------------------------------------------------------------------------------
 One-electron integrals computed using PRISM.
 NBasis=    82 RedAO= T EigKep=  2.03D-04  NBF=    82
 NBsUse=    82 1.00D-06 EigRej= -1.00D+00 NBFU=    82
 ExpMin= 4.38D-02 ExpMax= 4.17D+03 ExpMxC= 6.27D+02 IAcc=3 IRadAn=         5 AccDes= 0.00D+00
 Harris functional with IExCor=  402 and IRadAn=       5 diagonalized for initial guess.
 HarFok:  IExCor=  402 AccDes= 0.00D+00 IRadAn=         5 IDoV= 1 UseB2=F ITyADJ=14
 ICtDFT=  3500011 ScaDFX=  1.000000  1.000000  1.000000  1.000000
 FoFCou: FMM=F IPFlag=           0 FMFlag=      100000 FMFlg1=           0
         NFxFlg=           0 DoJE=T BraDBF=F KetDBF=T FulRan=T
         wScrn=  0.000000 ICntrl=       500 IOpCl=  0 I1Cent=   200000004 NGrid=           0
         NMat0=    1 NMatS0=      1 NMatT0=    0 NMatD0=    1 NMtDS0=    0 NMtDT0=    0
 Petite list used in FoFCou.
 Keep R1 ints in memory in canonical form, NReq=7601896.
 Requested convergence on RMS density matrix=1.00D-08 within 128 cycles.
 Requested convergence on MAX density matrix=1.00D-06.
 Requested convergence on             energy=1.00D-06.
 No special actions if energy rises.
 Inv3:  Mode=1 IEnd=     1829883.
 Iteration    1 A*A^-1 deviation from unit magnitude is 3.11D-15 for    770.
 Iteration    1 A*A^-1 deviation from orthogonality  is 2.97D-15 for    766    367.
 Iteration    1 A^-1*A deviation from unit magnitude is 3.11D-15 for    770.
 Iteration    1 A^-1*A deviation from orthogonality  is 1.79D-15 for    551    153.
 Error on total polarization charges =  0.01470
 SCF Done:  E(RB3LYP) =  -133.935615173     A.U. after   11 cycles
            NFock= 11  Conv=0.27D-08     -V/T= 2.0105

 **********************************************************************

            Population analysis using the SCF density.

 **********************************************************************

 Orbital symmetries:
       Occupied  (A) (A) (A) (A) (A) (A) (A) (A) (A) (A) (A) (A)
       Virtual   (A) (A) (A) (A) (A) (A) (A) (A) (A) (A) (A) (A)
                 (A) (A) (A) (A) (A) (A) (A) (A) (A) (A) (A) (A)
                 (A) (A) (A) (A) (A) (A) (A) (A) (A) (A) (A) (A)
                 (A) (A) (A) (A) (A) (A) (A) (A) (A) (A) (A) (A)
                 (A) (A) (A) (A) (A) (A) (A) (A) (A) (A) (A) (A)
                 (A) (A) (A) (A) (A) (A) (A) (A) (A) (A)
 The electronic state is 1-A.
 Alpha  occ. eigenvalues --  -14.32841 -10.22716 -10.18678  -0.87924  -0.73152
 Alpha  occ. eigenvalues --   -0.59381  -0.49827  -0.48745  -0.43299  -0.39463
 Alpha  occ. eigenvalues --   -0.26917  -0.23243
 Alpha virt. eigenvalues --   -0.01895   0.00917   0.03688   0.03958   0.06277
 Alpha virt. eigenvalues --    0.07576   0.09171   0.10514   0.11239   0.13318
 Alpha virt. eigenvalues --    0.14470   0.16880   0.20112   0.21785   0.23904
 Alpha virt. eigenvalues --    0.27469   0.27998   0.30513   0.36668   0.37799
 Alpha virt. eigenvalues --    0.60991   0.67606   0.67785   0.71594   0.73769
 Alpha virt. eigenvalues --    0.85534   0.89890   0.90388   0.93204   0.93757
 Alpha virt. eigenvalues --    0.98666   1.01447   1.01909   1.03358   1.12822
 Alpha virt. eigenvalues --    1.20551   1.32363   1.35491   1.45180   1.46817
 Alpha virt. eigenvalues --    1.73281   1.81487   1.86009   1.92256   1.98671
 Alpha virt. eigenvalues --    2.03649   2.05834   2.11151   2.13400   2.22830
 Alpha virt. eigenvalues --    2.40491   2.42688   2.49865   2.51160   2.55606
 Alpha virt. eigenvalues --    2.63661   2.66070   2.75245   2.78572   2.81297
 Alpha virt. eigenvalues --    2.96920   3.04252   3.33662   3.46146   3.46967
 Alpha virt. eigenvalues --    3.51264   3.76156   4.19204   4.24967   4.51380
          Condensed to atoms (all electrons):
               1          2          3          4          5          6
     1  N    6.936422   0.281846  -0.128259   0.341512   0.363849  -0.080192
     2  C    0.281846   4.797868   0.657406  -0.014835  -0.020962   0.424896
     3  C   -0.128259   0.657406   5.054943  -0.009134  -0.008709  -0.059800
     4  H    0.341512  -0.014835  -0.009134   0.381792  -0.021772   0.000864
     5  H    0.363849  -0.020962  -0.008709  -0.021772   0.361586   0.002681
     6  H   -0.080192   0.424896  -0.059800   0.000864   0.002681   0.574106
     7  H    0.010303  -0.019899   0.373927  -0.000090  -0.000054  -0.002805
     8  H   -0.004155  -0.050172   0.410659   0.000170   0.000495   0.004112
               7          8
     1  N    0.010303  -0.004155
     2  C   -0.019899  -0.050172
     3  C    0.373927   0.410659
     4  H   -0.000090   0.000170
     5  H   -0.000054   0.000495
     6  H   -0.002805   0.004112
     7  H    0.534555  -0.035550
     8  H   -0.035550   0.526063
 Mulliken charges:
               1
     1  N   -0.721326
     2  C   -0.056149
     3  C   -0.291033
     4  H    0.321494
     5  H    0.322886
     6  H    0.136137
     7  H    0.139614
     8  H    0.148377
 Sum of Mulliken charges =  -0.00000
 Mulliken charges with hydrogens summed into heavy atoms:
               1
     1  N   -0.076946
     2  C    0.079989
     3  C   -0.003042
 Electronic spatial extent (au):  <R**2>=            182.7009
 Charge=             -0.0000 electrons
 Dipole moment (field-independent basis, Debye):
    X=             -0.2907    Y=             -0.3840    Z=              0.2146  Tot=              0.5273
 Quadrupole moment (field-independent basis, Debye-Ang):
   XX=            -18.0291   YY=            -19.0565   ZZ=            -19.8210
   XY=              1.7209   XZ=             -0.7367   YZ=              0.7164
 Traceless Quadrupole moment (field-independent basis, Debye-Ang):
   XX=              0.9397   YY=             -0.0876   ZZ=             -0.8521
   XY=              1.7209   XZ=             -0.7367   YZ=              0.7164
 Octapole moment (field-independent basis, Debye-Ang**2):
  XXX=             -2.2083  YYY=              0.4900  ZZZ=              0.5866  XYY=              0.4417
  XXY=             -3.9537  XXZ=              2.2915  XZZ=             -6.4678  YZZ=             -1.2854
  YYZ=             -0.6162  XYZ=             -1.3126
 Hexadecapole moment (field-independent basis, Debye-Ang**3):
 XXXX=           -162.4244 YYYY=            -49.8471 ZZZZ=            -30.7133 XXXY=             12.0196
 XXXZ=             -4.4534 YYYX=              0.4036 YYYZ=              0.7971 ZZZX=             -1.3906
 ZZZY=              1.1342 XXYY=            -37.3461 XXZZ=            -30.4186 YYZZ=            -14.4577
 XXYZ=              1.6964 YYXZ=              0.9332 ZZXY=              2.4076
 N-N= 7.026498161469D+01 E-N=-4.511029796160D+02  KE= 1.325492934717D+02
 1\1\GINC-NODE62\SP\RB3LYP\6-31+G(d,p)\C2H5N1\YANZ\22-Sep-2023\0\\# b3l
 yp/6-31+g(d,p) scrf=(iefpcm,solvent=acetonitrile)\\tmpdir/M2_ref_58.gj
 f\\0,1\N,0,1.269902,0.871483,0.319741\C,0,2.172272,1.543797,-0.576165\
 C,0,2.580847,0.946621,-1.77545\H,0,1.66363747,0.33342543,1.14877347\H,
 0,0.32285297,0.76966432,0.08069087\H,0,2.51766479,2.45986605,-0.315768
 73\H,0,3.21942159,1.43796731,-2.38510389\H,0,2.203919,-0.033582,-2.044
 101\\Version=ES64L-G16RevA.03\State=1-A\HF=-133.9356152\RMSD=2.723e-09
 \Dipole=-0.0500743,-0.1809762,0.0881607\Quadrupole=0.1461772,-0.411582
 9,0.2654057,1.2475745,-0.2823631,-0.9490325\PG=C01 [X(C2H5N1)]\\@


 THE WORLD IS NOT A HAMBURGER - YOU CAN'T HAVE IT YOUR WAY.
 Job cpu time:       0 days  0 hours  0 minutes 26.4 seconds.
 Elapsed time:       0 days  0 hours  0 minutes 13.4 seconds.
 File lengths (MBytes):  RWF=     17 Int=      0 D2E=      0 Chk=      2 Scr=      1
 Normal termination of Gaussian 16 at Fri Sep 22 17:08:02 2023.
