 Entering Gaussian System, Link 0=g16
 Initial command:
 /share/apps/gaussian/g16/l1.exe "/tmp/55647.mgr/Gau-196441.inp" -scrdir="/tmp/55647.mgr/"
 Entering Link 1 = /share/apps/gaussian/g16/l1.exe PID=    196442.
  
 Copyright (c) 1988,1990,1992,1993,1995,1998,2003,2009,2016,
            Gaussian, Inc.  All Rights Reserved.
  
 This is part of the Gaussian(R) 16 program.  It is based on
 the Gaussian(R) 09 system (copyright 2009, Gaussian, Inc.),
 the Gaussian(R) 03 system (copyright 2003, Gaussian, Inc.),
 the Gaussian(R) 98 system (copyright 1998, Gaussian, Inc.),
 the Gaussian(R) 94 system (copyright 1995, Gaussian, Inc.),
 the Gaussian 92(TM) system (copyright 1992, Gaussian, Inc.),
 the Gaussian 90(TM) system (copyright 1990, Gaussian, Inc.),
 the Gaussian 88(TM) system (copyright 1988, Gaussian, Inc.),
 the Gaussian 86(TM) system (copyright 1986, Carnegie Mellon
 University), and the Gaussian 82(TM) system (copyright 1983,
 Carnegie Mellon University). Gaussian is a federally registered
 trademark of Gaussian, Inc.
  
 This software contains proprietary and confidential information,
 including trade secrets, belonging to Gaussian, Inc.
  
 This software is provided under written license and may be
 used, copied, transmitted, or stored only in accord with that
 written license.
  
 The following legend is applicable only to US Government
 contracts under FAR:
  
                    RESTRICTED RIGHTS LEGEND
  
 Use, reproduction and disclosure by the US Government is
 subject to restrictions as set forth in subparagraphs (a)
 and (c) of the Commercial Computer Software - Restricted
 Rights clause in FAR 52.227-19.
  
 Gaussian, Inc.
 340 Quinnipiac St., Bldg. 40, Wallingford CT 06492
  
  
 ---------------------------------------------------------------
 Warning -- This program may not be used in any manner that
 competes with the business of Gaussian, Inc. or will provide
 assistance to any competitor of Gaussian, Inc.  The licensee
 of this program is prohibited from giving any competitor of
 Gaussian, Inc. access to this program.  By using this program,
 the user acknowledges that Gaussian, Inc. is engaged in the
 business of creating and licensing software in the field of
 computational chemistry and represents and warrants to the
 licensee that it is not a competitor of Gaussian, Inc. and that
 it will not use this program in any manner prohibited above.
 ---------------------------------------------------------------
  

 Cite this work as:
 Gaussian 16, Revision A.03,
 M. J. Frisch, G. W. Trucks, H. B. Schlegel, G. E. Scuseria, 
 M. A. Robb, J. R. Cheeseman, G. Scalmani, V. Barone, 
 G. A. Petersson, H. Nakatsuji, X. Li, M. Caricato, A. V. Marenich, 
 J. Bloino, B. G. Janesko, R. Gomperts, B. Mennucci, H. P. Hratchian, 
 J. V. Ortiz, A. F. Izmaylov, J. L. Sonnenberg, D. Williams-Young, 
 F. Ding, F. Lipparini, F. Egidi, J. Goings, B. Peng, A. Petrone, 
 T. Henderson, D. Ranasinghe, V. G. Zakrzewski, J. Gao, N. Rega, 
 G. Zheng, W. Liang, M. Hada, M. Ehara, K. Toyota, R. Fukuda, 
 J. Hasegawa, M. Ishida, T. Nakajima, Y. Honda, O. Kitao, H. Nakai, 
 T. Vreven, K. Throssell, J. A. Montgomery, Jr., J. E. Peralta, 
 F. Ogliaro, M. J. Bearpark, J. J. Heyd, E. N. Brothers, K. N. Kudin, 
 V. N. Staroverov, T. A. Keith, R. Kobayashi, J. Normand, 
 K. Raghavachari, A. P. Rendell, J. C. Burant, S. S. Iyengar, 
 J. Tomasi, M. Cossi, J. M. Millam, M. Klene, C. Adamo, R. Cammi, 
 J. W. Ochterski, R. L. Martin, K. Morokuma, O. Farkas, 
 J. B. Foresman, and D. J. Fox, Gaussian, Inc., Wallingford CT, 2016.
 
 ******************************************
 Gaussian 16:  ES64L-G16RevA.03 25-Dec-2016
                22-Sep-2023 
 ******************************************
 %nprocshared=2
 Will use up to    2 processors via shared memory.
 %mem=2GB
 ------------------------------------------------------
 # b3lyp/6-31+g(d,p) scrf=(iefpcm,solvent=acetonitrile)
 ------------------------------------------------------
 1/38=1,172=1/1;
 2/12=2,17=6,18=5,40=1/2;
 3/5=1,6=6,7=111,11=2,25=1,30=1,70=2201,72=2,74=-5/1,2,3;
 4//1;
 5/5=2,38=5,53=2/2;
 6/7=2,8=2,9=2,10=2,28=1/1;
 99/5=1,9=1/99;
 --------------------
 tmpdir/M2_ref_22.gjf
 --------------------
 Symbolic Z-matrix:
 Charge =  0 Multiplicity = 1
 C                     5.45064  -1.55467   0.32379 
 C                     5.05368  -2.72183  -0.34813 
 H                     4.77321  -0.94731   0.76393 
 H                     6.50545  -1.29901   0.37566 
 H                     4.06164  -2.94594  -0.38459 
 H                     5.79205  -3.38892  -0.79952 
 
                          Input orientation:                          
 ---------------------------------------------------------------------
 Center     Atomic      Atomic             Coordinates (Angstroms)
 Number     Number       Type             X           Y           Z
 ---------------------------------------------------------------------
      1          6           0        5.450644   -1.554672    0.323793
      2          6           0        5.053677   -2.721825   -0.348130
      3          1           0        4.773214   -0.947311    0.763927
      4          1           0        6.505451   -1.299006    0.375655
      5          1           0        4.061640   -2.945944   -0.384586
      6          1           0        5.792045   -3.388921   -0.799521
 ---------------------------------------------------------------------
                    Distance matrix (angstroms):
                    1          2          3          4          5
     1  C    0.000000
     2  C    1.404033   0.000000
     3  H    1.010701   2.112873   0.000000
     4  H    1.086588   2.157760   1.809721   0.000000
     5  H    2.089682   1.017691   2.412459   3.043449   0.000000
     6  H    2.177811   1.092684   3.073085   2.501546   1.833766
                    6
     6  H    0.000000
 Stoichiometry    C2H4
 Framework group  C1[X(C2H4)]
 Deg. of freedom    12
 Full point group                 C1      NOp   1
 Largest Abelian subgroup         C1      NOp   1
 Largest concise Abelian subgroup C1      NOp   1
                         Standard orientation:                         
 ---------------------------------------------------------------------
 Center     Atomic      Atomic             Coordinates (Angstroms)
 Number     Number       Type             X           Y           Z
 ---------------------------------------------------------------------
      1          6           0       -0.701183   -0.006716   -0.000063
      2          6           0        0.702845   -0.008675   -0.003423
      3          1           0       -1.226361   -0.870215    0.008664
      4          1           0       -1.235454    0.939441   -0.003778
      5          1           0        1.185846   -0.904428    0.002165
      6          1           0        1.266001    0.927549    0.013871
 ---------------------------------------------------------------------
 Rotational constants (GHZ):         151.0548281          28.2102108          23.7717856
 Standard basis: 6-31+G(d,p) (6D, 7F)
 There are    58 symmetry adapted cartesian basis functions of A   symmetry.
 There are    58 symmetry adapted basis functions of A   symmetry.
    58 basis functions,    92 primitive gaussians,    58 cartesian basis functions
     8 alpha electrons        8 beta electrons
       nuclear repulsion energy        32.9668836941 Hartrees.
 NAtoms=    6 NActive=    6 NUniq=    6 SFac= 1.00D+00 NAtFMM=   60 NAOKFM=F Big=F
 Integral buffers will be    131072 words long.
 Raffenetti 2 integral format.
 Two-electron integral symmetry is turned on.
 ------------------------------------------------------------------------------
 Polarizable Continuum Model (PCM)
 =================================
 Model                : PCM.
 Atomic radii         : UFF (Universal Force Field).
 Polarization charges : Total charges.
 Charge compensation  : None.
 Solution method      : On-the-fly selection.
 Cavity type          : Scaled VdW (van der Waals Surface) (Alpha=1.100).
 Cavity algorithm     : GePol (No added spheres)
                        Default sphere list used, NSphG=    6.
                        Lebedev-Laikov grids with approx.  5.0 points / Ang**2.
                        Smoothing algorithm: York/Karplus (Gamma=1.0000).
                        Polarization charges: spherical gaussians, with
                                              point-specific exponents (IZeta= 3).
                        Self-potential: point-specific (ISelfS= 7).
                        Self-field    : sphere-specific E.n sum rule (ISelfD= 2).
 Solvent              : Acetonitrile, Eps=  35.688000 Eps(inf)=   1.806874
 ------------------------------------------------------------------------------
 Spheres list:
 ISph  on   Nord     Re0    Alpha      Xe            Ye            Ze
    1   C      1    1.9255  1.100     -0.701183     -0.006716     -0.000063
    2   C      2    1.9255  1.100      0.702845     -0.008675     -0.003423
    3   H      3    1.4430  1.100     -1.226361     -0.870215      0.008664
    4   H      4    1.4430  1.100     -1.235454      0.939441     -0.003778
    5   H      5    1.4430  1.100      1.185846     -0.904428      0.002165
    6   H      6    1.4430  1.100      1.266001      0.927549      0.013871
 ------------------------------------------------------------------------------
 One-electron integrals computed using PRISM.
 NBasis=    58 RedAO= T EigKep=  2.91D-04  NBF=    58
 NBsUse=    58 1.00D-06 EigRej= -1.00D+00 NBFU=    58
 ExpMin= 4.38D-02 ExpMax= 3.05D+03 ExpMxC= 4.57D+02 IAcc=3 IRadAn=         5 AccDes= 0.00D+00
 Harris functional with IExCor=  402 and IRadAn=       5 diagonalized for initial guess.
 HarFok:  IExCor=  402 AccDes= 0.00D+00 IRadAn=         5 IDoV= 1 UseB2=F ITyADJ=14
 ICtDFT=  3500011 ScaDFX=  1.000000  1.000000  1.000000  1.000000
 FoFCou: FMM=F IPFlag=           0 FMFlag=      100000 FMFlg1=           0
         NFxFlg=           0 DoJE=T BraDBF=F KetDBF=T FulRan=T
         wScrn=  0.000000 ICntrl=       500 IOpCl=  0 I1Cent=   200000004 NGrid=           0
         NMat0=    1 NMatS0=      1 NMatT0=    0 NMatD0=    1 NMtDS0=    0 NMtDT0=    0
 Petite list used in FoFCou.
 Keep R1 ints in memory in canonical form, NReq=3224596.
 Requested convergence on RMS density matrix=1.00D-08 within 128 cycles.
 Requested convergence on MAX density matrix=1.00D-06.
 Requested convergence on             energy=1.00D-06.
 No special actions if energy rises.
 Inv3:  Mode=1 IEnd=     1175628.
 Iteration    1 A*A^-1 deviation from unit magnitude is 2.66D-15 for    624.
 Iteration    1 A*A^-1 deviation from orthogonality  is 1.60D-15 for    318    313.
 Iteration    1 A^-1*A deviation from unit magnitude is 2.89D-15 for    624.
 Iteration    1 A^-1*A deviation from orthogonality  is 1.23D-15 for    352    286.
 Error on total polarization charges =  0.01292
 SCF Done:  E(RB3LYP) =  -78.5884279873     A.U. after    9 cycles
            NFock=  9  Conv=0.35D-08     -V/T= 2.0103

 **********************************************************************

            Population analysis using the SCF density.

 **********************************************************************

 Orbital symmetries:
       Occupied  (A) (A) (A) (A) (A) (A) (A) (A)
       Virtual   (A) (A) (A) (A) (A) (A) (A) (A) (A) (A) (A) (A)
                 (A) (A) (A) (A) (A) (A) (A) (A) (A) (A) (A) (A)
                 (A) (A) (A) (A) (A) (A) (A) (A) (A) (A) (A) (A)
                 (A) (A) (A) (A) (A) (A) (A) (A) (A) (A) (A) (A)
                 (A) (A)
 The electronic state is 1-A.
 Alpha  occ. eigenvalues --  -10.19798 -10.19642  -0.75697  -0.59890  -0.47924
 Alpha  occ. eigenvalues --   -0.41312  -0.37813  -0.27022
 Alpha virt. eigenvalues --   -0.02345   0.02531   0.03683   0.05214   0.06704
 Alpha virt. eigenvalues --    0.08808   0.09067   0.12369   0.15976   0.18105
 Alpha virt. eigenvalues --    0.21869   0.25442   0.32268   0.35301   0.58539
 Alpha virt. eigenvalues --    0.63238   0.67775   0.71493   0.71637   0.81277
 Alpha virt. eigenvalues --    0.91770   0.92535   0.97908   1.02223   1.12853
 Alpha virt. eigenvalues --    1.19611   1.36930   1.38247   1.50037   1.86850
 Alpha virt. eigenvalues --    1.91213   1.96777   2.00575   2.09218   2.11341
 Alpha virt. eigenvalues --    2.25181   2.36660   2.50483   2.51557   2.56247
 Alpha virt. eigenvalues --    2.72321   2.76158   2.78377   3.01092   3.25125
 Alpha virt. eigenvalues --    3.46702   3.57681   3.78227   4.20124   4.49676
          Condensed to atoms (all electrons):
               1          2          3          4          5          6
     1  C    4.912841   0.659722   0.401453   0.390744  -0.034952  -0.029618
     2  C    0.659722   4.910463  -0.032581  -0.029852   0.400991   0.390895
     3  H    0.401453  -0.032581   0.520517  -0.035852  -0.007706   0.004031
     4  H    0.390744  -0.029852  -0.035852   0.528682   0.004340  -0.006854
     5  H   -0.034952   0.400991  -0.007706   0.004340   0.522948  -0.034415
     6  H   -0.029618   0.390895   0.004031  -0.006854  -0.034415   0.523861
 Mulliken charges:
               1
     1  C   -0.300190
     2  C   -0.299637
     3  H    0.150139
     4  H    0.148792
     5  H    0.148795
     6  H    0.152101
 Sum of Mulliken charges =  -0.00000
 Mulliken charges with hydrogens summed into heavy atoms:
               1
     1  C   -0.001258
     2  C    0.001258
 Electronic spatial extent (au):  <R**2>=             84.8094
 Charge=             -0.0000 electrons
 Dipole moment (field-independent basis, Debye):
    X=             -0.0076    Y=             -0.0426    Z=              0.0272  Tot=              0.0511
 Quadrupole moment (field-independent basis, Debye-Ang):
   XX=            -12.2590   YY=            -12.2287   ZZ=            -16.2271
   XY=              0.0839   XZ=              0.0170   YZ=             -0.0007
 Traceless Quadrupole moment (field-independent basis, Debye-Ang):
   XX=              1.3126   YY=              1.3429   ZZ=             -2.6555
   XY=              0.0839   XZ=              0.0170   YZ=             -0.0007
 Octapole moment (field-independent basis, Debye-Ang**2):
  XXX=             -0.1223  YYY=             -0.1879  ZZZ=              0.0576  XYY=              0.0428
  XXY=              0.0034  XXZ=              0.0634  XZZ=             -0.0262  YZZ=             -0.1433
  YYZ=              0.0369  XYZ=              0.0392
 Hexadecapole moment (field-independent basis, Debye-Ang**3):
 XXXX=            -72.4769 YYYY=            -26.9658 ZZZZ=            -23.8363 XXXY=              0.4341
 XXXZ=              0.0469 YYYX=              0.0608 YYYZ=             -0.0025 ZZZX=              0.0212
 ZZZY=             -0.0040 XXYY=            -13.9817 XXZZ=            -17.1660 YYZZ=             -9.1094
 XXYZ=              0.0013 YYXZ=              0.0261 ZZXY=              0.0269
 N-N= 3.296688369413D+01 E-N=-2.471695702687D+02  KE= 7.778654755667D+01
 1\1\GINC-NODE62\SP\RB3LYP\6-31+G(d,p)\C2H4\YANZ\22-Sep-2023\0\\# b3lyp
 /6-31+g(d,p) scrf=(iefpcm,solvent=acetonitrile)\\tmpdir/M2_ref_22.gjf\
 \0,1\C,0,5.450644,-1.554672,0.323793\C,0,5.053677,-2.721825,-0.34813\H
 ,0,4.77321411,-0.94731065,0.76392727\H,0,6.505451,-1.299006,0.375655\H
 ,0,4.06164046,-2.94594445,-0.38458635\H,0,5.79204506,-3.38892142,-0.79
 95207\\Version=ES64L-G16RevA.03\State=1-A\HF=-78.588428\RMSD=3.476e-09
 \Dipole=-0.014329,0.000352,0.0141\Quadrupole=0.9436932,0.2249769,-1.16
 86701,0.0715531,-0.2331769,1.3094331\PG=C01 [X(C2H4)]\\@


 FRICTION IS A DRAG,
 AND ENTROPY AIN'T WHAT IT USED TO BE.
 Job cpu time:       0 days  0 hours  0 minutes 13.9 seconds.
 Elapsed time:       0 days  0 hours  0 minutes  7.1 seconds.
 File lengths (MBytes):  RWF=     13 Int=      0 D2E=      0 Chk=      2 Scr=      1
 Normal termination of Gaussian 16 at Fri Sep 22 17:07:00 2023.
