 Entering Gaussian System, Link 0=g16
 Initial command:
 /share/apps/gaussian/g16/l1.exe "/tmp/55647.mgr/Gau-562.inp" -scrdir="/tmp/55647.mgr/"
 Entering Link 1 = /share/apps/gaussian/g16/l1.exe PID=       563.
  
 Copyright (c) 1988,1990,1992,1993,1995,1998,2003,2009,2016,
            Gaussian, Inc.  All Rights Reserved.
  
 This is part of the Gaussian(R) 16 program.  It is based on
 the Gaussian(R) 09 system (copyright 2009, Gaussian, Inc.),
 the Gaussian(R) 03 system (copyright 2003, Gaussian, Inc.),
 the Gaussian(R) 98 system (copyright 1998, Gaussian, Inc.),
 the Gaussian(R) 94 system (copyright 1995, Gaussian, Inc.),
 the Gaussian 92(TM) system (copyright 1992, Gaussian, Inc.),
 the Gaussian 90(TM) system (copyright 1990, Gaussian, Inc.),
 the Gaussian 88(TM) system (copyright 1988, Gaussian, Inc.),
 the Gaussian 86(TM) system (copyright 1986, Carnegie Mellon
 University), and the Gaussian 82(TM) system (copyright 1983,
 Carnegie Mellon University). Gaussian is a federally registered
 trademark of Gaussian, Inc.
  
 This software contains proprietary and confidential information,
 including trade secrets, belonging to Gaussian, Inc.
  
 This software is provided under written license and may be
 used, copied, transmitted, or stored only in accord with that
 written license.
  
 The following legend is applicable only to US Government
 contracts under FAR:
  
                    RESTRICTED RIGHTS LEGEND
  
 Use, reproduction and disclosure by the US Government is
 subject to restrictions as set forth in subparagraphs (a)
 and (c) of the Commercial Computer Software - Restricted
 Rights clause in FAR 52.227-19.
  
 Gaussian, Inc.
 340 Quinnipiac St., Bldg. 40, Wallingford CT 06492
  
  
 ---------------------------------------------------------------
 Warning -- This program may not be used in any manner that
 competes with the business of Gaussian, Inc. or will provide
 assistance to any competitor of Gaussian, Inc.  The licensee
 of this program is prohibited from giving any competitor of
 Gaussian, Inc. access to this program.  By using this program,
 the user acknowledges that Gaussian, Inc. is engaged in the
 business of creating and licensing software in the field of
 computational chemistry and represents and warrants to the
 licensee that it is not a competitor of Gaussian, Inc. and that
 it will not use this program in any manner prohibited above.
 ---------------------------------------------------------------
  

 Cite this work as:
 Gaussian 16, Revision A.03,
 M. J. Frisch, G. W. Trucks, H. B. Schlegel, G. E. Scuseria, 
 M. A. Robb, J. R. Cheeseman, G. Scalmani, V. Barone, 
 G. A. Petersson, H. Nakatsuji, X. Li, M. Caricato, A. V. Marenich, 
 J. Bloino, B. G. Janesko, R. Gomperts, B. Mennucci, H. P. Hratchian, 
 J. V. Ortiz, A. F. Izmaylov, J. L. Sonnenberg, D. Williams-Young, 
 F. Ding, F. Lipparini, F. Egidi, J. Goings, B. Peng, A. Petrone, 
 T. Henderson, D. Ranasinghe, V. G. Zakrzewski, J. Gao, N. Rega, 
 G. Zheng, W. Liang, M. Hada, M. Ehara, K. Toyota, R. Fukuda, 
 J. Hasegawa, M. Ishida, T. Nakajima, Y. Honda, O. Kitao, H. Nakai, 
 T. Vreven, K. Throssell, J. A. Montgomery, Jr., J. E. Peralta, 
 F. Ogliaro, M. J. Bearpark, J. J. Heyd, E. N. Brothers, K. N. Kudin, 
 V. N. Staroverov, T. A. Keith, R. Kobayashi, J. Normand, 
 K. Raghavachari, A. P. Rendell, J. C. Burant, S. S. Iyengar, 
 J. Tomasi, M. Cossi, J. M. Millam, M. Klene, C. Adamo, R. Cammi, 
 J. W. Ochterski, R. L. Martin, K. Morokuma, O. Farkas, 
 J. B. Foresman, and D. J. Fox, Gaussian, Inc., Wallingford CT, 2016.
 
 ******************************************
 Gaussian 16:  ES64L-G16RevA.03 25-Dec-2016
                22-Sep-2023 
 ******************************************
 %nprocshared=2
 Will use up to    2 processors via shared memory.
 %mem=2GB
 ------------------------------------------------------
 # b3lyp/6-31+g(d,p) scrf=(iefpcm,solvent=acetonitrile)
 ------------------------------------------------------
 1/38=1,172=1/1;
 2/12=2,17=6,18=5,40=1/2;
 3/5=1,6=6,7=111,11=2,25=1,30=1,70=2201,72=2,74=-5/1,2,3;
 4//1;
 5/5=2,38=5,53=2/2;
 6/7=2,8=2,9=2,10=2,28=1/1;
 99/5=1,9=1/99;
 --------------------
 tmpdir/M2_ref_51.gjf
 --------------------
 Symbolic Z-matrix:
 Charge =  0 Multiplicity = 1
 N                     1.2699    0.87148   0.31974 
 C                    -0.08266   0.72607  -0.02167 
 H                     1.66364   0.33343   1.14877 
 H                     1.90173   1.34223  -0.30756 
 H                    -0.79318   0.47943   0.73501 
 O                    -0.45728   0.92555  -1.18366 
 
                          Input orientation:                          
 ---------------------------------------------------------------------
 Center     Atomic      Atomic             Coordinates (Angstroms)
 Number     Number       Type             X           Y           Z
 ---------------------------------------------------------------------
      1          7           0        1.269902    0.871483    0.319741
      2          6           0       -0.082660    0.726067   -0.021667
      3          1           0        1.663637    0.333425    1.148773
      4          1           0        1.901732    1.342230   -0.307563
      5          1           0       -0.793182    0.479425    0.735005
      6          8           0       -0.457275    0.925551   -1.183663
 ---------------------------------------------------------------------
                    Distance matrix (angstroms):
                    1          2          3          4          5
     1  N    0.000000
     2  C    1.402544   0.000000
     3  H    1.063874   2.138610   0.000000
     4  H    1.007135   2.097428   1.787537   0.000000
     5  H    2.140670   1.066877   2.495692   3.015615   0.000000
     6  O    2.290478   1.237079   3.207669   2.550703   1.998287
                    6
     6  O    0.000000
 Stoichiometry    CH3NO
 Framework group  C1[X(CH3NO)]
 Deg. of freedom    12
 Full point group                 C1      NOp   1
 Largest Abelian subgroup         C1      NOp   1
 Largest concise Abelian subgroup C1      NOp   1
                         Standard orientation:                         
 ---------------------------------------------------------------------
 Center     Atomic      Atomic             Coordinates (Angstroms)
 Number     Number       Type             X           Y           Z
 ---------------------------------------------------------------------
      1          7           0        1.098686   -0.156321   -0.019027
      2          6           0       -0.175624    0.429467   -0.029716
      3          1           0        1.932369    0.404895    0.330026
      4          1           0        1.201462   -1.145742   -0.176521
      5          1           0       -0.268082    1.487230   -0.133707
      6          8           0       -1.187851   -0.278617    0.036460
 ---------------------------------------------------------------------
 Rotational constants (GHZ):          65.8877236          11.1879922           9.6329733
 Standard basis: 6-31+G(d,p) (6D, 7F)
 There are    72 symmetry adapted cartesian basis functions of A   symmetry.
 There are    72 symmetry adapted basis functions of A   symmetry.
    72 basis functions,   117 primitive gaussians,    72 cartesian basis functions
    12 alpha electrons       12 beta electrons
       nuclear repulsion energy        69.9633224917 Hartrees.
 NAtoms=    6 NActive=    6 NUniq=    6 SFac= 1.00D+00 NAtFMM=   60 NAOKFM=F Big=F
 Integral buffers will be    131072 words long.
 Raffenetti 2 integral format.
 Two-electron integral symmetry is turned on.
 ------------------------------------------------------------------------------
 Polarizable Continuum Model (PCM)
 =================================
 Model                : PCM.
 Atomic radii         : UFF (Universal Force Field).
 Polarization charges : Total charges.
 Charge compensation  : None.
 Solution method      : On-the-fly selection.
 Cavity type          : Scaled VdW (van der Waals Surface) (Alpha=1.100).
 Cavity algorithm     : GePol (No added spheres)
                        Default sphere list used, NSphG=    6.
                        Lebedev-Laikov grids with approx.  5.0 points / Ang**2.
                        Smoothing algorithm: York/Karplus (Gamma=1.0000).
                        Polarization charges: spherical gaussians, with
                                              point-specific exponents (IZeta= 3).
                        Self-potential: point-specific (ISelfS= 7).
                        Self-field    : sphere-specific E.n sum rule (ISelfD= 2).
 Solvent              : Acetonitrile, Eps=  35.688000 Eps(inf)=   1.806874
 ------------------------------------------------------------------------------
 Spheres list:
 ISph  on   Nord     Re0    Alpha      Xe            Ye            Ze
    1   N      1    1.8300  1.100      1.098686     -0.156321     -0.019027
    2   C      2    1.9255  1.100     -0.175624      0.429467     -0.029716
    3   H      3    1.4430  1.100      1.932369      0.404895      0.330026
    4   H      4    1.4430  1.100      1.201462     -1.145742     -0.176521
    5   H      5    1.4430  1.100     -0.268082      1.487230     -0.133707
    6   O      6    1.7500  1.100     -1.187851     -0.278617      0.036460
 ------------------------------------------------------------------------------
 One-electron integrals computed using PRISM.
 NBasis=    72 RedAO= T EigKep=  3.13D-03  NBF=    72
 NBsUse=    72 1.00D-06 EigRej= -1.00D+00 NBFU=    72
 ExpMin= 4.38D-02 ExpMax= 5.48D+03 ExpMxC= 8.25D+02 IAcc=3 IRadAn=         5 AccDes= 0.00D+00
 Harris functional with IExCor=  402 and IRadAn=       5 diagonalized for initial guess.
 HarFok:  IExCor=  402 AccDes= 0.00D+00 IRadAn=         5 IDoV= 1 UseB2=F ITyADJ=14
 ICtDFT=  3500011 ScaDFX=  1.000000  1.000000  1.000000  1.000000
 FoFCou: FMM=F IPFlag=           0 FMFlag=      100000 FMFlg1=           0
         NFxFlg=           0 DoJE=T BraDBF=F KetDBF=T FulRan=T
         wScrn=  0.000000 ICntrl=       500 IOpCl=  0 I1Cent=   200000004 NGrid=           0
         NMat0=    1 NMatS0=      1 NMatT0=    0 NMatD0=    1 NMtDS0=    0 NMtDT0=    0
 Petite list used in FoFCou.
 Keep R1 ints in memory in canonical form, NReq=5247406.
 Requested convergence on RMS density matrix=1.00D-08 within 128 cycles.
 Requested convergence on MAX density matrix=1.00D-06.
 Requested convergence on             energy=1.00D-06.
 No special actions if energy rises.
 Inv3:  Mode=1 IEnd=     1407675.
 Iteration    1 A*A^-1 deviation from unit magnitude is 2.89D-15 for    664.
 Iteration    1 A*A^-1 deviation from orthogonality  is 2.35D-15 for    664    277.
 Iteration    1 A^-1*A deviation from unit magnitude is 2.66D-15 for    664.
 Iteration    1 A^-1*A deviation from orthogonality  is 1.82D-15 for    658    140.
 Error on total polarization charges =  0.00991
 SCF Done:  E(RB3LYP) =  -169.911869697     A.U. after   10 cycles
            NFock= 10  Conv=0.96D-08     -V/T= 2.0106

 **********************************************************************

            Population analysis using the SCF density.

 **********************************************************************

 Orbital symmetries:
       Occupied  (A) (A) (A) (A) (A) (A) (A) (A) (A) (A) (A) (A)
       Virtual   (A) (A) (A) (A) (A) (A) (A) (A) (A) (A) (A) (A)
                 (A) (A) (A) (A) (A) (A) (A) (A) (A) (A) (A) (A)
                 (A) (A) (A) (A) (A) (A) (A) (A) (A) (A) (A) (A)
                 (A) (A) (A) (A) (A) (A) (A) (A) (A) (A) (A) (A)
                 (A) (A) (A) (A) (A) (A) (A) (A) (A) (A) (A) (A)
 The electronic state is 1-A.
 Alpha  occ. eigenvalues --  -19.14961 -14.37552 -10.31071  -1.04935  -0.89875
 Alpha  occ. eigenvalues --   -0.63443  -0.54196  -0.50308  -0.44035  -0.40533
 Alpha  occ. eigenvalues --   -0.28857  -0.27878
 Alpha virt. eigenvalues --   -0.01700   0.00846   0.03499   0.04119   0.06183
 Alpha virt. eigenvalues --    0.10350   0.10955   0.14403   0.16656   0.18638
 Alpha virt. eigenvalues --    0.20035   0.22319   0.23749   0.25525   0.27256
 Alpha virt. eigenvalues --    0.29810   0.32692   0.44030   0.64136   0.71850
 Alpha virt. eigenvalues --    0.74520   0.80469   0.87544   0.89066   0.93833
 Alpha virt. eigenvalues --    0.96205   1.04510   1.14705   1.19867   1.20963
 Alpha virt. eigenvalues --    1.25755   1.29623   1.38255   1.42806   1.48086
 Alpha virt. eigenvalues --    1.53385   1.76154   1.79667   1.83512   1.97447
 Alpha virt. eigenvalues --    2.03605   2.06117   2.06404   2.16254   2.27969
 Alpha virt. eigenvalues --    2.36552   2.48290   2.54317   2.57085   2.68226
 Alpha virt. eigenvalues --    2.76362   2.83233   2.99602   3.04202   3.25524
 Alpha virt. eigenvalues --    3.42446   3.62127   4.09424   4.13386   4.42452
          Condensed to atoms (all electrons):
               1          2          3          4          5          6
     1  N    6.948858   0.257502   0.296460   0.334635  -0.115210  -0.160550
     2  C    0.257502   4.603468   0.005442  -0.009479   0.436251   0.417890
     3  H    0.296460   0.005442   0.365671  -0.014913   0.003303   0.008594
     4  H    0.334635  -0.009479  -0.014913   0.343673   0.003358   0.003543
     5  H   -0.115210   0.436251   0.003303   0.003358   0.572168  -0.056420
     6  O   -0.160550   0.417890   0.008594   0.003543  -0.056420   8.345352
 Mulliken charges:
               1
     1  N   -0.561694
     2  C    0.288925
     3  H    0.335445
     4  H    0.339183
     5  H    0.156550
     6  O   -0.558409
 Sum of Mulliken charges =   0.00000
 Mulliken charges with hydrogens summed into heavy atoms:
               1
     1  N    0.112934
     2  C    0.445475
     6  O   -0.558409
 Electronic spatial extent (au):  <R**2>=            149.8112
 Charge=              0.0000 electrons
 Dipole moment (field-independent basis, Debye):
    X=              4.5797    Y=              1.5546    Z=              0.1641  Tot=              4.8392
 Quadrupole moment (field-independent basis, Debye-Ang):
   XX=            -18.6972   YY=            -15.0938   ZZ=            -19.1190
   XY=             -1.8692   XZ=              1.2175   YZ=              0.7611
 Traceless Quadrupole moment (field-independent basis, Debye-Ang):
   XX=             -1.0605   YY=              2.5429   ZZ=             -1.4824
   XY=             -1.8692   XZ=              1.2175   YZ=              0.7611
 Octapole moment (field-independent basis, Debye-Ang**2):
  XXX=             16.2995  YYY=             -0.1098  ZZZ=              0.4046  XYY=              3.2463
  XXY=              1.3530  XXZ=              2.4816  XZZ=             -0.7527  YZZ=              0.1772
  YYZ=             -0.6093  XYZ=              1.2353
 Hexadecapole moment (field-independent basis, Debye-Ang**3):
 XXXX=           -118.3855 YYYY=            -33.9636 ZZZZ=            -20.6132 XXXY=              1.2961
 XXXZ=              5.6570 YYYX=             -5.0296 YYYZ=              0.8988 ZZZX=              0.9802
 ZZZY=              0.6454 XXYY=            -24.3413 XXZZ=            -26.2828 YYZZ=            -10.1368
 XXYZ=              2.0079 YYXZ=             -0.0165 ZZXY=              0.0740
 N-N= 6.996332249173D+01 E-N=-5.374416133866D+02  KE= 1.681261979847D+02
 1\1\GINC-NODE62\SP\RB3LYP\6-31+G(d,p)\C1H3N1O1\YANZ\22-Sep-2023\0\\# b
 3lyp/6-31+g(d,p) scrf=(iefpcm,solvent=acetonitrile)\\tmpdir/M2_ref_51.
 gjf\\0,1\N,0,1.269902,0.871483,0.319741\C,0,-0.08266,0.726067,-0.02166
 7\H,0,1.66363747,0.33342543,1.14877347\H,0,1.90173155,1.34222987,-0.30
 756253\H,0,-0.79318162,0.47942529,0.73500524\O,0,-0.457275,0.925551,-1
 .183663\\Version=ES64L-G16RevA.03\State=1-A\HF=-169.9118697\RMSD=9.562
 e-09\Dipole=1.0790307,-0.3141096,1.5368245\Quadrupole=1.5422247,-0.404
 7928,-1.1374319,0.5039727,-1.3970818,-1.2854132\PG=C01 [X(C1H3N1O1)]\\
 @


 IF I AM NOT FOR MYSELF, WHO WILL BE?
 BUT IF I AM ONLY FOR MYSELF, WHAT AM I?
 THOUGH A SEEKER SINCE MY BIRTH,
 HERE IS ALL I'VE LEARNED ON EARTH,
 THIS IS THE GIST OF WHAT I KNOW:
 GIVE ADVICE AND BUY A FOE.

 PRESSED FOR RULES AND VERITIES,
 ALL I RECOLLECT ARE THESE:
 FEED A COLD TO STARVE A FEVER,
 ARGUE WITH NO TRUE-BELIEVER.
 THINK-TOO-LONG IS NEVER-ACT,
 SCRATCH A MYTH AND FIND A FACT.

 STITCH IN TIME SAVES TWENTY STITCHES,
 GIVE THE RICH TO PLEASE THEM, RICHES.
 GIVE TO LOVE YOU HEARTH AND HALL,
 BUT DO NOT GIVE ADVICE AT ALL.

                                  -- HILLEL
 Job cpu time:       0 days  0 hours  0 minutes 18.9 seconds.
 Elapsed time:       0 days  0 hours  0 minutes  9.6 seconds.
 File lengths (MBytes):  RWF=     15 Int=      0 D2E=      0 Chk=      2 Scr=      1
 Normal termination of Gaussian 16 at Fri Sep 22 17:07:33 2023.
