 Entering Gaussian System, Link 0=g16
 Initial command:
 /share/apps/gaussian/g16/l1.exe "/tmp/55647.mgr/Gau-1847.inp" -scrdir="/tmp/55647.mgr/"
 Entering Link 1 = /share/apps/gaussian/g16/l1.exe PID=      1848.
  
 Copyright (c) 1988,1990,1992,1993,1995,1998,2003,2009,2016,
            Gaussian, Inc.  All Rights Reserved.
  
 This is part of the Gaussian(R) 16 program.  It is based on
 the Gaussian(R) 09 system (copyright 2009, Gaussian, Inc.),
 the Gaussian(R) 03 system (copyright 2003, Gaussian, Inc.),
 the Gaussian(R) 98 system (copyright 1998, Gaussian, Inc.),
 the Gaussian(R) 94 system (copyright 1995, Gaussian, Inc.),
 the Gaussian 92(TM) system (copyright 1992, Gaussian, Inc.),
 the Gaussian 90(TM) system (copyright 1990, Gaussian, Inc.),
 the Gaussian 88(TM) system (copyright 1988, Gaussian, Inc.),
 the Gaussian 86(TM) system (copyright 1986, Carnegie Mellon
 University), and the Gaussian 82(TM) system (copyright 1983,
 Carnegie Mellon University). Gaussian is a federally registered
 trademark of Gaussian, Inc.
  
 This software contains proprietary and confidential information,
 including trade secrets, belonging to Gaussian, Inc.
  
 This software is provided under written license and may be
 used, copied, transmitted, or stored only in accord with that
 written license.
  
 The following legend is applicable only to US Government
 contracts under FAR:
  
                    RESTRICTED RIGHTS LEGEND
  
 Use, reproduction and disclosure by the US Government is
 subject to restrictions as set forth in subparagraphs (a)
 and (c) of the Commercial Computer Software - Restricted
 Rights clause in FAR 52.227-19.
  
 Gaussian, Inc.
 340 Quinnipiac St., Bldg. 40, Wallingford CT 06492
  
  
 ---------------------------------------------------------------
 Warning -- This program may not be used in any manner that
 competes with the business of Gaussian, Inc. or will provide
 assistance to any competitor of Gaussian, Inc.  The licensee
 of this program is prohibited from giving any competitor of
 Gaussian, Inc. access to this program.  By using this program,
 the user acknowledges that Gaussian, Inc. is engaged in the
 business of creating and licensing software in the field of
 computational chemistry and represents and warrants to the
 licensee that it is not a competitor of Gaussian, Inc. and that
 it will not use this program in any manner prohibited above.
 ---------------------------------------------------------------
  

 Cite this work as:
 Gaussian 16, Revision A.03,
 M. J. Frisch, G. W. Trucks, H. B. Schlegel, G. E. Scuseria, 
 M. A. Robb, J. R. Cheeseman, G. Scalmani, V. Barone, 
 G. A. Petersson, H. Nakatsuji, X. Li, M. Caricato, A. V. Marenich, 
 J. Bloino, B. G. Janesko, R. Gomperts, B. Mennucci, H. P. Hratchian, 
 J. V. Ortiz, A. F. Izmaylov, J. L. Sonnenberg, D. Williams-Young, 
 F. Ding, F. Lipparini, F. Egidi, J. Goings, B. Peng, A. Petrone, 
 T. Henderson, D. Ranasinghe, V. G. Zakrzewski, J. Gao, N. Rega, 
 G. Zheng, W. Liang, M. Hada, M. Ehara, K. Toyota, R. Fukuda, 
 J. Hasegawa, M. Ishida, T. Nakajima, Y. Honda, O. Kitao, H. Nakai, 
 T. Vreven, K. Throssell, J. A. Montgomery, Jr., J. E. Peralta, 
 F. Ogliaro, M. J. Bearpark, J. J. Heyd, E. N. Brothers, K. N. Kudin, 
 V. N. Staroverov, T. A. Keith, R. Kobayashi, J. Normand, 
 K. Raghavachari, A. P. Rendell, J. C. Burant, S. S. Iyengar, 
 J. Tomasi, M. Cossi, J. M. Millam, M. Klene, C. Adamo, R. Cammi, 
 J. W. Ochterski, R. L. Martin, K. Morokuma, O. Farkas, 
 J. B. Foresman, and D. J. Fox, Gaussian, Inc., Wallingford CT, 2016.
 
 ******************************************
 Gaussian 16:  ES64L-G16RevA.03 25-Dec-2016
                22-Sep-2023 
 ******************************************
 %nprocshared=2
 Will use up to    2 processors via shared memory.
 %mem=2GB
 ------------------------------------------------------
 # b3lyp/6-31+g(d,p) scrf=(iefpcm,solvent=acetonitrile)
 ------------------------------------------------------
 1/38=1,172=1/1;
 2/12=2,17=6,18=5,40=1/2;
 3/5=1,6=6,7=111,11=2,25=1,30=1,70=2201,72=2,74=-5/1,2,3;
 4//1;
 5/5=2,38=5,53=2/2;
 6/7=2,8=2,9=2,10=2,28=1/1;
 99/5=1,9=1/99;
 ---------------------
 tmpdir/M2_ref_136.gjf
 ---------------------
 Symbolic Z-matrix:
 Charge =  0 Multiplicity = 1
 C                    -6.71704  -2.05367  -0.19243 
 H                    -7.31484  -2.76337   0.37042 
 O                    -5.90372  -1.34089   0.39643 
 H                    -6.82983  -1.97447  -1.19561 
 
                          Input orientation:                          
 ---------------------------------------------------------------------
 Center     Atomic      Atomic             Coordinates (Angstroms)
 Number     Number       Type             X           Y           Z
 ---------------------------------------------------------------------
      1          6           0       -6.717039   -2.053667   -0.192430
      2          1           0       -7.314841   -2.763369    0.370420
      3          8           0       -5.903716   -1.340888    0.396430
      4          1           0       -6.829833   -1.974468   -1.195614
 ---------------------------------------------------------------------
                    Distance matrix (angstroms):
                    1          2          3          4
     1  C    0.000000
     2  H    1.085285   0.000000
     3  O    1.231383   2.003847   0.000000
     4  H    1.012608   1.819357   1.947748   0.000000
 Stoichiometry    CH2O
 Framework group  C1[X(CH2O)]
 Deg. of freedom     6
 Full point group                 C1      NOp   1
 Largest Abelian subgroup         C1      NOp   1
 Largest concise Abelian subgroup C1      NOp   1
                         Standard orientation:                         
 ---------------------------------------------------------------------
 Center     Atomic      Atomic             Coordinates (Angstroms)
 Number     Number       Type             X           Y           Z
 ---------------------------------------------------------------------
      1          6           0        0.550249   -0.012978   -0.000606
      2          1           0        1.101670    0.921782    0.001230
      3          8           0       -0.680978    0.006596    0.000135
      4          1           0        1.044656   -0.896682    0.001325
 ---------------------------------------------------------------------
 Rotational constants (GHZ):         302.8377648          38.2179999          33.9354028
 Standard basis: 6-31+G(d,p) (6D, 7F)
 There are    48 symmetry adapted cartesian basis functions of A   symmetry.
 There are    48 symmetry adapted basis functions of A   symmetry.
    48 basis functions,    78 primitive gaussians,    48 cartesian basis functions
     8 alpha electrons        8 beta electrons
       nuclear repulsion energy        31.2657131435 Hartrees.
 NAtoms=    4 NActive=    4 NUniq=    4 SFac= 1.00D+00 NAtFMM=   60 NAOKFM=F Big=F
 Integral buffers will be    131072 words long.
 Raffenetti 2 integral format.
 Two-electron integral symmetry is turned on.
 ------------------------------------------------------------------------------
 Polarizable Continuum Model (PCM)
 =================================
 Model                : PCM.
 Atomic radii         : UFF (Universal Force Field).
 Polarization charges : Total charges.
 Charge compensation  : None.
 Solution method      : On-the-fly selection.
 Cavity type          : Scaled VdW (van der Waals Surface) (Alpha=1.100).
 Cavity algorithm     : GePol (No added spheres)
                        Default sphere list used, NSphG=    4.
                        Lebedev-Laikov grids with approx.  5.0 points / Ang**2.
                        Smoothing algorithm: York/Karplus (Gamma=1.0000).
                        Polarization charges: spherical gaussians, with
                                              point-specific exponents (IZeta= 3).
                        Self-potential: point-specific (ISelfS= 7).
                        Self-field    : sphere-specific E.n sum rule (ISelfD= 2).
 Solvent              : Acetonitrile, Eps=  35.688000 Eps(inf)=   1.806874
 ------------------------------------------------------------------------------
 Spheres list:
 ISph  on   Nord     Re0    Alpha      Xe            Ye            Ze
    1   C      1    1.9255  1.100      0.550249     -0.012978     -0.000606
    2   H      2    1.4430  1.100      1.101670      0.921782      0.001230
    3   O      3    1.7500  1.100     -0.680978      0.006596      0.000135
    4   H      4    1.4430  1.100      1.044656     -0.896682      0.001325
 ------------------------------------------------------------------------------
 One-electron integrals computed using PRISM.
 NBasis=    48 RedAO= T EigKep=  6.27D-03  NBF=    48
 NBsUse=    48 1.00D-06 EigRej= -1.00D+00 NBFU=    48
 ExpMin= 4.38D-02 ExpMax= 5.48D+03 ExpMxC= 8.25D+02 IAcc=3 IRadAn=         5 AccDes= 0.00D+00
 Harris functional with IExCor=  402 and IRadAn=       5 diagonalized for initial guess.
 HarFok:  IExCor=  402 AccDes= 0.00D+00 IRadAn=         5 IDoV= 1 UseB2=F ITyADJ=14
 ICtDFT=  3500011 ScaDFX=  1.000000  1.000000  1.000000  1.000000
 FoFCou: FMM=F IPFlag=           0 FMFlag=      100000 FMFlg1=           0
         NFxFlg=           0 DoJE=T BraDBF=F KetDBF=T FulRan=T
         wScrn=  0.000000 ICntrl=       500 IOpCl=  0 I1Cent=   200000004 NGrid=           0
         NMat0=    1 NMatS0=      1 NMatT0=    0 NMatD0=    1 NMtDS0=    0 NMtDT0=    0
 Petite list used in FoFCou.
 Keep R1 ints in memory in canonical form, NReq=2434982.
 Requested convergence on RMS density matrix=1.00D-08 within 128 cycles.
 Requested convergence on MAX density matrix=1.00D-06.
 Requested convergence on             energy=1.00D-06.
 No special actions if energy rises.
 Inv3:  Mode=1 IEnd=      817452.
 Iteration    1 A*A^-1 deviation from unit magnitude is 3.11D-15 for    520.
 Iteration    1 A*A^-1 deviation from orthogonality  is 2.04D-15 for    422     34.
 Iteration    1 A^-1*A deviation from unit magnitude is 2.89D-15 for    520.
 Iteration    1 A^-1*A deviation from orthogonality  is 7.91D-16 for    402     54.
 Error on total polarization charges =  0.00688
 SCF Done:  E(RB3LYP) =  -114.510953959     A.U. after    9 cycles
            NFock=  9  Conv=0.37D-08     -V/T= 2.0085

 **********************************************************************

            Population analysis using the SCF density.

 **********************************************************************

 Orbital symmetries:
       Occupied  (A) (A) (A) (A) (A) (A) (A) (A)
       Virtual   (A) (A) (A) (A) (A) (A) (A) (A) (A) (A) (A) (A)
                 (A) (A) (A) (A) (A) (A) (A) (A) (A) (A) (A) (A)
                 (A) (A) (A) (A) (A) (A) (A) (A) (A) (A) (A) (A)
                 (A) (A) (A) (A)
 The electronic state is 1-A.
 Alpha  occ. eigenvalues --  -19.18354 -10.28833  -1.06199  -0.65654  -0.51444
 Alpha  occ. eigenvalues --   -0.46028  -0.40420  -0.28304
 Alpha virt. eigenvalues --   -0.06487   0.02132   0.04273   0.05278   0.07330
 Alpha virt. eigenvalues --    0.16929   0.19458   0.20751   0.21415   0.25976
 Alpha virt. eigenvalues --    0.27439   0.35609   0.63227   0.66109   0.72552
 Alpha virt. eigenvalues --    0.90876   0.94558   1.02572   1.16884   1.17300
 Alpha virt. eigenvalues --    1.21189   1.35457   1.45605   1.49359   1.68747
 Alpha virt. eigenvalues --    1.79864   1.85880   2.00089   2.04840   2.18021
 Alpha virt. eigenvalues --    2.26593   2.57717   2.63357   2.80484   2.87026
 Alpha virt. eigenvalues --    2.94879   3.43406   3.62258   4.03687   4.39254
          Condensed to atoms (all electrons):
               1          2          3          4
     1  C    4.698826   0.393808   0.386685   0.394672
     2  H    0.393808   0.609446  -0.071448  -0.072310
     3  O    0.386685  -0.071448   8.167516  -0.069066
     4  H    0.394672  -0.072310  -0.069066   0.599530
 Mulliken charges:
               1
     1  C    0.126009
     2  H    0.140504
     3  O   -0.413687
     4  H    0.147174
 Sum of Mulliken charges =   0.00000
 Mulliken charges with hydrogens summed into heavy atoms:
               1
     1  C    0.413687
     3  O   -0.413687
 Electronic spatial extent (au):  <R**2>=             60.2433
 Charge=              0.0000 electrons
 Dipole moment (field-independent basis, Debye):
    X=              3.2557    Y=             -0.0939    Z=              0.0005  Tot=              3.2571
 Quadrupole moment (field-independent basis, Debye-Ang):
   XX=            -12.2947   YY=            -11.4714   ZZ=            -11.6973
   XY=             -0.0415   XZ=              0.0013   YZ=              0.0001
 Traceless Quadrupole moment (field-independent basis, Debye-Ang):
   XX=             -0.4736   YY=              0.3497   ZZ=              0.1239
   XY=             -0.0415   XZ=              0.0013   YZ=              0.0001
 Octapole moment (field-independent basis, Debye-Ang**2):
  XXX=              1.5698  YYY=             -0.1955  ZZZ=              0.0016  XYY=              1.3498
  XXY=             -0.0726  XXZ=              0.0034  XZZ=             -0.0809  YZZ=             -0.0891
  YYZ=              0.0034  XYZ=              0.0000
 Hexadecapole moment (field-independent basis, Debye-Ang**3):
 XXXX=            -46.2738 YYYY=            -17.3185 ZZZZ=            -10.7252 XXXY=             -0.2362
 XXXZ=              0.0034 YYYX=             -0.1621 YYYZ=             -0.0001 ZZZX=             -0.0001
 ZZZY=             -0.0001 XXYY=            -10.3306 XXZZ=             -9.4736 YYZZ=             -4.9730
 XXYZ=              0.0002 YYXZ=              0.0033 ZZXY=             -0.1067
 N-N= 3.126571314345D+01 E-N=-3.308852877230D+02  KE= 1.135432463870D+02
 1\1\GINC-NODE62\SP\RB3LYP\6-31+G(d,p)\C1H2O1\YANZ\22-Sep-2023\0\\# b3l
 yp/6-31+g(d,p) scrf=(iefpcm,solvent=acetonitrile)\\tmpdir/M2_ref_136.g
 jf\\0,1\C,0,-6.717039,-2.053667,-0.19243\H,0,-7.314841,-2.763369,0.370
 42\O,0,-5.90371562,-1.3408884,0.39642954\H,0,-6.82983347,-1.97446808,-
 1.19561438\\Version=ES64L-G16RevA.03\State=1-A\HF=-114.510954\RMSD=3.7
 32e-09\Dipole=-0.8427263,-0.733962,-0.6270216\Quadrupole=-0.1032889,-0
 .0468016,0.1500904,-0.1686555,-0.1586827,-0.1722487\PG=C01 [X(C1H2O1)]
 \\@


 EXPERIENCE IS A WONDERFUL THING.  IT ENABLES
 YOU TO RECOGNIZE A MISTAKE WHEN YOU MAKE IT AGAIN.
           - BACK OF A SUGAR PACKET
 Job cpu time:       0 days  0 hours  0 minutes  8.4 seconds.
 Elapsed time:       0 days  0 hours  0 minutes  4.3 seconds.
 File lengths (MBytes):  RWF=     11 Int=      0 D2E=      0 Chk=      1 Scr=      1
 Normal termination of Gaussian 16 at Fri Sep 22 17:09:18 2023.
