 Entering Gaussian System, Link 0=g16
 Initial command:
 /share/apps/gaussian/g16/l1.exe "/tmp/55647.mgr/Gau-937.inp" -scrdir="/tmp/55647.mgr/"
 Entering Link 1 = /share/apps/gaussian/g16/l1.exe PID=       938.
  
 Copyright (c) 1988,1990,1992,1993,1995,1998,2003,2009,2016,
            Gaussian, Inc.  All Rights Reserved.
  
 This is part of the Gaussian(R) 16 program.  It is based on
 the Gaussian(R) 09 system (copyright 2009, Gaussian, Inc.),
 the Gaussian(R) 03 system (copyright 2003, Gaussian, Inc.),
 the Gaussian(R) 98 system (copyright 1998, Gaussian, Inc.),
 the Gaussian(R) 94 system (copyright 1995, Gaussian, Inc.),
 the Gaussian 92(TM) system (copyright 1992, Gaussian, Inc.),
 the Gaussian 90(TM) system (copyright 1990, Gaussian, Inc.),
 the Gaussian 88(TM) system (copyright 1988, Gaussian, Inc.),
 the Gaussian 86(TM) system (copyright 1986, Carnegie Mellon
 University), and the Gaussian 82(TM) system (copyright 1983,
 Carnegie Mellon University). Gaussian is a federally registered
 trademark of Gaussian, Inc.
  
 This software contains proprietary and confidential information,
 including trade secrets, belonging to Gaussian, Inc.
  
 This software is provided under written license and may be
 used, copied, transmitted, or stored only in accord with that
 written license.
  
 The following legend is applicable only to US Government
 contracts under FAR:
  
                    RESTRICTED RIGHTS LEGEND
  
 Use, reproduction and disclosure by the US Government is
 subject to restrictions as set forth in subparagraphs (a)
 and (c) of the Commercial Computer Software - Restricted
 Rights clause in FAR 52.227-19.
  
 Gaussian, Inc.
 340 Quinnipiac St., Bldg. 40, Wallingford CT 06492
  
  
 ---------------------------------------------------------------
 Warning -- This program may not be used in any manner that
 competes with the business of Gaussian, Inc. or will provide
 assistance to any competitor of Gaussian, Inc.  The licensee
 of this program is prohibited from giving any competitor of
 Gaussian, Inc. access to this program.  By using this program,
 the user acknowledges that Gaussian, Inc. is engaged in the
 business of creating and licensing software in the field of
 computational chemistry and represents and warrants to the
 licensee that it is not a competitor of Gaussian, Inc. and that
 it will not use this program in any manner prohibited above.
 ---------------------------------------------------------------
  

 Cite this work as:
 Gaussian 16, Revision A.03,
 M. J. Frisch, G. W. Trucks, H. B. Schlegel, G. E. Scuseria, 
 M. A. Robb, J. R. Cheeseman, G. Scalmani, V. Barone, 
 G. A. Petersson, H. Nakatsuji, X. Li, M. Caricato, A. V. Marenich, 
 J. Bloino, B. G. Janesko, R. Gomperts, B. Mennucci, H. P. Hratchian, 
 J. V. Ortiz, A. F. Izmaylov, J. L. Sonnenberg, D. Williams-Young, 
 F. Ding, F. Lipparini, F. Egidi, J. Goings, B. Peng, A. Petrone, 
 T. Henderson, D. Ranasinghe, V. G. Zakrzewski, J. Gao, N. Rega, 
 G. Zheng, W. Liang, M. Hada, M. Ehara, K. Toyota, R. Fukuda, 
 J. Hasegawa, M. Ishida, T. Nakajima, Y. Honda, O. Kitao, H. Nakai, 
 T. Vreven, K. Throssell, J. A. Montgomery, Jr., J. E. Peralta, 
 F. Ogliaro, M. J. Bearpark, J. J. Heyd, E. N. Brothers, K. N. Kudin, 
 V. N. Staroverov, T. A. Keith, R. Kobayashi, J. Normand, 
 K. Raghavachari, A. P. Rendell, J. C. Burant, S. S. Iyengar, 
 J. Tomasi, M. Cossi, J. M. Millam, M. Klene, C. Adamo, R. Cammi, 
 J. W. Ochterski, R. L. Martin, K. Morokuma, O. Farkas, 
 J. B. Foresman, and D. J. Fox, Gaussian, Inc., Wallingford CT, 2016.
 
 ******************************************
 Gaussian 16:  ES64L-G16RevA.03 25-Dec-2016
                22-Sep-2023 
 ******************************************
 %nprocshared=2
 Will use up to    2 processors via shared memory.
 %mem=2GB
 ------------------------------------------------------
 # b3lyp/6-31+g(d,p) scrf=(iefpcm,solvent=acetonitrile)
 ------------------------------------------------------
 1/38=1,172=1/1;
 2/12=2,17=6,18=5,40=1/2;
 3/5=1,6=6,7=111,11=2,25=1,30=1,70=2201,72=2,74=-5/1,2,3;
 4//1;
 5/5=2,38=5,53=2/2;
 6/7=2,8=2,9=2,10=2,28=1/1;
 99/5=1,9=1/99;
 --------------------
 tmpdir/M2_ref_78.gjf
 --------------------
 Symbolic Z-matrix:
 Charge =  0 Multiplicity = 1
 C                     2.58085   0.94662  -1.77545 
 C                     3.463     1.62538  -2.61765 
 H                     3.77392   1.1665   -3.55134 
 O                     2.22064   1.4731   -0.71814 
 H                     2.20392  -0.03358  -2.0441 
 O                     3.88939   2.74     -2.30286 
 
                          Input orientation:                          
 ---------------------------------------------------------------------
 Center     Atomic      Atomic             Coordinates (Angstroms)
 Number     Number       Type             X           Y           Z
 ---------------------------------------------------------------------
      1          6           0        2.580847    0.946621   -1.775450
      2          6           0        3.462995    1.625383   -2.617646
      3          1           0        3.773922    1.166503   -3.551336
      4          8           0        2.220641    1.473101   -0.718141
      5          1           0        2.203919   -0.033582   -2.044101
      6          8           0        3.889392    2.740000   -2.302863
 ---------------------------------------------------------------------
                    Distance matrix (angstroms):
                    1          2          3          4          5
     1  C    0.000000
     2  C    1.395778   0.000000
     3  H    2.150709   1.085828   0.000000
     4  O    1.234841   2.274808   3.245563   0.000000
     5  H    1.083995   2.160183   2.485331   2.007123   0.000000
     6  O    2.281812   1.234210   2.011942   2.626996   3.255847
                    6
     6  O    0.000000
 Stoichiometry    C2H2O2
 Framework group  C1[X(C2H2O2)]
 Deg. of freedom    12
 Full point group                 C1      NOp   1
 Largest Abelian subgroup         C1      NOp   1
 Largest concise Abelian subgroup C1      NOp   1
                         Standard orientation:                         
 ---------------------------------------------------------------------
 Center     Atomic      Atomic             Coordinates (Angstroms)
 Number     Number       Type             X           Y           Z
 ---------------------------------------------------------------------
      1          6           0       -0.700186    0.508647   -0.002773
      2          6           0        0.695585    0.507659    0.001708
      3          1           0        1.232978    1.451170    0.005971
      4          8           0       -1.310560   -0.564784    0.001582
      5          1           0       -1.252320    1.441489   -0.002549
      6          8           0        1.316428   -0.559028   -0.001211
 ---------------------------------------------------------------------
 Rotational constants (GHZ):          24.8059886           7.2203811           5.5925666
 Standard basis: 6-31+G(d,p) (6D, 7F)
 There are    86 symmetry adapted cartesian basis functions of A   symmetry.
 There are    86 symmetry adapted basis functions of A   symmetry.
    86 basis functions,   142 primitive gaussians,    86 cartesian basis functions
    15 alpha electrons       15 beta electrons
       nuclear repulsion energy       105.8186892790 Hartrees.
 NAtoms=    6 NActive=    6 NUniq=    6 SFac= 1.00D+00 NAtFMM=   60 NAOKFM=F Big=F
 Integral buffers will be    131072 words long.
 Raffenetti 2 integral format.
 Two-electron integral symmetry is turned on.
 ------------------------------------------------------------------------------
 Polarizable Continuum Model (PCM)
 =================================
 Model                : PCM.
 Atomic radii         : UFF (Universal Force Field).
 Polarization charges : Total charges.
 Charge compensation  : None.
 Solution method      : On-the-fly selection.
 Cavity type          : Scaled VdW (van der Waals Surface) (Alpha=1.100).
 Cavity algorithm     : GePol (No added spheres)
                        Default sphere list used, NSphG=    6.
                        Lebedev-Laikov grids with approx.  5.0 points / Ang**2.
                        Smoothing algorithm: York/Karplus (Gamma=1.0000).
                        Polarization charges: spherical gaussians, with
                                              point-specific exponents (IZeta= 3).
                        Self-potential: point-specific (ISelfS= 7).
                        Self-field    : sphere-specific E.n sum rule (ISelfD= 2).
 Solvent              : Acetonitrile, Eps=  35.688000 Eps(inf)=   1.806874
 ------------------------------------------------------------------------------
 Spheres list:
 ISph  on   Nord     Re0    Alpha      Xe            Ye            Ze
    1   C      1    1.9255  1.100     -0.700186      0.508647     -0.002773
    2   C      2    1.9255  1.100      0.695585      0.507659      0.001708
    3   H      3    1.4430  1.100      1.232978      1.451170      0.005971
    4   O      4    1.7500  1.100     -1.310560     -0.564784      0.001582
    5   H      5    1.4430  1.100     -1.252320      1.441489     -0.002549
    6   O      6    1.7500  1.100      1.316428     -0.559028     -0.001211
 ------------------------------------------------------------------------------
 One-electron integrals computed using PRISM.
 NBasis=    86 RedAO= T EigKep=  1.30D-04  NBF=    86
 NBsUse=    86 1.00D-06 EigRej= -1.00D+00 NBFU=    86
 ExpMin= 4.38D-02 ExpMax= 5.48D+03 ExpMxC= 8.25D+02 IAcc=3 IRadAn=         5 AccDes= 0.00D+00
 Harris functional with IExCor=  402 and IRadAn=       5 diagonalized for initial guess.
 HarFok:  IExCor=  402 AccDes= 0.00D+00 IRadAn=         5 IDoV= 1 UseB2=F ITyADJ=14
 ICtDFT=  3500011 ScaDFX=  1.000000  1.000000  1.000000  1.000000
 FoFCou: FMM=F IPFlag=           0 FMFlag=      100000 FMFlg1=           0
         NFxFlg=           0 DoJE=T BraDBF=F KetDBF=T FulRan=T
         wScrn=  0.000000 ICntrl=       500 IOpCl=  0 I1Cent=   200000004 NGrid=           0
         NMat0=    1 NMatS0=      1 NMatT0=    0 NMatD0=    1 NMtDS0=    0 NMtDT0=    0
 Petite list used in FoFCou.
 Keep R1 ints in memory in canonical form, NReq=8817431.
 Requested convergence on RMS density matrix=1.00D-08 within 128 cycles.
 Requested convergence on MAX density matrix=1.00D-06.
 Requested convergence on             energy=1.00D-06.
 No special actions if energy rises.
 Inv3:  Mode=1 IEnd=     1683003.
 Iteration    1 A*A^-1 deviation from unit magnitude is 3.00D-15 for     36.
 Iteration    1 A*A^-1 deviation from orthogonality  is 2.56D-15 for    639    466.
 Iteration    1 A^-1*A deviation from unit magnitude is 2.55D-15 for    726.
 Iteration    1 A^-1*A deviation from orthogonality  is 3.04D-15 for    711    346.
 Error on total polarization charges =  0.00781
 SCF Done:  E(RB3LYP) =  -227.825332826     A.U. after   11 cycles
            NFock= 11  Conv=0.23D-08     -V/T= 2.0084

 **********************************************************************

            Population analysis using the SCF density.

 **********************************************************************

 Orbital symmetries:
       Occupied  (A) (A) (A) (A) (A) (A) (A) (A) (A) (A) (A) (A)
                 (A) (A) (A)
       Virtual   (A) (A) (A) (A) (A) (A) (A) (A) (A) (A) (A) (A)
                 (A) (A) (A) (A) (A) (A) (A) (A) (A) (A) (A) (A)
                 (A) (A) (A) (A) (A) (A) (A) (A) (A) (A) (A) (A)
                 (A) (A) (A) (A) (A) (A) (A) (A) (A) (A) (A) (A)
                 (A) (A) (A) (A) (A) (A) (A) (A) (A) (A) (A) (A)
                 (A) (A) (A) (A) (A) (A) (A) (A) (A) (A) (A)
 The electronic state is 1-A.
 Alpha  occ. eigenvalues --  -19.20209 -19.20183 -10.30656 -10.30597  -1.10041
 Alpha  occ. eigenvalues --   -1.06211  -0.75976  -0.58079  -0.55927  -0.48765
 Alpha  occ. eigenvalues --   -0.46089  -0.45697  -0.38936  -0.31875  -0.29378
 Alpha virt. eigenvalues --   -0.14611   0.01296   0.02140   0.03497   0.03843
 Alpha virt. eigenvalues --    0.06081   0.07356   0.08864   0.10218   0.15337
 Alpha virt. eigenvalues --    0.15848   0.19861   0.20309   0.21602   0.24027
 Alpha virt. eigenvalues --    0.24154   0.25321   0.26342   0.28397   0.32169
 Alpha virt. eigenvalues --    0.34919   0.40184   0.52363   0.61576   0.61749
 Alpha virt. eigenvalues --    0.66471   0.75220   0.77652   0.82231   0.88729
 Alpha virt. eigenvalues --    0.99580   1.11801   1.12381   1.13837   1.14824
 Alpha virt. eigenvalues --    1.20183   1.20393   1.25359   1.26150   1.31151
 Alpha virt. eigenvalues --    1.37453   1.46064   1.48427   1.63330   1.65612
 Alpha virt. eigenvalues --    1.71392   1.74964   1.80015   1.85445   1.98861
 Alpha virt. eigenvalues --    1.99435   2.04880   2.07394   2.20019   2.23770
 Alpha virt. eigenvalues --    2.31236   2.43296   2.45797   2.57092   2.68289
 Alpha virt. eigenvalues --    2.78075   2.80771   2.90016   3.12445   3.18260
 Alpha virt. eigenvalues --    3.26256   3.65582   3.99170   4.26107   4.29935
 Alpha virt. eigenvalues --    4.57752
          Condensed to atoms (all electrons):
               1          2          3          4          5          6
     1  C    5.086461   0.049903  -0.087147   0.500548   0.396154  -0.168699
     2  C    0.049903   5.084632   0.395823  -0.169235  -0.085403   0.501453
     3  H   -0.087147   0.395823   0.569750   0.005787   0.006982  -0.058597
     4  O    0.500548  -0.169235   0.005787   8.114525  -0.058254  -0.003083
     5  H    0.396154  -0.085403   0.006982  -0.058254   0.565985   0.005289
     6  O   -0.168699   0.501453  -0.058597  -0.003083   0.005289   8.115606
 Mulliken charges:
               1
     1  C    0.222780
     2  C    0.222827
     3  H    0.167402
     4  O   -0.390287
     5  H    0.169247
     6  O   -0.391968
 Sum of Mulliken charges =  -0.00000
 Mulliken charges with hydrogens summed into heavy atoms:
               1
     1  C    0.392027
     2  C    0.390229
     4  O   -0.390287
     6  O   -0.391968
 Electronic spatial extent (au):  <R**2>=            226.4525
 Charge=              0.0000 electrons
 Dipole moment (field-independent basis, Debye):
    X=             -0.0381    Y=              4.9923    Z=             -0.0007  Tot=              4.9924
 Quadrupole moment (field-independent basis, Debye-Ang):
   XX=            -27.0117   YY=            -21.5310   ZZ=            -21.3012
   XY=             -0.0537   XZ=              0.0139   YZ=              0.0014
 Traceless Quadrupole moment (field-independent basis, Debye-Ang):
   XX=             -3.7304   YY=              1.7503   ZZ=              1.9801
   XY=             -0.0537   XZ=              0.0139   YZ=              0.0014
 Octapole moment (field-independent basis, Debye-Ang**2):
  XXX=             -0.1557  YYY=              3.3745  ZZZ=              0.0007  XYY=             -0.0267
  XXY=              7.1479  XXZ=             -0.0021  XZZ=             -0.0020  YZZ=             -0.4574
  YYZ=              0.0070  XYZ=              0.0010
 Hexadecapole moment (field-independent basis, Debye-Ang**3):
 XXXX=           -198.3200 YYYY=            -72.2817 ZZZZ=            -18.8919 XXXY=             -0.2385
 XXXZ=              0.0059 YYYX=             -0.0692 YYYZ=              0.0064 ZZZX=             -0.0101
 ZZZY=             -0.0027 XXYY=            -40.1009 XXZZ=            -32.7776 YYZZ=            -15.6861
 XXYZ=              0.0088 YYXZ=              0.0130 ZZXY=             -0.0099
 N-N= 1.058186892790D+02 E-N=-7.455449604219D+02  KE= 2.259217356403D+02
 1\1\GINC-NODE62\SP\RB3LYP\6-31+G(d,p)\C2H2O2\YANZ\22-Sep-2023\0\\# b3l
 yp/6-31+g(d,p) scrf=(iefpcm,solvent=acetonitrile)\\tmpdir/M2_ref_78.gj
 f\\0,1\C,0,2.580847,0.946621,-1.77545\C,0,3.462995,1.625383,-2.617646\
 H,0,3.773922,1.166503,-3.551336\O,0,2.22064074,1.47310092,-0.71814116\
 H,0,2.203919,-0.033582,-2.044101\O,0,3.8893921,2.74000041,-2.30286324\
 \Version=ES64L-G16RevA.03\State=1-A\HF=-227.8253328\RMSD=2.255e-09\Dip
 ole=-0.064971,-1.5082992,-1.2565062\Quadrupole=-0.2457628,0.4094121,-0
 .1636493,-1.2890827,1.6373016,1.1437454\PG=C01 [X(C2H2O2)]\\@


 EXPERIMENTALISTS THINK SILICON IS REALLY FUN TO USE
     ITS PLACE IN NOVEL COMPOUNDS IS CERTAIN TO AMUSE
 THEY SIT ALL DAY IN LABORATORIES MAKING ALL THIS SLUDGE
     "LOADED WITH THE SILICON THEY SAY", TO ME IT LOOKS LIKE FUDGE.
 FOR HAPPY THOUGH THEY BE WITH CRUD, I'D LIKE TO KNOW A LITTLE
      ABOUT THE PI BONDS ON THE EDGE AND SIGMAS IN THE MIDDLE.

 SO LETS DERIVE A WAVEFUNCTION.....6-31G*
     USE AN OPTIMAL GEOMETRY AND SEE WHERE ELECTRONS ARE.
 BUT WHAT OF CORRELATION?  ASKS THE WIRY LITTLE SKEPTIC.
     WE'LL THROW IN PERTURBATION AS AN ELECTRON ANTISEPTIC.
 AND WHEN THE PROGRAM GIVES US ANSWERS IN THEM WE CAN TRUST
     SINCE NOBODY CAN MAKE THE STUFF, WE HAVE NO CHOICE, WE MUST.

 SO THEORY GUYS HAVE GOT IT MADE, IN ROOMS FREE OF POLLUTION.
     INSTEAD OF PROBLEMS WITH THE REFLUX, THEY HAVE ONLY SOLUTIONS.
 AND WHEN THE FEDS ANNOUNCE THE LIST OF CARCINOGENIC TERRORS,
     THE THEORISTS SIT SAFELY AT THEIR TERMINALS FIXING ERRORS.
 IN OTHER WORDS, EXPERIMENTALISTS WILL LIKELY DIE OF CANCER
     FROM WORKING HARD YET FRUITLESSLY...TILL THEORY GIVES THE ANSWER.
          -- THOMAS A. HOLME, 1983
 Job cpu time:       0 days  0 hours  0 minutes 24.7 seconds.
 Elapsed time:       0 days  0 hours  0 minutes 12.6 seconds.
 File lengths (MBytes):  RWF=     16 Int=      0 D2E=      0 Chk=      2 Scr=      1
 Normal termination of Gaussian 16 at Fri Sep 22 17:08:10 2023.
