 Entering Gaussian System, Link 0=g16
 Initial command:
 /share/apps/gaussian/g16/l1.exe "/tmp/55647.mgr/Gau-706.inp" -scrdir="/tmp/55647.mgr/"
 Entering Link 1 = /share/apps/gaussian/g16/l1.exe PID=       707.
  
 Copyright (c) 1988,1990,1992,1993,1995,1998,2003,2009,2016,
            Gaussian, Inc.  All Rights Reserved.
  
 This is part of the Gaussian(R) 16 program.  It is based on
 the Gaussian(R) 09 system (copyright 2009, Gaussian, Inc.),
 the Gaussian(R) 03 system (copyright 2003, Gaussian, Inc.),
 the Gaussian(R) 98 system (copyright 1998, Gaussian, Inc.),
 the Gaussian(R) 94 system (copyright 1995, Gaussian, Inc.),
 the Gaussian 92(TM) system (copyright 1992, Gaussian, Inc.),
 the Gaussian 90(TM) system (copyright 1990, Gaussian, Inc.),
 the Gaussian 88(TM) system (copyright 1988, Gaussian, Inc.),
 the Gaussian 86(TM) system (copyright 1986, Carnegie Mellon
 University), and the Gaussian 82(TM) system (copyright 1983,
 Carnegie Mellon University). Gaussian is a federally registered
 trademark of Gaussian, Inc.
  
 This software contains proprietary and confidential information,
 including trade secrets, belonging to Gaussian, Inc.
  
 This software is provided under written license and may be
 used, copied, transmitted, or stored only in accord with that
 written license.
  
 The following legend is applicable only to US Government
 contracts under FAR:
  
                    RESTRICTED RIGHTS LEGEND
  
 Use, reproduction and disclosure by the US Government is
 subject to restrictions as set forth in subparagraphs (a)
 and (c) of the Commercial Computer Software - Restricted
 Rights clause in FAR 52.227-19.
  
 Gaussian, Inc.
 340 Quinnipiac St., Bldg. 40, Wallingford CT 06492
  
  
 ---------------------------------------------------------------
 Warning -- This program may not be used in any manner that
 competes with the business of Gaussian, Inc. or will provide
 assistance to any competitor of Gaussian, Inc.  The licensee
 of this program is prohibited from giving any competitor of
 Gaussian, Inc. access to this program.  By using this program,
 the user acknowledges that Gaussian, Inc. is engaged in the
 business of creating and licensing software in the field of
 computational chemistry and represents and warrants to the
 licensee that it is not a competitor of Gaussian, Inc. and that
 it will not use this program in any manner prohibited above.
 ---------------------------------------------------------------
  

 Cite this work as:
 Gaussian 16, Revision A.03,
 M. J. Frisch, G. W. Trucks, H. B. Schlegel, G. E. Scuseria, 
 M. A. Robb, J. R. Cheeseman, G. Scalmani, V. Barone, 
 G. A. Petersson, H. Nakatsuji, X. Li, M. Caricato, A. V. Marenich, 
 J. Bloino, B. G. Janesko, R. Gomperts, B. Mennucci, H. P. Hratchian, 
 J. V. Ortiz, A. F. Izmaylov, J. L. Sonnenberg, D. Williams-Young, 
 F. Ding, F. Lipparini, F. Egidi, J. Goings, B. Peng, A. Petrone, 
 T. Henderson, D. Ranasinghe, V. G. Zakrzewski, J. Gao, N. Rega, 
 G. Zheng, W. Liang, M. Hada, M. Ehara, K. Toyota, R. Fukuda, 
 J. Hasegawa, M. Ishida, T. Nakajima, Y. Honda, O. Kitao, H. Nakai, 
 T. Vreven, K. Throssell, J. A. Montgomery, Jr., J. E. Peralta, 
 F. Ogliaro, M. J. Bearpark, J. J. Heyd, E. N. Brothers, K. N. Kudin, 
 V. N. Staroverov, T. A. Keith, R. Kobayashi, J. Normand, 
 K. Raghavachari, A. P. Rendell, J. C. Burant, S. S. Iyengar, 
 J. Tomasi, M. Cossi, J. M. Millam, M. Klene, C. Adamo, R. Cammi, 
 J. W. Ochterski, R. L. Martin, K. Morokuma, O. Farkas, 
 J. B. Foresman, and D. J. Fox, Gaussian, Inc., Wallingford CT, 2016.
 
 ******************************************
 Gaussian 16:  ES64L-G16RevA.03 25-Dec-2016
                22-Sep-2023 
 ******************************************
 %nprocshared=2
 Will use up to    2 processors via shared memory.
 %mem=2GB
 ------------------------------------------------------
 # b3lyp/6-31+g(d,p) scrf=(iefpcm,solvent=acetonitrile)
 ------------------------------------------------------
 1/38=1,172=1/1;
 2/12=2,17=6,18=5,40=1/2;
 3/5=1,6=6,7=111,11=2,25=1,30=1,70=2201,72=2,74=-5/1,2,3;
 4//1;
 5/5=2,38=5,53=2/2;
 6/7=2,8=2,9=2,10=2,28=1/1;
 99/5=1,9=1/99;
 --------------------
 tmpdir/M2_ref_67.gjf
 --------------------
 Symbolic Z-matrix:
 Charge =  0 Multiplicity = 1
 C                     2.17227   1.5438   -0.57617 
 C                     2.58085   0.94662  -1.77545 
 C                     3.463     1.62538  -2.61765 
 H                     1.463     1.01535   0.12803 
 H                     2.51766   2.45987  -0.31577 
 H                     2.20392  -0.03358  -2.0441 
 O                     3.88939   2.74     -2.30286 
 H                     3.77392   1.1665   -3.55134 
 
                          Input orientation:                          
 ---------------------------------------------------------------------
 Center     Atomic      Atomic             Coordinates (Angstroms)
 Number     Number       Type             X           Y           Z
 ---------------------------------------------------------------------
      1          6           0        2.172272    1.543797   -0.576165
      2          6           0        2.580847    0.946621   -1.775450
      3          6           0        3.462995    1.625383   -2.617646
      4          1           0        1.462999    1.015351    0.128027
      5          1           0        2.517665    2.459866   -0.315769
      6          1           0        2.203919   -0.033582   -2.044101
      7          8           0        3.889392    2.740000   -2.302863
      8          1           0        3.773922    1.166503   -3.551336
 ---------------------------------------------------------------------
                    Distance matrix (angstroms):
                    1          2          3          4          5
     1  C    0.000000
     2  C    1.400656   0.000000
     3  C    2.416664   1.395778   0.000000
     4  H    1.130579   2.208514   3.451209   0.000000
     5  H    1.013057   2.103467   2.624624   1.842796   0.000000
     6  H    2.154985   1.083995   2.160183   2.523363   3.050058
     7  O    2.713096   2.281812   1.234210   3.843309   2.430773
     8  H    3.399894   2.150709   1.085828   4.347519   3.704034
                    6          7          8
     6  H    0.000000
     7  O    3.255847   0.000000
     8  H    2.485331   2.011942   0.000000
 Stoichiometry    C3H4O
 Framework group  C1[X(C3H4O)]
 Deg. of freedom    18
 Full point group                 C1      NOp   1
 Largest Abelian subgroup         C1      NOp   1
 Largest concise Abelian subgroup C1      NOp   1
                         Standard orientation:                         
 ---------------------------------------------------------------------
 Center     Atomic      Atomic             Coordinates (Angstroms)
 Number     Number       Type             X           Y           Z
 ---------------------------------------------------------------------
      1          6           0       -1.417250   -0.472685    0.002609
      2          6           0       -0.583060    0.652454   -0.002333
      3          6           0        0.802395    0.483056    0.001693
      4          1           0       -2.542747   -0.365949   -0.006003
      5          1           0       -1.020810   -1.404951    0.002990
      6          1           0       -1.018602    1.645102   -0.001758
      7          8           0        1.289993   -0.650748   -0.001624
      8          1           0        1.449708    1.354831    0.005954
 ---------------------------------------------------------------------
 Rotational constants (GHZ):          21.1407886           6.9024170           5.2035221
 Standard basis: 6-31+G(d,p) (6D, 7F)
 There are    96 symmetry adapted cartesian basis functions of A   symmetry.
 There are    96 symmetry adapted basis functions of A   symmetry.
    96 basis functions,   156 primitive gaussians,    96 cartesian basis functions
    15 alpha electrons       15 beta electrons
       nuclear repulsion energy       105.8279332005 Hartrees.
 NAtoms=    8 NActive=    8 NUniq=    8 SFac= 1.00D+00 NAtFMM=   60 NAOKFM=F Big=F
 Integral buffers will be    131072 words long.
 Raffenetti 2 integral format.
 Two-electron integral symmetry is turned on.
 ------------------------------------------------------------------------------
 Polarizable Continuum Model (PCM)
 =================================
 Model                : PCM.
 Atomic radii         : UFF (Universal Force Field).
 Polarization charges : Total charges.
 Charge compensation  : None.
 Solution method      : On-the-fly selection.
 Cavity type          : Scaled VdW (van der Waals Surface) (Alpha=1.100).
 Cavity algorithm     : GePol (No added spheres)
                        Default sphere list used, NSphG=    8.
                        Lebedev-Laikov grids with approx.  5.0 points / Ang**2.
                        Smoothing algorithm: York/Karplus (Gamma=1.0000).
                        Polarization charges: spherical gaussians, with
                                              point-specific exponents (IZeta= 3).
                        Self-potential: point-specific (ISelfS= 7).
                        Self-field    : sphere-specific E.n sum rule (ISelfD= 2).
 Solvent              : Acetonitrile, Eps=  35.688000 Eps(inf)=   1.806874
 ------------------------------------------------------------------------------
 Spheres list:
 ISph  on   Nord     Re0    Alpha      Xe            Ye            Ze
    1   C      1    1.9255  1.100     -1.417250     -0.472685      0.002609
    2   C      2    1.9255  1.100     -0.583060      0.652454     -0.002333
    3   C      3    1.9255  1.100      0.802395      0.483056      0.001693
    4   H      4    1.4430  1.100     -2.542747     -0.365949     -0.006003
    5   H      5    1.4430  1.100     -1.020810     -1.404951      0.002990
    6   H      6    1.4430  1.100     -1.018602      1.645102     -0.001758
    7   O      7    1.7500  1.100      1.289993     -0.650748     -0.001624
    8   H      8    1.4430  1.100      1.449708      1.354831      0.005954
 ------------------------------------------------------------------------------
 One-electron integrals computed using PRISM.
 NBasis=    96 RedAO= T EigKep=  1.30D-04  NBF=    96
 NBsUse=    96 1.00D-06 EigRej= -1.00D+00 NBFU=    96
 ExpMin= 4.38D-02 ExpMax= 5.48D+03 ExpMxC= 8.25D+02 IAcc=3 IRadAn=         5 AccDes= 0.00D+00
 Harris functional with IExCor=  402 and IRadAn=       5 diagonalized for initial guess.
 HarFok:  IExCor=  402 AccDes= 0.00D+00 IRadAn=         5 IDoV= 1 UseB2=F ITyADJ=14
 ICtDFT=  3500011 ScaDFX=  1.000000  1.000000  1.000000  1.000000
 FoFCou: FMM=F IPFlag=           0 FMFlag=      100000 FMFlg1=           0
         NFxFlg=           0 DoJE=T BraDBF=F KetDBF=T FulRan=T
         wScrn=  0.000000 ICntrl=       500 IOpCl=  0 I1Cent=   200000004 NGrid=           0
         NMat0=    1 NMatS0=      1 NMatT0=    0 NMatD0=    1 NMtDS0=    0 NMtDT0=    0
 Petite list used in FoFCou.
 Keep R1 ints in memory in canonical form, NReq=12684406.
 Requested convergence on RMS density matrix=1.00D-08 within 128 cycles.
 Requested convergence on MAX density matrix=1.00D-06.
 Requested convergence on             energy=1.00D-06.
 No special actions if energy rises.
 Inv3:  Mode=1 IEnd=     2116800.
 Iteration    1 A*A^-1 deviation from unit magnitude is 3.11D-15 for    840.
 Iteration    1 A*A^-1 deviation from orthogonality  is 1.50D-15 for    836    815.
 Iteration    1 A^-1*A deviation from unit magnitude is 3.11D-15 for    840.
 Iteration    1 A^-1*A deviation from orthogonality  is 1.29D-15 for    707    173.
 Error on total polarization charges =  0.01123
 SCF Done:  E(RB3LYP) =  -191.918178669     A.U. after   12 cycles
            NFock= 12  Conv=0.14D-08     -V/T= 2.0092

 **********************************************************************

            Population analysis using the SCF density.

 **********************************************************************

 Orbital symmetries:
       Occupied  (A) (A) (A) (A) (A) (A) (A) (A) (A) (A) (A) (A)
                 (A) (A) (A)
       Virtual   (A) (A) (A) (A) (A) (A) (A) (A) (A) (A) (A) (A)
                 (A) (A) (A) (A) (A) (A) (A) (A) (A) (A) (A) (A)
                 (A) (A) (A) (A) (A) (A) (A) (A) (A) (A) (A) (A)
                 (A) (A) (A) (A) (A) (A) (A) (A) (A) (A) (A) (A)
                 (A) (A) (A) (A) (A) (A) (A) (A) (A) (A) (A) (A)
                 (A) (A) (A) (A) (A) (A) (A) (A) (A) (A) (A) (A)
                 (A) (A) (A) (A) (A) (A) (A) (A) (A)
 The electronic state is 1-A.
 Alpha  occ. eigenvalues --  -19.15814 -10.28103 -10.22912 -10.21284  -1.05008
 Alpha  occ. eigenvalues --   -0.79888  -0.67785  -0.55688  -0.52197  -0.46149
 Alpha  occ. eigenvalues --   -0.42137  -0.41062  -0.39669  -0.28561  -0.27407
 Alpha virt. eigenvalues --   -0.09783   0.01344   0.03109   0.03928   0.04144
 Alpha virt. eigenvalues --    0.06214   0.06528   0.07441   0.09675   0.09791
 Alpha virt. eigenvalues --    0.12183   0.12365   0.14092   0.16418   0.19549
 Alpha virt. eigenvalues --    0.21981   0.23372   0.24393   0.26192   0.26596
 Alpha virt. eigenvalues --    0.28879   0.31607   0.32362   0.41177   0.46232
 Alpha virt. eigenvalues --    0.62969   0.64891   0.68014   0.68419   0.70675
 Alpha virt. eigenvalues --    0.71908   0.76636   0.86766   0.90144   0.90572
 Alpha virt. eigenvalues --    0.95206   1.03517   1.06780   1.09352   1.16113
 Alpha virt. eigenvalues --    1.20315   1.24921   1.27522   1.29281   1.32247
 Alpha virt. eigenvalues --    1.33159   1.44467   1.47904   1.58251   1.76050
 Alpha virt. eigenvalues --    1.78363   1.82248   1.84806   1.91951   2.01484
 Alpha virt. eigenvalues --    2.02608   2.06830   2.09349   2.17284   2.18889
 Alpha virt. eigenvalues --    2.33837   2.35204   2.44943   2.47275   2.49297
 Alpha virt. eigenvalues --    2.50000   2.65924   2.67786   2.75990   2.78949
 Alpha virt. eigenvalues --    2.90124   3.07654   3.15692   3.22591   3.35733
 Alpha virt. eigenvalues --    3.56737   3.75959   4.12401   4.27755   4.36324
 Alpha virt. eigenvalues --    4.59563
          Condensed to atoms (all electrons):
               1          2          3          4          5          6
     1  C    4.915152   0.521144   0.040552   0.353206   0.419556   0.000012
     2  C    0.521144   5.478830   0.092695  -0.017194  -0.056140   0.293340
     3  C    0.040552   0.092695   4.854723   0.016231  -0.005785   0.015431
     4  H    0.353206  -0.017194   0.016231   0.510828  -0.031972  -0.004385
     5  H    0.419556  -0.056140  -0.005785  -0.031972   0.491485   0.004006
     6  H    0.000012   0.293340   0.015431  -0.004385   0.004006   0.525530
     7  O    0.009507  -0.211207   0.456791   0.001148   0.001342   0.006458
     8  H    0.016959  -0.165127   0.460605  -0.000075   0.000053   0.000288
               7          8
     1  C    0.009507   0.016959
     2  C   -0.211207  -0.165127
     3  C    0.456791   0.460605
     4  H    0.001148  -0.000075
     5  H    0.001342   0.000053
     6  H    0.006458   0.000288
     7  O    8.309826  -0.069473
     8  H   -0.069473   0.617690
 Mulliken charges:
               1
     1  C   -0.276087
     2  C    0.063659
     3  C    0.068756
     4  H    0.172213
     5  H    0.177454
     6  H    0.159318
     7  O   -0.504391
     8  H    0.139080
 Sum of Mulliken charges =  -0.00000
 Mulliken charges with hydrogens summed into heavy atoms:
               1
     1  C    0.073579
     2  C    0.222977
     3  C    0.207836
     7  O   -0.504391
 Electronic spatial extent (au):  <R**2>=            257.7499
 Charge=             -0.0000 electrons
 Dipole moment (field-independent basis, Debye):
    X=             -2.9468    Y=              2.3827    Z=              0.0052  Tot=              3.7895
 Quadrupole moment (field-independent basis, Debye-Ang):
   XX=            -24.0480   YY=            -22.4322   ZZ=            -25.2362
   XY=              4.1059   XZ=              0.0229   YZ=             -0.0029
 Traceless Quadrupole moment (field-independent basis, Debye-Ang):
   XX=             -0.1426   YY=              1.4733   ZZ=             -1.3307
   XY=              4.1059   XZ=              0.0229   YZ=             -0.0029
 Octapole moment (field-independent basis, Debye-Ang**2):
  XXX=            -10.1945  YYY=              1.2555  ZZZ=             -0.0044  XYY=             -1.3908
  XXY=              3.8144  XXZ=             -0.0384  XZZ=              3.0946  YZZ=             -0.7916
  YYZ=              0.0070  XYZ=             -0.0009
 Hexadecapole moment (field-independent basis, Debye-Ang**3):
 XXXX=           -211.0058 YYYY=            -88.3373 ZZZZ=            -28.4323 XXXY=              9.2971
 XXXZ=              0.1509 YYYX=              0.5653 YYYZ=              0.0010 ZZZX=              0.0093
 ZZZY=              0.0037 XXYY=            -51.5693 XXZZ=            -44.2879 YYZZ=            -21.2012
 XXYZ=              0.0201 YYXZ=              0.0145 ZZXY=              0.1367
 N-N= 1.058279332005D+02 E-N=-6.589737148233D+02  KE= 1.901752214097D+02
 1\1\GINC-NODE62\SP\RB3LYP\6-31+G(d,p)\C3H4O1\YANZ\22-Sep-2023\0\\# b3l
 yp/6-31+g(d,p) scrf=(iefpcm,solvent=acetonitrile)\\tmpdir/M2_ref_67.gj
 f\\0,1\C,0,2.172272,1.543797,-0.576165\C,0,2.580847,0.946621,-1.77545\
 C,0,3.462995,1.625383,-2.617646\H,0,1.46299925,1.0153508,0.12802697\H,
 0,2.51766479,2.45986605,-0.31576873\H,0,2.203919,-0.033582,-2.044101\O
 ,0,3.8893921,2.74000041,-2.30286324\H,0,3.773922,1.166503,-3.551336\\V
 ersion=ES64L-G16RevA.03\State=1-A\HF=-191.9181787\RMSD=1.447e-09\Dipol
 e=-0.8255314,-1.2158441,0.2511455\Quadrupole=-1.0365876,-1.3962684,2.4
 328559,-1.2947108,-1.1154642,1.7382837\PG=C01 [X(C3H4O1)]\\@


 DEPRESSION IS WAITING FOR YOUR SHIP TO COME IN,
 AND FINDING OUT IT'S THE TITANIC.
 Job cpu time:       0 days  0 hours  0 minutes 39.3 seconds.
 Elapsed time:       0 days  0 hours  0 minutes 20.1 seconds.
 File lengths (MBytes):  RWF=     19 Int=      0 D2E=      0 Chk=      2 Scr=      1
 Normal termination of Gaussian 16 at Fri Sep 22 17:07:54 2023.
