 Entering Gaussian System, Link 0=g16
 Initial command:
 /share/apps/gaussian/g16/l1.exe "/tmp/55648.mgr/Gau-182280.inp" -scrdir="/tmp/55648.mgr/"
 Entering Link 1 = /share/apps/gaussian/g16/l1.exe PID=    182281.
  
 Copyright (c) 1988,1990,1992,1993,1995,1998,2003,2009,2016,
            Gaussian, Inc.  All Rights Reserved.
  
 This is part of the Gaussian(R) 16 program.  It is based on
 the Gaussian(R) 09 system (copyright 2009, Gaussian, Inc.),
 the Gaussian(R) 03 system (copyright 2003, Gaussian, Inc.),
 the Gaussian(R) 98 system (copyright 1998, Gaussian, Inc.),
 the Gaussian(R) 94 system (copyright 1995, Gaussian, Inc.),
 the Gaussian 92(TM) system (copyright 1992, Gaussian, Inc.),
 the Gaussian 90(TM) system (copyright 1990, Gaussian, Inc.),
 the Gaussian 88(TM) system (copyright 1988, Gaussian, Inc.),
 the Gaussian 86(TM) system (copyright 1986, Carnegie Mellon
 University), and the Gaussian 82(TM) system (copyright 1983,
 Carnegie Mellon University). Gaussian is a federally registered
 trademark of Gaussian, Inc.
  
 This software contains proprietary and confidential information,
 including trade secrets, belonging to Gaussian, Inc.
  
 This software is provided under written license and may be
 used, copied, transmitted, or stored only in accord with that
 written license.
  
 The following legend is applicable only to US Government
 contracts under FAR:
  
                    RESTRICTED RIGHTS LEGEND
  
 Use, reproduction and disclosure by the US Government is
 subject to restrictions as set forth in subparagraphs (a)
 and (c) of the Commercial Computer Software - Restricted
 Rights clause in FAR 52.227-19.
  
 Gaussian, Inc.
 340 Quinnipiac St., Bldg. 40, Wallingford CT 06492
  
  
 ---------------------------------------------------------------
 Warning -- This program may not be used in any manner that
 competes with the business of Gaussian, Inc. or will provide
 assistance to any competitor of Gaussian, Inc.  The licensee
 of this program is prohibited from giving any competitor of
 Gaussian, Inc. access to this program.  By using this program,
 the user acknowledges that Gaussian, Inc. is engaged in the
 business of creating and licensing software in the field of
 computational chemistry and represents and warrants to the
 licensee that it is not a competitor of Gaussian, Inc. and that
 it will not use this program in any manner prohibited above.
 ---------------------------------------------------------------
  

 Cite this work as:
 Gaussian 16, Revision A.03,
 M. J. Frisch, G. W. Trucks, H. B. Schlegel, G. E. Scuseria, 
 M. A. Robb, J. R. Cheeseman, G. Scalmani, V. Barone, 
 G. A. Petersson, H. Nakatsuji, X. Li, M. Caricato, A. V. Marenich, 
 J. Bloino, B. G. Janesko, R. Gomperts, B. Mennucci, H. P. Hratchian, 
 J. V. Ortiz, A. F. Izmaylov, J. L. Sonnenberg, D. Williams-Young, 
 F. Ding, F. Lipparini, F. Egidi, J. Goings, B. Peng, A. Petrone, 
 T. Henderson, D. Ranasinghe, V. G. Zakrzewski, J. Gao, N. Rega, 
 G. Zheng, W. Liang, M. Hada, M. Ehara, K. Toyota, R. Fukuda, 
 J. Hasegawa, M. Ishida, T. Nakajima, Y. Honda, O. Kitao, H. Nakai, 
 T. Vreven, K. Throssell, J. A. Montgomery, Jr., J. E. Peralta, 
 F. Ogliaro, M. J. Bearpark, J. J. Heyd, E. N. Brothers, K. N. Kudin, 
 V. N. Staroverov, T. A. Keith, R. Kobayashi, J. Normand, 
 K. Raghavachari, A. P. Rendell, J. C. Burant, S. S. Iyengar, 
 J. Tomasi, M. Cossi, J. M. Millam, M. Klene, C. Adamo, R. Cammi, 
 J. W. Ochterski, R. L. Martin, K. Morokuma, O. Farkas, 
 J. B. Foresman, and D. J. Fox, Gaussian, Inc., Wallingford CT, 2016.
 
 ******************************************
 Gaussian 16:  ES64L-G16RevA.03 25-Dec-2016
                22-Sep-2023 
 ******************************************
 %nprocshared=4
 Will use up to    4 processors via shared memory.
 %mem=4GB
 ------------------------------------------------------
 # b3lyp/6-31+g(d,p) scrf=(iefpcm,solvent=acetonitrile)
 ------------------------------------------------------
 1/38=1,172=1/1;
 2/12=2,17=6,18=5,40=1/2;
 3/5=1,6=6,7=111,11=2,25=1,30=1,70=2201,72=2,74=-5/1,2,3;
 4//1;
 5/5=2,38=5,53=2/2;
 6/7=2,8=2,9=2,10=2,28=1/1;
 99/5=1,9=1/99;
 -----------------------
 tmpdir/M3_conf_0_56.gjf
 -----------------------
 Symbolic Z-matrix:
 Charge =  0 Multiplicity = 1
 O                     0.        0.        0. 
 S                     1.4797    0.        0. 
 C                     2.02067   0.        1.71574 
 C                     1.16853  -0.52001   2.69472 
 C                     3.2854    0.5064    2.02991 
 C                     1.59901  -0.52825   4.02309 
 H                     0.18797  -0.89664   2.42495 
 C                     3.70196   0.49021   3.36295 
 H                     3.92209   0.91506   1.25303 
 C                     2.86212  -0.02662   4.35502 
 H                     0.94693  -0.92227   4.79601 
 H                     4.67853   0.88472   3.62477 
 H                     3.19122  -0.035     5.3895 
 H                     1.94741  -1.24499  -0.50782 
 O                     2.18765   1.08166  -0.72712 
 
                          Input orientation:                          
 ---------------------------------------------------------------------
 Center     Atomic      Atomic             Coordinates (Angstroms)
 Number     Number       Type             X           Y           Z
 ---------------------------------------------------------------------
      1          8           0        0.000000    0.000000    0.000000
      2         16           0        1.479700    0.000000    0.000000
      3          6           0        2.020670    0.000000    1.715740
      4          6           0        1.168530   -0.520010    2.694720
      5          6           0        3.285400    0.506400    2.029910
      6          6           0        1.599010   -0.528250    4.023090
      7          1           0        0.187970   -0.896640    2.424950
      8          6           0        3.701960    0.490210    3.362950
      9          1           0        3.922090    0.915060    1.253030
     10          6           0        2.862120   -0.026620    4.355020
     11          1           0        0.946930   -0.922270    4.796010
     12          1           0        4.678530    0.884720    3.624770
     13          1           0        3.191220   -0.035000    5.389500
     14          1           0        1.947410   -1.244990   -0.507820
     15          8           0        2.187650    1.081660   -0.727120
 ---------------------------------------------------------------------
                    Distance matrix (angstroms):
                    1          2          3          4          5
     1  O    0.000000
     2  S    1.479700   0.000000
     3  C    2.650825   1.799003   0.000000
     4  C    2.982849   2.762020   1.398197   0.000000
     5  C    3.894975   2.763608   1.398101   2.444714   0.000000
     6  C    4.361323   4.059376   2.404311   1.396405   2.808412
     7  H    2.592234   2.890141   2.160030   1.084492   3.423251
     8  C    5.025360   4.060564   2.404234   2.808085   1.396703
     9  H    4.217844   2.893560   2.160285   3.423447   1.084398
    10  C    5.211395   4.569244   2.770297   2.422453   2.422687
    11  H    4.974834   4.912854   3.389921   2.150893   3.893694
    12  H    5.984173   4.914692   3.389889   3.893374   2.151166
    13  H    6.263531   5.654842   3.855895   3.404166   3.404237
    14  H    2.366493   1.423599   2.549429   3.374687   3.361199
    15  O    2.546469   1.483201   2.676833   3.913175   3.022779
                    6          7          8          9         10
     6  C    0.000000
     7  H    2.163515   0.000000
     8  C    2.428054   3.892470   0.000000
     9  H    3.892695   4.312691   2.163497   0.000000
    10  C    1.399020   3.410745   1.398802   3.410666   0.000000
    11  H    1.085295   2.489699   3.411591   4.977958   2.159772
    12  H    3.411537   4.977745   1.085300   2.489633   2.159433
    13  H    2.155343   4.307028   2.154903   4.306642   1.085599
    14  H    4.600461   3.437749   4.590449   3.415519   5.095913
    15  O    5.050030   4.224682   4.401320   2.637619   5.245125
                   11         12         13         14         15
    11  H    0.000000
    12  H    4.308347   0.000000
    13  H    2.485220   2.484401   0.000000
    14  H    5.407007   5.391937   6.147318   0.000000
    15  O    6.005005   5.018188   6.298184   2.349278   0.000000
 Stoichiometry    C6H6O2S
 Framework group  C1[X(C6H6O2S)]
 Deg. of freedom    39
 Full point group                 C1      NOp   1
 Largest Abelian subgroup         C1      NOp   1
 Largest concise Abelian subgroup C1      NOp   1
                         Standard orientation:                         
 ---------------------------------------------------------------------
 Center     Atomic      Atomic             Coordinates (Angstroms)
 Number     Number       Type             X           Y           Z
 ---------------------------------------------------------------------
      1          8           0       -2.162665    1.281096   -0.333569
      2         16           0       -1.677580   -0.000092    0.225681
      3          6           0        0.116696   -0.002412    0.095371
      4          6           0        0.794405    1.219825    0.052919
      5          6           0        0.793826   -1.224890    0.053765
      6          6           0        2.187944    1.211406   -0.036110
      7          1           0        0.243677    2.153794    0.075818
      8          6           0        2.187729   -1.216647   -0.034241
      9          1           0        0.243327   -2.158898    0.076131
     10          6           0        2.881596   -0.002840   -0.077477
     11          1           0        2.728695    2.151512   -0.076770
     12          1           0        2.728472   -2.156833   -0.073279
     13          1           0        3.964944   -0.003255   -0.147353
     14          1           0       -1.920320   -0.019926    1.628292
     15          8           0       -2.202423   -1.265042   -0.343817
 ---------------------------------------------------------------------
 Rotational constants (GHZ):           3.3679483           0.9818400           0.7795620
 Standard basis: 6-31+G(d,p) (6D, 7F)
 There are   205 symmetry adapted cartesian basis functions of A   symmetry.
 There are   205 symmetry adapted basis functions of A   symmetry.
   205 basis functions,   354 primitive gaussians,   205 cartesian basis functions
    37 alpha electrons       37 beta electrons
       nuclear repulsion energy       515.7900043206 Hartrees.
 NAtoms=   15 NActive=   15 NUniq=   15 SFac= 1.00D+00 NAtFMM=   60 NAOKFM=F Big=F
 Integral buffers will be    131072 words long.
 Raffenetti 2 integral format.
 Two-electron integral symmetry is turned on.
 ------------------------------------------------------------------------------
 Polarizable Continuum Model (PCM)
 =================================
 Model                : PCM.
 Atomic radii         : UFF (Universal Force Field).
 Polarization charges : Total charges.
 Charge compensation  : None.
 Solution method      : On-the-fly selection.
 Cavity type          : Scaled VdW (van der Waals Surface) (Alpha=1.100).
 Cavity algorithm     : GePol (No added spheres)
                        Default sphere list used, NSphG=   15.
                        Lebedev-Laikov grids with approx.  5.0 points / Ang**2.
                        Smoothing algorithm: York/Karplus (Gamma=1.0000).
                        Polarization charges: spherical gaussians, with
                                              point-specific exponents (IZeta= 3).
                        Self-potential: point-specific (ISelfS= 7).
                        Self-field    : sphere-specific E.n sum rule (ISelfD= 2).
 Solvent              : Acetonitrile, Eps=  35.688000 Eps(inf)=   1.806874
 ------------------------------------------------------------------------------
 Spheres list:
 ISph  on   Nord     Re0    Alpha      Xe            Ye            Ze
    1   O      1    1.7500  1.100     -2.162665      1.281096     -0.333569
    2   S      2    2.0175  1.100     -1.677580     -0.000092      0.225681
    3   C      3    1.9255  1.100      0.116696     -0.002412      0.095371
    4   C      4    1.9255  1.100      0.794405      1.219825      0.052919
    5   C      5    1.9255  1.100      0.793826     -1.224890      0.053765
    6   C      6    1.9255  1.100      2.187944      1.211406     -0.036110
    7   H      7    1.4430  1.100      0.243677      2.153794      0.075818
    8   C      8    1.9255  1.100      2.187729     -1.216647     -0.034241
    9   H      9    1.4430  1.100      0.243327     -2.158898      0.076131
   10   C     10    1.9255  1.100      2.881596     -0.002840     -0.077477
   11   H     11    1.4430  1.100      2.728695      2.151512     -0.076770
   12   H     12    1.4430  1.100      2.728472     -2.156833     -0.073279
   13   H     13    1.4430  1.100      3.964944     -0.003255     -0.147353
   14   H     14    1.4430  1.100     -1.920320     -0.019926      1.628292
   15   O     15    1.7500  1.100     -2.202423     -1.265042     -0.343817
 ------------------------------------------------------------------------------
 One-electron integrals computed using PRISM.
 NBasis=   205 RedAO= T EigKep=  5.10D-06  NBF=   205
 NBsUse=   205 1.00D-06 EigRej= -1.00D+00 NBFU=   205
 ExpMin= 4.05D-02 ExpMax= 2.19D+04 ExpMxC= 3.30D+03 IAcc=3 IRadAn=         5 AccDes= 0.00D+00
 Harris functional with IExCor=  402 and IRadAn=       5 diagonalized for initial guess.
 HarFok:  IExCor=  402 AccDes= 0.00D+00 IRadAn=         5 IDoV= 1 UseB2=F ITyADJ=14
 ICtDFT=  3500011 ScaDFX=  1.000000  1.000000  1.000000  1.000000
 FoFCou: FMM=F IPFlag=           0 FMFlag=      100000 FMFlg1=           0
         NFxFlg=           0 DoJE=T BraDBF=F KetDBF=T FulRan=T
         wScrn=  0.000000 ICntrl=       500 IOpCl=  0 I1Cent=   200000004 NGrid=           0
         NMat0=    1 NMatS0=      1 NMatT0=    0 NMatD0=    1 NMtDS0=    0 NMtDT0=    0
 Petite list used in FoFCou.
 Keep R1 ints in memory in canonical form, NReq=227304188.
 Requested convergence on RMS density matrix=1.00D-08 within 128 cycles.
 Requested convergence on MAX density matrix=1.00D-06.
 Requested convergence on             energy=1.00D-06.
 No special actions if energy rises.
 Inv3:  Mode=1 IEnd=     6186288.
 Iteration    1 A*A^-1 deviation from unit magnitude is 5.11D-15 for    375.
 Iteration    1 A*A^-1 deviation from orthogonality  is 1.50D-15 for   1152   1062.
 Iteration    1 A^-1*A deviation from unit magnitude is 5.11D-15 for    375.
 Iteration    1 A^-1*A deviation from orthogonality  is 1.85D-15 for   1404    757.
 Error on total polarization charges =  0.01520
 SCF Done:  E(RB3LYP) =  -780.843736501     A.U. after   14 cycles
            NFock= 14  Conv=0.24D-08     -V/T= 2.0069

 **********************************************************************

            Population analysis using the SCF density.

 **********************************************************************

 Orbital symmetries:
       Occupied  (A) (A) (A) (A) (A) (A) (A) (A) (A) (A) (A) (A)
                 (A) (A) (A) (A) (A) (A) (A) (A) (A) (A) (A) (A)
                 (A) (A) (A) (A) (A) (A) (A) (A) (A) (A) (A) (A)
                 (A)
       Virtual   (A) (A) (A) (A) (A) (A) (A) (A) (A) (A) (A) (A)
                 (A) (A) (A) (A) (A) (A) (A) (A) (A) (A) (A) (A)
                 (A) (A) (A) (A) (A) (A) (A) (A) (A) (A) (A) (A)
                 (A) (A) (A) (A) (A) (A) (A) (A) (A) (A) (A) (A)
                 (A) (A) (A) (A) (A) (A) (A) (A) (A) (A) (A) (A)
                 (A) (A) (A) (A) (A) (A) (A) (A) (A) (A) (A) (A)
                 (A) (A) (A) (A) (A) (A) (A) (A) (A) (A) (A) (A)
                 (A) (A) (A) (A) (A) (A) (A) (A) (A) (A) (A) (A)
                 (A) (A) (A) (A) (A) (A) (A) (A) (A) (A) (A) (A)
                 (A) (A) (A) (A) (A) (A) (A) (A) (A) (A) (A) (A)
                 (A) (A) (A) (A) (A) (A) (A) (A) (A) (A) (A) (A)
                 (A) (A) (A) (A) (A) (A) (A) (A) (A) (A) (A) (A)
                 (A) (A) (A) (A) (A) (A) (A) (A) (A) (A) (A) (A)
                 (A) (A) (A) (A) (A) (A) (A) (A) (A) (A) (A) (A)
 The electronic state is 1-A.
 Alpha  occ. eigenvalues --  -89.12269 -19.17192 -19.17189 -10.24637 -10.22679
 Alpha  occ. eigenvalues --  -10.22667 -10.21925 -10.21746 -10.21738  -8.15119
 Alpha  occ. eigenvalues --   -6.11579  -6.11487  -6.11414  -1.11991  -1.01887
 Alpha  occ. eigenvalues --   -0.88736  -0.79403  -0.77489  -0.70609  -0.63332
 Alpha  occ. eigenvalues --   -0.61900  -0.56042  -0.52548  -0.49453  -0.48851
 Alpha  occ. eigenvalues --   -0.46463  -0.46345  -0.44800  -0.39661  -0.38896
 Alpha  occ. eigenvalues --   -0.37186  -0.35674  -0.34463  -0.32755  -0.31708
 Alpha  occ. eigenvalues --   -0.28718  -0.28007
 Alpha virt. eigenvalues --   -0.05940  -0.03640  -0.01045   0.00413   0.01860
 Alpha virt. eigenvalues --    0.01928   0.03280   0.03869   0.04828   0.06297
 Alpha virt. eigenvalues --    0.06456   0.06953   0.07771   0.08467   0.08636
 Alpha virt. eigenvalues --    0.09066   0.09141   0.11342   0.12039   0.13093
 Alpha virt. eigenvalues --    0.13384   0.13826   0.14448   0.14625   0.15756
 Alpha virt. eigenvalues --    0.16701   0.17806   0.18766   0.19275   0.19509
 Alpha virt. eigenvalues --    0.19722   0.20991   0.21564   0.22651   0.22781
 Alpha virt. eigenvalues --    0.24012   0.24672   0.25385   0.25708   0.26387
 Alpha virt. eigenvalues --    0.27064   0.28670   0.29230   0.29492   0.31020
 Alpha virt. eigenvalues --    0.31751   0.33035   0.33254   0.34018   0.36125
 Alpha virt. eigenvalues --    0.36893   0.37414   0.47842   0.48930   0.52556
 Alpha virt. eigenvalues --    0.54844   0.58653   0.61154   0.63229   0.65210
 Alpha virt. eigenvalues --    0.65546   0.67003   0.67428   0.70336   0.71396
 Alpha virt. eigenvalues --    0.72174   0.74479   0.74787   0.75916   0.77709
 Alpha virt. eigenvalues --    0.81163   0.84103   0.87530   0.89383   0.89526
 Alpha virt. eigenvalues --    0.91279   0.94516   0.95474   0.98330   1.01081
 Alpha virt. eigenvalues --    1.01318   1.06223   1.07200   1.07888   1.12982
 Alpha virt. eigenvalues --    1.13835   1.14251   1.18998   1.20172   1.24351
 Alpha virt. eigenvalues --    1.24488   1.26511   1.27908   1.28979   1.29359
 Alpha virt. eigenvalues --    1.30866   1.32210   1.34540   1.37291   1.39114
 Alpha virt. eigenvalues --    1.39445   1.42289   1.43114   1.51426   1.56097
 Alpha virt. eigenvalues --    1.60084   1.74813   1.75796   1.79433   1.79538
 Alpha virt. eigenvalues --    1.81610   1.81861   1.83816   1.87658   1.88228
 Alpha virt. eigenvalues --    1.93098   1.94681   1.94986   1.95235   1.96696
 Alpha virt. eigenvalues --    1.98585   2.01176   2.03961   2.05682   2.07918
 Alpha virt. eigenvalues --    2.10898   2.19669   2.22403   2.26054   2.26859
 Alpha virt. eigenvalues --    2.32004   2.36572   2.36820   2.36883   2.39540
 Alpha virt. eigenvalues --    2.44788   2.49188   2.50773   2.51118   2.54158
 Alpha virt. eigenvalues --    2.57857   2.60272   2.61690   2.63497   2.65063
 Alpha virt. eigenvalues --    2.71674   2.74116   2.78071   2.83692   2.86411
 Alpha virt. eigenvalues --    2.95026   3.03533   3.16435   3.25629   3.26605
 Alpha virt. eigenvalues --    3.31338   3.41006   3.51175   3.84947   3.96039
 Alpha virt. eigenvalues --    4.10263   4.12367   4.26140   4.27127   4.27177
 Alpha virt. eigenvalues --    4.43555   4.46982   4.79587
          Condensed to atoms (all electrons):
               1          2          3          4          5          6
     1  O    8.721198   0.173155   0.051146  -0.387172   0.248261  -0.039034
     2  S    0.173155  14.641700  -1.028278   0.414980   0.495931  -0.340967
     3  C    0.051146  -1.028278  10.182993  -1.078985  -1.277626   0.219844
     4  C   -0.387172   0.414980  -1.078985  11.896272  -3.406042  -1.601079
     5  C    0.248261   0.495931  -1.277626  -3.406042  12.071015  -0.804021
     6  C   -0.039034  -0.340967   0.219844  -1.601079  -0.804021   7.672218
     7  H    0.000407   0.003214   0.035874   0.233862   0.042576   0.001321
     8  C    0.018091  -0.315617   0.245091  -0.718772  -1.660345   0.611637
     9  H    0.000864   0.004311   0.037760   0.042778   0.233953  -0.009187
    10  C    0.002684   0.127601  -0.712659   0.282162   0.341902   0.113018
    11  H    0.000194   0.000736   0.001852   0.023587  -0.006130   0.275515
    12  H    0.000023   0.000692   0.000337  -0.006813   0.023982   0.001104
    13  H   -0.000002  -0.000232   0.006475  -0.004767  -0.004642   0.023755
    14  H   -0.069331   0.421229  -0.211120   0.029141   0.058887  -0.016322
    15  O   -0.088432   0.183229   0.030397   0.253957  -0.369457   0.018775
               7          8          9         10         11         12
     1  O    0.000407   0.018091   0.000864   0.002684   0.000194   0.000023
     2  S    0.003214  -0.315617   0.004311   0.127601   0.000736   0.000692
     3  C    0.035874   0.245091   0.037760  -0.712659   0.001852   0.000337
     4  C    0.233862  -0.718772   0.042778   0.282162   0.023587  -0.006813
     5  C    0.042576  -1.660345   0.233953   0.341902  -0.006130   0.023982
     6  C    0.001321   0.611637  -0.009187   0.113018   0.275515   0.001104
     7  H    0.518638  -0.008848  -0.000127   0.004237  -0.005525   0.000011
     8  C   -0.008848   7.619791  -0.001948   0.095104   0.000444   0.276287
     9  H   -0.000127  -0.001948   0.519211   0.003880   0.000012  -0.005486
    10  C    0.004237   0.095104   0.003880   5.564512   0.020190   0.020664
    11  H   -0.005525   0.000444   0.000012   0.020190   0.534492  -0.000142
    12  H    0.000011   0.276287  -0.005486   0.020664  -0.000142   0.534500
    13  H   -0.000129   0.023315  -0.000129   0.272029  -0.005254  -0.005267
    14  H   -0.000075  -0.013482  -0.000084   0.012272   0.000003   0.000003
    15  O    0.000805  -0.044264   0.001055   0.003867   0.000022   0.000174
              13         14         15
     1  O   -0.000002  -0.069331  -0.088432
     2  S   -0.000232   0.421229   0.183229
     3  C    0.006475  -0.211120   0.030397
     4  C   -0.004767   0.029141   0.253957
     5  C   -0.004642   0.058887  -0.369457
     6  C    0.023755  -0.016322   0.018775
     7  H   -0.000129  -0.000075   0.000805
     8  C    0.023315  -0.013482  -0.044264
     9  H   -0.000129  -0.000084   0.001055
    10  C    0.272029   0.012272   0.003867
    11  H   -0.005254   0.000003   0.000022
    12  H   -0.005267   0.000003   0.000174
    13  H    0.536463  -0.000000  -0.000002
    14  H   -0.000000   0.765600  -0.070544
    15  O   -0.000002  -0.070544   8.716742
 Mulliken charges:
               1
     1  O   -0.632052
     2  S    1.218315
     3  C   -0.503100
     4  C    0.026892
     5  C    0.011756
     6  C   -0.126578
     7  H    0.173759
     8  C   -0.126485
     9  H    0.173137
    10  C   -0.151465
    11  H    0.160004
    12  H    0.159931
    13  H    0.158385
    14  H    0.093823
    15  O   -0.636322
 Sum of Mulliken charges =  -0.00000
 Mulliken charges with hydrogens summed into heavy atoms:
               1
     1  O   -0.632052
     2  S    1.312138
     3  C   -0.503100
     4  C    0.200650
     5  C    0.184894
     6  C    0.033426
     8  C    0.033446
    10  C    0.006920
    15  O   -0.636322
 Electronic spatial extent (au):  <R**2>=           1406.6900
 Charge=             -0.0000 electrons
 Dipole moment (field-independent basis, Debye):
    X=              5.9698    Y=             -0.0325    Z=              3.4950  Tot=              6.9177
 Quadrupole moment (field-independent basis, Debye-Ang):
   XX=            -61.4059   YY=            -59.5856   ZZ=            -60.1810
   XY=             -0.0423   XZ=             -8.0258   YZ=             -0.0587
 Traceless Quadrupole moment (field-independent basis, Debye-Ang):
   XX=             -1.0150   YY=              0.8052   ZZ=              0.2098
   XY=             -0.0423   XZ=             -8.0258   YZ=             -0.0587
 Octapole moment (field-independent basis, Debye-Ang**2):
  XXX=             43.0504  YYY=             -0.1221  ZZZ=              5.0283  XYY=             21.5751
  XXY=              0.3510  XXZ=             13.6314  XZZ=            -16.4949  YZZ=              0.0211
  YYZ=              2.9495  XYZ=              0.1283
 Hexadecapole moment (field-independent basis, Debye-Ang**3):
 XXXX=          -1278.0876 YYYY=           -409.8154 ZZZZ=            -89.6270 XXXY=             -1.4054
 XXXZ=            -42.7551 YYYX=              0.1243 YYYZ=             -0.0676 ZZZX=             -9.4088
 ZZZY=             -0.1181 XXYY=           -310.0245 XXZZ=           -246.0787 YYZZ=            -95.8655
 XXYZ=             -0.3843 YYXZ=             -7.2108 ZZXY=              0.0355
 N-N= 5.157900043206D+02 E-N=-2.867068998077D+03  KE= 7.755162316001D+02
 1\1\GINC-NODE56\SP\RB3LYP\6-31+G(d,p)\C6H6O2S1\YANZ\22-Sep-2023\0\\# b
 3lyp/6-31+g(d,p) scrf=(iefpcm,solvent=acetonitrile)\\tmpdir/M3_conf_0_
 56.gjf\\0,1\O,0,0.,0.,0.\S,0,1.4797,0.,0.\C,0,2.02067,0.,1.71574\C,0,1
 .16853,-0.52001,2.69472\C,0,3.2854,0.5064,2.02991\C,0,1.59901,-0.52825
 ,4.02309\H,0,0.18797,-0.89664,2.42495\C,0,3.70196,0.49021,3.36295\H,0,
 3.92209,0.91506,1.25303\C,0,2.86212,-0.02662,4.35502\H,0,0.94693,-0.92
 227,4.79601\H,0,4.67853,0.88472,3.62477\H,0,3.19122,-0.035,5.3895\H,0,
 1.94741,-1.24499,-0.50782\O,0,2.18765,1.08166,-0.72712\\Version=ES64L-
 G16RevA.03\State=1-A\HF=-780.8437365\RMSD=2.447e-09\Dipole=1.3007264,-
 1.3947477,1.9416657\Quadrupole=-1.042251,-0.5205666,1.5628176,2.075886
 1,-2.1181384,5.0386672\PG=C01 [X(C6H6O2S1)]\\@


 THE SOLUTION TO A PROBLEM CHANGES THE PROBLEM.

                                 -- JOHN PEERS
           PAUL DICKSON'S "THE OFFICIAL RULES"
 Job cpu time:       0 days  0 hours  3 minutes  2.0 seconds.
 Elapsed time:       0 days  0 hours  0 minutes 49.6 seconds.
 File lengths (MBytes):  RWF=     53 Int=      0 D2E=      0 Chk=      4 Scr=      1
 Normal termination of Gaussian 16 at Fri Sep 22 17:12:27 2023.
