 Entering Gaussian System, Link 0=g16
 Initial command:
 /share/apps/gaussian/g16/l1.exe "/tmp/55648.mgr/Gau-180358.inp" -scrdir="/tmp/55648.mgr/"
 Entering Link 1 = /share/apps/gaussian/g16/l1.exe PID=    180363.
  
 Copyright (c) 1988,1990,1992,1993,1995,1998,2003,2009,2016,
            Gaussian, Inc.  All Rights Reserved.
  
 This is part of the Gaussian(R) 16 program.  It is based on
 the Gaussian(R) 09 system (copyright 2009, Gaussian, Inc.),
 the Gaussian(R) 03 system (copyright 2003, Gaussian, Inc.),
 the Gaussian(R) 98 system (copyright 1998, Gaussian, Inc.),
 the Gaussian(R) 94 system (copyright 1995, Gaussian, Inc.),
 the Gaussian 92(TM) system (copyright 1992, Gaussian, Inc.),
 the Gaussian 90(TM) system (copyright 1990, Gaussian, Inc.),
 the Gaussian 88(TM) system (copyright 1988, Gaussian, Inc.),
 the Gaussian 86(TM) system (copyright 1986, Carnegie Mellon
 University), and the Gaussian 82(TM) system (copyright 1983,
 Carnegie Mellon University). Gaussian is a federally registered
 trademark of Gaussian, Inc.
  
 This software contains proprietary and confidential information,
 including trade secrets, belonging to Gaussian, Inc.
  
 This software is provided under written license and may be
 used, copied, transmitted, or stored only in accord with that
 written license.
  
 The following legend is applicable only to US Government
 contracts under FAR:
  
                    RESTRICTED RIGHTS LEGEND
  
 Use, reproduction and disclosure by the US Government is
 subject to restrictions as set forth in subparagraphs (a)
 and (c) of the Commercial Computer Software - Restricted
 Rights clause in FAR 52.227-19.
  
 Gaussian, Inc.
 340 Quinnipiac St., Bldg. 40, Wallingford CT 06492
  
  
 ---------------------------------------------------------------
 Warning -- This program may not be used in any manner that
 competes with the business of Gaussian, Inc. or will provide
 assistance to any competitor of Gaussian, Inc.  The licensee
 of this program is prohibited from giving any competitor of
 Gaussian, Inc. access to this program.  By using this program,
 the user acknowledges that Gaussian, Inc. is engaged in the
 business of creating and licensing software in the field of
 computational chemistry and represents and warrants to the
 licensee that it is not a competitor of Gaussian, Inc. and that
 it will not use this program in any manner prohibited above.
 ---------------------------------------------------------------
  

 Cite this work as:
 Gaussian 16, Revision A.03,
 M. J. Frisch, G. W. Trucks, H. B. Schlegel, G. E. Scuseria, 
 M. A. Robb, J. R. Cheeseman, G. Scalmani, V. Barone, 
 G. A. Petersson, H. Nakatsuji, X. Li, M. Caricato, A. V. Marenich, 
 J. Bloino, B. G. Janesko, R. Gomperts, B. Mennucci, H. P. Hratchian, 
 J. V. Ortiz, A. F. Izmaylov, J. L. Sonnenberg, D. Williams-Young, 
 F. Ding, F. Lipparini, F. Egidi, J. Goings, B. Peng, A. Petrone, 
 T. Henderson, D. Ranasinghe, V. G. Zakrzewski, J. Gao, N. Rega, 
 G. Zheng, W. Liang, M. Hada, M. Ehara, K. Toyota, R. Fukuda, 
 J. Hasegawa, M. Ishida, T. Nakajima, Y. Honda, O. Kitao, H. Nakai, 
 T. Vreven, K. Throssell, J. A. Montgomery, Jr., J. E. Peralta, 
 F. Ogliaro, M. J. Bearpark, J. J. Heyd, E. N. Brothers, K. N. Kudin, 
 V. N. Staroverov, T. A. Keith, R. Kobayashi, J. Normand, 
 K. Raghavachari, A. P. Rendell, J. C. Burant, S. S. Iyengar, 
 J. Tomasi, M. Cossi, J. M. Millam, M. Klene, C. Adamo, R. Cammi, 
 J. W. Ochterski, R. L. Martin, K. Morokuma, O. Farkas, 
 J. B. Foresman, and D. J. Fox, Gaussian, Inc., Wallingford CT, 2016.
 
 ******************************************
 Gaussian 16:  ES64L-G16RevA.03 25-Dec-2016
                22-Sep-2023 
 ******************************************
 %nprocshared=4
 Will use up to    4 processors via shared memory.
 %mem=4GB
 ------------------------------------------------------
 # b3lyp/6-31+g(d,p) scrf=(iefpcm,solvent=acetonitrile)
 ------------------------------------------------------
 1/38=1,172=1/1;
 2/12=2,17=6,18=5,40=1/2;
 3/5=1,6=6,7=111,11=2,25=1,30=1,70=2201,72=2,74=-5/1,2,3;
 4//1;
 5/5=2,38=5,53=2/2;
 6/7=2,8=2,9=2,10=2,28=1/1;
 99/5=1,9=1/99;
 ----------------------
 tmpdir/M3_conf_0_9.gjf
 ----------------------
 Symbolic Z-matrix:
 Charge =  0 Multiplicity = 1
 C                     0.        0.        0. 
 H                     1.0935    0.        0. 
 H                    -0.39746   0.       -1.01785 
 H                    -0.32604  -0.89641   0.54181 
 H                    -0.34694   0.87021   0.56382 
 
                          Input orientation:                          
 ---------------------------------------------------------------------
 Center     Atomic      Atomic             Coordinates (Angstroms)
 Number     Number       Type             X           Y           Z
 ---------------------------------------------------------------------
      1          6           0        0.000000    0.000000    0.000000
      2          1           0        1.093500    0.000000    0.000000
      3          1           0       -0.397460    0.000000   -1.017850
      4          1           0       -0.326040   -0.896410    0.541810
      5          1           0       -0.346940    0.870210    0.563820
 ---------------------------------------------------------------------
                    Distance matrix (angstroms):
                    1          2          3          4          5
     1  C    0.000000
     2  H    1.093500   0.000000
     3  H    1.092700   1.805265   0.000000
     4  H    1.097001   1.764144   1.800331   0.000000
     5  H    1.093401   1.774831   1.805962   1.766881   0.000000
 Stoichiometry    CH4
 Framework group  C1[X(CH4)]
 Deg. of freedom     9
 Full point group                 C1      NOp   1
 Largest Abelian subgroup         C1      NOp   1
 Largest concise Abelian subgroup C1      NOp   1
                         Standard orientation:                         
 ---------------------------------------------------------------------
 Center     Atomic      Atomic             Coordinates (Angstroms)
 Number     Number       Type             X           Y           Z
 ---------------------------------------------------------------------
      1          6           0       -0.008971    0.000708   -0.002874
      2          1           0        0.399499   -0.817710   -0.602112
      3          1           0       -1.101525   -0.000492   -0.020681
      4          1           0        0.360626   -0.129428    1.021759
      5          1           0        0.395224    0.943379   -0.381721
 ---------------------------------------------------------------------
 Rotational constants (GHZ):         160.3055647         156.0832818         154.9919942
 Standard basis: 6-31+G(d,p) (6D, 7F)
 There are    39 symmetry adapted cartesian basis functions of A   symmetry.
 There are    39 symmetry adapted basis functions of A   symmetry.
    39 basis functions,    60 primitive gaussians,    39 cartesian basis functions
     5 alpha electrons        5 beta electrons
       nuclear repulsion energy        13.3851343187 Hartrees.
 NAtoms=    5 NActive=    5 NUniq=    5 SFac= 1.00D+00 NAtFMM=   60 NAOKFM=F Big=F
 Integral buffers will be    131072 words long.
 Raffenetti 2 integral format.
 Two-electron integral symmetry is turned on.
 ------------------------------------------------------------------------------
 Polarizable Continuum Model (PCM)
 =================================
 Model                : PCM.
 Atomic radii         : UFF (Universal Force Field).
 Polarization charges : Total charges.
 Charge compensation  : None.
 Solution method      : On-the-fly selection.
 Cavity type          : Scaled VdW (van der Waals Surface) (Alpha=1.100).
 Cavity algorithm     : GePol (No added spheres)
                        Default sphere list used, NSphG=    5.
                        Lebedev-Laikov grids with approx.  5.0 points / Ang**2.
                        Smoothing algorithm: York/Karplus (Gamma=1.0000).
                        Polarization charges: spherical gaussians, with
                                              point-specific exponents (IZeta= 3).
                        Self-potential: point-specific (ISelfS= 7).
                        Self-field    : sphere-specific E.n sum rule (ISelfD= 2).
 Solvent              : Acetonitrile, Eps=  35.688000 Eps(inf)=   1.806874
 ------------------------------------------------------------------------------
 Spheres list:
 ISph  on   Nord     Re0    Alpha      Xe            Ye            Ze
    1   C      1    1.9255  1.100     -0.008971      0.000708     -0.002874
    2   H      2    1.4430  1.100      0.399499     -0.817710     -0.602112
    3   H      3    1.4430  1.100     -1.101525     -0.000492     -0.020681
    4   H      4    1.4430  1.100      0.360626     -0.129428      1.021759
    5   H      5    1.4430  1.100      0.395224      0.943379     -0.381721
 ------------------------------------------------------------------------------
 One-electron integrals computed using PRISM.
 NBasis=    39 RedAO= T EigKep=  1.22D-02  NBF=    39
 NBsUse=    39 1.00D-06 EigRej= -1.00D+00 NBFU=    39
 ExpMin= 4.38D-02 ExpMax= 3.05D+03 ExpMxC= 4.57D+02 IAcc=3 IRadAn=         5 AccDes= 0.00D+00
 Harris functional with IExCor=  402 and IRadAn=       5 diagonalized for initial guess.
 HarFok:  IExCor=  402 AccDes= 0.00D+00 IRadAn=         5 IDoV= 1 UseB2=F ITyADJ=14
 ICtDFT=  3500011 ScaDFX=  1.000000  1.000000  1.000000  1.000000
 FoFCou: FMM=F IPFlag=           0 FMFlag=      100000 FMFlg1=           0
         NFxFlg=           0 DoJE=T BraDBF=F KetDBF=T FulRan=T
         wScrn=  0.000000 ICntrl=       500 IOpCl=  0 I1Cent=   200000004 NGrid=           0
         NMat0=    1 NMatS0=      1 NMatT0=    0 NMatD0=    1 NMtDS0=    0 NMtDT0=    0
 Petite list used in FoFCou.
 Keep R1 ints in memory in canonical form, NReq=3756779.
 Requested convergence on RMS density matrix=1.00D-08 within 128 cycles.
 Requested convergence on MAX density matrix=1.00D-06.
 Requested convergence on             energy=1.00D-06.
 No special actions if energy rises.
 Inv3:  Mode=1 IEnd=      702768.
 Iteration    1 A*A^-1 deviation from unit magnitude is 6.00D-15 for    473.
 Iteration    1 A*A^-1 deviation from orthogonality  is 2.30D-15 for    360    104.
 Iteration    1 A^-1*A deviation from unit magnitude is 5.77D-15 for    473.
 Iteration    1 A^-1*A deviation from orthogonality  is 1.28D-15 for    287    242.
 Error on total polarization charges =  0.00912
 SCF Done:  E(RB3LYP) =  -40.5259853781     A.U. after    7 cycles
            NFock=  7  Conv=0.67D-08     -V/T= 2.0117

 **********************************************************************

            Population analysis using the SCF density.

 **********************************************************************

 Orbital symmetries:
       Occupied  (A) (A) (A) (A) (A)
       Virtual   (A) (A) (A) (A) (A) (A) (A) (A) (A) (A) (A) (A)
                 (A) (A) (A) (A) (A) (A) (A) (A) (A) (A) (A) (A)
                 (A) (A) (A) (A) (A) (A) (A) (A) (A) (A)
 The electronic state is 1-A.
 Alpha  occ. eigenvalues --  -10.17198  -0.69476  -0.39814  -0.39125  -0.38831
 Alpha virt. eigenvalues --    0.01699   0.06184   0.06237   0.06259   0.17912
 Alpha virt. eigenvalues --    0.18150   0.18571   0.27849   0.63826   0.63894
 Alpha virt. eigenvalues --    0.63985   0.90454   0.90903   0.91853   1.05189
 Alpha virt. eigenvalues --    1.11396   1.35831   1.35910   2.03233   2.03323
 Alpha virt. eigenvalues --    2.05008   2.06784   2.09669   2.09980   2.59650
 Alpha virt. eigenvalues --    2.60961   2.66030   2.89925   2.89988   3.16211
 Alpha virt. eigenvalues --    3.40469   3.41593   3.41774   4.41944
          Condensed to atoms (all electrons):
               1          2          3          4          5
     1  C    5.062436   0.389940   0.392260   0.389006   0.390081
     2  H    0.389940   0.528915  -0.023032  -0.026242  -0.025270
     3  H    0.392260  -0.023032   0.519605  -0.023463  -0.023002
     4  H    0.389006  -0.026242  -0.023463   0.532123  -0.026009
     5  H    0.390081  -0.025270  -0.023002  -0.026009   0.528386
 Mulliken charges:
               1
     1  C   -0.623722
     2  H    0.155690
     3  H    0.157632
     4  H    0.154586
     5  H    0.155814
 Sum of Mulliken charges =  -0.00000
 Mulliken charges with hydrogens summed into heavy atoms:
               1
     1  C   -0.000000
 Electronic spatial extent (au):  <R**2>=             36.0717
 Charge=             -0.0000 electrons
 Dipole moment (field-independent basis, Debye):
    X=              0.0368    Y=             -0.0026    Z=              0.0091  Tot=              0.0380
 Quadrupole moment (field-independent basis, Debye-Ang):
   XX=             -8.3808   YY=             -8.5428   ZZ=             -8.5973
   XY=              0.0011   XZ=             -0.0048   YZ=              0.0015
 Traceless Quadrupole moment (field-independent basis, Debye-Ang):
   XX=              0.1262   YY=             -0.0358   ZZ=             -0.0903
   XY=              0.0011   XZ=             -0.0048   YZ=              0.0015
 Octapole moment (field-independent basis, Debye-Ang**2):
  XXX=             -0.8205  YYY=              0.1964  ZZZ=              0.5338  XYY=              0.4703
  XXY=             -0.0018  XXZ=             -0.0318  XZZ=              0.4254  YZZ=             -0.1991
  YYZ=             -0.4913  XYZ=              0.0051
 Hexadecapole moment (field-independent basis, Debye-Ang**3):
 XXXX=            -16.6248 YYYY=            -16.8979 ZZZZ=            -16.9324 XXXY=              0.0034
 XXXZ=              0.0022 YYYX=              0.1285 YYYZ=              0.0116 ZZZX=              0.2994
 ZZZY=             -0.0109 XXYY=             -5.8230 XXZZ=             -5.8648 YYZZ=             -5.6669
 XXYZ=              0.0070 YYXZ=             -0.3277 ZZXY=             -0.1260
 N-N= 1.338513431874D+01 E-N=-1.197699002252D+02  KE= 4.005779708619D+01
 1\1\GINC-NODE56\SP\RB3LYP\6-31+G(d,p)\C1H4\YANZ\22-Sep-2023\0\\# b3lyp
 /6-31+g(d,p) scrf=(iefpcm,solvent=acetonitrile)\\tmpdir/M3_conf_0_9.gj
 f\\0,1\C,0,0.,0.,0.\H,0,1.0935,0.,0.\H,0,-0.39746,0.,-1.01785\H,0,-0.3
 2604,-0.89641,0.54181\H,0,-0.34694,0.87021,0.56382\\Version=ES64L-G16R
 evA.03\State=1-A\HF=-40.5259854\RMSD=6.736e-09\Dipole=0.0042123,-0.003
 3267,0.0139705\Quadrupole=-0.0200622,-0.0537775,0.0738397,-0.0157165,0
 .0475612,0.0119341\PG=C01 [X(C1H4)]\\@


 CHEMISTRY BEGAN BY SAYING IT WOULD CHANGE THE BASER
 METALS INTO GOLD.  BY NOT DOING THAT IT HAS DONE MUCH
 GREATER THINGS.  --  RALPH WALDO EMERSON
 Job cpu time:       0 days  0 hours  0 minutes  9.8 seconds.
 Elapsed time:       0 days  0 hours  0 minutes  2.6 seconds.
 File lengths (MBytes):  RWF=     11 Int=      0 D2E=      0 Chk=      1 Scr=      1
 Normal termination of Gaussian 16 at Fri Sep 22 17:08:08 2023.
