 Entering Gaussian System, Link 0=g16
 Initial command:
 /share/apps/gaussian/g16/l1.exe "/tmp/55648.mgr/Gau-180718.inp" -scrdir="/tmp/55648.mgr/"
 Entering Link 1 = /share/apps/gaussian/g16/l1.exe PID=    180719.
  
 Copyright (c) 1988,1990,1992,1993,1995,1998,2003,2009,2016,
            Gaussian, Inc.  All Rights Reserved.
  
 This is part of the Gaussian(R) 16 program.  It is based on
 the Gaussian(R) 09 system (copyright 2009, Gaussian, Inc.),
 the Gaussian(R) 03 system (copyright 2003, Gaussian, Inc.),
 the Gaussian(R) 98 system (copyright 1998, Gaussian, Inc.),
 the Gaussian(R) 94 system (copyright 1995, Gaussian, Inc.),
 the Gaussian 92(TM) system (copyright 1992, Gaussian, Inc.),
 the Gaussian 90(TM) system (copyright 1990, Gaussian, Inc.),
 the Gaussian 88(TM) system (copyright 1988, Gaussian, Inc.),
 the Gaussian 86(TM) system (copyright 1986, Carnegie Mellon
 University), and the Gaussian 82(TM) system (copyright 1983,
 Carnegie Mellon University). Gaussian is a federally registered
 trademark of Gaussian, Inc.
  
 This software contains proprietary and confidential information,
 including trade secrets, belonging to Gaussian, Inc.
  
 This software is provided under written license and may be
 used, copied, transmitted, or stored only in accord with that
 written license.
  
 The following legend is applicable only to US Government
 contracts under FAR:
  
                    RESTRICTED RIGHTS LEGEND
  
 Use, reproduction and disclosure by the US Government is
 subject to restrictions as set forth in subparagraphs (a)
 and (c) of the Commercial Computer Software - Restricted
 Rights clause in FAR 52.227-19.
  
 Gaussian, Inc.
 340 Quinnipiac St., Bldg. 40, Wallingford CT 06492
  
  
 ---------------------------------------------------------------
 Warning -- This program may not be used in any manner that
 competes with the business of Gaussian, Inc. or will provide
 assistance to any competitor of Gaussian, Inc.  The licensee
 of this program is prohibited from giving any competitor of
 Gaussian, Inc. access to this program.  By using this program,
 the user acknowledges that Gaussian, Inc. is engaged in the
 business of creating and licensing software in the field of
 computational chemistry and represents and warrants to the
 licensee that it is not a competitor of Gaussian, Inc. and that
 it will not use this program in any manner prohibited above.
 ---------------------------------------------------------------
  

 Cite this work as:
 Gaussian 16, Revision A.03,
 M. J. Frisch, G. W. Trucks, H. B. Schlegel, G. E. Scuseria, 
 M. A. Robb, J. R. Cheeseman, G. Scalmani, V. Barone, 
 G. A. Petersson, H. Nakatsuji, X. Li, M. Caricato, A. V. Marenich, 
 J. Bloino, B. G. Janesko, R. Gomperts, B. Mennucci, H. P. Hratchian, 
 J. V. Ortiz, A. F. Izmaylov, J. L. Sonnenberg, D. Williams-Young, 
 F. Ding, F. Lipparini, F. Egidi, J. Goings, B. Peng, A. Petrone, 
 T. Henderson, D. Ranasinghe, V. G. Zakrzewski, J. Gao, N. Rega, 
 G. Zheng, W. Liang, M. Hada, M. Ehara, K. Toyota, R. Fukuda, 
 J. Hasegawa, M. Ishida, T. Nakajima, Y. Honda, O. Kitao, H. Nakai, 
 T. Vreven, K. Throssell, J. A. Montgomery, Jr., J. E. Peralta, 
 F. Ogliaro, M. J. Bearpark, J. J. Heyd, E. N. Brothers, K. N. Kudin, 
 V. N. Staroverov, T. A. Keith, R. Kobayashi, J. Normand, 
 K. Raghavachari, A. P. Rendell, J. C. Burant, S. S. Iyengar, 
 J. Tomasi, M. Cossi, J. M. Millam, M. Klene, C. Adamo, R. Cammi, 
 J. W. Ochterski, R. L. Martin, K. Morokuma, O. Farkas, 
 J. B. Foresman, and D. J. Fox, Gaussian, Inc., Wallingford CT, 2016.
 
 ******************************************
 Gaussian 16:  ES64L-G16RevA.03 25-Dec-2016
                22-Sep-2023 
 ******************************************
 %nprocshared=4
 Will use up to    4 processors via shared memory.
 %mem=4GB
 ------------------------------------------------------
 # b3lyp/6-31+g(d,p) scrf=(iefpcm,solvent=acetonitrile)
 ------------------------------------------------------
 1/38=1,172=1/1;
 2/12=2,17=6,18=5,40=1/2;
 3/5=1,6=6,7=111,11=2,25=1,30=1,70=2201,72=2,74=-5/1,2,3;
 4//1;
 5/5=2,38=5,53=2/2;
 6/7=2,8=2,9=2,10=2,28=1/1;
 99/5=1,9=1/99;
 -----------------------
 tmpdir/M3_conf_0_19.gjf
 -----------------------
 Symbolic Z-matrix:
 Charge =  0 Multiplicity = 1
 C                     0.        0.        0. 
 S                     1.81      0.        0. 
 O                     2.28519   0.        1.43433 
 C                    -0.70157  -0.16311   1.19384 
 C                    -0.66704   0.26413  -1.20034 
 C                    -2.09561  -0.08759   1.17599 
 H                    -0.16172  -0.34266   2.1176 
 C                    -2.05962   0.33547  -1.20007 
 H                    -0.11482   0.40878  -2.12491 
 C                    -2.79587   0.16264  -0.01491 
 H                    -2.64637  -0.22216   2.10295 
 H                    -2.58153   0.53434  -2.13202 
 H                     2.05442  -1.33599  -0.52222 
 H                    -3.88529   0.24716  -0.0189 
 
                          Input orientation:                          
 ---------------------------------------------------------------------
 Center     Atomic      Atomic             Coordinates (Angstroms)
 Number     Number       Type             X           Y           Z
 ---------------------------------------------------------------------
      1          6           0        0.000000    0.000000    0.000000
      2         16           0        1.810000    0.000000    0.000000
      3          8           0        2.285190    0.000000    1.434330
      4          6           0       -0.701570   -0.163110    1.193840
      5          6           0       -0.667040    0.264130   -1.200340
      6          6           0       -2.095610   -0.087590    1.175990
      7          1           0       -0.161720   -0.342660    2.117600
      8          6           0       -2.059620    0.335470   -1.200070
      9          1           0       -0.114820    0.408780   -2.124910
     10          6           0       -2.795870    0.162640   -0.014910
     11          1           0       -2.646370   -0.222160    2.102950
     12          1           0       -2.581530    0.534340   -2.132020
     13          1           0        2.054420   -1.335990   -0.522220
     14          1           0       -3.885290    0.247160   -0.018900
 ---------------------------------------------------------------------
                    Distance matrix (angstroms):
                    1          2          3          4          5
     1  C    0.000000
     2  S    1.810000   0.000000
     3  O    2.698036   1.510996   0.000000
     4  C    1.394295   2.785649   3.000862   0.000000
     5  C    1.398400   2.765196   3.965717   2.432247   0.000000
     6  C    2.404622   4.079757   4.389285   1.396198   2.794900
     7  H    2.151232   2.913645   2.563521   1.084900   3.410611
     8  C    2.407227   4.065300   5.092149   2.797085   1.394406
     9  H    2.166917   2.896079   4.312231   3.418397   1.086600
    10  C    2.800636   4.608765   5.286201   2.439935   2.438742
    11  H    3.387481   4.932645   4.981635   2.147607   3.881488
    12  H    3.390476   4.910862   6.057172   3.883559   2.146232
    13  H    2.505639   1.455103   2.380381   3.451955   3.229021
    14  H    3.893189   5.700682   6.344115   3.431491   3.428297
                    6          7          8          9         10
     6  C    0.000000
     7  H    2.166015   0.000000
     8  C    2.413698   3.881858   0.000000
     9  H    3.881476   4.308799   2.154751   0.000000
    10  C    1.404002   3.426612   1.405894   3.420631   0.000000
    11  H    1.086600   2.487613   3.400760   4.968061   2.157719
    12  H    3.400859   4.968287   1.086494   2.469914   2.160152
    13  H    4.654586   3.587009   4.492058   3.212233   5.101820
    14  H    2.177791   4.333301   2.176243   4.321787   1.092701
                   11         12         13         14
    11  H    0.000000
    12  H    4.302495   0.000000
    13  H    5.498142   5.251821   0.000000
    14  H    2.501486   2.499508   6.167645   0.000000
 Stoichiometry    C6H6OS
 Framework group  C1[X(C6H6OS)]
 Deg. of freedom    36
 Full point group                 C1      NOp   1
 Largest Abelian subgroup         C1      NOp   1
 Largest concise Abelian subgroup C1      NOp   1
                         Standard orientation:                         
 ---------------------------------------------------------------------
 Center     Atomic      Atomic             Coordinates (Angstroms)
 Number     Number       Type             X           Y           Z
 ---------------------------------------------------------------------
      1          6           0        0.125608   -0.178362    0.051100
      2         16           0        1.910029   -0.476684   -0.003200
      3          8           0        2.607809    0.849377   -0.197549
      4          6           0       -0.367021    1.125591    0.083995
      5          6           0       -0.737127   -1.275127   -0.040096
      6          6           0       -1.747994    1.328892    0.053169
      7          1           0        0.321871    1.962450    0.129860
      8          6           0       -2.113556   -1.053828   -0.069095
      9          1           0       -0.347765   -2.288620   -0.084014
     10          6           0       -2.641276    0.248499   -0.024431
     11          1           0       -2.136040    2.343285    0.086748
     12          1           0       -2.787038   -1.903961   -0.133629
     13          1           0        2.134398   -0.869318    1.379847
     14          1           0       -3.720169    0.414092   -0.075060
 ---------------------------------------------------------------------
 Rotational constants (GHZ):           4.5437265           1.1448883           0.9238020
 Standard basis: 6-31+G(d,p) (6D, 7F)
 There are   186 symmetry adapted cartesian basis functions of A   symmetry.
 There are   186 symmetry adapted basis functions of A   symmetry.
   186 basis functions,   322 primitive gaussians,   186 cartesian basis functions
    33 alpha electrons       33 beta electrons
       nuclear repulsion energy       407.8801266333 Hartrees.
 NAtoms=   14 NActive=   14 NUniq=   14 SFac= 1.00D+00 NAtFMM=   60 NAOKFM=F Big=F
 Integral buffers will be    131072 words long.
 Raffenetti 2 integral format.
 Two-electron integral symmetry is turned on.
 ------------------------------------------------------------------------------
 Polarizable Continuum Model (PCM)
 =================================
 Model                : PCM.
 Atomic radii         : UFF (Universal Force Field).
 Polarization charges : Total charges.
 Charge compensation  : None.
 Solution method      : On-the-fly selection.
 Cavity type          : Scaled VdW (van der Waals Surface) (Alpha=1.100).
 Cavity algorithm     : GePol (No added spheres)
                        Default sphere list used, NSphG=   14.
                        Lebedev-Laikov grids with approx.  5.0 points / Ang**2.
                        Smoothing algorithm: York/Karplus (Gamma=1.0000).
                        Polarization charges: spherical gaussians, with
                                              point-specific exponents (IZeta= 3).
                        Self-potential: point-specific (ISelfS= 7).
                        Self-field    : sphere-specific E.n sum rule (ISelfD= 2).
 Solvent              : Acetonitrile, Eps=  35.688000 Eps(inf)=   1.806874
 ------------------------------------------------------------------------------
 Spheres list:
 ISph  on   Nord     Re0    Alpha      Xe            Ye            Ze
    1   C      1    1.9255  1.100      0.125608     -0.178362      0.051100
    2   S      2    2.0175  1.100      1.910029     -0.476684     -0.003200
    3   O      3    1.7500  1.100      2.607809      0.849377     -0.197549
    4   C      4    1.9255  1.100     -0.367021      1.125591      0.083995
    5   C      5    1.9255  1.100     -0.737127     -1.275127     -0.040096
    6   C      6    1.9255  1.100     -1.747994      1.328892      0.053169
    7   H      7    1.4430  1.100      0.321871      1.962450      0.129860
    8   C      8    1.9255  1.100     -2.113556     -1.053828     -0.069095
    9   H      9    1.4430  1.100     -0.347765     -2.288620     -0.084014
   10   C     10    1.9255  1.100     -2.641276      0.248499     -0.024431
   11   H     11    1.4430  1.100     -2.136040      2.343285      0.086748
   12   H     12    1.4430  1.100     -2.787038     -1.903961     -0.133629
   13   H     13    1.4430  1.100      2.134398     -0.869318      1.379847
   14   H     14    1.4430  1.100     -3.720169      0.414092     -0.075060
 ------------------------------------------------------------------------------
 One-electron integrals computed using PRISM.
 NBasis=   186 RedAO= T EigKep=  5.22D-06  NBF=   186
 NBsUse=   186 1.00D-06 EigRej= -1.00D+00 NBFU=   186
 ExpMin= 4.05D-02 ExpMax= 2.19D+04 ExpMxC= 3.30D+03 IAcc=3 IRadAn=         5 AccDes= 0.00D+00
 Harris functional with IExCor=  402 and IRadAn=       5 diagonalized for initial guess.
 HarFok:  IExCor=  402 AccDes= 0.00D+00 IRadAn=         5 IDoV= 1 UseB2=F ITyADJ=14
 ICtDFT=  3500011 ScaDFX=  1.000000  1.000000  1.000000  1.000000
 FoFCou: FMM=F IPFlag=           0 FMFlag=      100000 FMFlg1=           0
         NFxFlg=           0 DoJE=T BraDBF=F KetDBF=T FulRan=T
         wScrn=  0.000000 ICntrl=       500 IOpCl=  0 I1Cent=   200000004 NGrid=           0
         NMat0=    1 NMatS0=      1 NMatT0=    0 NMatD0=    1 NMtDS0=    0 NMtDT0=    0
 Petite list used in FoFCou.
 Keep R1 ints in memory in canonical form, NReq=155283421.
 Requested convergence on RMS density matrix=1.00D-08 within 128 cycles.
 Requested convergence on MAX density matrix=1.00D-06.
 Requested convergence on             energy=1.00D-06.
 No special actions if energy rises.
 Inv3:  Mode=1 IEnd=     5597868.
 Iteration    1 A*A^-1 deviation from unit magnitude is 6.22D-15 for   1338.
 Iteration    1 A*A^-1 deviation from orthogonality  is 1.77D-15 for    862    356.
 Iteration    1 A^-1*A deviation from unit magnitude is 6.22D-15 for   1338.
 Iteration    1 A^-1*A deviation from orthogonality  is 1.34D-15 for   1320    613.
 Error on total polarization charges =  0.01718
 SCF Done:  E(RB3LYP) =  -705.629288281     A.U. after   14 cycles
            NFock= 14  Conv=0.38D-08     -V/T= 2.0064

 **********************************************************************

            Population analysis using the SCF density.

 **********************************************************************

 Orbital symmetries:
       Occupied  (A) (A) (A) (A) (A) (A) (A) (A) (A) (A) (A) (A)
                 (A) (A) (A) (A) (A) (A) (A) (A) (A) (A) (A) (A)
                 (A) (A) (A) (A) (A) (A) (A) (A) (A)
       Virtual   (A) (A) (A) (A) (A) (A) (A) (A) (A) (A) (A) (A)
                 (A) (A) (A) (A) (A) (A) (A) (A) (A) (A) (A) (A)
                 (A) (A) (A) (A) (A) (A) (A) (A) (A) (A) (A) (A)
                 (A) (A) (A) (A) (A) (A) (A) (A) (A) (A) (A) (A)
                 (A) (A) (A) (A) (A) (A) (A) (A) (A) (A) (A) (A)
                 (A) (A) (A) (A) (A) (A) (A) (A) (A) (A) (A) (A)
                 (A) (A) (A) (A) (A) (A) (A) (A) (A) (A) (A) (A)
                 (A) (A) (A) (A) (A) (A) (A) (A) (A) (A) (A) (A)
                 (A) (A) (A) (A) (A) (A) (A) (A) (A) (A) (A) (A)
                 (A) (A) (A) (A) (A) (A) (A) (A) (A) (A) (A) (A)
                 (A) (A) (A) (A) (A) (A) (A) (A) (A) (A) (A) (A)
                 (A) (A) (A) (A) (A) (A) (A) (A) (A) (A) (A) (A)
                 (A) (A) (A) (A) (A) (A) (A) (A) (A)
 The electronic state is 1-A.
 Alpha  occ. eigenvalues --  -89.01305 -19.14044 -10.23746 -10.21856 -10.21539
 Alpha  occ. eigenvalues --  -10.21333 -10.21226 -10.21185  -8.05936  -6.02382
 Alpha  occ. eigenvalues --   -6.02231  -6.01658  -1.03286  -0.87883  -0.78844
 Alpha  occ. eigenvalues --   -0.76679  -0.70588  -0.62503  -0.60550  -0.53667
 Alpha  occ. eigenvalues --   -0.48819  -0.47336  -0.46264  -0.44661  -0.43900
 Alpha  occ. eigenvalues --   -0.40498  -0.38320  -0.37687  -0.36149  -0.29986
 Alpha  occ. eigenvalues --   -0.28418  -0.27348  -0.24854
 Alpha virt. eigenvalues --   -0.04874  -0.02956  -0.01054  -0.00341   0.00992
 Alpha virt. eigenvalues --    0.02688   0.03384   0.03822   0.04671   0.05950
 Alpha virt. eigenvalues --    0.06736   0.06907   0.08071   0.08565   0.08805
 Alpha virt. eigenvalues --    0.10115   0.11165   0.11989   0.12732   0.13588
 Alpha virt. eigenvalues --    0.13695   0.14488   0.15218   0.15854   0.17178
 Alpha virt. eigenvalues --    0.18191   0.18774   0.19193   0.19686   0.20923
 Alpha virt. eigenvalues --    0.21678   0.21930   0.23078   0.24208   0.24623
 Alpha virt. eigenvalues --    0.25829   0.26322   0.26622   0.27787   0.28675
 Alpha virt. eigenvalues --    0.29852   0.31379   0.32888   0.33287   0.33944
 Alpha virt. eigenvalues --    0.34400   0.39285   0.45823   0.50098   0.53016
 Alpha virt. eigenvalues --    0.55844   0.58999   0.60885   0.61277   0.63670
 Alpha virt. eigenvalues --    0.65374   0.65783   0.68394   0.70436   0.71506
 Alpha virt. eigenvalues --    0.71831   0.73332   0.74175   0.75162   0.77290
 Alpha virt. eigenvalues --    0.78077   0.84893   0.86419   0.88028   0.90706
 Alpha virt. eigenvalues --    0.90995   0.91549   0.95388   0.98650   1.00531
 Alpha virt. eigenvalues --    1.02346   1.03704   1.07096   1.08526   1.13300
 Alpha virt. eigenvalues --    1.14491   1.14907   1.20666   1.22483   1.24542
 Alpha virt. eigenvalues --    1.27472   1.29501   1.31815   1.32230   1.35106
 Alpha virt. eigenvalues --    1.38052   1.39101   1.40417   1.42885   1.44086
 Alpha virt. eigenvalues --    1.52726   1.56480   1.74960   1.78637   1.81453
 Alpha virt. eigenvalues --    1.83457   1.85498   1.86943   1.92850   1.93424
 Alpha virt. eigenvalues --    1.94878   1.96639   1.97089   1.98745   1.99888
 Alpha virt. eigenvalues --    2.03227   2.05035   2.06482   2.12015   2.16327
 Alpha virt. eigenvalues --    2.21002   2.26515   2.28022   2.35426   2.37110
 Alpha virt. eigenvalues --    2.37378   2.39711   2.45235   2.49063   2.50249
 Alpha virt. eigenvalues --    2.51469   2.52836   2.57985   2.59085   2.61974
 Alpha virt. eigenvalues --    2.63181   2.64864   2.71718   2.74300   2.77979
 Alpha virt. eigenvalues --    2.82423   2.93506   3.04312   3.16553   3.25136
 Alpha virt. eigenvalues --    3.26983   3.30835   3.40978   3.51342   3.84346
 Alpha virt. eigenvalues --    3.98905   4.09010   4.26420   4.27340   4.27679
 Alpha virt. eigenvalues --    4.44077   4.47406   4.79714
          Condensed to atoms (all electrons):
               1          2          3          4          5          6
     1  C    9.599101  -1.086256   0.128148  -0.420253  -1.703055  -0.217592
     2  S   -1.086256  15.672457   0.104562  -0.068735   0.848379  -0.109604
     3  O    0.128148   0.104562   8.746819  -0.334976   0.170007   0.015641
     4  C   -0.420253  -0.068735  -0.334976   9.506964  -2.978989  -0.333583
     5  C   -1.703055   0.848379   0.170007  -2.978989  10.975115  -0.233990
     6  C   -0.217592  -0.109604   0.015641  -0.333583  -0.233990   6.186046
     7  H    0.001341  -0.006011   0.003176   0.261173   0.024690   0.025475
     8  C    0.598451  -0.435676  -0.025970   0.017400  -1.052283   0.016247
     9  H    0.051667   0.018678   0.000864   0.047017   0.231735  -0.010327
    10  C   -0.487147   0.092580   0.007985  -0.035975   0.112432   0.447883
    11  H    0.015518   0.000397   0.000329   0.026129  -0.001277   0.268605
    12  H   -0.001367   0.000258   0.000027  -0.007585  -0.011387   0.008754
    13  H   -0.100000   0.273505  -0.058468   0.049360  -0.052427   0.029652
    14  H    0.001015  -0.000231  -0.000004   0.004403   0.002498   0.019259
               7          8          9         10         11         12
     1  C    0.001341   0.598451   0.051667  -0.487147   0.015518  -0.001367
     2  S   -0.006011  -0.435676   0.018678   0.092580   0.000397   0.000258
     3  O    0.003176  -0.025970   0.000864   0.007985   0.000329   0.000027
     4  C    0.261173   0.017400   0.047017  -0.035975   0.026129  -0.007585
     5  C    0.024690  -1.052283   0.231735   0.112432  -0.001277  -0.011387
     6  C    0.025475   0.016247  -0.010327   0.447883   0.268605   0.008754
     7  H    0.523354  -0.004465  -0.000136   0.007681  -0.005818   0.000011
     8  C   -0.004465   6.381160  -0.029340   0.308885  -0.004028   0.305449
     9  H   -0.000136  -0.029340   0.536625   0.000257   0.000013  -0.005781
    10  C    0.007681   0.308885   0.000257   5.393360   0.006155   0.020483
    11  H   -0.005818  -0.004028   0.000013   0.006155   0.547616  -0.000155
    12  H    0.000011   0.305449  -0.005781   0.020483  -0.000155   0.543571
    13  H   -0.000071  -0.011043   0.000015   0.005855   0.000000   0.000002
    14  H   -0.000117   0.009905  -0.000127   0.279151  -0.005052  -0.005000
              13         14
     1  C   -0.100000   0.001015
     2  S    0.273505  -0.000231
     3  O   -0.058468  -0.000004
     4  C    0.049360   0.004403
     5  C   -0.052427   0.002498
     6  C    0.029652   0.019259
     7  H   -0.000071  -0.000117
     8  C   -0.011043   0.009905
     9  H    0.000015  -0.000127
    10  C    0.005855   0.279151
    11  H    0.000000  -0.005052
    12  H    0.000002  -0.005000
    13  H    0.799292  -0.000000
    14  H   -0.000000   0.538923
 Mulliken charges:
               1
     1  C   -0.379571
     2  S    0.695699
     3  O   -0.758140
     4  C    0.267650
     5  C   -0.331448
     6  C   -0.112464
     7  H    0.169716
     8  C   -0.074692
     9  H    0.158841
    10  C   -0.159587
    11  H    0.151568
    12  H    0.152722
    13  H    0.064329
    14  H    0.155378
 Sum of Mulliken charges =  -0.00000
 Mulliken charges with hydrogens summed into heavy atoms:
               1
     1  C   -0.379571
     2  S    0.760029
     3  O   -0.758140
     4  C    0.437365
     5  C   -0.172607
     6  C    0.039104
     8  C    0.078030
    10  C   -0.004209
 Electronic spatial extent (au):  <R**2>=           1197.4126
 Charge=              0.0000 electrons
 Dipole moment (field-independent basis, Debye):
    X=             -4.3467    Y=             -3.1967    Z=              1.5169  Tot=              5.6048
 Quadrupole moment (field-independent basis, Debye-Ang):
   XX=            -58.5274   YY=            -49.8589   ZZ=            -56.4637
   XY=             -8.1235   XZ=              4.2810   YZ=             -0.2793
 Traceless Quadrupole moment (field-independent basis, Debye-Ang):
   XX=             -3.5774   YY=              5.0911   ZZ=             -1.5137
   XY=             -8.1235   XZ=              4.2810   YZ=             -0.2793
 Octapole moment (field-independent basis, Debye-Ang**2):
  XXX=            -44.7749  YYY=             -2.7178  ZZZ=              1.3355  XYY=             -8.6707
  XXY=            -21.2380  XXZ=              8.5904  XZZ=             12.1999  YZZ=             -1.6235
  YYZ=              1.8651  XYZ=             -1.9405
 Hexadecapole moment (field-independent basis, Debye-Ang**3):
 XXXX=          -1189.8584 YYYY=           -332.3987 ZZZZ=            -79.2454 XXXY=            -59.3806
 XXXZ=             29.0363 YYYX=             -4.7058 YYYZ=              0.6320 ZZZX=              3.6408
 ZZZY=             -2.0942 XXYY=           -255.3824 XXZZ=           -219.7884 YYZZ=            -80.8525
 XXYZ=             -1.1779 YYXZ=              4.6800 ZZXY=             -2.7698
 N-N= 4.078801266333D+02 E-N=-2.475306734117D+03  KE= 7.011454707007D+02
 1\1\GINC-NODE56\SP\RB3LYP\6-31+G(d,p)\C6H6O1S1\YANZ\22-Sep-2023\0\\# b
 3lyp/6-31+g(d,p) scrf=(iefpcm,solvent=acetonitrile)\\tmpdir/M3_conf_0_
 19.gjf\\0,1\C,0,0.,0.,0.\S,0,1.81,0.,0.\O,0,2.28519,0.,1.43433\C,0,-0.
 70157,-0.16311,1.19384\C,0,-0.66704,0.26413,-1.20034\C,0,-2.09561,-0.0
 8759,1.17599\H,0,-0.16172,-0.34266,2.1176\C,0,-2.05962,0.33547,-1.2000
 7\H,0,-0.11482,0.40878,-2.12491\C,0,-2.79587,0.16264,-0.01491\H,0,-2.6
 4637,-0.22216,2.10295\H,0,-2.58153,0.53434,-2.13202\H,0,2.05442,-1.335
 99,-0.52222\H,0,-3.88529,0.24716,-0.0189\\Version=ES64L-G16RevA.03\Sta
 te=1-A\HF=-705.6292883\RMSD=3.819e-09\Dipole=-1.4965572,-0.3565374,-1.
 5797677\Quadrupole=-0.7108397,-0.8646201,1.5754599,-2.3107761,-7.11250
 9,-0.4349315\PG=C01 [X(C6H6O1S1)]\\@


 ALL THINGS ARE POSSIBLE EXCEPT SKIING THROUGH A REVOLVING DOOR.
 Job cpu time:       0 days  0 hours  2 minutes 58.8 seconds.
 Elapsed time:       0 days  0 hours  0 minutes 48.6 seconds.
 File lengths (MBytes):  RWF=     48 Int=      0 D2E=      0 Chk=      4 Scr=      1
 Normal termination of Gaussian 16 at Fri Sep 22 17:09:10 2023.
