 Entering Gaussian System, Link 0=g16
 Initial command:
 /share/apps/gaussian/g16/l1.exe "/tmp/55648.mgr/Gau-181281.inp" -scrdir="/tmp/55648.mgr/"
 Entering Link 1 = /share/apps/gaussian/g16/l1.exe PID=    181282.
  
 Copyright (c) 1988,1990,1992,1993,1995,1998,2003,2009,2016,
            Gaussian, Inc.  All Rights Reserved.
  
 This is part of the Gaussian(R) 16 program.  It is based on
 the Gaussian(R) 09 system (copyright 2009, Gaussian, Inc.),
 the Gaussian(R) 03 system (copyright 2003, Gaussian, Inc.),
 the Gaussian(R) 98 system (copyright 1998, Gaussian, Inc.),
 the Gaussian(R) 94 system (copyright 1995, Gaussian, Inc.),
 the Gaussian 92(TM) system (copyright 1992, Gaussian, Inc.),
 the Gaussian 90(TM) system (copyright 1990, Gaussian, Inc.),
 the Gaussian 88(TM) system (copyright 1988, Gaussian, Inc.),
 the Gaussian 86(TM) system (copyright 1986, Carnegie Mellon
 University), and the Gaussian 82(TM) system (copyright 1983,
 Carnegie Mellon University). Gaussian is a federally registered
 trademark of Gaussian, Inc.
  
 This software contains proprietary and confidential information,
 including trade secrets, belonging to Gaussian, Inc.
  
 This software is provided under written license and may be
 used, copied, transmitted, or stored only in accord with that
 written license.
  
 The following legend is applicable only to US Government
 contracts under FAR:
  
                    RESTRICTED RIGHTS LEGEND
  
 Use, reproduction and disclosure by the US Government is
 subject to restrictions as set forth in subparagraphs (a)
 and (c) of the Commercial Computer Software - Restricted
 Rights clause in FAR 52.227-19.
  
 Gaussian, Inc.
 340 Quinnipiac St., Bldg. 40, Wallingford CT 06492
  
  
 ---------------------------------------------------------------
 Warning -- This program may not be used in any manner that
 competes with the business of Gaussian, Inc. or will provide
 assistance to any competitor of Gaussian, Inc.  The licensee
 of this program is prohibited from giving any competitor of
 Gaussian, Inc. access to this program.  By using this program,
 the user acknowledges that Gaussian, Inc. is engaged in the
 business of creating and licensing software in the field of
 computational chemistry and represents and warrants to the
 licensee that it is not a competitor of Gaussian, Inc. and that
 it will not use this program in any manner prohibited above.
 ---------------------------------------------------------------
  

 Cite this work as:
 Gaussian 16, Revision A.03,
 M. J. Frisch, G. W. Trucks, H. B. Schlegel, G. E. Scuseria, 
 M. A. Robb, J. R. Cheeseman, G. Scalmani, V. Barone, 
 G. A. Petersson, H. Nakatsuji, X. Li, M. Caricato, A. V. Marenich, 
 J. Bloino, B. G. Janesko, R. Gomperts, B. Mennucci, H. P. Hratchian, 
 J. V. Ortiz, A. F. Izmaylov, J. L. Sonnenberg, D. Williams-Young, 
 F. Ding, F. Lipparini, F. Egidi, J. Goings, B. Peng, A. Petrone, 
 T. Henderson, D. Ranasinghe, V. G. Zakrzewski, J. Gao, N. Rega, 
 G. Zheng, W. Liang, M. Hada, M. Ehara, K. Toyota, R. Fukuda, 
 J. Hasegawa, M. Ishida, T. Nakajima, Y. Honda, O. Kitao, H. Nakai, 
 T. Vreven, K. Throssell, J. A. Montgomery, Jr., J. E. Peralta, 
 F. Ogliaro, M. J. Bearpark, J. J. Heyd, E. N. Brothers, K. N. Kudin, 
 V. N. Staroverov, T. A. Keith, R. Kobayashi, J. Normand, 
 K. Raghavachari, A. P. Rendell, J. C. Burant, S. S. Iyengar, 
 J. Tomasi, M. Cossi, J. M. Millam, M. Klene, C. Adamo, R. Cammi, 
 J. W. Ochterski, R. L. Martin, K. Morokuma, O. Farkas, 
 J. B. Foresman, and D. J. Fox, Gaussian, Inc., Wallingford CT, 2016.
 
 ******************************************
 Gaussian 16:  ES64L-G16RevA.03 25-Dec-2016
                22-Sep-2023 
 ******************************************
 %nprocshared=4
 Will use up to    4 processors via shared memory.
 %mem=4GB
 ------------------------------------------------------
 # b3lyp/6-31+g(d,p) scrf=(iefpcm,solvent=acetonitrile)
 ------------------------------------------------------
 1/38=1,172=1/1;
 2/12=2,17=6,18=5,40=1/2;
 3/5=1,6=6,7=111,11=2,25=1,30=1,70=2201,72=2,74=-5/1,2,3;
 4//1;
 5/5=2,38=5,53=2/2;
 6/7=2,8=2,9=2,10=2,28=1/1;
 99/5=1,9=1/99;
 -----------------------
 tmpdir/M3_conf_0_31.gjf
 -----------------------
 Symbolic Z-matrix:
 Charge =  0 Multiplicity = 1
 C                     0.        0.        0. 
 H                     1.0947    0.        0. 
 H                    -0.38967   0.       -1.0109 
 H                    -0.34651   0.85258   0.58574 
 H                    -0.30386  -0.91733   0.51794 
 
                          Input orientation:                          
 ---------------------------------------------------------------------
 Center     Atomic      Atomic             Coordinates (Angstroms)
 Number     Number       Type             X           Y           Z
 ---------------------------------------------------------------------
      1          6           0        0.000000    0.000000    0.000000
      2          1           0        1.094700    0.000000    0.000000
      3          1           0       -0.389670    0.000000   -1.010900
      4          1           0       -0.346510    0.852580    0.585740
      5          1           0       -0.303860   -0.917330    0.517940
 ---------------------------------------------------------------------
                    Distance matrix (angstroms):
                    1          2          3          4          5
     1  C    0.000000
     2  H    1.094700   0.000000
     3  H    1.083403   1.795905   0.000000
     4  H    1.090896   1.773998   1.810529   0.000000
     5  H    1.096397   1.750922   1.784996   1.771722   0.000000
 Stoichiometry    CH4
 Framework group  C1[X(CH4)]
 Deg. of freedom     9
 Full point group                 C1      NOp   1
 Largest Abelian subgroup         C1      NOp   1
 Largest concise Abelian subgroup C1      NOp   1
                         Standard orientation:                         
 ---------------------------------------------------------------------
 Center     Atomic      Atomic             Coordinates (Angstroms)
 Number     Number       Type             X           Y           Z
 ---------------------------------------------------------------------
      1          6           0       -0.008848    0.008263   -0.003364
      2          1           0        0.330300   -0.673113   -0.790177
      3          1           0       -1.064578    0.228421   -0.106932
      4          1           0        0.613389    0.903937   -0.028701
      5          1           0        0.173980   -0.508820    0.945997
 ---------------------------------------------------------------------
 Rotational constants (GHZ):         161.0544097         157.6229566         155.1714061
 Standard basis: 6-31+G(d,p) (6D, 7F)
 There are    39 symmetry adapted cartesian basis functions of A   symmetry.
 There are    39 symmetry adapted basis functions of A   symmetry.
    39 basis functions,    60 primitive gaussians,    39 cartesian basis functions
     5 alpha electrons        5 beta electrons
       nuclear repulsion energy        13.4200498786 Hartrees.
 NAtoms=    5 NActive=    5 NUniq=    5 SFac= 1.00D+00 NAtFMM=   60 NAOKFM=F Big=F
 Integral buffers will be    131072 words long.
 Raffenetti 2 integral format.
 Two-electron integral symmetry is turned on.
 ------------------------------------------------------------------------------
 Polarizable Continuum Model (PCM)
 =================================
 Model                : PCM.
 Atomic radii         : UFF (Universal Force Field).
 Polarization charges : Total charges.
 Charge compensation  : None.
 Solution method      : On-the-fly selection.
 Cavity type          : Scaled VdW (van der Waals Surface) (Alpha=1.100).
 Cavity algorithm     : GePol (No added spheres)
                        Default sphere list used, NSphG=    5.
                        Lebedev-Laikov grids with approx.  5.0 points / Ang**2.
                        Smoothing algorithm: York/Karplus (Gamma=1.0000).
                        Polarization charges: spherical gaussians, with
                                              point-specific exponents (IZeta= 3).
                        Self-potential: point-specific (ISelfS= 7).
                        Self-field    : sphere-specific E.n sum rule (ISelfD= 2).
 Solvent              : Acetonitrile, Eps=  35.688000 Eps(inf)=   1.806874
 ------------------------------------------------------------------------------
 Spheres list:
 ISph  on   Nord     Re0    Alpha      Xe            Ye            Ze
    1   C      1    1.9255  1.100     -0.008848      0.008263     -0.003364
    2   H      2    1.4430  1.100      0.330300     -0.673113     -0.790177
    3   H      3    1.4430  1.100     -1.064578      0.228421     -0.106932
    4   H      4    1.4430  1.100      0.613389      0.903937     -0.028701
    5   H      5    1.4430  1.100      0.173980     -0.508820      0.945997
 ------------------------------------------------------------------------------
 One-electron integrals computed using PRISM.
 NBasis=    39 RedAO= T EigKep=  1.20D-02  NBF=    39
 NBsUse=    39 1.00D-06 EigRej= -1.00D+00 NBFU=    39
 ExpMin= 4.38D-02 ExpMax= 3.05D+03 ExpMxC= 4.57D+02 IAcc=3 IRadAn=         5 AccDes= 0.00D+00
 Harris functional with IExCor=  402 and IRadAn=       5 diagonalized for initial guess.
 HarFok:  IExCor=  402 AccDes= 0.00D+00 IRadAn=         5 IDoV= 1 UseB2=F ITyADJ=14
 ICtDFT=  3500011 ScaDFX=  1.000000  1.000000  1.000000  1.000000
 FoFCou: FMM=F IPFlag=           0 FMFlag=      100000 FMFlg1=           0
         NFxFlg=           0 DoJE=T BraDBF=F KetDBF=T FulRan=T
         wScrn=  0.000000 ICntrl=       500 IOpCl=  0 I1Cent=   200000004 NGrid=           0
         NMat0=    1 NMatS0=      1 NMatT0=    0 NMatD0=    1 NMtDS0=    0 NMtDT0=    0
 Petite list used in FoFCou.
 Keep R1 ints in memory in canonical form, NReq=3756779.
 Requested convergence on RMS density matrix=1.00D-08 within 128 cycles.
 Requested convergence on MAX density matrix=1.00D-06.
 Requested convergence on             energy=1.00D-06.
 No special actions if energy rises.
 Inv3:  Mode=1 IEnd=      735075.
 Iteration    1 A*A^-1 deviation from unit magnitude is 3.11D-15 for    103.
 Iteration    1 A*A^-1 deviation from orthogonality  is 1.84D-15 for    391    226.
 Iteration    1 A^-1*A deviation from unit magnitude is 3.33D-15 for    103.
 Iteration    1 A^-1*A deviation from orthogonality  is 1.78D-15 for    358    245.
 Error on total polarization charges =  0.00909
 SCF Done:  E(RB3LYP) =  -40.5257803802     A.U. after    7 cycles
            NFock=  7  Conv=0.70D-08     -V/T= 2.0113

 **********************************************************************

            Population analysis using the SCF density.

 **********************************************************************

 Orbital symmetries:
       Occupied  (A) (A) (A) (A) (A)
       Virtual   (A) (A) (A) (A) (A) (A) (A) (A) (A) (A) (A) (A)
                 (A) (A) (A) (A) (A) (A) (A) (A) (A) (A) (A) (A)
                 (A) (A) (A) (A) (A) (A) (A) (A) (A) (A)
 The electronic state is 1-A.
 Alpha  occ. eigenvalues --  -10.17081  -0.69564  -0.40046  -0.39202  -0.38656
 Alpha virt. eigenvalues --    0.01713   0.06170   0.06237   0.06277   0.17827
 Alpha virt. eigenvalues --    0.18194   0.18887   0.27949   0.63674   0.63896
 Alpha virt. eigenvalues --    0.64030   0.90230   0.90975   0.92326   1.05447
 Alpha virt. eigenvalues --    1.11595   1.35767   1.35915   2.02623   2.03502
 Alpha virt. eigenvalues --    2.04944   2.08089   2.09558   2.10902   2.58911
 Alpha virt. eigenvalues --    2.61991   2.66994   2.90203   2.90791   3.17021
 Alpha virt. eigenvalues --    3.41550   3.41938   3.42352   4.42061
          Condensed to atoms (all electrons):
               1          2          3          4          5
     1  C    5.060802   0.389592   0.393508   0.391360   0.388886
     2  H    0.389592   0.531441  -0.023285  -0.025320  -0.027186
     3  H    0.393508  -0.023285   0.517336  -0.022177  -0.024227
     4  H    0.391360  -0.025320  -0.022177   0.525022  -0.025425
     5  H    0.388886  -0.027186  -0.024227  -0.025425   0.533945
 Mulliken charges:
               1
     1  C   -0.624148
     2  H    0.154758
     3  H    0.158844
     4  H    0.156539
     5  H    0.154008
 Sum of Mulliken charges =  -0.00000
 Mulliken charges with hydrogens summed into heavy atoms:
               1
     1  C   -0.000000
 Electronic spatial extent (au):  <R**2>=             35.9643
 Charge=              0.0000 electrons
 Dipole moment (field-independent basis, Debye):
    X=              0.0279    Y=             -0.0297    Z=              0.0121  Tot=              0.0425
 Quadrupole moment (field-independent basis, Debye-Ang):
   XX=             -8.3548   YY=             -8.5157   ZZ=             -8.6265
   XY=             -0.0009   XZ=              0.0043   YZ=              0.0023
 Traceless Quadrupole moment (field-independent basis, Debye-Ang):
   XX=              0.1442   YY=             -0.0167   ZZ=             -0.1275
   XY=             -0.0009   XZ=              0.0043   YZ=              0.0023
 Octapole moment (field-independent basis, Debye-Ang**2):
  XXX=             -0.6905  YYY=              0.1754  ZZZ=              0.2429  XYY=              0.4721
  XXY=              0.3665  XXZ=             -0.1321  XZZ=              0.2503  YZZ=             -0.5897
  YYZ=             -0.0908  XYZ=              0.0719
 Hexadecapole moment (field-independent basis, Debye-Ang**3):
 XXXX=            -16.5434 YYYY=            -17.2031 ZZZZ=            -16.9614 XXXY=             -0.1003
 XXXZ=              0.1176 YYYX=              0.3467 YYYZ=              0.1107 ZZZX=             -0.0042
 ZZZY=             -0.1083 XXYY=             -5.5919 XXZZ=             -5.9509 YYZZ=             -5.5117
 XXYZ=              0.0105 YYXZ=             -0.0909 ZZXY=             -0.2490
 N-N= 1.342004987863D+01 E-N=-1.198497136454D+02  KE= 4.007265253258D+01
 1\1\GINC-NODE56\SP\RB3LYP\6-31+G(d,p)\C1H4\YANZ\22-Sep-2023\0\\# b3lyp
 /6-31+g(d,p) scrf=(iefpcm,solvent=acetonitrile)\\tmpdir/M3_conf_0_31.g
 jf\\0,1\C,0,0.,0.,0.\H,0,1.0947,0.,0.\H,0,-0.38967,0.,-1.0109\H,0,-0.3
 4651,0.85258,0.58574\H,0,-0.30386,-0.91733,0.51794\\Version=ES64L-G16R
 evA.03\State=1-A\HF=-40.5257804\RMSD=7.033e-09\Dipole=0.0072477,-0.009
 5197,0.0116962\Quadrupole=-0.0431453,-0.0371852,0.0803305,-0.0278284,0
 .0549387,0.0411238\PG=C01 [X(C1H4)]\\@


 "WOULD YOU TELL ME PLEASE, WHICH WAY I OUGHT TO WALK FROM HERE?"
 "THAT DEPENDS A GREAT DEAL ON WHERE YOU WANT TO GO," SAID THE CAT.
 "I DON'T MUCH CARE WHERE -- ", SAID ALICE.
 "THEN IT DOESN'T MATTER WHICH WAY YOU WALK," SAID THE CAT.

                                      -- LEWIS CARROLL
 Job cpu time:       0 days  0 hours  0 minutes 10.4 seconds.
 Elapsed time:       0 days  0 hours  0 minutes  2.8 seconds.
 File lengths (MBytes):  RWF=     11 Int=      0 D2E=      0 Chk=      1 Scr=      1
 Normal termination of Gaussian 16 at Fri Sep 22 17:09:30 2023.
