 Entering Gaussian System, Link 0=g16
 Initial command:
 /share/apps/gaussian/g16/l1.exe "/tmp/55648.mgr/Gau-181224.inp" -scrdir="/tmp/55648.mgr/"
 Entering Link 1 = /share/apps/gaussian/g16/l1.exe PID=    181225.
  
 Copyright (c) 1988,1990,1992,1993,1995,1998,2003,2009,2016,
            Gaussian, Inc.  All Rights Reserved.
  
 This is part of the Gaussian(R) 16 program.  It is based on
 the Gaussian(R) 09 system (copyright 2009, Gaussian, Inc.),
 the Gaussian(R) 03 system (copyright 2003, Gaussian, Inc.),
 the Gaussian(R) 98 system (copyright 1998, Gaussian, Inc.),
 the Gaussian(R) 94 system (copyright 1995, Gaussian, Inc.),
 the Gaussian 92(TM) system (copyright 1992, Gaussian, Inc.),
 the Gaussian 90(TM) system (copyright 1990, Gaussian, Inc.),
 the Gaussian 88(TM) system (copyright 1988, Gaussian, Inc.),
 the Gaussian 86(TM) system (copyright 1986, Carnegie Mellon
 University), and the Gaussian 82(TM) system (copyright 1983,
 Carnegie Mellon University). Gaussian is a federally registered
 trademark of Gaussian, Inc.
  
 This software contains proprietary and confidential information,
 including trade secrets, belonging to Gaussian, Inc.
  
 This software is provided under written license and may be
 used, copied, transmitted, or stored only in accord with that
 written license.
  
 The following legend is applicable only to US Government
 contracts under FAR:
  
                    RESTRICTED RIGHTS LEGEND
  
 Use, reproduction and disclosure by the US Government is
 subject to restrictions as set forth in subparagraphs (a)
 and (c) of the Commercial Computer Software - Restricted
 Rights clause in FAR 52.227-19.
  
 Gaussian, Inc.
 340 Quinnipiac St., Bldg. 40, Wallingford CT 06492
  
  
 ---------------------------------------------------------------
 Warning -- This program may not be used in any manner that
 competes with the business of Gaussian, Inc. or will provide
 assistance to any competitor of Gaussian, Inc.  The licensee
 of this program is prohibited from giving any competitor of
 Gaussian, Inc. access to this program.  By using this program,
 the user acknowledges that Gaussian, Inc. is engaged in the
 business of creating and licensing software in the field of
 computational chemistry and represents and warrants to the
 licensee that it is not a competitor of Gaussian, Inc. and that
 it will not use this program in any manner prohibited above.
 ---------------------------------------------------------------
  

 Cite this work as:
 Gaussian 16, Revision A.03,
 M. J. Frisch, G. W. Trucks, H. B. Schlegel, G. E. Scuseria, 
 M. A. Robb, J. R. Cheeseman, G. Scalmani, V. Barone, 
 G. A. Petersson, H. Nakatsuji, X. Li, M. Caricato, A. V. Marenich, 
 J. Bloino, B. G. Janesko, R. Gomperts, B. Mennucci, H. P. Hratchian, 
 J. V. Ortiz, A. F. Izmaylov, J. L. Sonnenberg, D. Williams-Young, 
 F. Ding, F. Lipparini, F. Egidi, J. Goings, B. Peng, A. Petrone, 
 T. Henderson, D. Ranasinghe, V. G. Zakrzewski, J. Gao, N. Rega, 
 G. Zheng, W. Liang, M. Hada, M. Ehara, K. Toyota, R. Fukuda, 
 J. Hasegawa, M. Ishida, T. Nakajima, Y. Honda, O. Kitao, H. Nakai, 
 T. Vreven, K. Throssell, J. A. Montgomery, Jr., J. E. Peralta, 
 F. Ogliaro, M. J. Bearpark, J. J. Heyd, E. N. Brothers, K. N. Kudin, 
 V. N. Staroverov, T. A. Keith, R. Kobayashi, J. Normand, 
 K. Raghavachari, A. P. Rendell, J. C. Burant, S. S. Iyengar, 
 J. Tomasi, M. Cossi, J. M. Millam, M. Klene, C. Adamo, R. Cammi, 
 J. W. Ochterski, R. L. Martin, K. Morokuma, O. Farkas, 
 J. B. Foresman, and D. J. Fox, Gaussian, Inc., Wallingford CT, 2016.
 
 ******************************************
 Gaussian 16:  ES64L-G16RevA.03 25-Dec-2016
                22-Sep-2023 
 ******************************************
 %nprocshared=4
 Will use up to    4 processors via shared memory.
 %mem=4GB
 ------------------------------------------------------
 # b3lyp/6-31+g(d,p) scrf=(iefpcm,solvent=acetonitrile)
 ------------------------------------------------------
 1/38=1,172=1/1;
 2/12=2,17=6,18=5,40=1/2;
 3/5=1,6=6,7=111,11=2,25=1,30=1,70=2201,72=2,74=-5/1,2,3;
 4//1;
 5/5=2,38=5,53=2/2;
 6/7=2,8=2,9=2,10=2,28=1/1;
 99/5=1,9=1/99;
 -----------------------
 tmpdir/M3_conf_0_33.gjf
 -----------------------
 Symbolic Z-matrix:
 Charge =  0 Multiplicity = 1
 C                     0.        0.        0. 
 H                     1.0912    0.        0. 
 H                    -0.36948   0.       -1.01845 
 H                    -0.3047    0.91306   0.5312 
 H                    -0.34073  -0.86388   0.57244 
 
                          Input orientation:                          
 ---------------------------------------------------------------------
 Center     Atomic      Atomic             Coordinates (Angstroms)
 Number     Number       Type             X           Y           Z
 ---------------------------------------------------------------------
      1          6           0        0.000000    0.000000    0.000000
      2          1           0        1.091200    0.000000    0.000000
      3          1           0       -0.369480    0.000000   -1.018450
      4          1           0       -0.304700    0.913060    0.531200
      5          1           0       -0.340730   -0.863880    0.572440
 ---------------------------------------------------------------------
                    Distance matrix (angstroms):
                    1          2          3          4          5
     1  C    0.000000
     2  H    1.091200   0.000000
     3  H    1.083400   1.780681   0.000000
     4  H    1.099406   1.750540   1.799803   0.000000
     5  H    1.090905   1.767597   1.810538   1.777784   0.000000
 Stoichiometry    CH4
 Framework group  C1[X(CH4)]
 Deg. of freedom     9
 Full point group                 C1      NOp   1
 Largest Abelian subgroup         C1      NOp   1
 Largest concise Abelian subgroup C1      NOp   1
                         Standard orientation:                         
 ---------------------------------------------------------------------
 Center     Atomic      Atomic             Coordinates (Angstroms)
 Number     Number       Type             X           Y           Z
 ---------------------------------------------------------------------
      1          6           0       -0.008975    0.007573   -0.004130
      2          1           0        0.150640   -0.346314    1.015676
      3          1           0       -1.064749    0.181643   -0.173828
      4          1           0        0.372426   -0.784242   -0.664627
      5          1           0        0.595535    0.903478   -0.152438
 ---------------------------------------------------------------------
 Rotational constants (GHZ):         161.1495801         157.8156069         154.9939249
 Standard basis: 6-31+G(d,p) (6D, 7F)
 There are    39 symmetry adapted cartesian basis functions of A   symmetry.
 There are    39 symmetry adapted basis functions of A   symmetry.
    39 basis functions,    60 primitive gaussians,    39 cartesian basis functions
     5 alpha electrons        5 beta electrons
       nuclear repulsion energy        13.4216161320 Hartrees.
 NAtoms=    5 NActive=    5 NUniq=    5 SFac= 1.00D+00 NAtFMM=   60 NAOKFM=F Big=F
 Integral buffers will be    131072 words long.
 Raffenetti 2 integral format.
 Two-electron integral symmetry is turned on.
 ------------------------------------------------------------------------------
 Polarizable Continuum Model (PCM)
 =================================
 Model                : PCM.
 Atomic radii         : UFF (Universal Force Field).
 Polarization charges : Total charges.
 Charge compensation  : None.
 Solution method      : On-the-fly selection.
 Cavity type          : Scaled VdW (van der Waals Surface) (Alpha=1.100).
 Cavity algorithm     : GePol (No added spheres)
                        Default sphere list used, NSphG=    5.
                        Lebedev-Laikov grids with approx.  5.0 points / Ang**2.
                        Smoothing algorithm: York/Karplus (Gamma=1.0000).
                        Polarization charges: spherical gaussians, with
                                              point-specific exponents (IZeta= 3).
                        Self-potential: point-specific (ISelfS= 7).
                        Self-field    : sphere-specific E.n sum rule (ISelfD= 2).
 Solvent              : Acetonitrile, Eps=  35.688000 Eps(inf)=   1.806874
 ------------------------------------------------------------------------------
 Spheres list:
 ISph  on   Nord     Re0    Alpha      Xe            Ye            Ze
    1   C      1    1.9255  1.100     -0.008975      0.007573     -0.004130
    2   H      2    1.4430  1.100      0.150640     -0.346314      1.015676
    3   H      3    1.4430  1.100     -1.064749      0.181643     -0.173828
    4   H      4    1.4430  1.100      0.372426     -0.784242     -0.664627
    5   H      5    1.4430  1.100      0.595535      0.903478     -0.152438
 ------------------------------------------------------------------------------
 One-electron integrals computed using PRISM.
 NBasis=    39 RedAO= T EigKep=  1.20D-02  NBF=    39
 NBsUse=    39 1.00D-06 EigRej= -1.00D+00 NBFU=    39
 ExpMin= 4.38D-02 ExpMax= 3.05D+03 ExpMxC= 4.57D+02 IAcc=3 IRadAn=         5 AccDes= 0.00D+00
 Harris functional with IExCor=  402 and IRadAn=       5 diagonalized for initial guess.
 HarFok:  IExCor=  402 AccDes= 0.00D+00 IRadAn=         5 IDoV= 1 UseB2=F ITyADJ=14
 ICtDFT=  3500011 ScaDFX=  1.000000  1.000000  1.000000  1.000000
 FoFCou: FMM=F IPFlag=           0 FMFlag=      100000 FMFlg1=           0
         NFxFlg=           0 DoJE=T BraDBF=F KetDBF=T FulRan=T
         wScrn=  0.000000 ICntrl=       500 IOpCl=  0 I1Cent=   200000004 NGrid=           0
         NMat0=    1 NMatS0=      1 NMatT0=    0 NMatD0=    1 NMtDS0=    0 NMtDT0=    0
 Petite list used in FoFCou.
 Keep R1 ints in memory in canonical form, NReq=3756779.
 Requested convergence on RMS density matrix=1.00D-08 within 128 cycles.
 Requested convergence on MAX density matrix=1.00D-06.
 Requested convergence on             energy=1.00D-06.
 No special actions if energy rises.
 Inv3:  Mode=1 IEnd=      735075.
 Iteration    1 A*A^-1 deviation from unit magnitude is 5.55D-15 for    113.
 Iteration    1 A*A^-1 deviation from orthogonality  is 2.44D-15 for    129    113.
 Iteration    1 A^-1*A deviation from unit magnitude is 4.22D-15 for    113.
 Iteration    1 A^-1*A deviation from orthogonality  is 2.10D-15 for    457    272.
 Error on total polarization charges =  0.00908
 SCF Done:  E(RB3LYP) =  -40.5257580490     A.U. after    7 cycles
            NFock=  7  Conv=0.71D-08     -V/T= 2.0113

 **********************************************************************

            Population analysis using the SCF density.

 **********************************************************************

 Orbital symmetries:
       Occupied  (A) (A) (A) (A) (A)
       Virtual   (A) (A) (A) (A) (A) (A) (A) (A) (A) (A) (A) (A)
                 (A) (A) (A) (A) (A) (A) (A) (A) (A) (A) (A) (A)
                 (A) (A) (A) (A) (A) (A) (A) (A) (A) (A)
 The electronic state is 1-A.
 Alpha  occ. eigenvalues --  -10.17075  -0.69568  -0.40042  -0.39196  -0.38670
 Alpha virt. eigenvalues --    0.01714   0.06170   0.06237   0.06276   0.17835
 Alpha virt. eigenvalues --    0.18198   0.18884   0.27956   0.63674   0.63879
 Alpha virt. eigenvalues --    0.64041   0.90258   0.90964   0.92320   1.05464
 Alpha virt. eigenvalues --    1.11605   1.35767   1.35912   2.02610   2.03489
 Alpha virt. eigenvalues --    2.04947   2.08101   2.09471   2.11083   2.58851
 Alpha virt. eigenvalues --    2.62071   2.67006   2.90231   2.90832   3.17055
 Alpha virt. eigenvalues --    3.41452   3.41649   3.42826   4.42063
          Condensed to atoms (all electrons):
               1          2          3          4          5
     1  C    5.060748   0.389264   0.393523   0.389266   0.391381
     2  H    0.389264   0.532905  -0.024349  -0.027194  -0.025534
     3  H    0.393523  -0.024349   0.517347  -0.023176  -0.022175
     4  H    0.389266  -0.027194  -0.023176   0.532390  -0.025211
     5  H    0.391381  -0.025534  -0.022175  -0.025211   0.525020
 Mulliken charges:
               1
     1  C   -0.624182
     2  H    0.154908
     3  H    0.158829
     4  H    0.153925
     5  H    0.156520
 Sum of Mulliken charges =  -0.00000
 Mulliken charges with hydrogens summed into heavy atoms:
               1
     1  C   -0.000000
 Electronic spatial extent (au):  <R**2>=             35.9598
 Charge=             -0.0000 electrons
 Dipole moment (field-independent basis, Debye):
    X=              0.0273    Y=             -0.0253    Z=              0.0245  Tot=              0.0445
 Quadrupole moment (field-independent basis, Debye-Ang):
   XX=             -8.3548   YY=             -8.5167   ZZ=             -8.6242
   XY=              0.0041   XZ=              0.0123   YZ=             -0.0139
 Traceless Quadrupole moment (field-independent basis, Debye-Ang):
   XX=              0.1438   YY=             -0.0181   ZZ=             -0.1257
   XY=              0.0041   XZ=              0.0123   YZ=             -0.0139
 Octapole moment (field-independent basis, Debye-Ang**2):
  XXX=             -0.6993  YYY=              0.1260  ZZZ=              0.5449  XYY=              0.5117
  XXY=              0.2967  XXZ=             -0.2148  XZZ=              0.2150  YZZ=             -0.4567
  YYZ=             -0.2588  XYZ=              0.0618
 Hexadecapole moment (field-independent basis, Debye-Ang**3):
 XXXX=            -16.5623 YYYY=            -17.1071 ZZZZ=            -16.8250 XXXY=             -0.0627
 XXXZ=              0.1888 YYYX=              0.2807 YYYZ=              0.1522 ZZZX=              0.0898
 ZZZY=             -0.1904 XXYY=             -5.6082 XXZZ=             -5.9233 YYZZ=             -5.6221
 XXYZ=             -0.0320 YYXZ=             -0.2160 ZZXY=             -0.1950
 N-N= 1.342161613202D+01 E-N=-1.198532989759D+02  KE= 4.007333220063D+01
 1\1\GINC-NODE56\SP\RB3LYP\6-31+G(d,p)\C1H4\YANZ\22-Sep-2023\0\\# b3lyp
 /6-31+g(d,p) scrf=(iefpcm,solvent=acetonitrile)\\tmpdir/M3_conf_0_33.g
 jf\\0,1\C,0,0.,0.,0.\H,0,1.0912,0.,0.\H,0,-0.36948,0.,-1.01845\H,0,-0.
 3047,0.91306,0.5312\H,0,-0.34073,-0.86388,0.57244\\Version=ES64L-G16Re
 vA.03\State=1-A\HF=-40.525758\RMSD=7.093e-09\Dipole=0.0138157,0.005247
 4,0.0094215\Quadrupole=-0.0722554,-0.0247302,0.0969856,0.0278545,0.037
 287,-0.0240806\PG=C01 [X(C1H4)]\\@


 ART, GLORY, FREEDOM FAIL, BUT NATURE STILL IS FAIR.

                                           -- BYRON
 Job cpu time:       0 days  0 hours  0 minutes  9.9 seconds.
 Elapsed time:       0 days  0 hours  0 minutes  2.6 seconds.
 File lengths (MBytes):  RWF=     11 Int=      0 D2E=      0 Chk=      1 Scr=      1
 Normal termination of Gaussian 16 at Fri Sep 22 17:09:28 2023.
