 Entering Gaussian System, Link 0=g16
 Initial command:
 /share/apps/gaussian/g16/l1.exe "/tmp/55648.mgr/Gau-181790.inp" -scrdir="/tmp/55648.mgr/"
 Entering Link 1 = /share/apps/gaussian/g16/l1.exe PID=    181791.
  
 Copyright (c) 1988,1990,1992,1993,1995,1998,2003,2009,2016,
            Gaussian, Inc.  All Rights Reserved.
  
 This is part of the Gaussian(R) 16 program.  It is based on
 the Gaussian(R) 09 system (copyright 2009, Gaussian, Inc.),
 the Gaussian(R) 03 system (copyright 2003, Gaussian, Inc.),
 the Gaussian(R) 98 system (copyright 1998, Gaussian, Inc.),
 the Gaussian(R) 94 system (copyright 1995, Gaussian, Inc.),
 the Gaussian 92(TM) system (copyright 1992, Gaussian, Inc.),
 the Gaussian 90(TM) system (copyright 1990, Gaussian, Inc.),
 the Gaussian 88(TM) system (copyright 1988, Gaussian, Inc.),
 the Gaussian 86(TM) system (copyright 1986, Carnegie Mellon
 University), and the Gaussian 82(TM) system (copyright 1983,
 Carnegie Mellon University). Gaussian is a federally registered
 trademark of Gaussian, Inc.
  
 This software contains proprietary and confidential information,
 including trade secrets, belonging to Gaussian, Inc.
  
 This software is provided under written license and may be
 used, copied, transmitted, or stored only in accord with that
 written license.
  
 The following legend is applicable only to US Government
 contracts under FAR:
  
                    RESTRICTED RIGHTS LEGEND
  
 Use, reproduction and disclosure by the US Government is
 subject to restrictions as set forth in subparagraphs (a)
 and (c) of the Commercial Computer Software - Restricted
 Rights clause in FAR 52.227-19.
  
 Gaussian, Inc.
 340 Quinnipiac St., Bldg. 40, Wallingford CT 06492
  
  
 ---------------------------------------------------------------
 Warning -- This program may not be used in any manner that
 competes with the business of Gaussian, Inc. or will provide
 assistance to any competitor of Gaussian, Inc.  The licensee
 of this program is prohibited from giving any competitor of
 Gaussian, Inc. access to this program.  By using this program,
 the user acknowledges that Gaussian, Inc. is engaged in the
 business of creating and licensing software in the field of
 computational chemistry and represents and warrants to the
 licensee that it is not a competitor of Gaussian, Inc. and that
 it will not use this program in any manner prohibited above.
 ---------------------------------------------------------------
  

 Cite this work as:
 Gaussian 16, Revision A.03,
 M. J. Frisch, G. W. Trucks, H. B. Schlegel, G. E. Scuseria, 
 M. A. Robb, J. R. Cheeseman, G. Scalmani, V. Barone, 
 G. A. Petersson, H. Nakatsuji, X. Li, M. Caricato, A. V. Marenich, 
 J. Bloino, B. G. Janesko, R. Gomperts, B. Mennucci, H. P. Hratchian, 
 J. V. Ortiz, A. F. Izmaylov, J. L. Sonnenberg, D. Williams-Young, 
 F. Ding, F. Lipparini, F. Egidi, J. Goings, B. Peng, A. Petrone, 
 T. Henderson, D. Ranasinghe, V. G. Zakrzewski, J. Gao, N. Rega, 
 G. Zheng, W. Liang, M. Hada, M. Ehara, K. Toyota, R. Fukuda, 
 J. Hasegawa, M. Ishida, T. Nakajima, Y. Honda, O. Kitao, H. Nakai, 
 T. Vreven, K. Throssell, J. A. Montgomery, Jr., J. E. Peralta, 
 F. Ogliaro, M. J. Bearpark, J. J. Heyd, E. N. Brothers, K. N. Kudin, 
 V. N. Staroverov, T. A. Keith, R. Kobayashi, J. Normand, 
 K. Raghavachari, A. P. Rendell, J. C. Burant, S. S. Iyengar, 
 J. Tomasi, M. Cossi, J. M. Millam, M. Klene, C. Adamo, R. Cammi, 
 J. W. Ochterski, R. L. Martin, K. Morokuma, O. Farkas, 
 J. B. Foresman, and D. J. Fox, Gaussian, Inc., Wallingford CT, 2016.
 
 ******************************************
 Gaussian 16:  ES64L-G16RevA.03 25-Dec-2016
                22-Sep-2023 
 ******************************************
 %nprocshared=4
 Will use up to    4 processors via shared memory.
 %mem=4GB
 ------------------------------------------------------
 # b3lyp/6-31+g(d,p) scrf=(iefpcm,solvent=acetonitrile)
 ------------------------------------------------------
 1/38=1,172=1/1;
 2/12=2,17=6,18=5,40=1/2;
 3/5=1,6=6,7=111,11=2,25=1,30=1,70=2201,72=2,74=-5/1,2,3;
 4//1;
 5/5=2,38=5,53=2/2;
 6/7=2,8=2,9=2,10=2,28=1/1;
 99/5=1,9=1/99;
 -----------------------
 tmpdir/M3_conf_0_43.gjf
 -----------------------
 Symbolic Z-matrix:
 Charge =  0 Multiplicity = 2
 C                     0.        0.        0. 
 C                     1.4863    0.        0. 
 H                     1.86677   0.        1.02197 
 H                    -0.46535   0.18598   0.94188 
 H                    -0.52904  -0.09587  -0.94057 
 H                     1.89239  -0.83651  -0.57901 
 H                     1.96604   0.93017  -0.51964 
 
                          Input orientation:                          
 ---------------------------------------------------------------------
 Center     Atomic      Atomic             Coordinates (Angstroms)
 Number     Number       Type             X           Y           Z
 ---------------------------------------------------------------------
      1          6           0        0.000000    0.000000    0.000000
      2          6           0        1.486300    0.000000    0.000000
      3          1           0        1.866770    0.000000    1.021970
      4          1           0       -0.465350    0.185980    0.941880
      5          1           0       -0.529040   -0.095870   -0.940570
      6          1           0        1.892390   -0.836510   -0.579010
      7          1           0        1.966040    0.930170   -0.519640
 ---------------------------------------------------------------------
                    Distance matrix (angstroms):
                    1          2          3          4          5
     1  C    0.000000
     2  C    1.486300   0.000000
     3  H    2.128204   1.090495   0.000000
     4  H    1.066901   2.175009   2.340894   0.000000
     5  H    1.083396   2.226086   3.098493   1.904498   0.000000
     6  H    2.148521   1.095404   1.806528   2.986223   2.557850
     7  H    2.236192   1.168500   1.803228   2.932834   2.730451
                    6          7
     6  H    0.000000
     7  H    1.769211   0.000000
 Stoichiometry    C2H5(2)
 Framework group  C1[X(C2H5)]
 Deg. of freedom    15
 Full point group                 C1      NOp   1
 Largest Abelian subgroup         C1      NOp   1
 Largest concise Abelian subgroup C1      NOp   1
                         Standard orientation:                         
 ---------------------------------------------------------------------
 Center     Atomic      Atomic             Coordinates (Angstroms)
 Number     Number       Type             X           Y           Z
 ---------------------------------------------------------------------
      1          6           0        0.802912   -0.003408   -0.006408
      2          6           0       -0.683315    0.008162   -0.015525
      3          1           0       -1.054997    1.022559   -0.163955
      4          1           0        1.275400    0.951736    0.045866
      5          1           0        1.324329   -0.952110    0.036414
      6          1           0       -1.090207   -0.681340   -0.763145
      7          1           0       -1.172103   -0.369371    0.976417
 ---------------------------------------------------------------------
 Rotational constants (GHZ):          99.7293612          22.9571855          21.1284748
 Standard basis: 6-31+G(d,p) (6D, 7F)
 There are    63 symmetry adapted cartesian basis functions of A   symmetry.
 There are    63 symmetry adapted basis functions of A   symmetry.
    63 basis functions,    99 primitive gaussians,    63 cartesian basis functions
     9 alpha electrons        8 beta electrons
       nuclear repulsion energy        36.8454174264 Hartrees.
 NAtoms=    7 NActive=    7 NUniq=    7 SFac= 1.00D+00 NAtFMM=   60 NAOKFM=F Big=F
 Integral buffers will be    131072 words long.
 Raffenetti 2 integral format.
 Two-electron integral symmetry is turned on.
 ------------------------------------------------------------------------------
 Polarizable Continuum Model (PCM)
 =================================
 Model                : PCM.
 Atomic radii         : UFF (Universal Force Field).
 Polarization charges : Total charges.
 Charge compensation  : None.
 Solution method      : On-the-fly selection.
 Cavity type          : Scaled VdW (van der Waals Surface) (Alpha=1.100).
 Cavity algorithm     : GePol (No added spheres)
                        Default sphere list used, NSphG=    7.
                        Lebedev-Laikov grids with approx.  5.0 points / Ang**2.
                        Smoothing algorithm: York/Karplus (Gamma=1.0000).
                        Polarization charges: spherical gaussians, with
                                              point-specific exponents (IZeta= 3).
                        Self-potential: point-specific (ISelfS= 7).
                        Self-field    : sphere-specific E.n sum rule (ISelfD= 2).
 Solvent              : Acetonitrile, Eps=  35.688000 Eps(inf)=   1.806874
 ------------------------------------------------------------------------------
 Spheres list:
 ISph  on   Nord     Re0    Alpha      Xe            Ye            Ze
    1   C      1    1.9255  1.100      0.802912     -0.003408     -0.006408
    2   C      2    1.9255  1.100     -0.683315      0.008162     -0.015525
    3   H      3    1.4430  1.100     -1.054997      1.022559     -0.163955
    4   H      4    1.4430  1.100      1.275400      0.951736      0.045866
    5   H      5    1.4430  1.100      1.324329     -0.952110      0.036414
    6   H      6    1.4430  1.100     -1.090207     -0.681340     -0.763145
    7   H      7    1.4430  1.100     -1.172103     -0.369371      0.976417
 ------------------------------------------------------------------------------
 One-electron integrals computed using PRISM.
 NBasis=    63 RedAO= T EigKep=  3.39D-04  NBF=    63
 NBsUse=    63 1.00D-06 EigRej= -1.00D+00 NBFU=    63
 ExpMin= 4.38D-02 ExpMax= 3.05D+03 ExpMxC= 4.57D+02 IAcc=3 IRadAn=         5 AccDes= 0.00D+00
 Harris functional with IExCor=  402 and IRadAn=       5 diagonalized for initial guess.
 HarFok:  IExCor=  402 AccDes= 0.00D+00 IRadAn=         5 IDoV= 1 UseB2=F ITyADJ=14
 ICtDFT=  3500011 ScaDFX=  1.000000  1.000000  1.000000  1.000000
 FoFCou: FMM=F IPFlag=           0 FMFlag=      100000 FMFlg1=           0
         NFxFlg=           0 DoJE=T BraDBF=F KetDBF=T FulRan=T
         wScrn=  0.000000 ICntrl=       500 IOpCl=  0 I1Cent=   200000004 NGrid=           0
         NMat0=    1 NMatS0=      1 NMatT0=    0 NMatD0=    1 NMtDS0=    0 NMtDT0=    0
 Petite list used in FoFCou.
 Initial guess <Sx>= 0.0000 <Sy>= 0.0000 <Sz>= 0.5000 <S**2>= 0.7500 S= 0.5000
 Keep R1 and R2 ints in memory in canonical form, NReq=7602667.
 Requested convergence on RMS density matrix=1.00D-08 within 128 cycles.
 Requested convergence on MAX density matrix=1.00D-06.
 Requested convergence on             energy=1.00D-06.
 No special actions if energy rises.
 Inv3:  Mode=1 IEnd=     1326675.
 Iteration    1 A*A^-1 deviation from unit magnitude is 2.89D-15 for    222.
 Iteration    1 A*A^-1 deviation from orthogonality  is 1.36D-15 for    639    212.
 Iteration    1 A^-1*A deviation from unit magnitude is 2.78D-15 for    618.
 Iteration    1 A^-1*A deviation from orthogonality  is 1.26D-15 for    656    600.
 Error on total polarization charges =  0.01284
 SCF Done:  E(UB3LYP) =  -79.1665795562     A.U. after   12 cycles
            NFock= 12  Conv=0.27D-08     -V/T= 2.0111
 <Sx>= 0.0000 <Sy>= 0.0000 <Sz>= 0.5000 <S**2>= 0.7540 S= 0.5020
 <L.S>= 0.000000000000E+00
 Annihilation of the first spin contaminant:
 S**2 before annihilation     0.7540,   after     0.7500

 **********************************************************************

            Population analysis using the SCF density.

 **********************************************************************

 Orbital symmetries:
 Alpha Orbitals:
       Occupied  (A) (A) (A) (A) (A) (A) (A) (A) (A)
       Virtual   (A) (A) (A) (A) (A) (A) (A) (A) (A) (A) (A) (A)
                 (A) (A) (A) (A) (A) (A) (A) (A) (A) (A) (A) (A)
                 (A) (A) (A) (A) (A) (A) (A) (A) (A) (A) (A) (A)
                 (A) (A) (A) (A) (A) (A) (A) (A) (A) (A) (A) (A)
                 (A) (A) (A) (A) (A) (A)
 Beta  Orbitals:
       Occupied  (A) (A) (A) (A) (A) (A) (A) (A)
       Virtual   (A) (A) (A) (A) (A) (A) (A) (A) (A) (A) (A) (A)
                 (A) (A) (A) (A) (A) (A) (A) (A) (A) (A) (A) (A)
                 (A) (A) (A) (A) (A) (A) (A) (A) (A) (A) (A) (A)
                 (A) (A) (A) (A) (A) (A) (A) (A) (A) (A) (A) (A)
                 (A) (A) (A) (A) (A) (A) (A)
 The electronic state is 2-A.
 Alpha  occ. eigenvalues --  -10.19581 -10.18868  -0.75847  -0.60730  -0.46332
 Alpha  occ. eigenvalues --   -0.40240  -0.38781  -0.36497  -0.20522
 Alpha virt. eigenvalues --    0.02057   0.03216   0.05284   0.05889   0.08308
 Alpha virt. eigenvalues --    0.08962   0.09878   0.14776   0.16517   0.19156
 Alpha virt. eigenvalues --    0.21106   0.27365   0.29242   0.30664   0.60659
 Alpha virt. eigenvalues --    0.63881   0.65838   0.68554   0.69408   0.73411
 Alpha virt. eigenvalues --    0.87961   0.88938   0.92053   0.96677   1.03587
 Alpha virt. eigenvalues --    1.07067   1.28291   1.34025   1.42619   1.58222
 Alpha virt. eigenvalues --    1.81325   1.88648   1.90387   1.96635   2.01564
 Alpha virt. eigenvalues --    2.07770   2.13720   2.25633   2.30667   2.41262
 Alpha virt. eigenvalues --    2.46810   2.55691   2.62594   2.66707   2.80764
 Alpha virt. eigenvalues --    2.82297   2.83977   3.15416   3.33123   3.41298
 Alpha virt. eigenvalues --    3.45884   3.52568   4.26164   4.52622
  Beta  occ. eigenvalues --  -10.18962 -10.18256  -0.74110  -0.58482  -0.45664
  Beta  occ. eigenvalues --   -0.38637  -0.37950  -0.36046
  Beta virt. eigenvalues --   -0.06060   0.02205   0.03425   0.05290   0.06299
  Beta virt. eigenvalues --    0.08279   0.08941   0.11212   0.15056   0.17324
  Beta virt. eigenvalues --    0.19954   0.22303   0.28288   0.29706   0.31204
  Beta virt. eigenvalues --    0.61142   0.64113   0.67708   0.70156   0.73289
  Beta virt. eigenvalues --    0.74047   0.89413   0.90185   0.92335   0.98286
  Beta virt. eigenvalues --    1.03833   1.07605   1.29513   1.35672   1.46766
  Beta virt. eigenvalues --    1.58438   1.84514   1.89653   1.90836   2.00101
  Beta virt. eigenvalues --    2.02301   2.09270   2.14365   2.25824   2.31419
  Beta virt. eigenvalues --    2.43132   2.49001   2.57223   2.64093   2.67260
  Beta virt. eigenvalues --    2.81377   2.82835   2.84277   3.16195   3.33575
  Beta virt. eigenvalues --    3.41783   3.46604   3.53102   4.28327   4.53682
          Condensed to atoms (all electrons):
               1          2          3          4          5          6
     1  C    5.346823   0.271169  -0.053429   0.402035   0.387323  -0.057149
     2  C    0.271169   5.120579   0.414391  -0.040853  -0.029463   0.403762
     3  H   -0.053429   0.414391   0.539221  -0.007971   0.003820  -0.023849
     4  H    0.402035  -0.040853  -0.007971   0.517164  -0.027220   0.003496
     5  H    0.387323  -0.029463   0.003820  -0.027220   0.521152  -0.003241
     6  H   -0.057149   0.403762  -0.023849   0.003496  -0.003241   0.551145
     7  H   -0.042368   0.375131  -0.029155   0.001680  -0.001571  -0.036154
               7
     1  C   -0.042368
     2  C    0.375131
     3  H   -0.029155
     4  H    0.001680
     5  H   -0.001571
     6  H   -0.036154
     7  H    0.583143
          Atomic-Atomic Spin Densities.
               1          2          3          4          5          6
     1  C    1.297304  -0.118536  -0.005099   0.003486   0.006037  -0.031601
     2  C   -0.118536  -0.051289   0.006057  -0.008160  -0.010104   0.024612
     3  H   -0.005099   0.006057   0.004438   0.000811  -0.000065   0.002459
     4  H    0.003486  -0.008160   0.000811  -0.046579   0.000977   0.000131
     5  H    0.006037  -0.010104  -0.000065   0.000977  -0.045677   0.000740
     6  H   -0.031601   0.024612   0.002459   0.000131   0.000740   0.059538
     7  H   -0.028055   0.012703  -0.004669  -0.000323  -0.000247  -0.018716
               7
     1  C   -0.028055
     2  C    0.012703
     3  H   -0.004669
     4  H   -0.000323
     5  H   -0.000247
     6  H   -0.018716
     7  H    0.117389
 Mulliken charges and spin densities:
               1          2
     1  C   -0.254405   1.123536
     2  C   -0.514716  -0.144716
     3  H    0.156970   0.003931
     4  H    0.151668  -0.049656
     5  H    0.149200  -0.048338
     6  H    0.161990   0.037162
     7  H    0.149293   0.078081
 Sum of Mulliken charges =  -0.00000   1.00000
 Mulliken charges and spin densities with hydrogens summed into heavy atoms:
               1          2
     1  C    0.046463   1.025542
     2  C   -0.046463  -0.025542
 Electronic spatial extent (au):  <R**2>=             99.8107
 Charge=              0.0000 electrons
 Dipole moment (field-independent basis, Debye):
    X=             -0.3452    Y=             -0.0067    Z=              0.0731  Tot=              0.3529
 Quadrupole moment (field-independent basis, Debye-Ang):
   XX=            -14.8788   YY=            -13.4593   ZZ=            -15.8398
   XY=              0.0197   XZ=              0.1214   YZ=              0.0691
 Traceless Quadrupole moment (field-independent basis, Debye-Ang):
   XX=             -0.1528   YY=              1.2667   ZZ=             -1.1138
   XY=              0.0197   XZ=              0.1214   YZ=              0.0691
 Octapole moment (field-independent basis, Debye-Ang**2):
  XXX=             -0.7277  YYY=              0.6456  ZZZ=              0.2596  XYY=              0.5667
  XXY=             -0.1904  XXZ=              0.2547  XZZ=             -1.8852  YZZ=             -0.4564
  YYZ=             -0.2483  XYZ=             -0.0350
 Hexadecapole moment (field-independent basis, Debye-Ang**3):
 XXXX=            -91.0903 YYYY=            -29.7455 ZZZZ=            -28.5053 XXXY=             -0.1134
 XXXZ=              0.5199 YYYX=             -0.6500 YYYZ=              0.2127 ZZZX=              0.1253
 ZZZY=              0.1284 XXYY=            -17.8910 XXZZ=            -20.8666 YYZZ=            -10.0969
 XXYZ=              0.0742 YYXZ=              0.5798 ZZXY=              0.6014
 N-N= 3.684541742643D+01 E-N=-2.560841179173D+02  KE= 7.829726494581D+01
                          Isotropic Fermi Contact Couplings
        Atom                 a.u.       MegaHertz       Gauss      10(-4) cm-1
     1  C(13)              0.10394     116.84549      41.69338      38.97546
     2  C(13)             -0.02835     -31.86899     -11.37165     -10.63035
     3  H(1)               0.00178       7.93601       2.83176       2.64717
     4  H(1)              -0.01462     -65.33119     -23.31179     -21.79214
     5  H(1)              -0.01448     -64.73483     -23.09900     -21.59321
     6  H(1)               0.01986      88.76165      31.67236      29.60770
     7  H(1)               0.03548     158.59191      56.58954      52.90057
 --------------------------------------------------------
       Center         ----  Spin Dipole Couplings  ----
                      3XX-RR        3YY-RR        3ZZ-RR
 --------------------------------------------------------
     1   Atom       -0.514310     -0.513111      1.027420
     2   Atom        0.017376     -0.016556     -0.000820
     3   Atom        0.011043     -0.003593     -0.007450
     4   Atom       -0.045805      0.044035      0.001770
     5   Atom       -0.038829      0.039083     -0.000254
     6   Atom        0.011958     -0.005247     -0.006712
     7   Atom        0.011129     -0.007433     -0.003695
 --------------------------------------------------------
                        XY            XZ            YZ
 --------------------------------------------------------
     1   Atom        0.000457     -0.037182     -0.009428
     2   Atom        0.000280      0.001456      0.004348
     3   Atom       -0.010340      0.000747     -0.000262
     4   Atom        0.055853      0.000341      0.004533
     5   Atom       -0.057725      0.000010     -0.004034
     6   Atom        0.007756      0.006405      0.003758
     7   Atom        0.003536     -0.007686     -0.002634
 --------------------------------------------------------


 ---------------------------------------------------------------------------------
              Anisotropic Spin Dipole Couplings in Principal Axis System
 ---------------------------------------------------------------------------------

       Atom             a.u.   MegaHertz   Gauss  10(-4) cm-1        Axes

              Baa    -0.5152   -69.139   -24.671   -23.062  0.9936 -0.1105  0.0233
     1 C(13)  Bbb    -0.5131   -68.859   -24.571   -22.969  0.1103  0.9939  0.0087
              Bcc     1.0284   137.998    49.241    46.031 -0.0241 -0.0061  0.9997
 
              Baa    -0.0177    -2.372    -0.846    -0.791  0.0026  0.9683 -0.2500
     2 C(13)  Bbb     0.0002     0.023     0.008     0.008 -0.0857  0.2493  0.9646
              Bcc     0.0175     2.349     0.838     0.783  0.9963  0.0189  0.0837
 
              Baa    -0.0090    -4.776    -1.704    -1.593  0.4603  0.8847 -0.0744
     3 H(1)   Bbb    -0.0075    -3.984    -1.422    -1.329  0.0051  0.0811  0.9967
              Bcc     0.0164     8.760     3.126     2.922  0.8878 -0.4591  0.0328
 
              Baa    -0.0726   -38.735   -13.821   -12.920  0.9014 -0.4325  0.0222
     4 H(1)   Bbb     0.0015     0.826     0.295     0.275 -0.0464 -0.0455  0.9979
              Bcc     0.0710    37.909    13.527    12.645  0.4306  0.9005  0.0610
 
              Baa    -0.0696   -37.116   -13.244   -12.381  0.8824  0.4698  0.0272
     5 H(1)   Bbb    -0.0004    -0.205    -0.073    -0.068 -0.0479  0.0320  0.9983
              Bcc     0.0699    37.321    13.317    12.449 -0.4682  0.8822 -0.0508
 
              Baa    -0.0098    -5.233    -1.867    -1.746 -0.0013 -0.6346  0.7729
     6 H(1)   Bbb    -0.0074    -3.938    -1.405    -1.314 -0.4614  0.6861  0.5625
              Bcc     0.0172     9.172     3.273     3.059  0.8872  0.3559  0.2937
 
              Baa    -0.0088    -4.701    -1.677    -1.568  0.0432  0.8603  0.5079
     7 H(1)   Bbb    -0.0064    -3.413    -1.218    -1.138  0.4321 -0.4745  0.7669
              Bcc     0.0152     8.114     2.895     2.706  0.9008  0.1863 -0.3922
 

 ---------------------------------------------------------------------------------

 1\1\GINC-NODE56\SP\UB3LYP\6-31+G(d,p)\C2H5(2)\YANZ\22-Sep-2023\0\\# b3
 lyp/6-31+g(d,p) scrf=(iefpcm,solvent=acetonitrile)\\tmpdir/M3_conf_0_4
 3.gjf\\0,2\C,0,0.,0.,0.\C,0,1.4863,0.,0.\H,0,1.86677,0.,1.02197\H,0,-0
 .46535,0.18598,0.94188\H,0,-0.52904,-0.09587,-0.94057\H,0,1.89239,-0.8
 3651,-0.57901\H,0,1.96604,0.93017,-0.51964\\Version=ES64L-G16RevA.03\S
 tate=2-A\HF=-79.1665796\S2=0.753957\S2-1=0.\S2A=0.750011\RMSD=2.737e-0
 9\Dipole=0.1356076,0.0287724,-0.007885\Quadrupole=-0.1127175,-0.778278
 6,0.890996,-0.0855802,0.0055655,0.3004863\PG=C01 [X(C2H5)]\\@


 A leading authority is anyone who has guessed right more than once.
 -- Frank A. Clark
 Job cpu time:       0 days  0 hours  0 minutes 32.1 seconds.
 Elapsed time:       0 days  0 hours  0 minutes  8.2 seconds.
 File lengths (MBytes):  RWF=     14 Int=      0 D2E=      0 Chk=      2 Scr=      1
 Normal termination of Gaussian 16 at Fri Sep 22 17:09:55 2023.
