 Entering Gaussian System, Link 0=g16
 Initial command:
 /share/apps/gaussian/g16/l1.exe "/tmp/55648.mgr/Gau-181842.inp" -scrdir="/tmp/55648.mgr/"
 Entering Link 1 = /share/apps/gaussian/g16/l1.exe PID=    181843.
  
 Copyright (c) 1988,1990,1992,1993,1995,1998,2003,2009,2016,
            Gaussian, Inc.  All Rights Reserved.
  
 This is part of the Gaussian(R) 16 program.  It is based on
 the Gaussian(R) 09 system (copyright 2009, Gaussian, Inc.),
 the Gaussian(R) 03 system (copyright 2003, Gaussian, Inc.),
 the Gaussian(R) 98 system (copyright 1998, Gaussian, Inc.),
 the Gaussian(R) 94 system (copyright 1995, Gaussian, Inc.),
 the Gaussian 92(TM) system (copyright 1992, Gaussian, Inc.),
 the Gaussian 90(TM) system (copyright 1990, Gaussian, Inc.),
 the Gaussian 88(TM) system (copyright 1988, Gaussian, Inc.),
 the Gaussian 86(TM) system (copyright 1986, Carnegie Mellon
 University), and the Gaussian 82(TM) system (copyright 1983,
 Carnegie Mellon University). Gaussian is a federally registered
 trademark of Gaussian, Inc.
  
 This software contains proprietary and confidential information,
 including trade secrets, belonging to Gaussian, Inc.
  
 This software is provided under written license and may be
 used, copied, transmitted, or stored only in accord with that
 written license.
  
 The following legend is applicable only to US Government
 contracts under FAR:
  
                    RESTRICTED RIGHTS LEGEND
  
 Use, reproduction and disclosure by the US Government is
 subject to restrictions as set forth in subparagraphs (a)
 and (c) of the Commercial Computer Software - Restricted
 Rights clause in FAR 52.227-19.
  
 Gaussian, Inc.
 340 Quinnipiac St., Bldg. 40, Wallingford CT 06492
  
  
 ---------------------------------------------------------------
 Warning -- This program may not be used in any manner that
 competes with the business of Gaussian, Inc. or will provide
 assistance to any competitor of Gaussian, Inc.  The licensee
 of this program is prohibited from giving any competitor of
 Gaussian, Inc. access to this program.  By using this program,
 the user acknowledges that Gaussian, Inc. is engaged in the
 business of creating and licensing software in the field of
 computational chemistry and represents and warrants to the
 licensee that it is not a competitor of Gaussian, Inc. and that
 it will not use this program in any manner prohibited above.
 ---------------------------------------------------------------
  

 Cite this work as:
 Gaussian 16, Revision A.03,
 M. J. Frisch, G. W. Trucks, H. B. Schlegel, G. E. Scuseria, 
 M. A. Robb, J. R. Cheeseman, G. Scalmani, V. Barone, 
 G. A. Petersson, H. Nakatsuji, X. Li, M. Caricato, A. V. Marenich, 
 J. Bloino, B. G. Janesko, R. Gomperts, B. Mennucci, H. P. Hratchian, 
 J. V. Ortiz, A. F. Izmaylov, J. L. Sonnenberg, D. Williams-Young, 
 F. Ding, F. Lipparini, F. Egidi, J. Goings, B. Peng, A. Petrone, 
 T. Henderson, D. Ranasinghe, V. G. Zakrzewski, J. Gao, N. Rega, 
 G. Zheng, W. Liang, M. Hada, M. Ehara, K. Toyota, R. Fukuda, 
 J. Hasegawa, M. Ishida, T. Nakajima, Y. Honda, O. Kitao, H. Nakai, 
 T. Vreven, K. Throssell, J. A. Montgomery, Jr., J. E. Peralta, 
 F. Ogliaro, M. J. Bearpark, J. J. Heyd, E. N. Brothers, K. N. Kudin, 
 V. N. Staroverov, T. A. Keith, R. Kobayashi, J. Normand, 
 K. Raghavachari, A. P. Rendell, J. C. Burant, S. S. Iyengar, 
 J. Tomasi, M. Cossi, J. M. Millam, M. Klene, C. Adamo, R. Cammi, 
 J. W. Ochterski, R. L. Martin, K. Morokuma, O. Farkas, 
 J. B. Foresman, and D. J. Fox, Gaussian, Inc., Wallingford CT, 2016.
 
 ******************************************
 Gaussian 16:  ES64L-G16RevA.03 25-Dec-2016
                22-Sep-2023 
 ******************************************
 %nprocshared=4
 Will use up to    4 processors via shared memory.
 %mem=4GB
 ------------------------------------------------------
 # b3lyp/6-31+g(d,p) scrf=(iefpcm,solvent=acetonitrile)
 ------------------------------------------------------
 1/38=1,172=1/1;
 2/12=2,17=6,18=5,40=1/2;
 3/5=1,6=6,7=111,11=2,25=1,30=1,70=2201,72=2,74=-5/1,2,3;
 4//1;
 5/5=2,38=5,53=2/2;
 6/7=2,8=2,9=2,10=2,28=1/1;
 99/5=1,9=1/99;
 -----------------------
 tmpdir/M3_conf_0_25.gjf
 -----------------------
 Symbolic Z-matrix:
 Charge =  0 Multiplicity = 1
 S                     0.        0.        0. 
 N                     1.7802    0.        0. 
 C                     2.45715   0.        1.22831 
 H                    -0.23155   1.20096  -0.63588 
 O                    -0.45185  -1.07252  -0.96367 
 H                     2.27321   0.16967  -0.86163 
 H                     1.99446  -0.43688   2.08466 
 O                     3.60123   0.46355   1.3096 
 
                          Input orientation:                          
 ---------------------------------------------------------------------
 Center     Atomic      Atomic             Coordinates (Angstroms)
 Number     Number       Type             X           Y           Z
 ---------------------------------------------------------------------
      1         16           0        0.000000    0.000000    0.000000
      2          7           0        1.780200    0.000000    0.000000
      3          6           0        2.457150    0.000000    1.228310
      4          1           0       -0.231550    1.200960   -0.635880
      5          8           0       -0.451850   -1.072520   -0.963670
      6          1           0        2.273210    0.169670   -0.861630
      7          1           0        1.994460   -0.436880    2.084660
      8          8           0        3.601230    0.463550    1.309600
 ---------------------------------------------------------------------
                    Distance matrix (angstroms):
                    1          2          3          4          5
     1  S    0.000000
     2  N    1.780200   0.000000
     3  C    2.747059   1.402500   0.000000
     4  H    1.378501   2.427712   3.485200   0.000000
     5  O    1.511002   2.657255   3.797019   2.307529   0.000000
     6  H    2.436940   1.007101   2.104868   2.718151   2.996565
     7  H    2.917969   2.140696   1.066903   3.878012   3.959897
     8  O    3.859895   2.290432   1.237096   4.361063   4.894356
                    6          7          8
     6  H    0.000000
     7  H    3.020965   0.000000
     8  O    2.562078   1.998300   0.000000
 Stoichiometry    CH3NO2S
 Framework group  C1[X(CH3NO2S)]
 Deg. of freedom    18
 Full point group                 C1      NOp   1
 Largest Abelian subgroup         C1      NOp   1
 Largest concise Abelian subgroup C1      NOp   1
                         Standard orientation:                         
 ---------------------------------------------------------------------
 Center     Atomic      Atomic             Coordinates (Angstroms)
 Number     Number       Type             X           Y           Z
 ---------------------------------------------------------------------
      1         16           0       -1.113107   -0.441228    0.072962
      2          7           0        0.446872    0.397028    0.254356
      3          6           0        1.582354   -0.144222   -0.365916
      4          1           0       -1.365095   -0.749605    1.392685
      5          8           0       -2.141373    0.596355   -0.313326
      6          1           0        0.531229    1.141390    0.927455
      7          1           0        1.470695   -0.727197   -1.252457
      8          8           0        2.710204    0.088794    0.085818
 ---------------------------------------------------------------------
 Rotational constants (GHZ):          19.7205602           1.8291709           1.7753131
 Standard basis: 6-31+G(d,p) (6D, 7F)
 There are   114 symmetry adapted cartesian basis functions of A   symmetry.
 There are   114 symmetry adapted basis functions of A   symmetry.
   114 basis functions,   205 primitive gaussians,   114 cartesian basis functions
    24 alpha electrons       24 beta electrons
       nuclear repulsion energy       222.6526390222 Hartrees.
 NAtoms=    8 NActive=    8 NUniq=    8 SFac= 1.00D+00 NAtFMM=   60 NAOKFM=F Big=F
 Integral buffers will be    131072 words long.
 Raffenetti 2 integral format.
 Two-electron integral symmetry is turned on.
 ------------------------------------------------------------------------------
 Polarizable Continuum Model (PCM)
 =================================
 Model                : PCM.
 Atomic radii         : UFF (Universal Force Field).
 Polarization charges : Total charges.
 Charge compensation  : None.
 Solution method      : On-the-fly selection.
 Cavity type          : Scaled VdW (van der Waals Surface) (Alpha=1.100).
 Cavity algorithm     : GePol (No added spheres)
                        Default sphere list used, NSphG=    8.
                        Lebedev-Laikov grids with approx.  5.0 points / Ang**2.
                        Smoothing algorithm: York/Karplus (Gamma=1.0000).
                        Polarization charges: spherical gaussians, with
                                              point-specific exponents (IZeta= 3).
                        Self-potential: point-specific (ISelfS= 7).
                        Self-field    : sphere-specific E.n sum rule (ISelfD= 2).
 Solvent              : Acetonitrile, Eps=  35.688000 Eps(inf)=   1.806874
 ------------------------------------------------------------------------------
 Spheres list:
 ISph  on   Nord     Re0    Alpha      Xe            Ye            Ze
    1   S      1    2.0175  1.100     -1.113107     -0.441228      0.072962
    2   N      2    1.8300  1.100      0.446872      0.397028      0.254356
    3   C      3    1.9255  1.100      1.582354     -0.144222     -0.365916
    4   H      4    1.4430  1.100     -1.365095     -0.749605      1.392685
    5   O      5    1.7500  1.100     -2.141373      0.596355     -0.313326
    6   H      6    1.4430  1.100      0.531229      1.141390      0.927455
    7   H      7    1.4430  1.100      1.470695     -0.727197     -1.252457
    8   O      8    1.7500  1.100      2.710204      0.088794      0.085818
 ------------------------------------------------------------------------------
 One-electron integrals computed using PRISM.
 NBasis=   114 RedAO= T EigKep=  1.32D-03  NBF=   114
 NBsUse=   114 1.00D-06 EigRej= -1.00D+00 NBFU=   114
 ExpMin= 4.05D-02 ExpMax= 2.19D+04 ExpMxC= 3.30D+03 IAcc=3 IRadAn=         5 AccDes= 0.00D+00
 Harris functional with IExCor=  402 and IRadAn=       5 diagonalized for initial guess.
 HarFok:  IExCor=  402 AccDes= 0.00D+00 IRadAn=         5 IDoV= 1 UseB2=F ITyADJ=14
 ICtDFT=  3500011 ScaDFX=  1.000000  1.000000  1.000000  1.000000
 FoFCou: FMM=F IPFlag=           0 FMFlag=      100000 FMFlg1=           0
         NFxFlg=           0 DoJE=T BraDBF=F KetDBF=T FulRan=T
         wScrn=  0.000000 ICntrl=       500 IOpCl=  0 I1Cent=   200000004 NGrid=           0
         NMat0=    1 NMatS0=      1 NMatT0=    0 NMatD0=    1 NMtDS0=    0 NMtDT0=    0
 Petite list used in FoFCou.
 Keep R1 ints in memory in canonical form, NReq=25239049.
 Requested convergence on RMS density matrix=1.00D-08 within 128 cycles.
 Requested convergence on MAX density matrix=1.00D-06.
 Requested convergence on             energy=1.00D-06.
 No special actions if energy rises.
 Inv3:  Mode=1 IEnd=     3018027.
 Iteration    1 A*A^-1 deviation from unit magnitude is 2.78D-15 for    781.
 Iteration    1 A*A^-1 deviation from orthogonality  is 1.59D-15 for    728    169.
 Iteration    1 A^-1*A deviation from unit magnitude is 2.78D-15 for    781.
 Iteration    1 A^-1*A deviation from orthogonality  is 1.43D-15 for    996    910.
 Error on total polarization charges =  0.01228
 SCF Done:  E(RB3LYP) =  -643.259123512     A.U. after   12 cycles
            NFock= 12  Conv=0.97D-08     -V/T= 2.0060

 **********************************************************************

            Population analysis using the SCF density.

 **********************************************************************

 Orbital symmetries:
       Occupied  (A) (A) (A) (A) (A) (A) (A) (A) (A) (A) (A) (A)
                 (A) (A) (A) (A) (A) (A) (A) (A) (A) (A) (A) (A)
       Virtual   (A) (A) (A) (A) (A) (A) (A) (A) (A) (A) (A) (A)
                 (A) (A) (A) (A) (A) (A) (A) (A) (A) (A) (A) (A)
                 (A) (A) (A) (A) (A) (A) (A) (A) (A) (A) (A) (A)
                 (A) (A) (A) (A) (A) (A) (A) (A) (A) (A) (A) (A)
                 (A) (A) (A) (A) (A) (A) (A) (A) (A) (A) (A) (A)
                 (A) (A) (A) (A) (A) (A) (A) (A) (A) (A) (A) (A)
                 (A) (A) (A) (A) (A) (A) (A) (A) (A) (A) (A) (A)
                 (A) (A) (A) (A) (A) (A)
 The electronic state is 1-A.
 Alpha  occ. eigenvalues --  -89.05073 -19.16878 -19.15848 -14.40673 -10.32964
 Alpha  occ. eigenvalues --   -8.09362  -6.05901  -6.05656  -6.05040  -1.06947
 Alpha  occ. eigenvalues --   -1.05160  -0.93241  -0.73122  -0.65647  -0.55060
 Alpha  occ. eigenvalues --   -0.53205  -0.48028  -0.45795  -0.42610  -0.41569
 Alpha  occ. eigenvalues --   -0.33301  -0.31263  -0.29500  -0.27417
 Alpha virt. eigenvalues --   -0.04824  -0.02368  -0.01393   0.00508   0.02560
 Alpha virt. eigenvalues --    0.03090   0.05478   0.05922   0.07883   0.08784
 Alpha virt. eigenvalues --    0.10462   0.12000   0.12871   0.16133   0.16941
 Alpha virt. eigenvalues --    0.18316   0.19945   0.21582   0.22293   0.23402
 Alpha virt. eigenvalues --    0.23927   0.25792   0.26875   0.27445   0.30362
 Alpha virt. eigenvalues --    0.33252   0.35748   0.39173   0.45929   0.48593
 Alpha virt. eigenvalues --    0.51491   0.59348   0.59985   0.63473   0.66858
 Alpha virt. eigenvalues --    0.69490   0.74512   0.80716   0.84822   0.89094
 Alpha virt. eigenvalues --    0.92994   0.98364   1.00512   1.02765   1.06723
 Alpha virt. eigenvalues --    1.13918   1.17986   1.19772   1.21555   1.23815
 Alpha virt. eigenvalues --    1.24739   1.26399   1.28580   1.32895   1.38678
 Alpha virt. eigenvalues --    1.45074   1.52709   1.55985   1.62138   1.75279
 Alpha virt. eigenvalues --    1.78527   1.79974   1.81746   1.84472   1.91791
 Alpha virt. eigenvalues --    1.98598   1.98910   2.03485   2.04442   2.08845
 Alpha virt. eigenvalues --    2.18136   2.19651   2.25080   2.43607   2.47796
 Alpha virt. eigenvalues --    2.55763   2.57257   2.64550   2.66474   2.76843
 Alpha virt. eigenvalues --    2.82786   2.97105   3.03369   3.38626   3.49598
 Alpha virt. eigenvalues --    3.97126   4.01683   4.05942   4.14141   4.41352
          Condensed to atoms (all electrons):
               1          2          3          4          5          6
     1  S   14.925230  -0.185171   0.007065   0.232731   0.133654   0.003804
     2  N   -0.185171   7.596033   0.179251   0.013389  -0.051110   0.287983
     3  C    0.007065   0.179251   4.687405  -0.001906  -0.006834   0.000578
     4  H    0.232731   0.013389  -0.001906   0.750723  -0.082919  -0.005274
     5  O    0.133654  -0.051110  -0.006834  -0.082919   8.708505   0.005470
     6  H    0.003804   0.287983   0.000578  -0.005274   0.005470   0.329519
     7  H    0.013429  -0.131178   0.440536  -0.000140  -0.000207   0.002742
     8  O    0.016894  -0.134580   0.403499  -0.001578  -0.000934   0.005067
               7          8
     1  S    0.013429   0.016894
     2  N   -0.131178  -0.134580
     3  C    0.440536   0.403499
     4  H   -0.000140  -0.001578
     5  O   -0.000207  -0.000934
     6  H    0.002742   0.005067
     7  H    0.543371  -0.044908
     8  O   -0.044908   8.260512
 Mulliken charges:
               1
     1  S    0.852363
     2  N   -0.574616
     3  C    0.290408
     4  H    0.094974
     5  O   -0.705624
     6  H    0.370112
     7  H    0.176355
     8  O   -0.503972
 Sum of Mulliken charges =  -0.00000
 Mulliken charges with hydrogens summed into heavy atoms:
               1
     1  S    0.947338
     2  N   -0.204504
     3  C    0.466762
     5  O   -0.705624
     8  O   -0.503972
 Electronic spatial extent (au):  <R**2>=            636.0396
 Charge=             -0.0000 electrons
 Dipole moment (field-independent basis, Debye):
    X=             -0.8799    Y=             -2.7424    Z=              1.7578  Tot=              3.3741
 Quadrupole moment (field-independent basis, Debye-Ang):
   XX=            -57.2902   YY=            -34.6978   ZZ=            -32.4688
   XY=              4.5844   XZ=             -6.1353   YZ=              1.5030
 Traceless Quadrupole moment (field-independent basis, Debye-Ang):
   XX=            -15.8046   YY=              6.7878   ZZ=              9.0168
   XY=              4.5844   XZ=             -6.1353   YZ=              1.5030
 Octapole moment (field-independent basis, Debye-Ang**2):
  XXX=            -25.1968  YYY=              0.1399  ZZZ=              2.5938  XYY=              2.4399
  XXY=            -14.3589  XXZ=              2.6460  XZZ=              0.0544  YZZ=             -0.9537
  YYZ=              3.8892  XYZ=              2.0057
 Hexadecapole moment (field-independent basis, Debye-Ang**3):
 XXXX=           -843.0339 YYYY=            -77.5205 ZZZZ=            -58.5965 XXXY=             18.9959
 XXXZ=            -20.9783 YYYX=              4.9379 YYYZ=              2.2888 ZZZX=             -7.3391
 ZZZY=              2.3937 XXYY=           -123.3781 XXZZ=           -116.5739 YYZZ=            -20.2292
 XXYZ=              0.6730 YYXZ=             -2.1871 ZZXY=              2.1197
 N-N= 2.226526390222D+02 E-N=-1.964480735354D+03  KE= 6.394055677305D+02
 1\1\GINC-NODE56\SP\RB3LYP\6-31+G(d,p)\C1H3N1O2S1\YANZ\22-Sep-2023\0\\#
  b3lyp/6-31+g(d,p) scrf=(iefpcm,solvent=acetonitrile)\\tmpdir/M3_conf_
 0_25.gjf\\0,1\S,0,0.,0.,0.\N,0,1.7802,0.,0.\C,0,2.45715,0.,1.22831\H,0
 ,-0.23155,1.20096,-0.63588\O,0,-0.45185,-1.07252,-0.96367\H,0,2.27321,
 0.16967,-0.86163\H,0,1.99446,-0.43688,2.08466\O,0,3.60123,0.46355,1.30
 96\\Version=ES64L-G16RevA.03\State=1-A\HF=-643.2591235\RMSD=9.668e-09\
 Dipole=-0.7409267,1.0803618,0.2145391\Quadrupole=-5.7289708,2.4034277,
 3.325543,-6.9957129,-6.3127681,-4.9287199\PG=C01 [X(C1H3N1O2S1)]\\@


 FROM WHENCE IT HAPPENS, THAT THEY WHICH TRUST TO BOOKS, DO AS THEY THAT CAST UP MANY LITTLE SUMMS INTO GREATER,
 WITHOUT CONSIDERING WETHER THOSE LITTLE SUMMES WERE RIGHTLY CAST UP OR NOT...
 AND AT LAST FINDING THE ERROUR VISIBLE, AND NOT MISTRUSTING THEIR FIRST GROUNDS,
 KNOW NOT WHICH WAY TO CLEERE THEMSELVES...
 BUT SPEND TIME IN FLUTTERING OVER THEIR BOOKES....
 AS BIRDS THAT ENTERING BY THE CHIMNEY, AND FINDING THEMSELVES INCLOSED IN A CHAMBER,
 FLUTTER AT THE FALSE LIGHT OF A GLASSE WINDOW,
 FOR WANT OF WIT TO CONSIDER WHICH WAY THEY CAME IN....
           LEVIATHAN
 Job cpu time:       0 days  0 hours  0 minutes 53.5 seconds.
 Elapsed time:       0 days  0 hours  0 minutes 13.9 seconds.
 File lengths (MBytes):  RWF=     28 Int=      0 D2E=      0 Chk=      2 Scr=      1
 Normal termination of Gaussian 16 at Fri Sep 22 17:10:09 2023.
