 Entering Gaussian System, Link 0=g16
 Initial command:
 /share/apps/gaussian/g16/l1.exe "/tmp/55648.mgr/Gau-181523.inp" -scrdir="/tmp/55648.mgr/"
 Entering Link 1 = /share/apps/gaussian/g16/l1.exe PID=    181524.
  
 Copyright (c) 1988,1990,1992,1993,1995,1998,2003,2009,2016,
            Gaussian, Inc.  All Rights Reserved.
  
 This is part of the Gaussian(R) 16 program.  It is based on
 the Gaussian(R) 09 system (copyright 2009, Gaussian, Inc.),
 the Gaussian(R) 03 system (copyright 2003, Gaussian, Inc.),
 the Gaussian(R) 98 system (copyright 1998, Gaussian, Inc.),
 the Gaussian(R) 94 system (copyright 1995, Gaussian, Inc.),
 the Gaussian 92(TM) system (copyright 1992, Gaussian, Inc.),
 the Gaussian 90(TM) system (copyright 1990, Gaussian, Inc.),
 the Gaussian 88(TM) system (copyright 1988, Gaussian, Inc.),
 the Gaussian 86(TM) system (copyright 1986, Carnegie Mellon
 University), and the Gaussian 82(TM) system (copyright 1983,
 Carnegie Mellon University). Gaussian is a federally registered
 trademark of Gaussian, Inc.
  
 This software contains proprietary and confidential information,
 including trade secrets, belonging to Gaussian, Inc.
  
 This software is provided under written license and may be
 used, copied, transmitted, or stored only in accord with that
 written license.
  
 The following legend is applicable only to US Government
 contracts under FAR:
  
                    RESTRICTED RIGHTS LEGEND
  
 Use, reproduction and disclosure by the US Government is
 subject to restrictions as set forth in subparagraphs (a)
 and (c) of the Commercial Computer Software - Restricted
 Rights clause in FAR 52.227-19.
  
 Gaussian, Inc.
 340 Quinnipiac St., Bldg. 40, Wallingford CT 06492
  
  
 ---------------------------------------------------------------
 Warning -- This program may not be used in any manner that
 competes with the business of Gaussian, Inc. or will provide
 assistance to any competitor of Gaussian, Inc.  The licensee
 of this program is prohibited from giving any competitor of
 Gaussian, Inc. access to this program.  By using this program,
 the user acknowledges that Gaussian, Inc. is engaged in the
 business of creating and licensing software in the field of
 computational chemistry and represents and warrants to the
 licensee that it is not a competitor of Gaussian, Inc. and that
 it will not use this program in any manner prohibited above.
 ---------------------------------------------------------------
  

 Cite this work as:
 Gaussian 16, Revision A.03,
 M. J. Frisch, G. W. Trucks, H. B. Schlegel, G. E. Scuseria, 
 M. A. Robb, J. R. Cheeseman, G. Scalmani, V. Barone, 
 G. A. Petersson, H. Nakatsuji, X. Li, M. Caricato, A. V. Marenich, 
 J. Bloino, B. G. Janesko, R. Gomperts, B. Mennucci, H. P. Hratchian, 
 J. V. Ortiz, A. F. Izmaylov, J. L. Sonnenberg, D. Williams-Young, 
 F. Ding, F. Lipparini, F. Egidi, J. Goings, B. Peng, A. Petrone, 
 T. Henderson, D. Ranasinghe, V. G. Zakrzewski, J. Gao, N. Rega, 
 G. Zheng, W. Liang, M. Hada, M. Ehara, K. Toyota, R. Fukuda, 
 J. Hasegawa, M. Ishida, T. Nakajima, Y. Honda, O. Kitao, H. Nakai, 
 T. Vreven, K. Throssell, J. A. Montgomery, Jr., J. E. Peralta, 
 F. Ogliaro, M. J. Bearpark, J. J. Heyd, E. N. Brothers, K. N. Kudin, 
 V. N. Staroverov, T. A. Keith, R. Kobayashi, J. Normand, 
 K. Raghavachari, A. P. Rendell, J. C. Burant, S. S. Iyengar, 
 J. Tomasi, M. Cossi, J. M. Millam, M. Klene, C. Adamo, R. Cammi, 
 J. W. Ochterski, R. L. Martin, K. Morokuma, O. Farkas, 
 J. B. Foresman, and D. J. Fox, Gaussian, Inc., Wallingford CT, 2016.
 
 ******************************************
 Gaussian 16:  ES64L-G16RevA.03 25-Dec-2016
                22-Sep-2023 
 ******************************************
 %nprocshared=4
 Will use up to    4 processors via shared memory.
 %mem=4GB
 ------------------------------------------------------
 # b3lyp/6-31+g(d,p) scrf=(iefpcm,solvent=acetonitrile)
 ------------------------------------------------------
 1/38=1,172=1/1;
 2/12=2,17=6,18=5,40=1/2;
 3/5=1,6=6,7=111,11=2,25=1,30=1,70=2201,72=2,74=-5/1,2,3;
 4//1;
 5/5=2,38=5,53=2/2;
 6/7=2,8=2,9=2,10=2,28=1/1;
 99/5=1,9=1/99;
 -----------------------
 tmpdir/M3_conf_0_35.gjf
 -----------------------
 Symbolic Z-matrix:
 Charge =  0 Multiplicity = 2
 C                     0.        0.        0. 
 C                     1.4967    0.        0. 
 H                     1.87481   0.        1.02328 
 H                    -0.6069    0.08471   0.87336 
 H                    -0.52538  -0.18542  -0.92041 
 H                     1.89212   0.86938  -0.54452 
 H                     1.87061  -0.88512  -0.52806 
 
                          Input orientation:                          
 ---------------------------------------------------------------------
 Center     Atomic      Atomic             Coordinates (Angstroms)
 Number     Number       Type             X           Y           Z
 ---------------------------------------------------------------------
      1          6           0        0.000000    0.000000    0.000000
      2          6           0        1.496700    0.000000    0.000000
      3          1           0        1.874810    0.000000    1.023280
      4          1           0       -0.606900    0.084710    0.873360
      5          1           0       -0.525380   -0.185420   -0.920410
      6          1           0        1.892120    0.869380   -0.544520
      7          1           0        1.870610   -0.885120   -0.528060
 ---------------------------------------------------------------------
                    Distance matrix (angstroms):
                    1          2          3          4          5
     1  C    0.000000
     2  C    1.496700   0.000000
     3  H    2.135887   1.090903   0.000000
     4  H    1.066893   2.279269   2.487677   0.000000
     5  H    1.075899   2.229427   3.094063   1.815827   0.000000
     6  H    2.152311   1.099400   1.792796   2.978455   2.664245
     7  H    2.135759   1.096400   1.786088   3.007092   2.526715
                    6          7
     6  H    0.000000
     7  H    1.754709   0.000000
 Stoichiometry    C2H5(2)
 Framework group  C1[X(C2H5)]
 Deg. of freedom    15
 Full point group                 C1      NOp   1
 Largest Abelian subgroup         C1      NOp   1
 Largest concise Abelian subgroup C1      NOp   1
                         Standard orientation:                         
 ---------------------------------------------------------------------
 Center     Atomic      Atomic             Coordinates (Angstroms)
 Number     Number       Type             X           Y           Z
 ---------------------------------------------------------------------
      1          6           0        0.793172    0.002789    0.014671
      2          6           0       -0.703422    0.009926   -0.001712
      3          1           0       -1.075104    1.024892   -0.149244
      4          1           0        1.404630    0.876496   -0.017202
      5          1           0        1.314642   -0.937020   -0.034179
      6          1           0       -1.111061   -0.405447    0.931013
      7          1           0       -1.071607   -0.635215   -0.808140
 ---------------------------------------------------------------------
 Rotational constants (GHZ):         104.2249359          22.6302878          21.0003422
 Standard basis: 6-31+G(d,p) (6D, 7F)
 There are    63 symmetry adapted cartesian basis functions of A   symmetry.
 There are    63 symmetry adapted basis functions of A   symmetry.
    63 basis functions,    99 primitive gaussians,    63 cartesian basis functions
     9 alpha electrons        8 beta electrons
       nuclear repulsion energy        36.9451236859 Hartrees.
 NAtoms=    7 NActive=    7 NUniq=    7 SFac= 1.00D+00 NAtFMM=   60 NAOKFM=F Big=F
 Integral buffers will be    131072 words long.
 Raffenetti 2 integral format.
 Two-electron integral symmetry is turned on.
 ------------------------------------------------------------------------------
 Polarizable Continuum Model (PCM)
 =================================
 Model                : PCM.
 Atomic radii         : UFF (Universal Force Field).
 Polarization charges : Total charges.
 Charge compensation  : None.
 Solution method      : On-the-fly selection.
 Cavity type          : Scaled VdW (van der Waals Surface) (Alpha=1.100).
 Cavity algorithm     : GePol (No added spheres)
                        Default sphere list used, NSphG=    7.
                        Lebedev-Laikov grids with approx.  5.0 points / Ang**2.
                        Smoothing algorithm: York/Karplus (Gamma=1.0000).
                        Polarization charges: spherical gaussians, with
                                              point-specific exponents (IZeta= 3).
                        Self-potential: point-specific (ISelfS= 7).
                        Self-field    : sphere-specific E.n sum rule (ISelfD= 2).
 Solvent              : Acetonitrile, Eps=  35.688000 Eps(inf)=   1.806874
 ------------------------------------------------------------------------------
 Spheres list:
 ISph  on   Nord     Re0    Alpha      Xe            Ye            Ze
    1   C      1    1.9255  1.100      0.793172      0.002789      0.014671
    2   C      2    1.9255  1.100     -0.703422      0.009926     -0.001712
    3   H      3    1.4430  1.100     -1.075104      1.024892     -0.149244
    4   H      4    1.4430  1.100      1.404630      0.876496     -0.017202
    5   H      5    1.4430  1.100      1.314642     -0.937020     -0.034179
    6   H      6    1.4430  1.100     -1.111061     -0.405447      0.931013
    7   H      7    1.4430  1.100     -1.071607     -0.635215     -0.808140
 ------------------------------------------------------------------------------
 One-electron integrals computed using PRISM.
 NBasis=    63 RedAO= T EigKep=  3.56D-04  NBF=    63
 NBsUse=    63 1.00D-06 EigRej= -1.00D+00 NBFU=    63
 ExpMin= 4.38D-02 ExpMax= 3.05D+03 ExpMxC= 4.57D+02 IAcc=3 IRadAn=         5 AccDes= 0.00D+00
 Harris functional with IExCor=  402 and IRadAn=       5 diagonalized for initial guess.
 HarFok:  IExCor=  402 AccDes= 0.00D+00 IRadAn=         5 IDoV= 1 UseB2=F ITyADJ=14
 ICtDFT=  3500011 ScaDFX=  1.000000  1.000000  1.000000  1.000000
 FoFCou: FMM=F IPFlag=           0 FMFlag=      100000 FMFlg1=           0
         NFxFlg=           0 DoJE=T BraDBF=F KetDBF=T FulRan=T
         wScrn=  0.000000 ICntrl=       500 IOpCl=  0 I1Cent=   200000004 NGrid=           0
         NMat0=    1 NMatS0=      1 NMatT0=    0 NMatD0=    1 NMtDS0=    0 NMtDT0=    0
 Petite list used in FoFCou.
 Initial guess <Sx>= 0.0000 <Sy>= 0.0000 <Sz>= 0.5000 <S**2>= 0.7500 S= 0.5000
 Keep R1 and R2 ints in memory in canonical form, NReq=7602667.
 Requested convergence on RMS density matrix=1.00D-08 within 128 cycles.
 Requested convergence on MAX density matrix=1.00D-06.
 Requested convergence on             energy=1.00D-06.
 No special actions if energy rises.
 Inv3:  Mode=1 IEnd=     1334667.
 Iteration    1 A*A^-1 deviation from unit magnitude is 3.55D-15 for    661.
 Iteration    1 A*A^-1 deviation from orthogonality  is 1.73D-15 for    436    363.
 Iteration    1 A^-1*A deviation from unit magnitude is 3.77D-15 for    661.
 Iteration    1 A^-1*A deviation from orthogonality  is 1.91D-15 for    423     85.
 Error on total polarization charges =  0.01271
 SCF Done:  E(UB3LYP) =  -79.1696318558     A.U. after   11 cycles
            NFock= 11  Conv=0.89D-08     -V/T= 2.0102
 <Sx>= 0.0000 <Sy>= 0.0000 <Sz>= 0.5000 <S**2>= 0.7537 S= 0.5018
 <L.S>= 0.000000000000E+00
 Annihilation of the first spin contaminant:
 S**2 before annihilation     0.7537,   after     0.7500

 **********************************************************************

            Population analysis using the SCF density.

 **********************************************************************

 Orbital symmetries:
 Alpha Orbitals:
       Occupied  (A) (A) (A) (A) (A) (A) (A) (A) (A)
       Virtual   (A) (A) (A) (A) (A) (A) (A) (A) (A) (A) (A) (A)
                 (A) (A) (A) (A) (A) (A) (A) (A) (A) (A) (A) (A)
                 (A) (A) (A) (A) (A) (A) (A) (A) (A) (A) (A) (A)
                 (A) (A) (A) (A) (A) (A) (A) (A) (A) (A) (A) (A)
                 (A) (A) (A) (A) (A) (A)
 Beta  Orbitals:
       Occupied  (A) (A) (A) (A) (A) (A) (A) (A)
       Virtual   (A) (A) (A) (A) (A) (A) (A) (A) (A) (A) (A) (A)
                 (A) (A) (A) (A) (A) (A) (A) (A) (A) (A) (A) (A)
                 (A) (A) (A) (A) (A) (A) (A) (A) (A) (A) (A) (A)
                 (A) (A) (A) (A) (A) (A) (A) (A) (A) (A) (A) (A)
                 (A) (A) (A) (A) (A) (A) (A)
 The electronic state is 2-A.
 Alpha  occ. eigenvalues --  -10.19377 -10.18527  -0.75837  -0.61310  -0.45385
 Alpha  occ. eigenvalues --   -0.41520  -0.39302  -0.36123  -0.20489
 Alpha virt. eigenvalues --    0.02103   0.03168   0.05442   0.05922   0.08392
 Alpha virt. eigenvalues --    0.09031   0.09842   0.15070   0.17058   0.19228
 Alpha virt. eigenvalues --    0.22676   0.26295   0.29018   0.31064   0.61163
 Alpha virt. eigenvalues --    0.63444   0.65619   0.67937   0.68688   0.72725
 Alpha virt. eigenvalues --    0.89093   0.89975   0.91541   0.98958   1.01745
 Alpha virt. eigenvalues --    1.08364   1.29214   1.31428   1.43634   1.56479
 Alpha virt. eigenvalues --    1.82666   1.87074   1.94635   1.99724   2.03333
 Alpha virt. eigenvalues --    2.10792   2.11774   2.24137   2.33774   2.40390
 Alpha virt. eigenvalues --    2.51649   2.56132   2.58729   2.66774   2.85246
 Alpha virt. eigenvalues --    2.86163   2.92839   3.23678   3.30077   3.41717
 Alpha virt. eigenvalues --    3.46147   3.55338   4.25731   4.53318
  Beta  occ. eigenvalues --  -10.18604 -10.18040  -0.74162  -0.58955  -0.44756
  Beta  occ. eigenvalues --   -0.40077  -0.38455  -0.35662
  Beta virt. eigenvalues --   -0.05796   0.02260   0.03356   0.05445   0.06377
  Beta virt. eigenvalues --    0.08366   0.09012   0.11264   0.15295   0.17561
  Beta virt. eigenvalues --    0.20142   0.23984   0.27156   0.29435   0.31482
  Beta virt. eigenvalues --    0.61647   0.63749   0.66944   0.69442   0.73226
  Beta virt. eigenvalues --    0.73445   0.90739   0.90868   0.91882   1.00401
  Beta virt. eigenvalues --    1.02067   1.08892   1.30271   1.33190   1.47693
  Beta virt. eigenvalues --    1.56804   1.85484   1.88058   1.97952   2.01709
  Beta virt. eigenvalues --    2.03985   2.11382   2.12438   2.24226   2.34464
  Beta virt. eigenvalues --    2.42136   2.53669   2.58635   2.59287   2.67151
  Beta virt. eigenvalues --    2.85882   2.86759   2.93212   3.24151   3.30584
  Beta virt. eigenvalues --    3.42277   3.46605   3.56013   4.28047   4.54302
          Condensed to atoms (all electrons):
               1          2          3          4          5          6
     1  C    5.384100   0.264589  -0.053224   0.395431   0.381338  -0.057784
     2  C    0.264589   5.087400   0.415180  -0.029207  -0.024351   0.401265
     3  H   -0.053224   0.415180   0.535609  -0.006458   0.003873  -0.026464
     4  H    0.395431  -0.029207  -0.006458   0.517668  -0.033904   0.002191
     5  H    0.381338  -0.024351   0.003873  -0.033904   0.535865  -0.001393
     6  H   -0.057784   0.401265  -0.026464   0.002191  -0.001393   0.551762
     7  H   -0.056939   0.406195  -0.026030   0.002748  -0.004127  -0.034035
               7
     1  C   -0.056939
     2  C    0.406195
     3  H   -0.026030
     4  H    0.002748
     5  H   -0.004127
     6  H   -0.034035
     7  H    0.549814
          Atomic-Atomic Spin Densities.
               1          2          3          4          5          6
     1  C    1.302734  -0.111435  -0.002994   0.003636   0.005973  -0.033562
     2  C   -0.111435  -0.045761   0.003690  -0.007996  -0.010552   0.020608
     3  H   -0.002994   0.003690   0.003066   0.000456  -0.000099  -0.003015
     4  H    0.003636  -0.007996   0.000456  -0.046083   0.000897   0.000069
     5  H    0.005973  -0.010552  -0.000099   0.000897  -0.045635   0.000355
     6  H   -0.033562   0.020608  -0.003015   0.000069   0.000355   0.083420
     7  H   -0.028756   0.020571   0.001805  -0.000099   0.000261  -0.016290
               7
     1  C   -0.028756
     2  C    0.020571
     3  H    0.001805
     4  H   -0.000099
     5  H    0.000261
     6  H   -0.016290
     7  H    0.061210
 Mulliken charges and spin densities:
               1          2
     1  C   -0.257510   1.135597
     2  C   -0.521072  -0.130874
     3  H    0.157515   0.002911
     4  H    0.151532  -0.049120
     5  H    0.142700  -0.048799
     6  H    0.164459   0.051584
     7  H    0.162375   0.038701
 Sum of Mulliken charges =   0.00000   1.00000
 Mulliken charges and spin densities with hydrogens summed into heavy atoms:
               1          2
     1  C    0.036723   1.037678
     2  C   -0.036723  -0.037678
 Electronic spatial extent (au):  <R**2>=             99.7691
 Charge=             -0.0000 electrons
 Dipole moment (field-independent basis, Debye):
    X=             -0.3643    Y=             -0.0419    Z=             -0.0879  Tot=              0.3771
 Quadrupole moment (field-independent basis, Debye-Ang):
   XX=            -14.5962   YY=            -13.7117   ZZ=            -15.6156
   XY=              0.1413   XZ=             -0.1397   YZ=             -0.0083
 Traceless Quadrupole moment (field-independent basis, Debye-Ang):
   XX=              0.0450   YY=              0.9295   ZZ=             -0.9745
   XY=              0.1413   XZ=             -0.1397   YZ=             -0.0083
 Octapole moment (field-independent basis, Debye-Ang**2):
  XXX=             -0.2012  YYY=              0.4536  ZZZ=              0.0132  XYY=              0.2175
  XXY=              0.1532  XXZ=             -0.1552  XZZ=             -2.1075  YZZ=             -0.5705
  YYZ=             -0.3446  XYZ=              0.0642
 Hexadecapole moment (field-independent basis, Debye-Ang**3):
 XXXX=            -90.2127 YYYY=            -29.6828 ZZZZ=            -27.5773 XXXY=              0.6858
 XXXZ=             -0.4499 YYYX=             -0.5534 YYYZ=              0.0021 ZZZX=             -0.5308
 ZZZY=             -0.0033 XXYY=            -18.0195 XXZZ=            -20.7787 YYZZ=             -9.8134
 XXYZ=             -0.0366 YYXZ=              0.1318 ZZXY=              0.6773
 N-N= 3.694512368594D+01 E-N=-2.563395464288D+02  KE= 7.836870649440D+01
                          Isotropic Fermi Contact Couplings
        Atom                 a.u.       MegaHertz       Gauss      10(-4) cm-1
     1  C(13)              0.10329     116.11416      41.43242      38.73151
     2  C(13)             -0.02585     -29.06595     -10.37145      -9.69536
     3  H(1)               0.00124       5.56318       1.98508       1.85568
     4  H(1)              -0.01476     -65.98177     -23.54394     -22.00915
     5  H(1)              -0.01424     -63.63380     -22.70612     -21.22595
     6  H(1)               0.02741     122.49966      43.71093      40.86149
     7  H(1)               0.02053      91.77480      32.74753      30.61278
 --------------------------------------------------------
       Center         ----  Spin Dipole Couplings  ----
                      3XX-RR        3YY-RR        3ZZ-RR
 --------------------------------------------------------
     1   Atom       -0.522465     -0.515603      1.038067
     2   Atom        0.008988     -0.020448      0.011460
     3   Atom        0.010906     -0.003373     -0.007533
     4   Atom       -0.027055      0.024933      0.002122
     5   Atom       -0.039712      0.039159      0.000553
     6   Atom        0.013033     -0.008815     -0.004218
     7   Atom        0.011628     -0.005455     -0.006174
 --------------------------------------------------------
                        XY            XZ            YZ
 --------------------------------------------------------
     1   Atom       -0.001347      0.029397     -0.014142
     2   Atom        0.000384      0.002201     -0.000369
     3   Atom       -0.010668      0.001507     -0.000180
     4   Atom        0.067832     -0.000207     -0.002556
     5   Atom       -0.059639     -0.000998      0.002980
     6   Atom        0.005236     -0.008898     -0.004132
     7   Atom        0.007248      0.007399      0.004544
 --------------------------------------------------------


 ---------------------------------------------------------------------------------
              Anisotropic Spin Dipole Couplings in Principal Axis System
 ---------------------------------------------------------------------------------

       Atom             a.u.   MegaHertz   Gauss  10(-4) cm-1        Axes

              Baa    -0.5232   -70.205   -25.051   -23.418  0.9895  0.1436 -0.0173
     1 C(13)  Bbb    -0.5156   -69.185   -24.687   -23.078 -0.1434  0.9896  0.0117
              Bcc     1.0388   139.390    49.738    46.496  0.0188 -0.0091  0.9998
 
              Baa    -0.0205    -2.745    -0.980    -0.916 -0.0140  0.9998  0.0125
     2 C(13)  Bbb     0.0077     1.035     0.369     0.345  0.8632  0.0184 -0.5046
              Bcc     0.0127     1.711     0.610     0.571  0.5047 -0.0038  0.8633
 
              Baa    -0.0093    -4.938    -1.762    -1.647  0.4619  0.8281 -0.3175
     3 H(1)   Bbb    -0.0074    -3.965    -1.415    -1.323  0.1007  0.3067  0.9465
              Bcc     0.0167     8.902     3.177     2.970  0.8812 -0.4692  0.0583
 
              Baa    -0.0737   -39.336   -14.036   -13.121  0.8237 -0.5668 -0.0169
     4 H(1)   Bbb     0.0021     1.106     0.395     0.369  0.0320  0.0168  0.9993
              Bcc     0.0717    38.230    13.642    12.752  0.5661  0.8237 -0.0320
 
              Baa    -0.0718   -38.298   -13.666   -12.775  0.8807  0.4736 -0.0074
     5 H(1)   Bbb     0.0004     0.225     0.080     0.075  0.0272 -0.0350  0.9990
              Bcc     0.0714    38.073    13.585    12.700 -0.4729  0.8800  0.0437
 
              Baa    -0.0112    -6.000    -2.141    -2.001 -0.0002  0.8621  0.5067
     6 H(1)   Bbb    -0.0071    -3.781    -1.349    -1.261  0.4565 -0.4507  0.7671
              Bcc     0.0183     9.781     3.490     3.263  0.8897  0.2315 -0.3935
 
              Baa    -0.0104    -5.548    -1.980    -1.851 -0.0498 -0.6354  0.7706
     7 H(1)   Bbb    -0.0070    -3.725    -1.329    -1.243 -0.4830  0.6906  0.5383
              Bcc     0.0174     9.273     3.309     3.093  0.8742  0.3454  0.3412
 

 ---------------------------------------------------------------------------------

 1\1\GINC-NODE56\SP\UB3LYP\6-31+G(d,p)\C2H5(2)\YANZ\22-Sep-2023\0\\# b3
 lyp/6-31+g(d,p) scrf=(iefpcm,solvent=acetonitrile)\\tmpdir/M3_conf_0_3
 5.gjf\\0,2\C,0,0.,0.,0.\C,0,1.4967,0.,0.\H,0,1.87481,0.,1.02328\H,0,-0
 .6069,0.08471,0.87336\H,0,-0.52538,-0.18542,-0.92041\H,0,1.89212,0.869
 38,-0.54452\H,0,1.87061,-0.88512,-0.52806\\Version=ES64L-G16RevA.03\St
 ate=2-A\HF=-79.1696319\S2=0.753691\S2-1=0.\S2A=0.750009\RMSD=8.910e-09
 \Dipole=0.1436065,-0.0350829,-0.0123543\Quadrupole=0.0301057,-0.696513
 7,0.666408,0.0966896,-0.1165124,0.188743\PG=C01 [X(C2H5)]\\@


 ONLY THE DAY DAWNS TO WHICH YOU ARE AWAKE.

                                 -- THOREAU
 Job cpu time:       0 days  0 hours  0 minutes 29.2 seconds.
 Elapsed time:       0 days  0 hours  0 minutes  7.5 seconds.
 File lengths (MBytes):  RWF=     14 Int=      0 D2E=      0 Chk=      2 Scr=      1
 Normal termination of Gaussian 16 at Fri Sep 22 17:09:44 2023.
