 Entering Gaussian System, Link 0=g16
 Initial command:
 /share/apps/gaussian/g16/l1.exe "/tmp/55648.mgr/Gau-181999.inp" -scrdir="/tmp/55648.mgr/"
 Entering Link 1 = /share/apps/gaussian/g16/l1.exe PID=    182000.
  
 Copyright (c) 1988,1990,1992,1993,1995,1998,2003,2009,2016,
            Gaussian, Inc.  All Rights Reserved.
  
 This is part of the Gaussian(R) 16 program.  It is based on
 the Gaussian(R) 09 system (copyright 2009, Gaussian, Inc.),
 the Gaussian(R) 03 system (copyright 2003, Gaussian, Inc.),
 the Gaussian(R) 98 system (copyright 1998, Gaussian, Inc.),
 the Gaussian(R) 94 system (copyright 1995, Gaussian, Inc.),
 the Gaussian 92(TM) system (copyright 1992, Gaussian, Inc.),
 the Gaussian 90(TM) system (copyright 1990, Gaussian, Inc.),
 the Gaussian 88(TM) system (copyright 1988, Gaussian, Inc.),
 the Gaussian 86(TM) system (copyright 1986, Carnegie Mellon
 University), and the Gaussian 82(TM) system (copyright 1983,
 Carnegie Mellon University). Gaussian is a federally registered
 trademark of Gaussian, Inc.
  
 This software contains proprietary and confidential information,
 including trade secrets, belonging to Gaussian, Inc.
  
 This software is provided under written license and may be
 used, copied, transmitted, or stored only in accord with that
 written license.
  
 The following legend is applicable only to US Government
 contracts under FAR:
  
                    RESTRICTED RIGHTS LEGEND
  
 Use, reproduction and disclosure by the US Government is
 subject to restrictions as set forth in subparagraphs (a)
 and (c) of the Commercial Computer Software - Restricted
 Rights clause in FAR 52.227-19.
  
 Gaussian, Inc.
 340 Quinnipiac St., Bldg. 40, Wallingford CT 06492
  
  
 ---------------------------------------------------------------
 Warning -- This program may not be used in any manner that
 competes with the business of Gaussian, Inc. or will provide
 assistance to any competitor of Gaussian, Inc.  The licensee
 of this program is prohibited from giving any competitor of
 Gaussian, Inc. access to this program.  By using this program,
 the user acknowledges that Gaussian, Inc. is engaged in the
 business of creating and licensing software in the field of
 computational chemistry and represents and warrants to the
 licensee that it is not a competitor of Gaussian, Inc. and that
 it will not use this program in any manner prohibited above.
 ---------------------------------------------------------------
  

 Cite this work as:
 Gaussian 16, Revision A.03,
 M. J. Frisch, G. W. Trucks, H. B. Schlegel, G. E. Scuseria, 
 M. A. Robb, J. R. Cheeseman, G. Scalmani, V. Barone, 
 G. A. Petersson, H. Nakatsuji, X. Li, M. Caricato, A. V. Marenich, 
 J. Bloino, B. G. Janesko, R. Gomperts, B. Mennucci, H. P. Hratchian, 
 J. V. Ortiz, A. F. Izmaylov, J. L. Sonnenberg, D. Williams-Young, 
 F. Ding, F. Lipparini, F. Egidi, J. Goings, B. Peng, A. Petrone, 
 T. Henderson, D. Ranasinghe, V. G. Zakrzewski, J. Gao, N. Rega, 
 G. Zheng, W. Liang, M. Hada, M. Ehara, K. Toyota, R. Fukuda, 
 J. Hasegawa, M. Ishida, T. Nakajima, Y. Honda, O. Kitao, H. Nakai, 
 T. Vreven, K. Throssell, J. A. Montgomery, Jr., J. E. Peralta, 
 F. Ogliaro, M. J. Bearpark, J. J. Heyd, E. N. Brothers, K. N. Kudin, 
 V. N. Staroverov, T. A. Keith, R. Kobayashi, J. Normand, 
 K. Raghavachari, A. P. Rendell, J. C. Burant, S. S. Iyengar, 
 J. Tomasi, M. Cossi, J. M. Millam, M. Klene, C. Adamo, R. Cammi, 
 J. W. Ochterski, R. L. Martin, K. Morokuma, O. Farkas, 
 J. B. Foresman, and D. J. Fox, Gaussian, Inc., Wallingford CT, 2016.
 
 ******************************************
 Gaussian 16:  ES64L-G16RevA.03 25-Dec-2016
                22-Sep-2023 
 ******************************************
 %nprocshared=4
 Will use up to    4 processors via shared memory.
 %mem=4GB
 ------------------------------------------------------
 # b3lyp/6-31+g(d,p) scrf=(iefpcm,solvent=acetonitrile)
 ------------------------------------------------------
 1/38=1,172=1/1;
 2/12=2,17=6,18=5,40=1/2;
 3/5=1,6=6,7=111,11=2,25=1,30=1,70=2201,72=2,74=-5/1,2,3;
 4//1;
 5/5=2,38=5,53=2/2;
 6/7=2,8=2,9=2,10=2,28=1/1;
 99/5=1,9=1/99;
 -----------------------
 tmpdir/M3_conf_0_57.gjf
 -----------------------
 Symbolic Z-matrix:
 Charge =  0 Multiplicity = 1
 O                     0.        0.        0. 
 S                     1.4832    0.        0. 
 C                     2.04479   0.        1.7091 
 C                     3.30932  -0.51711   2.00666 
 C                     1.21111   0.52938   2.69875 
 C                     3.74446  -0.5033    3.33345 
 H                     3.93143  -0.93175   1.22104 
 C                     1.66107   0.53702   4.02096 
 H                     0.22979   0.91336   2.44283 
 C                     2.92358   0.02385   4.33621 
 H                     4.72069  -0.907     3.5822 
 H                     1.02403   0.93911   4.80223 
 H                     3.26687   0.03136   5.36607 
 H                     1.91886   1.26203  -0.49408 
 O                     2.18948  -1.07746  -0.72785 
 
                          Input orientation:                          
 ---------------------------------------------------------------------
 Center     Atomic      Atomic             Coordinates (Angstroms)
 Number     Number       Type             X           Y           Z
 ---------------------------------------------------------------------
      1          8           0        0.000000    0.000000    0.000000
      2         16           0        1.483200    0.000000    0.000000
      3          6           0        2.044790    0.000000    1.709100
      4          6           0        3.309320   -0.517110    2.006660
      5          6           0        1.211110    0.529380    2.698750
      6          6           0        3.744460   -0.503300    3.333450
      7          1           0        3.931430   -0.931750    1.221040
      8          6           0        1.661070    0.537020    4.020960
      9          1           0        0.229790    0.913360    2.442830
     10          6           0        2.923580    0.023850    4.336210
     11          1           0        4.720690   -0.907000    3.582200
     12          1           0        1.024030    0.939110    4.802230
     13          1           0        3.266870    0.031360    5.366070
     14          1           0        1.918860    1.262030   -0.494080
     15          8           0        2.189480   -1.077460   -0.727850
 ---------------------------------------------------------------------
                    Distance matrix (angstroms):
                    1          2          3          4          5
     1  O    0.000000
     2  S    1.483200   0.000000
     3  C    2.664993   1.799001   0.000000
     4  C    3.904572   2.762028   1.398206   0.000000
     5  C    3.005043   2.763608   1.398096   2.444712   0.000000
     6  C    5.038470   4.059371   2.404309   1.396392   2.808404
     7  H    4.220810   2.890143   2.160040   1.084503   3.423254
     8  C    4.383567   4.060560   2.404231   2.808082   1.396697
     9  H    2.618100   2.893559   2.160280   3.423448   1.084401
    10  C    5.229781   4.569243   2.770297   2.422444   2.422682
    11  H    5.994975   4.912855   3.389925   2.150885   3.893690
    12  H    4.999198   4.914690   3.389887   3.893371   2.151164
    13  H    6.282367   5.654836   3.855891   3.404153   3.404228
    14  H    2.349225   1.423599   2.542161   3.369335   3.351395
    15  O    2.546470   1.479702   2.668442   3.007587   3.909057
                    6          7          8          9         10
     6  C    0.000000
     7  H    2.163516   0.000000
     8  C    2.428055   3.892476   0.000000
     9  H    3.892690   4.312695   2.163490   0.000000
    10  C    1.399021   3.410750   1.398806   3.410663   0.000000
    11  H    1.085300   2.489703   3.411595   4.977957   2.159772
    12  H    3.411539   4.977752   1.085301   2.489628   2.159436
    13  H    2.155342   4.307029   2.154903   4.306636   1.085595
    14  H    4.593386   3.435803   4.580140   3.405873   5.086674
    15  O    4.386545   2.617975   5.043507   4.225750   5.234166
                   11         12         13         14         15
    11  H    0.000000
    12  H    4.308351   0.000000
    13  H    2.485217   2.484403   0.000000
    14  H    5.401019   5.381068   6.137837   0.000000
    15  O    5.001261   6.000551   6.286980   2.366664   0.000000
 Stoichiometry    C6H6O2S
 Framework group  C1[X(C6H6O2S)]
 Deg. of freedom    39
 Full point group                 C1      NOp   1
 Largest Abelian subgroup         C1      NOp   1
 Largest concise Abelian subgroup C1      NOp   1
                         Standard orientation:                         
 ---------------------------------------------------------------------
 Center     Atomic      Atomic             Coordinates (Angstroms)
 Number     Number       Type             X           Y           Z
 ---------------------------------------------------------------------
      1          8           0       -2.182803   -1.273404   -0.342262
      2         16           0       -1.676933    0.000552    0.224320
      3          6           0        0.117387   -0.000436    0.094622
      4          6           0        0.794134    1.222315    0.051334
      5          6           0        0.795521   -1.222394    0.054307
      6          6           0        2.187696    1.214942   -0.037212
      7          1           0        0.242632    2.155863    0.073226
      8          6           0        2.189441   -1.213109   -0.033220
      9          1           0        0.245769   -2.156829    0.077318
     10          6           0        2.882345    0.001222   -0.077288
     11          1           0        2.727707    2.155451   -0.078509
     12          1           0        2.730957   -2.152893   -0.071258
     13          1           0        3.965712    0.001621   -0.146800
     14          1           0       -1.909706   -0.024317    1.628540
     15          8           0       -2.188608    1.273035   -0.331101
 ---------------------------------------------------------------------
 Rotational constants (GHZ):           3.3691966           0.9810306           0.7789615
 Standard basis: 6-31+G(d,p) (6D, 7F)
 There are   205 symmetry adapted cartesian basis functions of A   symmetry.
 There are   205 symmetry adapted basis functions of A   symmetry.
   205 basis functions,   354 primitive gaussians,   205 cartesian basis functions
    37 alpha electrons       37 beta electrons
       nuclear repulsion energy       515.7201794727 Hartrees.
 NAtoms=   15 NActive=   15 NUniq=   15 SFac= 1.00D+00 NAtFMM=   60 NAOKFM=F Big=F
 Integral buffers will be    131072 words long.
 Raffenetti 2 integral format.
 Two-electron integral symmetry is turned on.
 ------------------------------------------------------------------------------
 Polarizable Continuum Model (PCM)
 =================================
 Model                : PCM.
 Atomic radii         : UFF (Universal Force Field).
 Polarization charges : Total charges.
 Charge compensation  : None.
 Solution method      : On-the-fly selection.
 Cavity type          : Scaled VdW (van der Waals Surface) (Alpha=1.100).
 Cavity algorithm     : GePol (No added spheres)
                        Default sphere list used, NSphG=   15.
                        Lebedev-Laikov grids with approx.  5.0 points / Ang**2.
                        Smoothing algorithm: York/Karplus (Gamma=1.0000).
                        Polarization charges: spherical gaussians, with
                                              point-specific exponents (IZeta= 3).
                        Self-potential: point-specific (ISelfS= 7).
                        Self-field    : sphere-specific E.n sum rule (ISelfD= 2).
 Solvent              : Acetonitrile, Eps=  35.688000 Eps(inf)=   1.806874
 ------------------------------------------------------------------------------
 Spheres list:
 ISph  on   Nord     Re0    Alpha      Xe            Ye            Ze
    1   O      1    1.7500  1.100     -2.182803     -1.273404     -0.342262
    2   S      2    2.0175  1.100     -1.676933      0.000552      0.224320
    3   C      3    1.9255  1.100      0.117387     -0.000436      0.094622
    4   C      4    1.9255  1.100      0.794134      1.222315      0.051334
    5   C      5    1.9255  1.100      0.795521     -1.222394      0.054307
    6   C      6    1.9255  1.100      2.187696      1.214942     -0.037212
    7   H      7    1.4430  1.100      0.242632      2.155863      0.073226
    8   C      8    1.9255  1.100      2.189441     -1.213109     -0.033220
    9   H      9    1.4430  1.100      0.245769     -2.156829      0.077318
   10   C     10    1.9255  1.100      2.882345      0.001222     -0.077288
   11   H     11    1.4430  1.100      2.727707      2.155451     -0.078509
   12   H     12    1.4430  1.100      2.730957     -2.152893     -0.071258
   13   H     13    1.4430  1.100      3.965712      0.001621     -0.146800
   14   H     14    1.4430  1.100     -1.909706     -0.024317      1.628540
   15   O     15    1.7500  1.100     -2.188608      1.273035     -0.331101
 ------------------------------------------------------------------------------
 One-electron integrals computed using PRISM.
 NBasis=   205 RedAO= T EigKep=  5.10D-06  NBF=   205
 NBsUse=   205 1.00D-06 EigRej= -1.00D+00 NBFU=   205
 ExpMin= 4.05D-02 ExpMax= 2.19D+04 ExpMxC= 3.30D+03 IAcc=3 IRadAn=         5 AccDes= 0.00D+00
 Harris functional with IExCor=  402 and IRadAn=       5 diagonalized for initial guess.
 HarFok:  IExCor=  402 AccDes= 0.00D+00 IRadAn=         5 IDoV= 1 UseB2=F ITyADJ=14
 ICtDFT=  3500011 ScaDFX=  1.000000  1.000000  1.000000  1.000000
 FoFCou: FMM=F IPFlag=           0 FMFlag=      100000 FMFlg1=           0
         NFxFlg=           0 DoJE=T BraDBF=F KetDBF=T FulRan=T
         wScrn=  0.000000 ICntrl=       500 IOpCl=  0 I1Cent=   200000004 NGrid=           0
         NMat0=    1 NMatS0=      1 NMatT0=    0 NMatD0=    1 NMtDS0=    0 NMtDT0=    0
 Petite list used in FoFCou.
 Keep R1 ints in memory in canonical form, NReq=227304188.
 Requested convergence on RMS density matrix=1.00D-08 within 128 cycles.
 Requested convergence on MAX density matrix=1.00D-06.
 Requested convergence on             energy=1.00D-06.
 No special actions if energy rises.
 Inv3:  Mode=1 IEnd=     6212163.
 Iteration    1 A*A^-1 deviation from unit magnitude is 4.22D-15 for   1437.
 Iteration    1 A*A^-1 deviation from orthogonality  is 2.58D-15 for   1415    433.
 Iteration    1 A^-1*A deviation from unit magnitude is 4.22D-15 for   1415.
 Iteration    1 A^-1*A deviation from orthogonality  is 1.53D-15 for   1433   1356.
 Error on total polarization charges =  0.01520
 SCF Done:  E(RB3LYP) =  -780.843826149     A.U. after   14 cycles
            NFock= 14  Conv=0.22D-08     -V/T= 2.0069

 **********************************************************************

            Population analysis using the SCF density.

 **********************************************************************

 Orbital symmetries:
       Occupied  (A) (A) (A) (A) (A) (A) (A) (A) (A) (A) (A) (A)
                 (A) (A) (A) (A) (A) (A) (A) (A) (A) (A) (A) (A)
                 (A) (A) (A) (A) (A) (A) (A) (A) (A) (A) (A) (A)
                 (A)
       Virtual   (A) (A) (A) (A) (A) (A) (A) (A) (A) (A) (A) (A)
                 (A) (A) (A) (A) (A) (A) (A) (A) (A) (A) (A) (A)
                 (A) (A) (A) (A) (A) (A) (A) (A) (A) (A) (A) (A)
                 (A) (A) (A) (A) (A) (A) (A) (A) (A) (A) (A) (A)
                 (A) (A) (A) (A) (A) (A) (A) (A) (A) (A) (A) (A)
                 (A) (A) (A) (A) (A) (A) (A) (A) (A) (A) (A) (A)
                 (A) (A) (A) (A) (A) (A) (A) (A) (A) (A) (A) (A)
                 (A) (A) (A) (A) (A) (A) (A) (A) (A) (A) (A) (A)
                 (A) (A) (A) (A) (A) (A) (A) (A) (A) (A) (A) (A)
                 (A) (A) (A) (A) (A) (A) (A) (A) (A) (A) (A) (A)
                 (A) (A) (A) (A) (A) (A) (A) (A) (A) (A) (A) (A)
                 (A) (A) (A) (A) (A) (A) (A) (A) (A) (A) (A) (A)
                 (A) (A) (A) (A) (A) (A) (A) (A) (A) (A) (A) (A)
                 (A) (A) (A) (A) (A) (A) (A) (A) (A) (A) (A) (A)
 The electronic state is 1-A.
 Alpha  occ. eigenvalues --  -89.12273 -19.17309 -19.17114 -10.24642 -10.22682
 Alpha  occ. eigenvalues --  -10.22676 -10.21926 -10.21750 -10.21741  -8.15123
 Alpha  occ. eigenvalues --   -6.11583  -6.11490  -6.11418  -1.12001  -1.01899
 Alpha  occ. eigenvalues --   -0.88743  -0.79418  -0.77493  -0.70615  -0.63337
 Alpha  occ. eigenvalues --   -0.61884  -0.56029  -0.52558  -0.49469  -0.48858
 Alpha  occ. eigenvalues --   -0.46464  -0.46354  -0.44804  -0.39662  -0.38905
 Alpha  occ. eigenvalues --   -0.37190  -0.35689  -0.34479  -0.32765  -0.31709
 Alpha  occ. eigenvalues --   -0.28724  -0.28011
 Alpha virt. eigenvalues --   -0.05932  -0.03645  -0.01039   0.00407   0.01876
 Alpha virt. eigenvalues --    0.01924   0.03280   0.03883   0.04819   0.06314
 Alpha virt. eigenvalues --    0.06478   0.06942   0.07781   0.08420   0.08633
 Alpha virt. eigenvalues --    0.09057   0.09131   0.11341   0.12036   0.13094
 Alpha virt. eigenvalues --    0.13384   0.13817   0.14444   0.14614   0.15778
 Alpha virt. eigenvalues --    0.16692   0.17798   0.18761   0.19265   0.19488
 Alpha virt. eigenvalues --    0.19727   0.20995   0.21562   0.22665   0.22760
 Alpha virt. eigenvalues --    0.24013   0.24659   0.25399   0.25708   0.26389
 Alpha virt. eigenvalues --    0.27060   0.28669   0.29214   0.29492   0.31012
 Alpha virt. eigenvalues --    0.31749   0.33066   0.33239   0.34036   0.36149
 Alpha virt. eigenvalues --    0.36900   0.37435   0.47875   0.48940   0.52549
 Alpha virt. eigenvalues --    0.54837   0.58625   0.61143   0.63158   0.65203
 Alpha virt. eigenvalues --    0.65527   0.66992   0.67431   0.70330   0.71397
 Alpha virt. eigenvalues --    0.72177   0.74463   0.74787   0.75933   0.77734
 Alpha virt. eigenvalues --    0.81193   0.84096   0.87532   0.89379   0.89544
 Alpha virt. eigenvalues --    0.91276   0.94578   0.95479   0.98309   1.01104
 Alpha virt. eigenvalues --    1.01305   1.06209   1.07173   1.07872   1.12996
 Alpha virt. eigenvalues --    1.13828   1.14268   1.18982   1.20143   1.24344
 Alpha virt. eigenvalues --    1.24468   1.26492   1.27912   1.29002   1.29324
 Alpha virt. eigenvalues --    1.30805   1.32206   1.34557   1.37284   1.39113
 Alpha virt. eigenvalues --    1.39437   1.42293   1.43079   1.51433   1.56095
 Alpha virt. eigenvalues --    1.59943   1.74827   1.75793   1.79383   1.79576
 Alpha virt. eigenvalues --    1.81595   1.81829   1.83809   1.87615   1.88214
 Alpha virt. eigenvalues --    1.93085   1.94672   1.94993   1.95235   1.96704
 Alpha virt. eigenvalues --    1.98576   2.01177   2.03951   2.05656   2.07863
 Alpha virt. eigenvalues --    2.10895   2.19729   2.22380   2.26048   2.26860
 Alpha virt. eigenvalues --    2.32106   2.36557   2.36819   2.36880   2.39533
 Alpha virt. eigenvalues --    2.44784   2.49176   2.50744   2.51113   2.54127
 Alpha virt. eigenvalues --    2.57853   2.60310   2.61686   2.63463   2.65070
 Alpha virt. eigenvalues --    2.71670   2.74112   2.78031   2.83684   2.86443
 Alpha virt. eigenvalues --    2.95012   3.03528   3.16429   3.25628   3.26599
 Alpha virt. eigenvalues --    3.31336   3.41003   3.51172   3.84948   3.95986
 Alpha virt. eigenvalues --    4.10164   4.12423   4.26136   4.27124   4.27160
 Alpha virt. eigenvalues --    4.43539   4.46978   4.79577
          Condensed to atoms (all electrons):
               1          2          3          4          5          6
     1  O    8.718617   0.182191   0.045813   0.250735  -0.380707   0.018879
     2  S    0.182191  14.652758  -1.041233   0.416942   0.499860  -0.335382
     3  C    0.045813  -1.041233  10.191820  -1.095497  -1.256210   0.218764
     4  C    0.250735   0.416942  -1.095497  11.924786  -3.393798  -1.616004
     5  C   -0.380707   0.499860  -1.256210  -3.393798  12.039195  -0.792959
     6  C    0.018879  -0.335382   0.218764  -1.616004  -0.792959   7.669020
     7  H    0.000829   0.003975   0.036110   0.234274   0.041936   0.000407
     8  C   -0.042440  -0.327289   0.245349  -0.746633  -1.660860   0.616596
     9  H    0.000762   0.003744   0.038733   0.043837   0.231973  -0.009072
    10  C    0.002923   0.128851  -0.716803   0.279505   0.346291   0.113224
    11  H    0.000022   0.000714   0.001303   0.024353  -0.006089   0.275165
    12  H    0.000182   0.000746   0.000733  -0.006746   0.024106   0.001025
    13  H   -0.000002  -0.000237   0.006421  -0.004551  -0.004693   0.023556
    14  H   -0.070191   0.425209  -0.217750   0.023645   0.067884  -0.017127
    15  O   -0.089536   0.174757   0.038281  -0.368750   0.244043  -0.040872
               7          8          9         10         11         12
     1  O    0.000829  -0.042440   0.000762   0.002923   0.000022   0.000182
     2  S    0.003975  -0.327289   0.003744   0.128851   0.000714   0.000746
     3  C    0.036110   0.245349   0.038733  -0.716803   0.001303   0.000733
     4  C    0.234274  -0.746633   0.043837   0.279505   0.024353  -0.006746
     5  C    0.041936  -1.660860   0.231973   0.346291  -0.006089   0.024106
     6  C    0.000407   0.616596  -0.009072   0.113224   0.275165   0.001025
     7  H    0.519020  -0.008985  -0.000127   0.004053  -0.005504   0.000011
     8  C   -0.008985   7.656029  -0.001078   0.091564   0.000389   0.275882
     9  H   -0.000127  -0.001078   0.518790   0.003829   0.000011  -0.005504
    10  C    0.004053   0.091564   0.003829   5.569426   0.020375   0.020508
    11  H   -0.005504   0.000389   0.000011   0.020375   0.534500  -0.000142
    12  H    0.000011   0.275882  -0.005504   0.020508  -0.000142   0.534414
    13  H   -0.000129   0.023229  -0.000129   0.272220  -0.005257  -0.005263
    14  H   -0.000074  -0.013973  -0.000088   0.012658   0.000003   0.000003
    15  O    0.000807   0.018857   0.000836   0.003174   0.000182   0.000022
              13         14         15
     1  O   -0.000002  -0.070191  -0.089536
     2  S   -0.000237   0.425209   0.174757
     3  C    0.006421  -0.217750   0.038281
     4  C   -0.004551   0.023645  -0.368750
     5  C   -0.004693   0.067884   0.244043
     6  C    0.023556  -0.017127  -0.040872
     7  H   -0.000129  -0.000074   0.000807
     8  C    0.023229  -0.013973   0.018857
     9  H   -0.000129  -0.000088   0.000836
    10  C    0.272220   0.012658   0.003174
    11  H   -0.005257   0.000003   0.000182
    12  H   -0.005263   0.000003   0.000022
    13  H    0.536433  -0.000000  -0.000002
    14  H   -0.000000   0.765810  -0.069456
    15  O   -0.000002  -0.069456   8.717142
 Mulliken charges:
               1
     1  O   -0.638080
     2  S    1.214396
     3  C   -0.495835
     4  C    0.033901
     5  C    0.000027
     6  C   -0.125221
     7  H    0.173396
     8  C   -0.126636
     9  H    0.173482
    10  C   -0.151796
    11  H    0.159976
    12  H    0.160022
    13  H    0.158406
    14  H    0.093447
    15  O   -0.629485
 Sum of Mulliken charges =  -0.00000
 Mulliken charges with hydrogens summed into heavy atoms:
               1
     1  O   -0.638080
     2  S    1.307843
     3  C   -0.495835
     4  C    0.207297
     5  C    0.173509
     6  C    0.034756
     8  C    0.033386
    10  C    0.006610
    15  O   -0.629485
 Electronic spatial extent (au):  <R**2>=           1407.4820
 Charge=              0.0000 electrons
 Dipole moment (field-independent basis, Debye):
    X=              5.9943    Y=              0.0279    Z=              3.4722  Tot=              6.9274
 Quadrupole moment (field-independent basis, Debye-Ang):
   XX=            -61.4883   YY=            -59.5778   ZZ=            -60.1845
   XY=             -0.0552   XZ=             -7.9660   YZ=             -0.1034
 Traceless Quadrupole moment (field-independent basis, Debye-Ang):
   XX=             -1.0715   YY=              0.8391   ZZ=              0.2324
   XY=             -0.0552   XZ=             -7.9660   YZ=             -0.1034
 Octapole moment (field-independent basis, Debye-Ang**2):
  XXX=             43.3645  YYY=              0.1284  ZZZ=              5.0051  XYY=             21.5891
  XXY=              0.0873  XXZ=             13.5026  XZZ=            -16.4671  YZZ=              0.0040
  YYZ=              2.9313  XYZ=              0.1557
 Hexadecapole moment (field-independent basis, Debye-Ang**3):
 XXXX=          -1279.7969 YYYY=           -409.7945 ZZZZ=            -89.5138 XXXY=             -0.3248
 XXXZ=            -42.3942 YYYX=             -0.2944 YYYZ=             -0.1772 ZZZX=             -9.3030
 ZZZY=             -0.1437 XXYY=           -310.2080 XXZZ=           -246.3590 YYZZ=            -95.8454
 XXYZ=             -0.4643 YYXZ=             -7.1711 ZZXY=             -0.0176
 N-N= 5.157201794727D+02 E-N=-2.866921677493D+03  KE= 7.755154617299D+02
 1\1\GINC-NODE56\SP\RB3LYP\6-31+G(d,p)\C6H6O2S1\YANZ\22-Sep-2023\0\\# b
 3lyp/6-31+g(d,p) scrf=(iefpcm,solvent=acetonitrile)\\tmpdir/M3_conf_0_
 57.gjf\\0,1\O,0,0.,0.,0.\S,0,1.4832,0.,0.\C,0,2.04479,0.,1.7091\C,0,3.
 30932,-0.51711,2.00666\C,0,1.21111,0.52938,2.69875\C,0,3.74446,-0.5033
 ,3.33345\H,0,3.93143,-0.93175,1.22104\C,0,1.66107,0.53702,4.02096\H,0,
 0.22979,0.91336,2.44283\C,0,2.92358,0.02385,4.33621\H,0,4.72069,-0.907
 ,3.5822\H,0,1.02403,0.93911,4.80223\H,0,3.26687,0.03136,5.36607\H,0,1.
 91886,1.26203,-0.49408\O,0,2.18948,-1.07746,-0.72785\\Version=ES64L-G1
 6RevA.03\State=1-A\HF=-780.8438261\RMSD=2.159e-09\Dipole=1.3356346,1.3
 806368,1.9333866\Quadrupole=-1.2249417,-0.3816644,1.6066061,-2.1990879
 ,-2.1419401,-4.9064123\PG=C01 [X(C6H6O2S1)]\\@


 IF YOU WISH TO UNDERSTAND THE FRAGRANCE OF THE ROSE, 
 OR THE TENACITY OF THE OAK; 
 IF YOU ARE NOT SATISFIED UNTIL YOU KNOW THE SECRET PATHS 
 BY WHICH THE SUNSHINE AND THE AIR ACHIEVE THESE WONDERS; 
 IF YOU WISH TO SEE THE PATTERN WHICH UNDERLIES ONE LARGE FIELD OF 
 HUMAN EXPERIENCE AND HUMAN MEASUREMENT, THEN TAKE UP CHEMISTRY.

                                         -- C. A. COULSON, 1973.
 Job cpu time:       0 days  0 hours  3 minutes 44.5 seconds.
 Elapsed time:       0 days  0 hours  1 minutes  2.3 seconds.
 File lengths (MBytes):  RWF=     53 Int=      0 D2E=      0 Chk=      4 Scr=      1
 Normal termination of Gaussian 16 at Fri Sep 22 17:11:10 2023.
