 Entering Gaussian System, Link 0=g16
 Initial command:
 /share/apps/gaussian/g16/l1.exe "/tmp/55648.mgr/Gau-182105.inp" -scrdir="/tmp/55648.mgr/"
 Entering Link 1 = /share/apps/gaussian/g16/l1.exe PID=    182106.
  
 Copyright (c) 1988,1990,1992,1993,1995,1998,2003,2009,2016,
            Gaussian, Inc.  All Rights Reserved.
  
 This is part of the Gaussian(R) 16 program.  It is based on
 the Gaussian(R) 09 system (copyright 2009, Gaussian, Inc.),
 the Gaussian(R) 03 system (copyright 2003, Gaussian, Inc.),
 the Gaussian(R) 98 system (copyright 1998, Gaussian, Inc.),
 the Gaussian(R) 94 system (copyright 1995, Gaussian, Inc.),
 the Gaussian 92(TM) system (copyright 1992, Gaussian, Inc.),
 the Gaussian 90(TM) system (copyright 1990, Gaussian, Inc.),
 the Gaussian 88(TM) system (copyright 1988, Gaussian, Inc.),
 the Gaussian 86(TM) system (copyright 1986, Carnegie Mellon
 University), and the Gaussian 82(TM) system (copyright 1983,
 Carnegie Mellon University). Gaussian is a federally registered
 trademark of Gaussian, Inc.
  
 This software contains proprietary and confidential information,
 including trade secrets, belonging to Gaussian, Inc.
  
 This software is provided under written license and may be
 used, copied, transmitted, or stored only in accord with that
 written license.
  
 The following legend is applicable only to US Government
 contracts under FAR:
  
                    RESTRICTED RIGHTS LEGEND
  
 Use, reproduction and disclosure by the US Government is
 subject to restrictions as set forth in subparagraphs (a)
 and (c) of the Commercial Computer Software - Restricted
 Rights clause in FAR 52.227-19.
  
 Gaussian, Inc.
 340 Quinnipiac St., Bldg. 40, Wallingford CT 06492
  
  
 ---------------------------------------------------------------
 Warning -- This program may not be used in any manner that
 competes with the business of Gaussian, Inc. or will provide
 assistance to any competitor of Gaussian, Inc.  The licensee
 of this program is prohibited from giving any competitor of
 Gaussian, Inc. access to this program.  By using this program,
 the user acknowledges that Gaussian, Inc. is engaged in the
 business of creating and licensing software in the field of
 computational chemistry and represents and warrants to the
 licensee that it is not a competitor of Gaussian, Inc. and that
 it will not use this program in any manner prohibited above.
 ---------------------------------------------------------------
  

 Cite this work as:
 Gaussian 16, Revision A.03,
 M. J. Frisch, G. W. Trucks, H. B. Schlegel, G. E. Scuseria, 
 M. A. Robb, J. R. Cheeseman, G. Scalmani, V. Barone, 
 G. A. Petersson, H. Nakatsuji, X. Li, M. Caricato, A. V. Marenich, 
 J. Bloino, B. G. Janesko, R. Gomperts, B. Mennucci, H. P. Hratchian, 
 J. V. Ortiz, A. F. Izmaylov, J. L. Sonnenberg, D. Williams-Young, 
 F. Ding, F. Lipparini, F. Egidi, J. Goings, B. Peng, A. Petrone, 
 T. Henderson, D. Ranasinghe, V. G. Zakrzewski, J. Gao, N. Rega, 
 G. Zheng, W. Liang, M. Hada, M. Ehara, K. Toyota, R. Fukuda, 
 J. Hasegawa, M. Ishida, T. Nakajima, Y. Honda, O. Kitao, H. Nakai, 
 T. Vreven, K. Throssell, J. A. Montgomery, Jr., J. E. Peralta, 
 F. Ogliaro, M. J. Bearpark, J. J. Heyd, E. N. Brothers, K. N. Kudin, 
 V. N. Staroverov, T. A. Keith, R. Kobayashi, J. Normand, 
 K. Raghavachari, A. P. Rendell, J. C. Burant, S. S. Iyengar, 
 J. Tomasi, M. Cossi, J. M. Millam, M. Klene, C. Adamo, R. Cammi, 
 J. W. Ochterski, R. L. Martin, K. Morokuma, O. Farkas, 
 J. B. Foresman, and D. J. Fox, Gaussian, Inc., Wallingford CT, 2016.
 
 ******************************************
 Gaussian 16:  ES64L-G16RevA.03 25-Dec-2016
                22-Sep-2023 
 ******************************************
 %nprocshared=4
 Will use up to    4 processors via shared memory.
 %mem=4GB
 ------------------------------------------------------
 # b3lyp/6-31+g(d,p) scrf=(iefpcm,solvent=acetonitrile)
 ------------------------------------------------------
 1/38=1,172=1/1;
 2/12=2,17=6,18=5,40=1/2;
 3/5=1,6=6,7=111,11=2,25=1,30=1,70=2201,72=2,74=-5/1,2,3;
 4//1;
 5/5=2,38=5,53=2/2;
 6/7=2,8=2,9=2,10=2,28=1/1;
 99/5=1,9=1/99;
 -----------------------
 tmpdir/M3_conf_0_47.gjf
 -----------------------
 Symbolic Z-matrix:
 Charge =  0 Multiplicity = 1
 H                     0.        0.        0. 
 C                     1.0905    0.        0. 
 S                     1.42185   0.        1.8397 
 H                     1.49545   0.82118  -0.56501 
 H                     1.47412  -0.96366  -0.35227 
 O                     0.98233   1.29146   2.41282 
 O                     2.82744  -0.42531   2.04774 
 H                     0.5999   -0.98849   2.31318 
 
                          Input orientation:                          
 ---------------------------------------------------------------------
 Center     Atomic      Atomic             Coordinates (Angstroms)
 Number     Number       Type             X           Y           Z
 ---------------------------------------------------------------------
      1          1           0        0.000000    0.000000    0.000000
      2          6           0        1.090500    0.000000    0.000000
      3         16           0        1.421850    0.000000    1.839700
      4          1           0        1.495450    0.821180   -0.565010
      5          1           0        1.474120   -0.963660   -0.352270
      6          8           0        0.982330    1.291460    2.412820
      7          8           0        2.827440   -0.425310    2.047740
      8          1           0        0.599900   -0.988490    2.313180
 ---------------------------------------------------------------------
                    Distance matrix (angstroms):
                    1          2          3          4          5
     1  H    0.000000
     2  C    1.090500   0.000000
     3  S    2.325114   1.869302   0.000000
     4  H    1.797204   1.075898   2.542122   0.000000
     5  H    1.796041   1.095399   2.395017   1.797600   0.000000
     6  O    2.907669   2.738845   1.479700   3.058092   3.601825
     7  O    3.516894   2.718656   1.483190   3.186596   2.807373
     8  H    2.586077   2.562929   1.369999   3.515806   2.805263
                    6          7          8
     6  O    0.000000
     7  O    2.546569   0.000000
     8  H    2.313947   2.312913   0.000000
 Stoichiometry    CH4O2S
 Framework group  C1[X(CH4O2S)]
 Deg. of freedom    18
 Full point group                 C1      NOp   1
 Largest Abelian subgroup         C1      NOp   1
 Largest concise Abelian subgroup C1      NOp   1
                         Standard orientation:                         
 ---------------------------------------------------------------------
 Center     Atomic      Atomic             Coordinates (Angstroms)
 Number     Number       Type             X           Y           Z
 ---------------------------------------------------------------------
      1          1           0        1.950315   -0.844430    0.533623
      2          6           0        1.637593   -0.041458   -0.134681
      3         16           0       -0.194798    0.000558    0.232562
      4          1           0        1.922851   -0.229513   -1.154887
      5          1           0        2.015392    0.923078    0.221462
      6          8           0       -0.817903   -1.248241   -0.259124
      7          8           0       -0.725879    1.296662   -0.255209
      8          1           0       -0.247100    0.003316    1.601560
 ---------------------------------------------------------------------
 Rotational constants (GHZ):           8.1841289           7.0033589           4.3072815
 Standard basis: 6-31+G(d,p) (6D, 7F)
 There are   100 symmetry adapted cartesian basis functions of A   symmetry.
 There are   100 symmetry adapted basis functions of A   symmetry.
   100 basis functions,   180 primitive gaussians,   100 cartesian basis functions
    21 alpha electrons       21 beta electrons
       nuclear repulsion energy       190.3674963009 Hartrees.
 NAtoms=    8 NActive=    8 NUniq=    8 SFac= 1.00D+00 NAtFMM=   60 NAOKFM=F Big=F
 Integral buffers will be    131072 words long.
 Raffenetti 2 integral format.
 Two-electron integral symmetry is turned on.
 ------------------------------------------------------------------------------
 Polarizable Continuum Model (PCM)
 =================================
 Model                : PCM.
 Atomic radii         : UFF (Universal Force Field).
 Polarization charges : Total charges.
 Charge compensation  : None.
 Solution method      : On-the-fly selection.
 Cavity type          : Scaled VdW (van der Waals Surface) (Alpha=1.100).
 Cavity algorithm     : GePol (No added spheres)
                        Default sphere list used, NSphG=    8.
                        Lebedev-Laikov grids with approx.  5.0 points / Ang**2.
                        Smoothing algorithm: York/Karplus (Gamma=1.0000).
                        Polarization charges: spherical gaussians, with
                                              point-specific exponents (IZeta= 3).
                        Self-potential: point-specific (ISelfS= 7).
                        Self-field    : sphere-specific E.n sum rule (ISelfD= 2).
 Solvent              : Acetonitrile, Eps=  35.688000 Eps(inf)=   1.806874
 ------------------------------------------------------------------------------
 Spheres list:
 ISph  on   Nord     Re0    Alpha      Xe            Ye            Ze
    1   H      1    1.4430  1.100      1.950315     -0.844430      0.533623
    2   C      2    1.9255  1.100      1.637593     -0.041458     -0.134681
    3   S      3    2.0175  1.100     -0.194798      0.000558      0.232562
    4   H      4    1.4430  1.100      1.922851     -0.229513     -1.154887
    5   H      5    1.4430  1.100      2.015392      0.923078      0.221462
    6   O      6    1.7500  1.100     -0.817903     -1.248241     -0.259124
    7   O      7    1.7500  1.100     -0.725879      1.296662     -0.255209
    8   H      8    1.4430  1.100     -0.247100      0.003316      1.601560
 ------------------------------------------------------------------------------
 One-electron integrals computed using PRISM.
 NBasis=   100 RedAO= T EigKep=  8.10D-04  NBF=   100
 NBsUse=   100 1.00D-06 EigRej= -1.00D+00 NBFU=   100
 ExpMin= 4.05D-02 ExpMax= 2.19D+04 ExpMxC= 3.30D+03 IAcc=3 IRadAn=         5 AccDes= 0.00D+00
 Harris functional with IExCor=  402 and IRadAn=       5 diagonalized for initial guess.
 HarFok:  IExCor=  402 AccDes= 0.00D+00 IRadAn=         5 IDoV= 1 UseB2=F ITyADJ=14
 ICtDFT=  3500011 ScaDFX=  1.000000  1.000000  1.000000  1.000000
 FoFCou: FMM=F IPFlag=           0 FMFlag=      100000 FMFlg1=           0
         NFxFlg=           0 DoJE=T BraDBF=F KetDBF=T FulRan=T
         wScrn=  0.000000 ICntrl=       500 IOpCl=  0 I1Cent=   200000004 NGrid=           0
         NMat0=    1 NMatS0=      1 NMatT0=    0 NMatD0=    1 NMtDS0=    0 NMtDT0=    0
 Petite list used in FoFCou.
 Keep R1 ints in memory in canonical form, NReq=16455358.
 Requested convergence on RMS density matrix=1.00D-08 within 128 cycles.
 Requested convergence on MAX density matrix=1.00D-06.
 Requested convergence on             energy=1.00D-06.
 No special actions if energy rises.
 Inv3:  Mode=1 IEnd=     2478843.
 Iteration    1 A*A^-1 deviation from unit magnitude is 2.89D-15 for    882.
 Iteration    1 A*A^-1 deviation from orthogonality  is 1.44D-15 for    859    339.
 Iteration    1 A^-1*A deviation from unit magnitude is 2.66D-15 for    882.
 Iteration    1 A^-1*A deviation from orthogonality  is 1.25D-15 for    907    868.
 Error on total polarization charges =  0.01042
 SCF Done:  E(RB3LYP) =  -589.097000626     A.U. after   11 cycles
            NFock= 11  Conv=0.71D-08     -V/T= 2.0058

 **********************************************************************

            Population analysis using the SCF density.

 **********************************************************************

 Orbital symmetries:
       Occupied  (A) (A) (A) (A) (A) (A) (A) (A) (A) (A) (A) (A)
                 (A) (A) (A) (A) (A) (A) (A) (A) (A)
       Virtual   (A) (A) (A) (A) (A) (A) (A) (A) (A) (A) (A) (A)
                 (A) (A) (A) (A) (A) (A) (A) (A) (A) (A) (A) (A)
                 (A) (A) (A) (A) (A) (A) (A) (A) (A) (A) (A) (A)
                 (A) (A) (A) (A) (A) (A) (A) (A) (A) (A) (A) (A)
                 (A) (A) (A) (A) (A) (A) (A) (A) (A) (A) (A) (A)
                 (A) (A) (A) (A) (A) (A) (A) (A) (A) (A) (A) (A)
                 (A) (A) (A) (A) (A) (A) (A)
 The electronic state is 1-A.
 Alpha  occ. eigenvalues --  -89.11914 -19.17030 -19.16746 -10.23641  -8.14905
 Alpha  occ. eigenvalues --   -6.11343  -6.11271  -6.11179  -1.11691  -1.01584
 Alpha  occ. eigenvalues --   -0.78285  -0.67084  -0.53570  -0.49560  -0.48225
 Alpha  occ. eigenvalues --   -0.44390  -0.43983  -0.35416  -0.34165  -0.32357
 Alpha  occ. eigenvalues --   -0.31235
 Alpha virt. eigenvalues --   -0.01545   0.00744   0.01068   0.02518   0.04709
 Alpha virt. eigenvalues --    0.06403   0.07017   0.07603   0.09082   0.11350
 Alpha virt. eigenvalues --    0.11527   0.13359   0.14111   0.17691   0.18719
 Alpha virt. eigenvalues --    0.20411   0.22707   0.23196   0.25892   0.26684
 Alpha virt. eigenvalues --    0.28711   0.30450   0.31220   0.44171   0.46465
 Alpha virt. eigenvalues --    0.53539   0.59119   0.60010   0.63066   0.67579
 Alpha virt. eigenvalues --    0.72713   0.73688   0.78295   0.91895   0.92670
 Alpha virt. eigenvalues --    0.95419   1.04355   1.07548   1.13827   1.18979
 Alpha virt. eigenvalues --    1.19510   1.21577   1.23511   1.26041   1.26370
 Alpha virt. eigenvalues --    1.26740   1.41557   1.48424   1.52181   1.57498
 Alpha virt. eigenvalues --    1.77511   1.79181   1.79861   1.81441   1.81716
 Alpha virt. eigenvalues --    1.97538   1.98889   2.00121   2.01620   2.04527
 Alpha virt. eigenvalues --    2.05028   2.18866   2.21219   2.26157   2.35193
 Alpha virt. eigenvalues --    2.37492   2.56663   2.65476   2.79427   2.80676
 Alpha virt. eigenvalues --    2.81140   2.83408   3.21128   3.39157   3.40129
 Alpha virt. eigenvalues --    3.94226   4.01331   4.03308   4.39381
          Condensed to atoms (all electrons):
               1          2          3          4          5          6
     1  H    0.482096   0.340580  -0.004848  -0.015579  -0.021208  -0.003787
     2  C    0.340580   5.651635   0.107906   0.375622   0.351191  -0.094659
     3  S   -0.004848   0.107906  14.101595   0.000748  -0.008948   0.177468
     4  H   -0.015579   0.375622   0.000748   0.430905  -0.017613  -0.003770
     5  H   -0.021208   0.351191  -0.008948  -0.017613   0.475325   0.008365
     6  O   -0.003787  -0.094659   0.177468  -0.003770   0.008365   8.758826
     7  O    0.009513  -0.088963   0.184958  -0.003317  -0.004786  -0.140484
     8  H    0.001194  -0.096283   0.377482   0.001501   0.000736  -0.074077
               7          8
     1  H    0.009513   0.001194
     2  C   -0.088963  -0.096283
     3  S    0.184958   0.377482
     4  H   -0.003317   0.001501
     5  H   -0.004786   0.000736
     6  O   -0.140484  -0.074077
     7  O    8.763139  -0.074542
     8  H   -0.074542   0.767680
 Mulliken charges:
               1
     1  H    0.212039
     2  C   -0.547028
     3  S    1.063639
     4  H    0.231503
     5  H    0.216938
     6  O   -0.627881
     7  O   -0.645519
     8  H    0.096309
 Sum of Mulliken charges =  -0.00000
 Mulliken charges with hydrogens summed into heavy atoms:
               1
     2  C    0.113452
     3  S    1.159948
     6  O   -0.627881
     7  O   -0.645519
 Electronic spatial extent (au):  <R**2>=            328.0897
 Charge=             -0.0000 electrons
 Dipole moment (field-independent basis, Debye):
    X=              5.1222    Y=             -0.2215    Z=              3.1281  Tot=              6.0059
 Quadrupole moment (field-independent basis, Debye-Ang):
   XX=            -29.8806   YY=            -39.1806   ZZ=            -27.8560
   XY=             -0.2110   XZ=             -2.3184   YZ=              0.0874
 Traceless Quadrupole moment (field-independent basis, Debye-Ang):
   XX=              2.4252   YY=             -6.8748   ZZ=              4.4497
   XY=             -0.2110   XZ=             -2.3184   YZ=              0.0874
 Octapole moment (field-independent basis, Debye-Ang**2):
  XXX=              7.4631  YYY=             -0.4193  ZZZ=              4.3060  XYY=              7.8281
  XXY=              0.3762  XXZ=              0.5389  XZZ=              0.8168  YZZ=             -0.5368
  YYZ=              3.2992  XYZ=              0.1422
 Hexadecapole moment (field-independent basis, Debye-Ang**3):
 XXXX=           -201.1056 YYYY=           -171.0069 ZZZZ=            -50.1527 XXXY=              0.1643
 XXXZ=             -4.2958 YYYX=              1.0101 YYYZ=             -0.0428 ZZZX=             -4.8154
 ZZZY=              0.3943 XXYY=            -63.1609 XXZZ=            -40.3861 YYZZ=            -36.4701
 XXYZ=              0.2606 YYXZ=              0.2682 ZZXY=             -1.0538
 N-N= 1.903674963009D+02 E-N=-1.772872616190D+03  KE= 5.856882716233D+02
 1\1\GINC-NODE56\SP\RB3LYP\6-31+G(d,p)\C1H4O2S1\YANZ\22-Sep-2023\0\\# b
 3lyp/6-31+g(d,p) scrf=(iefpcm,solvent=acetonitrile)\\tmpdir/M3_conf_0_
 47.gjf\\0,1\H,0,0.,0.,0.\C,0,1.0905,0.,0.\S,0,1.42185,0.,1.8397\H,0,1.
 49545,0.82118,-0.56501\H,0,1.47412,-0.96366,-0.35227\O,0,0.98233,1.291
 46,2.41282\O,0,2.82744,-0.42531,2.04774\H,0,0.5999,-0.98849,2.31318\\V
 ersion=ES64L-G16RevA.03\State=1-A\HF=-589.0970006\RMSD=7.053e-09\Dipol
 e=-1.3962977,-1.1607768,-1.5120587\Quadrupole=-1.9787157,-0.8579076,2.
 8366233,3.5207101,-0.4479971,-2.0530586\PG=C01 [X(C1H4O2S1)]\\@


 YOU ARE IN A MAZE OF TWISTY LITTLE PASSAGES.
 Job cpu time:       0 days  0 hours  0 minutes 46.1 seconds.
 Elapsed time:       0 days  0 hours  0 minutes 11.9 seconds.
 File lengths (MBytes):  RWF=     21 Int=      0 D2E=      0 Chk=      2 Scr=      1
 Normal termination of Gaussian 16 at Fri Sep 22 17:10:30 2023.
