 Entering Gaussian System, Link 0=g16
 Initial command:
 /share/apps/gaussian/g16/l1.exe "/tmp/55648.mgr/Gau-182153.inp" -scrdir="/tmp/55648.mgr/"
 Entering Link 1 = /share/apps/gaussian/g16/l1.exe PID=    182154.
  
 Copyright (c) 1988,1990,1992,1993,1995,1998,2003,2009,2016,
            Gaussian, Inc.  All Rights Reserved.
  
 This is part of the Gaussian(R) 16 program.  It is based on
 the Gaussian(R) 09 system (copyright 2009, Gaussian, Inc.),
 the Gaussian(R) 03 system (copyright 2003, Gaussian, Inc.),
 the Gaussian(R) 98 system (copyright 1998, Gaussian, Inc.),
 the Gaussian(R) 94 system (copyright 1995, Gaussian, Inc.),
 the Gaussian 92(TM) system (copyright 1992, Gaussian, Inc.),
 the Gaussian 90(TM) system (copyright 1990, Gaussian, Inc.),
 the Gaussian 88(TM) system (copyright 1988, Gaussian, Inc.),
 the Gaussian 86(TM) system (copyright 1986, Carnegie Mellon
 University), and the Gaussian 82(TM) system (copyright 1983,
 Carnegie Mellon University). Gaussian is a federally registered
 trademark of Gaussian, Inc.
  
 This software contains proprietary and confidential information,
 including trade secrets, belonging to Gaussian, Inc.
  
 This software is provided under written license and may be
 used, copied, transmitted, or stored only in accord with that
 written license.
  
 The following legend is applicable only to US Government
 contracts under FAR:
  
                    RESTRICTED RIGHTS LEGEND
  
 Use, reproduction and disclosure by the US Government is
 subject to restrictions as set forth in subparagraphs (a)
 and (c) of the Commercial Computer Software - Restricted
 Rights clause in FAR 52.227-19.
  
 Gaussian, Inc.
 340 Quinnipiac St., Bldg. 40, Wallingford CT 06492
  
  
 ---------------------------------------------------------------
 Warning -- This program may not be used in any manner that
 competes with the business of Gaussian, Inc. or will provide
 assistance to any competitor of Gaussian, Inc.  The licensee
 of this program is prohibited from giving any competitor of
 Gaussian, Inc. access to this program.  By using this program,
 the user acknowledges that Gaussian, Inc. is engaged in the
 business of creating and licensing software in the field of
 computational chemistry and represents and warrants to the
 licensee that it is not a competitor of Gaussian, Inc. and that
 it will not use this program in any manner prohibited above.
 ---------------------------------------------------------------
  

 Cite this work as:
 Gaussian 16, Revision A.03,
 M. J. Frisch, G. W. Trucks, H. B. Schlegel, G. E. Scuseria, 
 M. A. Robb, J. R. Cheeseman, G. Scalmani, V. Barone, 
 G. A. Petersson, H. Nakatsuji, X. Li, M. Caricato, A. V. Marenich, 
 J. Bloino, B. G. Janesko, R. Gomperts, B. Mennucci, H. P. Hratchian, 
 J. V. Ortiz, A. F. Izmaylov, J. L. Sonnenberg, D. Williams-Young, 
 F. Ding, F. Lipparini, F. Egidi, J. Goings, B. Peng, A. Petrone, 
 T. Henderson, D. Ranasinghe, V. G. Zakrzewski, J. Gao, N. Rega, 
 G. Zheng, W. Liang, M. Hada, M. Ehara, K. Toyota, R. Fukuda, 
 J. Hasegawa, M. Ishida, T. Nakajima, Y. Honda, O. Kitao, H. Nakai, 
 T. Vreven, K. Throssell, J. A. Montgomery, Jr., J. E. Peralta, 
 F. Ogliaro, M. J. Bearpark, J. J. Heyd, E. N. Brothers, K. N. Kudin, 
 V. N. Staroverov, T. A. Keith, R. Kobayashi, J. Normand, 
 K. Raghavachari, A. P. Rendell, J. C. Burant, S. S. Iyengar, 
 J. Tomasi, M. Cossi, J. M. Millam, M. Klene, C. Adamo, R. Cammi, 
 J. W. Ochterski, R. L. Martin, K. Morokuma, O. Farkas, 
 J. B. Foresman, and D. J. Fox, Gaussian, Inc., Wallingford CT, 2016.
 
 ******************************************
 Gaussian 16:  ES64L-G16RevA.03 25-Dec-2016
                22-Sep-2023 
 ******************************************
 %nprocshared=4
 Will use up to    4 processors via shared memory.
 %mem=4GB
 ------------------------------------------------------
 # b3lyp/6-31+g(d,p) scrf=(iefpcm,solvent=acetonitrile)
 ------------------------------------------------------
 1/38=1,172=1/1;
 2/12=2,17=6,18=5,40=1/2;
 3/5=1,6=6,7=111,11=2,25=1,30=1,70=2201,72=2,74=-5/1,2,3;
 4//1;
 5/5=2,38=5,53=2/2;
 6/7=2,8=2,9=2,10=2,28=1/1;
 99/5=1,9=1/99;
 -----------------------
 tmpdir/M3_conf_0_52.gjf
 -----------------------
 Symbolic Z-matrix:
 Charge =  0 Multiplicity = 1
 C                     0.        0.        0. 
 S                     1.8693    0.        0. 
 O                     2.22727   0.        1.43575 
 H                    -0.44172   0.80986   0.55369 
 H                    -0.28077  -0.97374   0.40274 
 H                    -0.24157   0.05797  -1.06686 
 O                     2.3232    1.08169  -0.90764 
 H                     2.18959  -1.20288  -0.5722 
 
                          Input orientation:                          
 ---------------------------------------------------------------------
 Center     Atomic      Atomic             Coordinates (Angstroms)
 Number     Number       Type             X           Y           Z
 ---------------------------------------------------------------------
      1          6           0        0.000000    0.000000    0.000000
      2         16           0        1.869300    0.000000    0.000000
      3          8           0        2.227270    0.000000    1.435750
      4          1           0       -0.441720    0.809860    0.553690
      5          1           0       -0.280770   -0.973740    0.402740
      6          1           0       -0.241570    0.057970   -1.066860
      7          8           0        2.323200    1.081690   -0.907640
      8          1           0        2.189590   -1.202880   -0.572200
 ---------------------------------------------------------------------
                    Distance matrix (angstroms):
                    1          2          3          4          5
     1  C    0.000000
     2  S    1.869300   0.000000
     3  O    2.649926   1.479703   0.000000
     4  H    1.075901   2.510629   2.925305   0.000000
     5  H    1.090505   2.394404   2.881934   1.797198   0.000000
     6  H    1.095403   2.365866   3.515905   1.797660   1.796020
     7  O    2.718662   1.483202   2.582776   3.139134   3.566868
     8  H    2.562935   1.370007   2.340983   3.498935   2.665650
                    6          7          8
     6  H    0.000000
     7  O    2.766116   0.000000
     8  H    2.782979   2.312927   0.000000
 Stoichiometry    CH4O2S
 Framework group  C1[X(CH4O2S)]
 Deg. of freedom    18
 Full point group                 C1      NOp   1
 Largest Abelian subgroup         C1      NOp   1
 Largest concise Abelian subgroup C1      NOp   1
                         Standard orientation:                         
 ---------------------------------------------------------------------
 Center     Atomic      Atomic             Coordinates (Angstroms)
 Number     Number       Type             X           Y           Z
 ---------------------------------------------------------------------
      1          6           0       -1.607600   -0.153914   -0.124298
      2         16           0        0.217842    0.014277    0.241427
      3          8           0        0.561083    1.362627   -0.262217
      4          1           0       -1.867035   -0.001398   -1.157252
      5          1           0       -2.093205    0.569119    0.531912
      6          1           0       -1.826318   -1.176202    0.202806
      7          8           0        0.897983   -1.198045   -0.275847
      8          1           0        0.274160   -0.013118    1.610002
 ---------------------------------------------------------------------
 Rotational constants (GHZ):           8.0041125           7.1955967           4.3514453
 Standard basis: 6-31+G(d,p) (6D, 7F)
 There are   100 symmetry adapted cartesian basis functions of A   symmetry.
 There are   100 symmetry adapted basis functions of A   symmetry.
   100 basis functions,   180 primitive gaussians,   100 cartesian basis functions
    21 alpha electrons       21 beta electrons
       nuclear repulsion energy       190.5769527527 Hartrees.
 NAtoms=    8 NActive=    8 NUniq=    8 SFac= 1.00D+00 NAtFMM=   60 NAOKFM=F Big=F
 Integral buffers will be    131072 words long.
 Raffenetti 2 integral format.
 Two-electron integral symmetry is turned on.
 ------------------------------------------------------------------------------
 Polarizable Continuum Model (PCM)
 =================================
 Model                : PCM.
 Atomic radii         : UFF (Universal Force Field).
 Polarization charges : Total charges.
 Charge compensation  : None.
 Solution method      : On-the-fly selection.
 Cavity type          : Scaled VdW (van der Waals Surface) (Alpha=1.100).
 Cavity algorithm     : GePol (No added spheres)
                        Default sphere list used, NSphG=    8.
                        Lebedev-Laikov grids with approx.  5.0 points / Ang**2.
                        Smoothing algorithm: York/Karplus (Gamma=1.0000).
                        Polarization charges: spherical gaussians, with
                                              point-specific exponents (IZeta= 3).
                        Self-potential: point-specific (ISelfS= 7).
                        Self-field    : sphere-specific E.n sum rule (ISelfD= 2).
 Solvent              : Acetonitrile, Eps=  35.688000 Eps(inf)=   1.806874
 ------------------------------------------------------------------------------
 Spheres list:
 ISph  on   Nord     Re0    Alpha      Xe            Ye            Ze
    1   C      1    1.9255  1.100     -1.607600     -0.153914     -0.124298
    2   S      2    2.0175  1.100      0.217842      0.014277      0.241427
    3   O      3    1.7500  1.100      0.561083      1.362627     -0.262217
    4   H      4    1.4430  1.100     -1.867035     -0.001398     -1.157252
    5   H      5    1.4430  1.100     -2.093205      0.569119      0.531912
    6   H      6    1.4430  1.100     -1.826318     -1.176202      0.202806
    7   O      7    1.7500  1.100      0.897983     -1.198045     -0.275847
    8   H      8    1.4430  1.100      0.274160     -0.013118      1.610002
 ------------------------------------------------------------------------------
 One-electron integrals computed using PRISM.
 NBasis=   100 RedAO= T EigKep=  8.06D-04  NBF=   100
 NBsUse=   100 1.00D-06 EigRej= -1.00D+00 NBFU=   100
 ExpMin= 4.05D-02 ExpMax= 2.19D+04 ExpMxC= 3.30D+03 IAcc=3 IRadAn=         5 AccDes= 0.00D+00
 Harris functional with IExCor=  402 and IRadAn=       5 diagonalized for initial guess.
 HarFok:  IExCor=  402 AccDes= 0.00D+00 IRadAn=         5 IDoV= 1 UseB2=F ITyADJ=14
 ICtDFT=  3500011 ScaDFX=  1.000000  1.000000  1.000000  1.000000
 FoFCou: FMM=F IPFlag=           0 FMFlag=      100000 FMFlg1=           0
         NFxFlg=           0 DoJE=T BraDBF=F KetDBF=T FulRan=T
         wScrn=  0.000000 ICntrl=       500 IOpCl=  0 I1Cent=   200000004 NGrid=           0
         NMat0=    1 NMatS0=      1 NMatT0=    0 NMatD0=    1 NMtDS0=    0 NMtDT0=    0
 Petite list used in FoFCou.
 Keep R1 ints in memory in canonical form, NReq=16455358.
 Requested convergence on RMS density matrix=1.00D-08 within 128 cycles.
 Requested convergence on MAX density matrix=1.00D-06.
 Requested convergence on             energy=1.00D-06.
 No special actions if energy rises.
 Inv3:  Mode=1 IEnd=     2544723.
 Iteration    1 A*A^-1 deviation from unit magnitude is 3.33D-15 for    899.
 Iteration    1 A*A^-1 deviation from orthogonality  is 2.44D-15 for    899    394.
 Iteration    1 A^-1*A deviation from unit magnitude is 3.33D-15 for    899.
 Iteration    1 A^-1*A deviation from orthogonality  is 1.25D-15 for    910    272.
 Error on total polarization charges =  0.01041
 SCF Done:  E(RB3LYP) =  -589.096532347     A.U. after   11 cycles
            NFock= 11  Conv=0.66D-08     -V/T= 2.0058

 **********************************************************************

            Population analysis using the SCF density.

 **********************************************************************

 Orbital symmetries:
       Occupied  (A) (A) (A) (A) (A) (A) (A) (A) (A) (A) (A) (A)
                 (A) (A) (A) (A) (A) (A) (A) (A) (A)
       Virtual   (A) (A) (A) (A) (A) (A) (A) (A) (A) (A) (A) (A)
                 (A) (A) (A) (A) (A) (A) (A) (A) (A) (A) (A) (A)
                 (A) (A) (A) (A) (A) (A) (A) (A) (A) (A) (A) (A)
                 (A) (A) (A) (A) (A) (A) (A) (A) (A) (A) (A) (A)
                 (A) (A) (A) (A) (A) (A) (A) (A) (A) (A) (A) (A)
                 (A) (A) (A) (A) (A) (A) (A) (A) (A) (A) (A) (A)
                 (A) (A) (A) (A) (A) (A) (A)
 The electronic state is 1-A.
 Alpha  occ. eigenvalues --  -89.11911 -19.17236 -19.16960 -10.23178  -8.14898
 Alpha  occ. eigenvalues --   -6.11337  -6.11262  -6.11174  -1.11722  -1.01924
 Alpha  occ. eigenvalues --   -0.77748  -0.67199  -0.53522  -0.49431  -0.48184
 Alpha  occ. eigenvalues --   -0.44218  -0.43833  -0.35496  -0.34367  -0.32758
 Alpha  occ. eigenvalues --   -0.30918
 Alpha virt. eigenvalues --   -0.01312   0.00100   0.00923   0.02730   0.05062
 Alpha virt. eigenvalues --    0.06466   0.06666   0.07651   0.09165   0.11441
 Alpha virt. eigenvalues --    0.11970   0.13510   0.14463   0.17136   0.18842
 Alpha virt. eigenvalues --    0.20435   0.22712   0.23341   0.25765   0.26920
 Alpha virt. eigenvalues --    0.28740   0.30856   0.31051   0.43656   0.46459
 Alpha virt. eigenvalues --    0.53437   0.59330   0.59983   0.62927   0.67756
 Alpha virt. eigenvalues --    0.73186   0.74652   0.78218   0.92117   0.93169
 Alpha virt. eigenvalues --    0.96224   1.03684   1.08061   1.13880   1.19445
 Alpha virt. eigenvalues --    1.19999   1.21428   1.22665   1.24903   1.25850
 Alpha virt. eigenvalues --    1.27760   1.41992   1.47398   1.51163   1.57509
 Alpha virt. eigenvalues --    1.77274   1.78599   1.79299   1.81777   1.82464
 Alpha virt. eigenvalues --    1.97225   1.99263   2.00815   2.02298   2.04927
 Alpha virt. eigenvalues --    2.06151   2.16607   2.21721   2.27374   2.36099
 Alpha virt. eigenvalues --    2.36866   2.57097   2.65400   2.79892   2.80837
 Alpha virt. eigenvalues --    2.81663   2.82829   3.21576   3.39494   3.40618
 Alpha virt. eigenvalues --    3.94233   4.01222   4.03802   4.40087
          Condensed to atoms (all electrons):
               1          2          3          4          5          6
     1  C    5.637148   0.148528  -0.117709   0.378083   0.344719   0.347798
     2  S    0.148528  14.069385   0.179809  -0.001425  -0.003005  -0.012833
     3  O   -0.117709   0.179809   8.770122  -0.004374  -0.003539   0.010376
     4  H    0.378083  -0.001425  -0.004374   0.435697  -0.015931  -0.018108
     5  H    0.344719  -0.003005  -0.003539  -0.015931   0.475450  -0.021163
     6  H    0.347798  -0.012833   0.010376  -0.018108  -0.021163   0.489015
     7  O   -0.089977   0.180084  -0.131349  -0.003250   0.008292  -0.003913
     8  H   -0.089392   0.364340  -0.071664   0.001461   0.000894   0.001159
               7          8
     1  C   -0.089977  -0.089392
     2  S    0.180084   0.364340
     3  O   -0.131349  -0.071664
     4  H   -0.003250   0.001461
     5  H    0.008292   0.000894
     6  H   -0.003913   0.001159
     7  O    8.745514  -0.073806
     8  H   -0.073806   0.769453
 Mulliken charges:
               1
     1  C   -0.559199
     2  S    1.075117
     3  O   -0.631672
     4  H    0.227845
     5  H    0.214283
     6  H    0.207668
     7  O   -0.631596
     8  H    0.097555
 Sum of Mulliken charges =  -0.00000
 Mulliken charges with hydrogens summed into heavy atoms:
               1
     1  C    0.090597
     2  S    1.172671
     3  O   -0.631672
     7  O   -0.631596
 Electronic spatial extent (au):  <R**2>=            326.1802
 Charge=             -0.0000 electrons
 Dipole moment (field-independent basis, Debye):
    X=             -4.5800    Y=             -0.5737    Z=              3.2431  Tot=              5.6412
 Quadrupole moment (field-independent basis, Debye-Ang):
   XX=            -30.0015   YY=            -39.1915   ZZ=            -27.8214
   XY=              0.9684   XZ=              2.2739   YZ=              0.1136
 Traceless Quadrupole moment (field-independent basis, Debye-Ang):
   XX=              2.3366   YY=             -6.8533   ZZ=              4.5167
   XY=              0.9684   XZ=              2.2739   YZ=              0.1136
 Octapole moment (field-independent basis, Debye-Ang**2):
  XXX=             -6.2100  YYY=             -3.0600  ZZZ=              4.4912  XYY=             -7.0918
  XXY=              1.5558  XXZ=              1.0413  XZZ=             -0.5770  YZZ=              0.3566
  YYZ=              3.3261  XYZ=             -0.3458
 Hexadecapole moment (field-independent basis, Debye-Ang**3):
 XXXX=           -196.6472 YYYY=           -173.0439 ZZZZ=            -50.5749 XXXY=              0.0806
 XXXZ=              3.1131 YYYX=              1.1677 YYYZ=             -0.1018 ZZZX=              4.6942
 ZZZY=              0.0015 XXYY=            -63.1683 XXZZ=            -39.6530 YYZZ=            -37.2049
 XXYZ=              0.4249 YYXZ=             -0.0865 ZZXY=             -0.6820
 N-N= 1.905769527527D+02 E-N=-1.773281391056D+03  KE= 5.856897189324D+02
 1\1\GINC-NODE56\SP\RB3LYP\6-31+G(d,p)\C1H4O2S1\YANZ\22-Sep-2023\0\\# b
 3lyp/6-31+g(d,p) scrf=(iefpcm,solvent=acetonitrile)\\tmpdir/M3_conf_0_
 52.gjf\\0,1\C,0,0.,0.,0.\S,0,1.8693,0.,0.\O,0,2.22727,0.,1.43575\H,0,-
 0.44172,0.80986,0.55369\H,0,-0.28077,-0.97374,0.40274\H,0,-0.24157,0.0
 5797,-1.06686\O,0,2.3232,1.08169,-0.90764\H,0,2.18959,-1.20288,-0.5722
 \\Version=ES64L-G16RevA.03\State=1-A\HF=-589.0965323\RMSD=6.597e-09\Di
 pole=-1.5303055,-1.4427662,-0.7087883\Quadrupole=2.5194408,1.2878201,-
 3.807261,-1.7249692,-0.6950435,2.9668941\PG=C01 [X(C1H4O2S1)]\\@


 IT TAKES GREATER CHARACTER TO CARRY OFF GOOD FORTUNE THAN BAD.
                     FRENCH PROVERB.
 Job cpu time:       0 days  0 hours  0 minutes 44.5 seconds.
 Elapsed time:       0 days  0 hours  0 minutes 11.5 seconds.
 File lengths (MBytes):  RWF=     21 Int=      0 D2E=      0 Chk=      2 Scr=      1
 Normal termination of Gaussian 16 at Fri Sep 22 17:10:56 2023.
