 Entering Gaussian System, Link 0=g16
 Initial command:
 /share/apps/gaussian/g16/l1.exe "/tmp/55648.mgr/Gau-182328.inp" -scrdir="/tmp/55648.mgr/"
 Entering Link 1 = /share/apps/gaussian/g16/l1.exe PID=    182331.
  
 Copyright (c) 1988,1990,1992,1993,1995,1998,2003,2009,2016,
            Gaussian, Inc.  All Rights Reserved.
  
 This is part of the Gaussian(R) 16 program.  It is based on
 the Gaussian(R) 09 system (copyright 2009, Gaussian, Inc.),
 the Gaussian(R) 03 system (copyright 2003, Gaussian, Inc.),
 the Gaussian(R) 98 system (copyright 1998, Gaussian, Inc.),
 the Gaussian(R) 94 system (copyright 1995, Gaussian, Inc.),
 the Gaussian 92(TM) system (copyright 1992, Gaussian, Inc.),
 the Gaussian 90(TM) system (copyright 1990, Gaussian, Inc.),
 the Gaussian 88(TM) system (copyright 1988, Gaussian, Inc.),
 the Gaussian 86(TM) system (copyright 1986, Carnegie Mellon
 University), and the Gaussian 82(TM) system (copyright 1983,
 Carnegie Mellon University). Gaussian is a federally registered
 trademark of Gaussian, Inc.
  
 This software contains proprietary and confidential information,
 including trade secrets, belonging to Gaussian, Inc.
  
 This software is provided under written license and may be
 used, copied, transmitted, or stored only in accord with that
 written license.
  
 The following legend is applicable only to US Government
 contracts under FAR:
  
                    RESTRICTED RIGHTS LEGEND
  
 Use, reproduction and disclosure by the US Government is
 subject to restrictions as set forth in subparagraphs (a)
 and (c) of the Commercial Computer Software - Restricted
 Rights clause in FAR 52.227-19.
  
 Gaussian, Inc.
 340 Quinnipiac St., Bldg. 40, Wallingford CT 06492
  
  
 ---------------------------------------------------------------
 Warning -- This program may not be used in any manner that
 competes with the business of Gaussian, Inc. or will provide
 assistance to any competitor of Gaussian, Inc.  The licensee
 of this program is prohibited from giving any competitor of
 Gaussian, Inc. access to this program.  By using this program,
 the user acknowledges that Gaussian, Inc. is engaged in the
 business of creating and licensing software in the field of
 computational chemistry and represents and warrants to the
 licensee that it is not a competitor of Gaussian, Inc. and that
 it will not use this program in any manner prohibited above.
 ---------------------------------------------------------------
  

 Cite this work as:
 Gaussian 16, Revision A.03,
 M. J. Frisch, G. W. Trucks, H. B. Schlegel, G. E. Scuseria, 
 M. A. Robb, J. R. Cheeseman, G. Scalmani, V. Barone, 
 G. A. Petersson, H. Nakatsuji, X. Li, M. Caricato, A. V. Marenich, 
 J. Bloino, B. G. Janesko, R. Gomperts, B. Mennucci, H. P. Hratchian, 
 J. V. Ortiz, A. F. Izmaylov, J. L. Sonnenberg, D. Williams-Young, 
 F. Ding, F. Lipparini, F. Egidi, J. Goings, B. Peng, A. Petrone, 
 T. Henderson, D. Ranasinghe, V. G. Zakrzewski, J. Gao, N. Rega, 
 G. Zheng, W. Liang, M. Hada, M. Ehara, K. Toyota, R. Fukuda, 
 J. Hasegawa, M. Ishida, T. Nakajima, Y. Honda, O. Kitao, H. Nakai, 
 T. Vreven, K. Throssell, J. A. Montgomery, Jr., J. E. Peralta, 
 F. Ogliaro, M. J. Bearpark, J. J. Heyd, E. N. Brothers, K. N. Kudin, 
 V. N. Staroverov, T. A. Keith, R. Kobayashi, J. Normand, 
 K. Raghavachari, A. P. Rendell, J. C. Burant, S. S. Iyengar, 
 J. Tomasi, M. Cossi, J. M. Millam, M. Klene, C. Adamo, R. Cammi, 
 J. W. Ochterski, R. L. Martin, K. Morokuma, O. Farkas, 
 J. B. Foresman, and D. J. Fox, Gaussian, Inc., Wallingford CT, 2016.
 
 ******************************************
 Gaussian 16:  ES64L-G16RevA.03 25-Dec-2016
                22-Sep-2023 
 ******************************************
 %nprocshared=4
 Will use up to    4 processors via shared memory.
 %mem=4GB
 ------------------------------------------------------
 # b3lyp/6-31+g(d,p) scrf=(iefpcm,solvent=acetonitrile)
 ------------------------------------------------------
 1/38=1,172=1/1;
 2/12=2,17=6,18=5,40=1/2;
 3/5=1,6=6,7=111,11=2,25=1,30=1,70=2201,72=2,74=-5/1,2,3;
 4//1;
 5/5=2,38=5,53=2/2;
 6/7=2,8=2,9=2,10=2,28=1/1;
 99/5=1,9=1/99;
 ---------------------------
 tmpdir/M3_frag_conf_0_2.gjf
 ---------------------------
 Symbolic Z-matrix:
 Charge =  0 Multiplicity = 1
 C                    -2.38123   0.30365  -0.45445 
 C                    -3.09983   1.02008   0.56248 
 C                    -3.14346  -0.58582  -1.28434 
 C                    -4.41182   0.70237   0.85004 
 H                    -2.59676   1.79915   1.12667 
 C                    -4.45639  -0.89236  -0.96847 
 H                    -2.6821   -1.04025  -2.15615 
 C                    -5.12083  -0.27487   0.11197 
 H                    -4.91853   1.23191   1.65263 
 H                    -4.99517  -1.60416  -1.58796 
 H                    -1.58286   0.91566  -1.03962 
 H                    -6.14802  -0.53278   0.36613 
 
                          Input orientation:                          
 ---------------------------------------------------------------------
 Center     Atomic      Atomic             Coordinates (Angstroms)
 Number     Number       Type             X           Y           Z
 ---------------------------------------------------------------------
      1          6           0       -2.381234    0.303653   -0.454453
      2          6           0       -3.099828    1.020082    0.562479
      3          6           0       -3.143457   -0.585817   -1.284343
      4          6           0       -4.411820    0.702374    0.850039
      5          1           0       -2.596757    1.799152    1.126673
      6          6           0       -4.456385   -0.892356   -0.968469
      7          1           0       -2.682097   -1.040248   -2.156152
      8          6           0       -5.120829   -0.274866    0.111967
      9          1           0       -4.918530    1.231908    1.652632
     10          1           0       -4.995168   -1.604159   -1.587958
     11          1           0       -1.582859    0.915656   -1.039624
     12          1           0       -6.148024   -0.532782    0.366128
 ---------------------------------------------------------------------
                    Distance matrix (angstroms):
                    1          2          3          4          5
     1  C    0.000000
     2  C    1.436593   0.000000
     3  C    1.435569   2.447768   0.000000
     4  C    2.446213   1.380200   2.797100   0.000000
     5  H    2.186990   1.085516   3.435106   2.138668   0.000000
     6  C    2.449674   2.800262   1.384746   2.419116   3.884849
     7  H    2.189148   3.436628   1.086007   3.881476   4.341246
     8  C    2.856728   2.442191   2.440568   1.415077   3.420836
     9  H    3.426271   2.130958   3.883404   1.086884   2.447249
    10  H    3.428882   3.886301   2.134956   3.406497   4.970324
    11  H    1.163777   2.208808   2.179398   3.408715   2.549784
    12  H    3.944830   3.426578   3.428453   2.184991   4.315998
                    6          7          8          9         10
     6  C    0.000000
     7  H    2.140224   0.000000
     8  C    1.410717   3.417248   0.000000
     9  H    3.405326   4.967007   2.164473   0.000000
    10  H    1.086608   2.447680   2.161609   4.307038   0.000000
    11  H    3.395750   2.506096   3.906499   4.298251   4.277147
    12  H    2.184510   4.316488   1.089150   2.506168   2.509059
                   11         12
    11  H    0.000000
    12  H    4.991477   0.000000
 Stoichiometry    C6H6
 Framework group  C1[X(C6H6)]
 Deg. of freedom    30
 Full point group                 C1      NOp   1
 Largest Abelian subgroup         C1      NOp   1
 Largest concise Abelian subgroup C1      NOp   1
                         Standard orientation:                         
 ---------------------------------------------------------------------
 Center     Atomic      Atomic             Coordinates (Angstroms)
 Number     Number       Type             X           Y           Z
 ---------------------------------------------------------------------
      1          6           0       -1.386846    0.360684   -0.119200
      2          6           0       -0.360806    1.359382   -0.002403
      3          6           0       -0.976280   -1.009742    0.000066
      4          6           0        0.971153    0.998016    0.013488
      5          1           0       -0.636396    2.408192    0.046517
      6          6           0        0.367370   -1.344530    0.006781
      7          1           0       -1.724225   -1.794512    0.064296
      8          6           0        1.375628   -0.357910   -0.004061
      9          1           0        1.727939    1.776722    0.060493
     10          1           0        0.649123   -2.393009    0.051775
     11          1           0       -2.388526    0.594860    0.425019
     12          1           0        2.430777   -0.627655   -0.016133
 ---------------------------------------------------------------------
 Rotational constants (GHZ):           5.5994907           5.5733280           2.8040585
 Standard basis: 6-31+G(d,p) (6D, 7F)
 There are   144 symmetry adapted cartesian basis functions of A   symmetry.
 There are   144 symmetry adapted basis functions of A   symmetry.
   144 basis functions,   234 primitive gaussians,   144 cartesian basis functions
    21 alpha electrons       21 beta electrons
       nuclear repulsion energy       201.4457498380 Hartrees.
 NAtoms=   12 NActive=   12 NUniq=   12 SFac= 1.00D+00 NAtFMM=   60 NAOKFM=F Big=F
 Integral buffers will be    131072 words long.
 Raffenetti 2 integral format.
 Two-electron integral symmetry is turned on.
 ------------------------------------------------------------------------------
 Polarizable Continuum Model (PCM)
 =================================
 Model                : PCM.
 Atomic radii         : UFF (Universal Force Field).
 Polarization charges : Total charges.
 Charge compensation  : None.
 Solution method      : On-the-fly selection.
 Cavity type          : Scaled VdW (van der Waals Surface) (Alpha=1.100).
 Cavity algorithm     : GePol (No added spheres)
                        Default sphere list used, NSphG=   12.
                        Lebedev-Laikov grids with approx.  5.0 points / Ang**2.
                        Smoothing algorithm: York/Karplus (Gamma=1.0000).
                        Polarization charges: spherical gaussians, with
                                              point-specific exponents (IZeta= 3).
                        Self-potential: point-specific (ISelfS= 7).
                        Self-field    : sphere-specific E.n sum rule (ISelfD= 2).
 Solvent              : Acetonitrile, Eps=  35.688000 Eps(inf)=   1.806874
 ------------------------------------------------------------------------------
 Spheres list:
 ISph  on   Nord     Re0    Alpha      Xe            Ye            Ze
    1   C      1    1.9255  1.100     -1.386846      0.360684     -0.119200
    2   C      2    1.9255  1.100     -0.360806      1.359382     -0.002403
    3   C      3    1.9255  1.100     -0.976280     -1.009742      0.000066
    4   C      4    1.9255  1.100      0.971153      0.998016      0.013488
    5   H      5    1.4430  1.100     -0.636396      2.408192      0.046517
    6   C      6    1.9255  1.100      0.367370     -1.344530      0.006781
    7   H      7    1.4430  1.100     -1.724225     -1.794512      0.064296
    8   C      8    1.9255  1.100      1.375628     -0.357910     -0.004061
    9   H      9    1.4430  1.100      1.727939      1.776722      0.060493
   10   H     10    1.4430  1.100      0.649123     -2.393009      0.051775
   11   H     11    1.4430  1.100     -2.388526      0.594860      0.425019
   12   H     12    1.4430  1.100      2.430777     -0.627655     -0.016133
 ------------------------------------------------------------------------------
 One-electron integrals computed using PRISM.
 NBasis=   144 RedAO= T EigKep=  8.23D-06  NBF=   144
 NBsUse=   144 1.00D-06 EigRej= -1.00D+00 NBFU=   144
 ExpMin= 4.38D-02 ExpMax= 3.05D+03 ExpMxC= 4.57D+02 IAcc=3 IRadAn=         5 AccDes= 0.00D+00
 Harris functional with IExCor=  402 and IRadAn=       5 diagonalized for initial guess.
 HarFok:  IExCor=  402 AccDes= 0.00D+00 IRadAn=         5 IDoV= 1 UseB2=F ITyADJ=14
 ICtDFT=  3500011 ScaDFX=  1.000000  1.000000  1.000000  1.000000
 FoFCou: FMM=F IPFlag=           0 FMFlag=      100000 FMFlg1=           0
         NFxFlg=           0 DoJE=T BraDBF=F KetDBF=T FulRan=T
         wScrn=  0.000000 ICntrl=       500 IOpCl=  0 I1Cent=   200000004 NGrid=           0
         NMat0=    1 NMatS0=      1 NMatT0=    0 NMatD0=    1 NMtDS0=    0 NMtDT0=    0
 Petite list used in FoFCou.
 Keep R1 ints in memory in canonical form, NReq=58386664.
 Requested convergence on RMS density matrix=1.00D-08 within 128 cycles.
 Requested convergence on MAX density matrix=1.00D-06.
 Requested convergence on             energy=1.00D-06.
 No special actions if energy rises.
 Inv3:  Mode=1 IEnd=     3512172.
 Iteration    1 A*A^-1 deviation from unit magnitude is 3.11D-15 for    378.
 Iteration    1 A*A^-1 deviation from orthogonality  is 1.76D-15 for   1060    669.
 Iteration    1 A^-1*A deviation from unit magnitude is 3.00D-15 for   1065.
 Iteration    1 A^-1*A deviation from orthogonality  is 1.70D-15 for   1075    654.
 Error on total polarization charges =  0.01627
 SCF Done:  E(RB3LYP) =  -232.249089751     A.U. after   12 cycles
            NFock= 12  Conv=0.70D-08     -V/T= 2.0111

 **********************************************************************

            Population analysis using the SCF density.

 **********************************************************************

 Orbital symmetries:
       Occupied  (A) (A) (A) (A) (A) (A) (A) (A) (A) (A) (A) (A)
                 (A) (A) (A) (A) (A) (A) (A) (A) (A)
       Virtual   (A) (A) (A) (A) (A) (A) (A) (A) (A) (A) (A) (A)
                 (A) (A) (A) (A) (A) (A) (A) (A) (A) (A) (A) (A)
                 (A) (A) (A) (A) (A) (A) (A) (A) (A) (A) (A) (A)
                 (A) (A) (A) (A) (A) (A) (A) (A) (A) (A) (A) (A)
                 (A) (A) (A) (A) (A) (A) (A) (A) (A) (A) (A) (A)
                 (A) (A) (A) (A) (A) (A) (A) (A) (A) (A) (A) (A)
                 (A) (A) (A) (A) (A) (A) (A) (A) (A) (A) (A) (A)
                 (A) (A) (A) (A) (A) (A) (A) (A) (A) (A) (A) (A)
                 (A) (A) (A) (A) (A) (A) (A) (A) (A) (A) (A) (A)
                 (A) (A) (A) (A) (A) (A) (A) (A) (A) (A) (A) (A)
                 (A) (A) (A)
 The electronic state is 1-A.
 Alpha  occ. eigenvalues --  -10.21007 -10.20728 -10.20441 -10.20421 -10.20082
 Alpha  occ. eigenvalues --  -10.20070  -0.85566  -0.75442  -0.74480  -0.60933
 Alpha  occ. eigenvalues --   -0.60186  -0.52218  -0.46367  -0.44802  -0.42661
 Alpha  occ. eigenvalues --   -0.42029  -0.37373  -0.34588  -0.34268  -0.26411
 Alpha  occ. eigenvalues --   -0.25648
 Alpha virt. eigenvalues --   -0.03941  -0.01584   0.01052   0.02987   0.03090
 Alpha virt. eigenvalues --    0.05033   0.05055   0.05666   0.07114   0.08381
 Alpha virt. eigenvalues --    0.08672   0.08825   0.10341   0.11078   0.13752
 Alpha virt. eigenvalues --    0.14211   0.14812   0.14847   0.14947   0.15118
 Alpha virt. eigenvalues --    0.19080   0.19644   0.19755   0.19973   0.20691
 Alpha virt. eigenvalues --    0.20988   0.22518   0.24403   0.24621   0.25098
 Alpha virt. eigenvalues --    0.27695   0.27919   0.31488   0.32386   0.33250
 Alpha virt. eigenvalues --    0.35056   0.35431   0.54506   0.54907   0.57246
 Alpha virt. eigenvalues --    0.61902   0.65490   0.70672   0.70981   0.71332
 Alpha virt. eigenvalues --    0.72188   0.72662   0.74170   0.75708   0.76361
 Alpha virt. eigenvalues --    0.77758   0.79794   0.84751   0.90095   0.91985
 Alpha virt. eigenvalues --    0.94625   0.95368   0.96274   1.01558   1.03617
 Alpha virt. eigenvalues --    1.06047   1.08330   1.09615   1.15778   1.16596
 Alpha virt. eigenvalues --    1.19878   1.25649   1.30590   1.33670   1.38083
 Alpha virt. eigenvalues --    1.40147   1.40371   1.46377   1.59784   1.69379
 Alpha virt. eigenvalues --    1.74994   1.77348   1.82857   1.90028   1.93580
 Alpha virt. eigenvalues --    1.96817   1.97975   1.99602   2.00019   2.03242
 Alpha virt. eigenvalues --    2.07609   2.09167   2.16517   2.27174   2.32898
 Alpha virt. eigenvalues --    2.36956   2.37888   2.38497   2.38928   2.41500
 Alpha virt. eigenvalues --    2.46697   2.48312   2.50641   2.50965   2.52869
 Alpha virt. eigenvalues --    2.54996   2.56503   2.60090   2.66313   2.71280
 Alpha virt. eigenvalues --    2.79125   2.79585   2.94824   3.04719   3.10832
 Alpha virt. eigenvalues --    3.24870   3.25854   3.27870   3.31760   3.43074
 Alpha virt. eigenvalues --    3.51908   3.85975   4.25497   4.28511   4.28767
 Alpha virt. eigenvalues --    4.47085   4.48201   4.80015
          Condensed to atoms (all electrons):
               1          2          3          4          5          6
     1  C    5.212553   0.346343   0.325085   0.093104  -0.014885   0.095849
     2  C    0.346343   5.105304   0.035082   0.366037   0.307824  -0.157595
     3  C    0.325085   0.035082   5.135636  -0.162970   0.015765   0.354938
     4  C    0.093104   0.366037  -0.162970   5.130867   0.000077   0.100891
     5  H   -0.014885   0.307824   0.015765   0.000077   0.553126  -0.007576
     6  C    0.095849  -0.157595   0.354938   0.100891  -0.007576   5.140138
     7  H   -0.012925   0.014576   0.306445  -0.006967  -0.000142   0.000345
     8  C   -0.160732   0.089402   0.095730   0.330697   0.011531   0.325840
     9  H    0.001390   0.006915  -0.000745   0.279888  -0.006756   0.002256
    10  H    0.000587  -0.000855   0.006813   0.002764   0.000012   0.278941
    11  H    0.310335  -0.007691  -0.010725   0.011586  -0.004485   0.013423
    12  H    0.003592   0.000334  -0.000044   0.017120  -0.000132   0.017561
               7          8          9         10         11         12
     1  C   -0.012925  -0.160732   0.001390   0.000587   0.310335   0.003592
     2  C    0.014576   0.089402   0.006915  -0.000855  -0.007691   0.000334
     3  C    0.306445   0.095730  -0.000745   0.006813  -0.010725  -0.000044
     4  C   -0.006967   0.330697   0.279888   0.002764   0.011586   0.017120
     5  H   -0.000142   0.011531  -0.006756   0.000012  -0.004485  -0.000132
     6  C    0.000345   0.325840   0.002256   0.278941   0.013423   0.017561
     7  H    0.553131   0.011580   0.000012  -0.006703  -0.004943  -0.000132
     8  C    0.011580   5.117901   0.018694   0.019936  -0.008586   0.273477
     9  H    0.000012   0.018694   0.563942  -0.000137  -0.000142  -0.005520
    10  H   -0.006703   0.019936  -0.000137   0.564355  -0.000149  -0.005516
    11  H   -0.004943  -0.008586  -0.000142  -0.000149   0.562049   0.000010
    12  H   -0.000132   0.273477  -0.005520  -0.005516   0.000010   0.549525
 Mulliken charges:
               1
     1  C   -0.200296
     2  C   -0.105677
     3  C   -0.101011
     4  C   -0.163093
     5  H    0.145640
     6  C   -0.165012
     7  H    0.145723
     8  C   -0.125470
     9  H    0.140202
    10  H    0.139950
    11  H    0.139318
    12  H    0.149726
 Sum of Mulliken charges =  -0.00000
 Mulliken charges with hydrogens summed into heavy atoms:
               1
     1  C   -0.060979
     2  C    0.039963
     3  C    0.044712
     4  C   -0.022891
     6  C   -0.025061
     8  C    0.024255
 Electronic spatial extent (au):  <R**2>=            466.2669
 Charge=             -0.0000 electrons
 Dipole moment (field-independent basis, Debye):
    X=              0.4682    Y=             -0.1322    Z=              0.6353  Tot=              0.8002
 Quadrupole moment (field-independent basis, Debye-Ang):
   XX=            -32.4967   YY=            -31.7137   ZZ=            -40.4933
   XY=              0.2735   XZ=             -1.3395   YZ=              0.3031
 Traceless Quadrupole moment (field-independent basis, Debye-Ang):
   XX=              2.4045   YY=              3.1876   ZZ=             -5.5920
   XY=              0.2735   XZ=             -1.3395   YZ=              0.3031
 Octapole moment (field-independent basis, Debye-Ang**2):
  XXX=              4.9407  YYY=             -0.0882  ZZZ=              1.2727  XYY=              0.3644
  XXY=             -1.3732  XXZ=              3.6103  XZZ=              0.1574  YZZ=             -0.0429
  YYZ=              1.4165  XYZ=             -0.4947
 Hexadecapole moment (field-independent basis, Debye-Ang**3):
 XXXX=           -288.0721 YYYY=           -277.4112 ZZZZ=            -54.6848 XXXY=              1.9467
 XXXZ=             -9.3836 YYYX=              1.3912 YYYZ=              0.3840 ZZZX=             -2.4063
 ZZZY=              0.5591 XXYY=            -94.3433 XXZZ=            -67.0729 YYZZ=            -67.0228
 XXYZ=              1.9869 YYXZ=             -1.0427 ZZXY=              0.0320
 N-N= 2.014457498380D+02 E-N=-9.397490346449D+02  KE= 2.296951799651D+02
 1\1\GINC-NODE56\SP\RB3LYP\6-31+G(d,p)\C6H6\YANZ\22-Sep-2023\0\\# b3lyp
 /6-31+g(d,p) scrf=(iefpcm,solvent=acetonitrile)\\tmpdir/M3_frag_conf_0
 _2.gjf\\0,1\C,0,-2.381234,0.303653,-0.454453\C,0,-3.099828,1.020082,0.
 562479\C,0,-3.143457,-0.585817,-1.284343\C,0,-4.41182,0.702374,0.85003
 9\H,0,-2.596757,1.799152,1.126673\C,0,-4.456385,-0.892356,-0.968469\H,
 0,-2.682097,-1.040248,-2.156152\C,0,-5.120829,-0.274866,0.111967\H,0,-
 4.91853,1.231908,1.652632\H,0,-4.995168,-1.604159,-1.587958\H,0,-1.582
 85946,0.91565643,-1.03962446\H,0,-6.14802396,-0.53278224,0.36612844\\V
 ersion=ES64L-G16RevA.03\State=1-A\HF=-232.2490898\RMSD=7.007e-09\Dipol
 e=-0.2615587,0.1324481,-0.1146589\Quadrupole=0.4965836,-0.7022523,0.20
 56687,1.966273,-1.6995036,2.6432778\PG=C01 [X(C6H6)]\\@


 GARBAGE IN, GARBAGE OUT
 Job cpu time:       0 days  0 hours  1 minutes 29.1 seconds.
 Elapsed time:       0 days  0 hours  0 minutes 23.2 seconds.
 File lengths (MBytes):  RWF=     32 Int=      0 D2E=      0 Chk=      3 Scr=      1
 Normal termination of Gaussian 16 at Fri Sep 22 17:12:50 2023.
