 Entering Gaussian System, Link 0=g16
 Initial command:
 /share/apps/gaussian/g16/l1.exe "/tmp/55648.mgr/Gau-179254.inp" -scrdir="/tmp/55648.mgr/"
 Entering Link 1 = /share/apps/gaussian/g16/l1.exe PID=    179255.
  
 Copyright (c) 1988,1990,1992,1993,1995,1998,2003,2009,2016,
            Gaussian, Inc.  All Rights Reserved.
  
 This is part of the Gaussian(R) 16 program.  It is based on
 the Gaussian(R) 09 system (copyright 2009, Gaussian, Inc.),
 the Gaussian(R) 03 system (copyright 2003, Gaussian, Inc.),
 the Gaussian(R) 98 system (copyright 1998, Gaussian, Inc.),
 the Gaussian(R) 94 system (copyright 1995, Gaussian, Inc.),
 the Gaussian 92(TM) system (copyright 1992, Gaussian, Inc.),
 the Gaussian 90(TM) system (copyright 1990, Gaussian, Inc.),
 the Gaussian 88(TM) system (copyright 1988, Gaussian, Inc.),
 the Gaussian 86(TM) system (copyright 1986, Carnegie Mellon
 University), and the Gaussian 82(TM) system (copyright 1983,
 Carnegie Mellon University). Gaussian is a federally registered
 trademark of Gaussian, Inc.
  
 This software contains proprietary and confidential information,
 including trade secrets, belonging to Gaussian, Inc.
  
 This software is provided under written license and may be
 used, copied, transmitted, or stored only in accord with that
 written license.
  
 The following legend is applicable only to US Government
 contracts under FAR:
  
                    RESTRICTED RIGHTS LEGEND
  
 Use, reproduction and disclosure by the US Government is
 subject to restrictions as set forth in subparagraphs (a)
 and (c) of the Commercial Computer Software - Restricted
 Rights clause in FAR 52.227-19.
  
 Gaussian, Inc.
 340 Quinnipiac St., Bldg. 40, Wallingford CT 06492
  
  
 ---------------------------------------------------------------
 Warning -- This program may not be used in any manner that
 competes with the business of Gaussian, Inc. or will provide
 assistance to any competitor of Gaussian, Inc.  The licensee
 of this program is prohibited from giving any competitor of
 Gaussian, Inc. access to this program.  By using this program,
 the user acknowledges that Gaussian, Inc. is engaged in the
 business of creating and licensing software in the field of
 computational chemistry and represents and warrants to the
 licensee that it is not a competitor of Gaussian, Inc. and that
 it will not use this program in any manner prohibited above.
 ---------------------------------------------------------------
  

 Cite this work as:
 Gaussian 16, Revision A.03,
 M. J. Frisch, G. W. Trucks, H. B. Schlegel, G. E. Scuseria, 
 M. A. Robb, J. R. Cheeseman, G. Scalmani, V. Barone, 
 G. A. Petersson, H. Nakatsuji, X. Li, M. Caricato, A. V. Marenich, 
 J. Bloino, B. G. Janesko, R. Gomperts, B. Mennucci, H. P. Hratchian, 
 J. V. Ortiz, A. F. Izmaylov, J. L. Sonnenberg, D. Williams-Young, 
 F. Ding, F. Lipparini, F. Egidi, J. Goings, B. Peng, A. Petrone, 
 T. Henderson, D. Ranasinghe, V. G. Zakrzewski, J. Gao, N. Rega, 
 G. Zheng, W. Liang, M. Hada, M. Ehara, K. Toyota, R. Fukuda, 
 J. Hasegawa, M. Ishida, T. Nakajima, Y. Honda, O. Kitao, H. Nakai, 
 T. Vreven, K. Throssell, J. A. Montgomery, Jr., J. E. Peralta, 
 F. Ogliaro, M. J. Bearpark, J. J. Heyd, E. N. Brothers, K. N. Kudin, 
 V. N. Staroverov, T. A. Keith, R. Kobayashi, J. Normand, 
 K. Raghavachari, A. P. Rendell, J. C. Burant, S. S. Iyengar, 
 J. Tomasi, M. Cossi, J. M. Millam, M. Klene, C. Adamo, R. Cammi, 
 J. W. Ochterski, R. L. Martin, K. Morokuma, O. Farkas, 
 J. B. Foresman, and D. J. Fox, Gaussian, Inc., Wallingford CT, 2016.
 
 ******************************************
 Gaussian 16:  ES64L-G16RevA.03 25-Dec-2016
                22-Sep-2023 
 ******************************************
 %nprocshared=4
 Will use up to    4 processors via shared memory.
 %mem=4GB
 ------------------------------------------------------
 # b3lyp/6-31+g(d,p) scrf=(iefpcm,solvent=acetonitrile)
 ------------------------------------------------------
 1/38=1,172=1/1;
 2/12=2,17=6,18=5,40=1/2;
 3/5=1,6=6,7=111,11=2,25=1,30=1,70=2201,72=2,74=-5/1,2,3;
 4//1;
 5/5=2,38=5,53=2/2;
 6/7=2,8=2,9=2,10=2,28=1/1;
 99/5=1,9=1/99;
 --------------------
 tmpdir/M3_ref_32.gjf
 --------------------
 Symbolic Z-matrix:
 Charge =  0 Multiplicity = 1
 C                    -0.96888   0.81581   2.45386 
 H                    -0.13728   1.49835   2.63446 
 H                    -1.03788   0.50421   1.41853 
 H                    -0.86043  -0.05097   3.12135 
 H                    -1.89563   1.31779   2.75588 
 
                          Input orientation:                          
 ---------------------------------------------------------------------
 Center     Atomic      Atomic             Coordinates (Angstroms)
 Number     Number       Type             X           Y           Z
 ---------------------------------------------------------------------
      1          6           0       -0.968876    0.815813    2.453864
      2          1           0       -0.137284    1.498349    2.634459
      3          1           0       -1.037878    0.504205    1.418534
      4          1           0       -0.860427   -0.050966    3.121345
      5          1           0       -1.895625    1.317792    2.755882
 ---------------------------------------------------------------------
                    Distance matrix (angstroms):
                    1          2          3          4          5
     1  C    0.000000
     2  H    1.090878   0.000000
     3  H    1.083406   1.810488   0.000000
     4  H    1.099362   1.777743   1.799797   0.000000
     5  H    1.096386   1.771753   1.784980   1.754621   0.000000
 Stoichiometry    CH4
 Framework group  C1[X(CH4)]
 Deg. of freedom     9
 Full point group                 C1      NOp   1
 Largest Abelian subgroup         C1      NOp   1
 Largest concise Abelian subgroup C1      NOp   1
                         Standard orientation:                         
 ---------------------------------------------------------------------
 Center     Atomic      Atomic             Coordinates (Angstroms)
 Number     Number       Type             X           Y           Z
 ---------------------------------------------------------------------
      1          6           0       -0.009195    0.007934   -0.003952
      2          1           0        0.584092    0.918511   -0.098165
      3          1           0       -1.068976    0.181722   -0.146889
      4          1           0        0.370651   -0.732198   -0.722645
      5          1           0        0.169402   -0.415641    0.991411
 ---------------------------------------------------------------------
 Rotational constants (GHZ):         160.5867460         157.3315625         154.9163004
 Standard basis: 6-31+G(d,p) (6D, 7F)
 There are    39 symmetry adapted cartesian basis functions of A   symmetry.
 There are    39 symmetry adapted basis functions of A   symmetry.
    39 basis functions,    60 primitive gaussians,    39 cartesian basis functions
     5 alpha electrons        5 beta electrons
       nuclear repulsion energy        13.4059183624 Hartrees.
 NAtoms=    5 NActive=    5 NUniq=    5 SFac= 1.00D+00 NAtFMM=   60 NAOKFM=F Big=F
 Integral buffers will be    131072 words long.
 Raffenetti 2 integral format.
 Two-electron integral symmetry is turned on.
 ------------------------------------------------------------------------------
 Polarizable Continuum Model (PCM)
 =================================
 Model                : PCM.
 Atomic radii         : UFF (Universal Force Field).
 Polarization charges : Total charges.
 Charge compensation  : None.
 Solution method      : On-the-fly selection.
 Cavity type          : Scaled VdW (van der Waals Surface) (Alpha=1.100).
 Cavity algorithm     : GePol (No added spheres)
                        Default sphere list used, NSphG=    5.
                        Lebedev-Laikov grids with approx.  5.0 points / Ang**2.
                        Smoothing algorithm: York/Karplus (Gamma=1.0000).
                        Polarization charges: spherical gaussians, with
                                              point-specific exponents (IZeta= 3).
                        Self-potential: point-specific (ISelfS= 7).
                        Self-field    : sphere-specific E.n sum rule (ISelfD= 2).
 Solvent              : Acetonitrile, Eps=  35.688000 Eps(inf)=   1.806874
 ------------------------------------------------------------------------------
 Spheres list:
 ISph  on   Nord     Re0    Alpha      Xe            Ye            Ze
    1   C      1    1.9255  1.100     -0.009195      0.007934     -0.003952
    2   H      2    1.4430  1.100      0.584092      0.918511     -0.098165
    3   H      3    1.4430  1.100     -1.068976      0.181722     -0.146889
    4   H      4    1.4430  1.100      0.370651     -0.732198     -0.722645
    5   H      5    1.4430  1.100      0.169402     -0.415641      0.991411
 ------------------------------------------------------------------------------
 One-electron integrals computed using PRISM.
 NBasis=    39 RedAO= T EigKep=  1.21D-02  NBF=    39
 NBsUse=    39 1.00D-06 EigRej= -1.00D+00 NBFU=    39
 ExpMin= 4.38D-02 ExpMax= 3.05D+03 ExpMxC= 4.57D+02 IAcc=3 IRadAn=         5 AccDes= 0.00D+00
 Harris functional with IExCor=  402 and IRadAn=       5 diagonalized for initial guess.
 HarFok:  IExCor=  402 AccDes= 0.00D+00 IRadAn=         5 IDoV= 1 UseB2=F ITyADJ=14
 ICtDFT=  3500011 ScaDFX=  1.000000  1.000000  1.000000  1.000000
 FoFCou: FMM=F IPFlag=           0 FMFlag=      100000 FMFlg1=           0
         NFxFlg=           0 DoJE=T BraDBF=F KetDBF=T FulRan=T
         wScrn=  0.000000 ICntrl=       500 IOpCl=  0 I1Cent=   200000004 NGrid=           0
         NMat0=    1 NMatS0=      1 NMatT0=    0 NMatD0=    1 NMtDS0=    0 NMtDT0=    0
 Petite list used in FoFCou.
 Keep R1 ints in memory in canonical form, NReq=3756779.
 Requested convergence on RMS density matrix=1.00D-08 within 128 cycles.
 Requested convergence on MAX density matrix=1.00D-06.
 Requested convergence on             energy=1.00D-06.
 No special actions if energy rises.
 Inv3:  Mode=1 IEnd=      732108.
 Iteration    1 A*A^-1 deviation from unit magnitude is 2.44D-15 for    224.
 Iteration    1 A*A^-1 deviation from orthogonality  is 2.50D-15 for    411    106.
 Iteration    1 A^-1*A deviation from unit magnitude is 2.22D-15 for    226.
 Iteration    1 A^-1*A deviation from orthogonality  is 1.34D-15 for    366    109.
 Error on total polarization charges =  0.00910
 SCF Done:  E(RB3LYP) =  -40.5257647900     A.U. after    7 cycles
            NFock=  7  Conv=0.72D-08     -V/T= 2.0115

 **********************************************************************

            Population analysis using the SCF density.

 **********************************************************************

 Orbital symmetries:
       Occupied  (A) (A) (A) (A) (A)
       Virtual   (A) (A) (A) (A) (A) (A) (A) (A) (A) (A) (A) (A)
                 (A) (A) (A) (A) (A) (A) (A) (A) (A) (A) (A) (A)
                 (A) (A) (A) (A) (A) (A) (A) (A) (A) (A)
 The electronic state is 1-A.
 Alpha  occ. eigenvalues --  -10.17130  -0.69529  -0.40046  -0.39182  -0.38622
 Alpha virt. eigenvalues --    0.01707   0.06167   0.06236   0.06278   0.17757
 Alpha virt. eigenvalues --    0.18157   0.18881   0.27903   0.63666   0.63910
 Alpha virt. eigenvalues --    0.64070   0.90155   0.90924   0.92320   1.05348
 Alpha virt. eigenvalues --    1.11518   1.35785   1.35931   2.02591   2.03388
 Alpha virt. eigenvalues --    2.04874   2.08037   2.09441   2.10611   2.58774
 Alpha virt. eigenvalues --    2.61853   2.66767   2.89939   2.90535   3.16624
 Alpha virt. eigenvalues --    3.41267   3.41646   3.42290   4.42020
          Condensed to atoms (all electrons):
               1          2          3          4          5
     1  C    5.061537   0.391229   0.393377   0.389115   0.388748
     2  H    0.391229   0.524941  -0.022202  -0.025234  -0.025440
     3  H    0.393377  -0.022202   0.517273  -0.023198  -0.024251
     4  H    0.389115  -0.025234  -0.023198   0.532293  -0.027096
     5  H    0.388748  -0.025440  -0.024251  -0.027096   0.533857
 Mulliken charges:
               1
     1  C   -0.624006
     2  H    0.156706
     3  H    0.159000
     4  H    0.154119
     5  H    0.154182
 Sum of Mulliken charges =   0.00000
 Mulliken charges with hydrogens summed into heavy atoms:
               1
     1  C    0.000000
 Electronic spatial extent (au):  <R**2>=             36.0087
 Charge=              0.0000 electrons
 Dipole moment (field-independent basis, Debye):
    X=              0.0273    Y=             -0.0249    Z=              0.0181  Tot=              0.0412
 Quadrupole moment (field-independent basis, Debye-Ang):
   XX=             -8.3592   YY=             -8.5195   ZZ=             -8.6295
   XY=              0.0046   XZ=              0.0093   YZ=             -0.0069
 Traceless Quadrupole moment (field-independent basis, Debye-Ang):
   XX=              0.1435   YY=             -0.0168   ZZ=             -0.1268
   XY=              0.0046   XZ=              0.0093   YZ=             -0.0069
 Octapole moment (field-independent basis, Debye-Ang**2):
  XXX=             -0.7210  YYY=              0.1970  ZZZ=              0.4210  XYY=              0.5037
  XXY=              0.2973  XXZ=             -0.1871  XZZ=              0.2427  YZZ=             -0.5225
  YYZ=             -0.1919  XYZ=              0.0697
 Hexadecapole moment (field-independent basis, Debye-Ang**3):
 XXXX=            -16.5564 YYYY=            -17.1506 ZZZZ=            -16.9525 XXXY=             -0.0703
 XXXZ=              0.1610 YYYX=              0.3286 YYYZ=              0.1358 ZZZX=              0.0558
 ZZZY=             -0.1660 XXYY=             -5.6228 XXZZ=             -5.9401 YYZZ=             -5.5917
 XXYZ=             -0.0041 YYXZ=             -0.1691 ZZXY=             -0.2327
 N-N= 1.340591836240D+01 E-N=-1.198171739567D+02  KE= 4.006667304799D+01
 1\1\GINC-NODE56\SP\RB3LYP\6-31+G(d,p)\C1H4\YANZ\22-Sep-2023\0\\# b3lyp
 /6-31+g(d,p) scrf=(iefpcm,solvent=acetonitrile)\\tmpdir/M3_ref_32.gjf\
 \0,1\C,0,-0.968876,0.815813,2.453864\H,0,-0.137284,1.498349,2.634459\H
 ,0,-1.03787826,0.50420541,1.41853401\H,0,-0.860427,-0.050966,3.121345\
 H,0,-1.895625,1.317792,2.755882\\Version=ES64L-G16RevA.03\State=1-A\HF
 =-40.5257648\RMSD=7.184e-09\Dipole=-0.0085856,0.0021762,0.0135525\Quad
 rupole=-0.0400706,-0.0441941,0.0842647,0.051374,0.0234192,0.0422222\PG
 =C01 [X(C1H4)]\\@


 THE SECRET OF SUCCESS IN LIFE IS TO EAT WHAT YOU LIKE, AND LET THE FOOD
 FIGHT IT OUT INSIDE YOU. -- FROM A FORTUNE COOKIE
 Job cpu time:       0 days  0 hours  0 minutes  9.8 seconds.
 Elapsed time:       0 days  0 hours  0 minutes  2.6 seconds.
 File lengths (MBytes):  RWF=     11 Int=      0 D2E=      0 Chk=      1 Scr=      1
 Normal termination of Gaussian 16 at Fri Sep 22 17:04:54 2023.
