 Entering Gaussian System, Link 0=g16
 Initial command:
 /share/apps/gaussian/g16/l1.exe "/tmp/55648.mgr/Gau-180023.inp" -scrdir="/tmp/55648.mgr/"
 Entering Link 1 = /share/apps/gaussian/g16/l1.exe PID=    180024.
  
 Copyright (c) 1988,1990,1992,1993,1995,1998,2003,2009,2016,
            Gaussian, Inc.  All Rights Reserved.
  
 This is part of the Gaussian(R) 16 program.  It is based on
 the Gaussian(R) 09 system (copyright 2009, Gaussian, Inc.),
 the Gaussian(R) 03 system (copyright 2003, Gaussian, Inc.),
 the Gaussian(R) 98 system (copyright 1998, Gaussian, Inc.),
 the Gaussian(R) 94 system (copyright 1995, Gaussian, Inc.),
 the Gaussian 92(TM) system (copyright 1992, Gaussian, Inc.),
 the Gaussian 90(TM) system (copyright 1990, Gaussian, Inc.),
 the Gaussian 88(TM) system (copyright 1988, Gaussian, Inc.),
 the Gaussian 86(TM) system (copyright 1986, Carnegie Mellon
 University), and the Gaussian 82(TM) system (copyright 1983,
 Carnegie Mellon University). Gaussian is a federally registered
 trademark of Gaussian, Inc.
  
 This software contains proprietary and confidential information,
 including trade secrets, belonging to Gaussian, Inc.
  
 This software is provided under written license and may be
 used, copied, transmitted, or stored only in accord with that
 written license.
  
 The following legend is applicable only to US Government
 contracts under FAR:
  
                    RESTRICTED RIGHTS LEGEND
  
 Use, reproduction and disclosure by the US Government is
 subject to restrictions as set forth in subparagraphs (a)
 and (c) of the Commercial Computer Software - Restricted
 Rights clause in FAR 52.227-19.
  
 Gaussian, Inc.
 340 Quinnipiac St., Bldg. 40, Wallingford CT 06492
  
  
 ---------------------------------------------------------------
 Warning -- This program may not be used in any manner that
 competes with the business of Gaussian, Inc. or will provide
 assistance to any competitor of Gaussian, Inc.  The licensee
 of this program is prohibited from giving any competitor of
 Gaussian, Inc. access to this program.  By using this program,
 the user acknowledges that Gaussian, Inc. is engaged in the
 business of creating and licensing software in the field of
 computational chemistry and represents and warrants to the
 licensee that it is not a competitor of Gaussian, Inc. and that
 it will not use this program in any manner prohibited above.
 ---------------------------------------------------------------
  

 Cite this work as:
 Gaussian 16, Revision A.03,
 M. J. Frisch, G. W. Trucks, H. B. Schlegel, G. E. Scuseria, 
 M. A. Robb, J. R. Cheeseman, G. Scalmani, V. Barone, 
 G. A. Petersson, H. Nakatsuji, X. Li, M. Caricato, A. V. Marenich, 
 J. Bloino, B. G. Janesko, R. Gomperts, B. Mennucci, H. P. Hratchian, 
 J. V. Ortiz, A. F. Izmaylov, J. L. Sonnenberg, D. Williams-Young, 
 F. Ding, F. Lipparini, F. Egidi, J. Goings, B. Peng, A. Petrone, 
 T. Henderson, D. Ranasinghe, V. G. Zakrzewski, J. Gao, N. Rega, 
 G. Zheng, W. Liang, M. Hada, M. Ehara, K. Toyota, R. Fukuda, 
 J. Hasegawa, M. Ishida, T. Nakajima, Y. Honda, O. Kitao, H. Nakai, 
 T. Vreven, K. Throssell, J. A. Montgomery, Jr., J. E. Peralta, 
 F. Ogliaro, M. J. Bearpark, J. J. Heyd, E. N. Brothers, K. N. Kudin, 
 V. N. Staroverov, T. A. Keith, R. Kobayashi, J. Normand, 
 K. Raghavachari, A. P. Rendell, J. C. Burant, S. S. Iyengar, 
 J. Tomasi, M. Cossi, J. M. Millam, M. Klene, C. Adamo, R. Cammi, 
 J. W. Ochterski, R. L. Martin, K. Morokuma, O. Farkas, 
 J. B. Foresman, and D. J. Fox, Gaussian, Inc., Wallingford CT, 2016.
 
 ******************************************
 Gaussian 16:  ES64L-G16RevA.03 25-Dec-2016
                22-Sep-2023 
 ******************************************
 %nprocshared=4
 Will use up to    4 processors via shared memory.
 %mem=4GB
 ------------------------------------------------------
 # b3lyp/6-31+g(d,p) scrf=(iefpcm,solvent=acetonitrile)
 ------------------------------------------------------
 1/38=1,172=1/1;
 2/12=2,17=6,18=5,40=1/2;
 3/5=1,6=6,7=111,11=2,25=1,30=1,70=2201,72=2,74=-5/1,2,3;
 4//1;
 5/5=2,38=5,53=2/2;
 6/7=2,8=2,9=2,10=2,28=1/1;
 99/5=1,9=1/99;
 --------------------
 tmpdir/M3_ref_47.gjf
 --------------------
 Symbolic Z-matrix:
 Charge =  0 Multiplicity = 1
 H                    -2.18579  -0.68057  -0.46778 
 C                    -2.28046  -0.33322   0.56154 
 S                    -3.83661   0.70238   0.57894 
 H                    -1.40003   0.18694   0.89604 
 H                    -2.53699  -1.16598   1.22537 
 O                    -3.61698   1.92367  -0.22715 
 O                    -4.26549   0.85346   1.99073 
 H                    -4.75312  -0.08576  -0.06594 
 
                          Input orientation:                          
 ---------------------------------------------------------------------
 Center     Atomic      Atomic             Coordinates (Angstroms)
 Number     Number       Type             X           Y           Z
 ---------------------------------------------------------------------
      1          1           0       -2.185793   -0.680573   -0.467782
      2          6           0       -2.280465   -0.333219    0.561543
      3         16           0       -3.836607    0.702377    0.578940
      4          1           0       -1.400026    0.186942    0.896038
      5          1           0       -2.536985   -1.165983    1.225374
      6          8           0       -3.616977    1.923666   -0.227148
      7          8           0       -4.265488    0.853458    1.990729
      8          1           0       -4.753120   -0.085763   -0.065939
 ---------------------------------------------------------------------
                    Distance matrix (angstroms):
                    1          2          3          4          5
     1  H    0.000000
     2  C    1.090471   0.000000
     3  S    2.394445   1.869315   0.000000
     4  H    1.797224   1.075930   2.510607   0.000000
     5  H    1.796033   1.095431   2.365938   1.797649   0.000000
     6  O    2.981317   2.738946   1.479717   3.031935   3.580801
     7  O    3.566884   2.718656   1.483210   3.139023   2.766159
     8  H    2.665792   2.563004   1.370047   3.499000   2.783095
                    6          7          8
     6  O    0.000000
     7  O    2.546545   0.000000
     8  H    2.314003   2.312964   0.000000
 Stoichiometry    CH4O2S
 Framework group  C1[X(CH4O2S)]
 Deg. of freedom    18
 Full point group                 C1      NOp   1
 Largest Abelian subgroup         C1      NOp   1
 Largest concise Abelian subgroup C1      NOp   1
                         Standard orientation:                         
 ---------------------------------------------------------------------
 Center     Atomic      Atomic             Coordinates (Angstroms)
 Number     Number       Type             X           Y           Z
 ---------------------------------------------------------------------
      1          1           0        2.032120   -0.837100    0.505782
      2          6           0        1.637643   -0.045876   -0.132559
      3         16           0       -0.194869   -0.000512    0.233748
      4          1           0        1.876972   -0.204900   -1.169410
      5          1           0        1.978295    0.934765    0.217110
      6          8           0       -0.820145   -1.248072   -0.258376
      7          8           0       -0.723284    1.296626   -0.254230
      8          1           0       -0.247914    0.002255    1.602764
 ---------------------------------------------------------------------
 Rotational constants (GHZ):           8.1841923           7.0023347           4.3072438
 Standard basis: 6-31+G(d,p) (6D, 7F)
 There are   100 symmetry adapted cartesian basis functions of A   symmetry.
 There are   100 symmetry adapted basis functions of A   symmetry.
   100 basis functions,   180 primitive gaussians,   100 cartesian basis functions
    21 alpha electrons       21 beta electrons
       nuclear repulsion energy       190.3500377530 Hartrees.
 NAtoms=    8 NActive=    8 NUniq=    8 SFac= 1.00D+00 NAtFMM=   60 NAOKFM=F Big=F
 Integral buffers will be    131072 words long.
 Raffenetti 2 integral format.
 Two-electron integral symmetry is turned on.
 ------------------------------------------------------------------------------
 Polarizable Continuum Model (PCM)
 =================================
 Model                : PCM.
 Atomic radii         : UFF (Universal Force Field).
 Polarization charges : Total charges.
 Charge compensation  : None.
 Solution method      : On-the-fly selection.
 Cavity type          : Scaled VdW (van der Waals Surface) (Alpha=1.100).
 Cavity algorithm     : GePol (No added spheres)
                        Default sphere list used, NSphG=    8.
                        Lebedev-Laikov grids with approx.  5.0 points / Ang**2.
                        Smoothing algorithm: York/Karplus (Gamma=1.0000).
                        Polarization charges: spherical gaussians, with
                                              point-specific exponents (IZeta= 3).
                        Self-potential: point-specific (ISelfS= 7).
                        Self-field    : sphere-specific E.n sum rule (ISelfD= 2).
 Solvent              : Acetonitrile, Eps=  35.688000 Eps(inf)=   1.806874
 ------------------------------------------------------------------------------
 Spheres list:
 ISph  on   Nord     Re0    Alpha      Xe            Ye            Ze
    1   H      1    1.4430  1.100      2.032120     -0.837100      0.505782
    2   C      2    1.9255  1.100      1.637643     -0.045876     -0.132559
    3   S      3    2.0175  1.100     -0.194869     -0.000512      0.233748
    4   H      4    1.4430  1.100      1.876972     -0.204900     -1.169410
    5   H      5    1.4430  1.100      1.978295      0.934765      0.217110
    6   O      6    1.7500  1.100     -0.820145     -1.248072     -0.258376
    7   O      7    1.7500  1.100     -0.723284      1.296626     -0.254230
    8   H      8    1.4430  1.100     -0.247914      0.002255      1.602764
 ------------------------------------------------------------------------------
 One-electron integrals computed using PRISM.
 NBasis=   100 RedAO= T EigKep=  8.06D-04  NBF=   100
 NBsUse=   100 1.00D-06 EigRej= -1.00D+00 NBFU=   100
 ExpMin= 4.05D-02 ExpMax= 2.19D+04 ExpMxC= 3.30D+03 IAcc=3 IRadAn=         5 AccDes= 0.00D+00
 Harris functional with IExCor=  402 and IRadAn=       5 diagonalized for initial guess.
 HarFok:  IExCor=  402 AccDes= 0.00D+00 IRadAn=         5 IDoV= 1 UseB2=F ITyADJ=14
 ICtDFT=  3500011 ScaDFX=  1.000000  1.000000  1.000000  1.000000
 FoFCou: FMM=F IPFlag=           0 FMFlag=      100000 FMFlg1=           0
         NFxFlg=           0 DoJE=T BraDBF=F KetDBF=T FulRan=T
         wScrn=  0.000000 ICntrl=       500 IOpCl=  0 I1Cent=   200000004 NGrid=           0
         NMat0=    1 NMatS0=      1 NMatT0=    0 NMatD0=    1 NMtDS0=    0 NMtDT0=    0
 Petite list used in FoFCou.
 Keep R1 ints in memory in canonical form, NReq=16455358.
 Requested convergence on RMS density matrix=1.00D-08 within 128 cycles.
 Requested convergence on MAX density matrix=1.00D-06.
 Requested convergence on             energy=1.00D-06.
 No special actions if energy rises.
 Inv3:  Mode=1 IEnd=     2478843.
 Iteration    1 A*A^-1 deviation from unit magnitude is 3.33D-15 for    866.
 Iteration    1 A*A^-1 deviation from orthogonality  is 2.00D-15 for    909    512.
 Iteration    1 A^-1*A deviation from unit magnitude is 3.33D-15 for    866.
 Iteration    1 A^-1*A deviation from orthogonality  is 1.07D-15 for    164    110.
 Error on total polarization charges =  0.01041
 SCF Done:  E(RB3LYP) =  -589.098765410     A.U. after   11 cycles
            NFock= 11  Conv=0.65D-08     -V/T= 2.0058

 **********************************************************************

            Population analysis using the SCF density.

 **********************************************************************

 Orbital symmetries:
       Occupied  (A) (A) (A) (A) (A) (A) (A) (A) (A) (A) (A) (A)
                 (A) (A) (A) (A) (A) (A) (A) (A) (A)
       Virtual   (A) (A) (A) (A) (A) (A) (A) (A) (A) (A) (A) (A)
                 (A) (A) (A) (A) (A) (A) (A) (A) (A) (A) (A) (A)
                 (A) (A) (A) (A) (A) (A) (A) (A) (A) (A) (A) (A)
                 (A) (A) (A) (A) (A) (A) (A) (A) (A) (A) (A) (A)
                 (A) (A) (A) (A) (A) (A) (A) (A) (A) (A) (A) (A)
                 (A) (A) (A) (A) (A) (A) (A) (A) (A) (A) (A) (A)
                 (A) (A) (A) (A) (A) (A) (A)
 The electronic state is 1-A.
 Alpha  occ. eigenvalues --  -89.11891 -19.16966 -19.16859 -10.23617  -8.14883
 Alpha  occ. eigenvalues --   -6.11323  -6.11244  -6.11159  -1.11696  -1.01600
 Alpha  occ. eigenvalues --   -0.78198  -0.67080  -0.53594  -0.49448  -0.48187
 Alpha  occ. eigenvalues --   -0.44481  -0.43955  -0.35440  -0.34171  -0.32370
 Alpha  occ. eigenvalues --   -0.31292
 Alpha virt. eigenvalues --   -0.01384   0.00709   0.01141   0.02533   0.04704
 Alpha virt. eigenvalues --    0.06429   0.06996   0.07645   0.08943   0.11357
 Alpha virt. eigenvalues --    0.11566   0.13328   0.14308   0.17488   0.18720
 Alpha virt. eigenvalues --    0.20297   0.22788   0.23352   0.25889   0.26624
 Alpha virt. eigenvalues --    0.28711   0.30498   0.31223   0.44220   0.46258
 Alpha virt. eigenvalues --    0.53493   0.59006   0.59988   0.62953   0.67594
 Alpha virt. eigenvalues --    0.72268   0.74168   0.78215   0.91859   0.93009
 Alpha virt. eigenvalues --    0.95336   1.04268   1.07655   1.13864   1.19139
 Alpha virt. eigenvalues --    1.19731   1.21422   1.23598   1.26006   1.26314
 Alpha virt. eigenvalues --    1.27254   1.41871   1.47231   1.51980   1.57775
 Alpha virt. eigenvalues --    1.77522   1.79188   1.79852   1.81419   1.81755
 Alpha virt. eigenvalues --    1.97329   1.98952   2.00269   2.02159   2.04476
 Alpha virt. eigenvalues --    2.05237   2.18754   2.21349   2.26522   2.35169
 Alpha virt. eigenvalues --    2.36734   2.56608   2.65497   2.79485   2.80612
 Alpha virt. eigenvalues --    2.81033   2.83171   3.21167   3.39055   3.40238
 Alpha virt. eigenvalues --    3.94145   4.01252   4.03345   4.39600
          Condensed to atoms (all electrons):
               1          2          3          4          5          6
     1  H    0.473984   0.341650  -0.002263  -0.015689  -0.021111  -0.002820
     2  C    0.341650   5.661890   0.104672   0.373848   0.350361  -0.096413
     3  S   -0.002263   0.104672  14.090298   0.000663  -0.010559   0.181443
     4  H   -0.015689   0.373848   0.000663   0.434553  -0.017499  -0.004049
     5  H   -0.021111   0.350361  -0.010559  -0.017499   0.479185   0.008843
     6  O   -0.002820  -0.096413   0.181443  -0.004049   0.008843   8.758198
     7  O    0.008392  -0.089202   0.190095  -0.003314  -0.004611  -0.139049
     8  H    0.000978  -0.096038   0.376791   0.001585   0.000753  -0.074229
               7          8
     1  H    0.008392   0.000978
     2  C   -0.089202  -0.096038
     3  S    0.190095   0.376791
     4  H   -0.003314   0.001585
     5  H   -0.004611   0.000753
     6  O   -0.139049  -0.074229
     7  O    8.754542  -0.074545
     8  H   -0.074545   0.769980
 Mulliken charges:
               1
     1  H    0.216878
     2  C   -0.550768
     3  S    1.068859
     4  H    0.229902
     5  H    0.214637
     6  O   -0.631924
     7  O   -0.642308
     8  H    0.094724
 Sum of Mulliken charges =  -0.00000
 Mulliken charges with hydrogens summed into heavy atoms:
               1
     2  C    0.110649
     3  S    1.163583
     6  O   -0.631924
     7  O   -0.642308
 Electronic spatial extent (au):  <R**2>=            328.0995
 Charge=             -0.0000 electrons
 Dipole moment (field-independent basis, Debye):
    X=              5.1176    Y=             -0.1985    Z=              3.1126  Tot=              5.9931
 Quadrupole moment (field-independent basis, Debye-Ang):
   XX=            -29.8708   YY=            -39.1580   ZZ=            -27.8704
   XY=             -0.3574   XZ=             -2.2202   YZ=              0.0648
 Traceless Quadrupole moment (field-independent basis, Debye-Ang):
   XX=              2.4289   YY=             -6.8583   ZZ=              4.4293
   XY=             -0.3574   XZ=             -2.2202   YZ=              0.0648
 Octapole moment (field-independent basis, Debye-Ang**2):
  XXX=              7.4689  YYY=             -0.3414  ZZZ=              4.2298  XYY=              7.8323
  XXY=              0.0467  XXZ=              0.9100  XZZ=              0.7685  YZZ=             -0.4935
  YYZ=              3.3066  XYZ=              0.0618
 Hexadecapole moment (field-independent basis, Debye-Ang**3):
 XXXX=           -200.9865 YYYY=           -170.8514 ZZZZ=            -50.1307 XXXY=             -1.2996
 XXXZ=             -3.1035 YYYX=              0.7503 YYYZ=             -0.0465 ZZZX=             -4.7251
 ZZZY=              0.3488 XXYY=            -62.9861 XXZZ=            -40.6059 YYZZ=            -36.5133
 XXYZ=             -0.0935 YYXZ=              0.3373 ZZXY=             -1.0037
 N-N= 1.903500377530D+02 E-N=-1.772839413519D+03  KE= 5.856862345094D+02
 1\1\GINC-NODE56\SP\RB3LYP\6-31+G(d,p)\C1H4O2S1\YANZ\22-Sep-2023\0\\# b
 3lyp/6-31+g(d,p) scrf=(iefpcm,solvent=acetonitrile)\\tmpdir/M3_ref_47.
 gjf\\0,1\H,0,-2.185793,-0.680573,-0.467782\C,0,-2.280465,-0.333219,0.5
 61543\S,0,-3.836607,0.702377,0.57894\H,0,-1.40002635,0.18694159,0.8960
 3769\H,0,-2.536985,-1.165983,1.225374\O,0,-3.616977,1.923666,-0.227148
 \O,0,-4.265488,0.853458,1.990729\H,0,-4.75311986,-0.0857625,-0.0659388
 6\\Version=ES64L-G16RevA.03\State=1-A\HF=-589.0987654\RMSD=6.480e-09\D
 ipole=0.6743731,-2.1059452,-0.8184076\Quadrupole=3.5077944,-0.2261836,
 -3.2816108,-0.1722184,2.4329498,2.3105958\PG=C01 [X(C1H4O2S1)]\\@


 SUCCESS-- IF YOU HAVE TRIED TO DO SOMETHING AND FAILED
           YOU ARE BETTER OFF THAN IF YOU HAD TRIED TO DO
           NOTHING AND SUCCEEDED.

                   -- FROM THE BACK OF A SUGAR PACKET
 Job cpu time:       0 days  0 hours  0 minutes 46.3 seconds.
 Elapsed time:       0 days  0 hours  0 minutes 11.9 seconds.
 File lengths (MBytes):  RWF=     21 Int=      0 D2E=      0 Chk=      2 Scr=      1
 Normal termination of Gaussian 16 at Fri Sep 22 17:05:53 2023.
