 Entering Gaussian System, Link 0=g16
 Initial command:
 /share/apps/gaussian/g16/l1.exe "/tmp/55648.mgr/Gau-178265.inp" -scrdir="/tmp/55648.mgr/"
 Entering Link 1 = /share/apps/gaussian/g16/l1.exe PID=    178276.
  
 Copyright (c) 1988,1990,1992,1993,1995,1998,2003,2009,2016,
            Gaussian, Inc.  All Rights Reserved.
  
 This is part of the Gaussian(R) 16 program.  It is based on
 the Gaussian(R) 09 system (copyright 2009, Gaussian, Inc.),
 the Gaussian(R) 03 system (copyright 2003, Gaussian, Inc.),
 the Gaussian(R) 98 system (copyright 1998, Gaussian, Inc.),
 the Gaussian(R) 94 system (copyright 1995, Gaussian, Inc.),
 the Gaussian 92(TM) system (copyright 1992, Gaussian, Inc.),
 the Gaussian 90(TM) system (copyright 1990, Gaussian, Inc.),
 the Gaussian 88(TM) system (copyright 1988, Gaussian, Inc.),
 the Gaussian 86(TM) system (copyright 1986, Carnegie Mellon
 University), and the Gaussian 82(TM) system (copyright 1983,
 Carnegie Mellon University). Gaussian is a federally registered
 trademark of Gaussian, Inc.
  
 This software contains proprietary and confidential information,
 including trade secrets, belonging to Gaussian, Inc.
  
 This software is provided under written license and may be
 used, copied, transmitted, or stored only in accord with that
 written license.
  
 The following legend is applicable only to US Government
 contracts under FAR:
  
                    RESTRICTED RIGHTS LEGEND
  
 Use, reproduction and disclosure by the US Government is
 subject to restrictions as set forth in subparagraphs (a)
 and (c) of the Commercial Computer Software - Restricted
 Rights clause in FAR 52.227-19.
  
 Gaussian, Inc.
 340 Quinnipiac St., Bldg. 40, Wallingford CT 06492
  
  
 ---------------------------------------------------------------
 Warning -- This program may not be used in any manner that
 competes with the business of Gaussian, Inc. or will provide
 assistance to any competitor of Gaussian, Inc.  The licensee
 of this program is prohibited from giving any competitor of
 Gaussian, Inc. access to this program.  By using this program,
 the user acknowledges that Gaussian, Inc. is engaged in the
 business of creating and licensing software in the field of
 computational chemistry and represents and warrants to the
 licensee that it is not a competitor of Gaussian, Inc. and that
 it will not use this program in any manner prohibited above.
 ---------------------------------------------------------------
  

 Cite this work as:
 Gaussian 16, Revision A.03,
 M. J. Frisch, G. W. Trucks, H. B. Schlegel, G. E. Scuseria, 
 M. A. Robb, J. R. Cheeseman, G. Scalmani, V. Barone, 
 G. A. Petersson, H. Nakatsuji, X. Li, M. Caricato, A. V. Marenich, 
 J. Bloino, B. G. Janesko, R. Gomperts, B. Mennucci, H. P. Hratchian, 
 J. V. Ortiz, A. F. Izmaylov, J. L. Sonnenberg, D. Williams-Young, 
 F. Ding, F. Lipparini, F. Egidi, J. Goings, B. Peng, A. Petrone, 
 T. Henderson, D. Ranasinghe, V. G. Zakrzewski, J. Gao, N. Rega, 
 G. Zheng, W. Liang, M. Hada, M. Ehara, K. Toyota, R. Fukuda, 
 J. Hasegawa, M. Ishida, T. Nakajima, Y. Honda, O. Kitao, H. Nakai, 
 T. Vreven, K. Throssell, J. A. Montgomery, Jr., J. E. Peralta, 
 F. Ogliaro, M. J. Bearpark, J. J. Heyd, E. N. Brothers, K. N. Kudin, 
 V. N. Staroverov, T. A. Keith, R. Kobayashi, J. Normand, 
 K. Raghavachari, A. P. Rendell, J. C. Burant, S. S. Iyengar, 
 J. Tomasi, M. Cossi, J. M. Millam, M. Klene, C. Adamo, R. Cammi, 
 J. W. Ochterski, R. L. Martin, K. Morokuma, O. Farkas, 
 J. B. Foresman, and D. J. Fox, Gaussian, Inc., Wallingford CT, 2016.
 
 ******************************************
 Gaussian 16:  ES64L-G16RevA.03 25-Dec-2016
                22-Sep-2023 
 ******************************************
 %nprocshared=4
 Will use up to    4 processors via shared memory.
 %mem=4GB
 ------------------------------------------------------
 # b3lyp/6-31+g(d,p) scrf=(iefpcm,solvent=acetonitrile)
 ------------------------------------------------------
 1/38=1,172=1/1;
 2/12=2,17=6,18=5,40=1/2;
 3/5=1,6=6,7=111,11=2,25=1,30=1,70=2201,72=2,74=-5/1,2,3;
 4//1;
 5/5=2,38=5,53=2/2;
 6/7=2,8=2,9=2,10=2,28=1/1;
 99/5=1,9=1/99;
 --------------------
 tmpdir/M3_ref_12.gjf
 --------------------
 Symbolic Z-matrix:
 Charge =  0 Multiplicity = 1
 C                     5.05368  -2.72183  -0.34813 
 C                     6.07368  -3.64337  -0.9717 
 H                     5.69151  -4.09567  -1.89163 
 C                     5.45064  -1.55467   0.32379 
 C                     3.68325  -3.03143  -0.39849 
 C                     4.51482  -0.71564   0.93181 
 H                     6.50545  -1.29901   0.37566 
 C                     2.73512  -2.20513   0.20378 
 H                     3.3548   -3.93225  -0.90957 
 C                     3.16165  -1.04264   0.85348 
 H                     4.82478   0.17845   1.46245 
 H                     1.681    -2.46535   0.16134 
 H                     6.3249   -4.4619   -0.28584 
 H                     7.00074  -3.1128   -1.20514 
 H                     2.391    -0.40895   1.38698 
 
                          Input orientation:                          
 ---------------------------------------------------------------------
 Center     Atomic      Atomic             Coordinates (Angstroms)
 Number     Number       Type             X           Y           Z
 ---------------------------------------------------------------------
      1          6           0        5.053677   -2.721825   -0.348130
      2          6           0        6.073683   -3.643374   -0.971696
      3          1           0        5.691510   -4.095671   -1.891627
      4          6           0        5.450644   -1.554672    0.323793
      5          6           0        3.683245   -3.031431   -0.398492
      6          6           0        4.514820   -0.715643    0.931809
      7          1           0        6.505451   -1.299006    0.375655
      8          6           0        2.735119   -2.205131    0.203778
      9          1           0        3.354800   -3.932251   -0.909566
     10          6           0        3.161650   -1.042641    0.853483
     11          1           0        4.824778    0.178450    1.462445
     12          1           0        1.681001   -2.465345    0.161342
     13          1           0        6.324900   -4.461896   -0.285836
     14          1           0        7.000739   -3.112802   -1.205142
     15          1           0        2.390995   -0.408954    1.386985
 ---------------------------------------------------------------------
                    Distance matrix (angstroms):
                    1          2          3          4          5
     1  C    0.000000
     2  C    1.509470   0.000000
     3  H    2.162560   1.094030   0.000000
     4  C    1.404033   2.535576   3.379760   0.000000
     5  C    1.405872   2.533225   2.719409   2.413755   0.000000
     6  C    2.439954   3.824264   4.558616   1.396216   2.797158
     7  H    2.157760   2.738218   3.691125   1.086588   3.400801
     8  C    2.438706   3.820509   4.087189   2.794920   1.394433
     9  H    2.160214   2.734892   2.539953   3.400973   1.086531
    10  C    2.800589   4.309875   4.822532   2.404629   2.407237
    11  H    3.426685   4.700122   5.501739   2.166091   3.881948
    12  H    3.420568   4.686916   4.791328   3.881485   2.154727
    13  H    2.155861   1.097038   1.764616   3.096437   3.006204
    14  H    2.162957   1.093360   1.775211   2.677351   3.415124
    15  H    3.930632   5.439397   5.935872   3.435768   3.425671
                    6          7          8          9         10
     6  C    0.000000
     7  H    2.147611   0.000000
     8  C    2.432270   3.881496   0.000000
     9  H    3.883668   4.302601   2.146272   0.000000
    10  C    1.394321   3.387484   1.398366   3.390501   0.000000
    11  H    1.084920   2.487700   3.410627   4.968414   2.151254
    12  H    3.418422   4.968057   1.086590   2.469870   2.166903
    13  H    4.335142   3.236362   4.268400   3.080756   4.795363
    14  H    4.061124   2.456438   4.583060   3.748564   4.823081
    15  H    2.193599   4.329403   2.178222   4.314706   1.131412
                   11         12         13         14         15
    11  H    0.000000
    12  H    4.308811   0.000000
    13  H    5.180701   5.074641   0.000000
    14  H    4.762685   5.530469   1.766900   0.000000
    15  H    2.504803   2.497005   5.890694   5.939668   0.000000
 Stoichiometry    C7H8
 Framework group  C1[X(C7H8)]
 Deg. of freedom    39
 Full point group                 C1      NOp   1
 Largest Abelian subgroup         C1      NOp   1
 Largest concise Abelian subgroup C1      NOp   1
                         Standard orientation:                         
 ---------------------------------------------------------------------
 Center     Atomic      Atomic             Coordinates (Angstroms)
 Number     Number       Type             X           Y           Z
 ---------------------------------------------------------------------
      1          6           0        0.913145    0.003026   -0.014635
      2          6           0        2.422414    0.001903    0.009958
      3          1           0        2.829266   -0.829277   -0.573577
      4          6           0        0.191973    1.207681   -0.009430
      5          6           0        0.195835   -1.206071   -0.009439
      6          6           0       -1.204175    1.215485    0.001989
      7          1           0        0.728037    2.152828   -0.011183
      8          6           0       -1.198505   -1.216778    0.002627
      9          1           0        0.734338   -2.149767   -0.008824
     10          6           0       -1.887430    0.000074   -0.006337
     11          1           0       -1.759461    2.147356    0.020035
     12          1           0       -1.735392   -2.161385    0.014822
     13          1           0        2.791791   -0.109109    1.036958
     14          1           0        2.828597    0.936118   -0.387150
     15          1           0       -3.016709   -0.018683    0.060524
 ---------------------------------------------------------------------
 Rotational constants (GHZ):           5.4752515           2.5198941           1.7444672
 Standard basis: 6-31+G(d,p) (6D, 7F)
 There are   173 symmetry adapted cartesian basis functions of A   symmetry.
 There are   173 symmetry adapted basis functions of A   symmetry.
   173 basis functions,   280 primitive gaussians,   173 cartesian basis functions
    25 alpha electrons       25 beta electrons
       nuclear repulsion energy       268.3880490777 Hartrees.
 NAtoms=   15 NActive=   15 NUniq=   15 SFac= 1.00D+00 NAtFMM=   60 NAOKFM=F Big=F
 Integral buffers will be    131072 words long.
 Raffenetti 2 integral format.
 Two-electron integral symmetry is turned on.
 ------------------------------------------------------------------------------
 Polarizable Continuum Model (PCM)
 =================================
 Model                : PCM.
 Atomic radii         : UFF (Universal Force Field).
 Polarization charges : Total charges.
 Charge compensation  : None.
 Solution method      : On-the-fly selection.
 Cavity type          : Scaled VdW (van der Waals Surface) (Alpha=1.100).
 Cavity algorithm     : GePol (No added spheres)
                        Default sphere list used, NSphG=   15.
                        Lebedev-Laikov grids with approx.  5.0 points / Ang**2.
                        Smoothing algorithm: York/Karplus (Gamma=1.0000).
                        Polarization charges: spherical gaussians, with
                                              point-specific exponents (IZeta= 3).
                        Self-potential: point-specific (ISelfS= 7).
                        Self-field    : sphere-specific E.n sum rule (ISelfD= 2).
 Solvent              : Acetonitrile, Eps=  35.688000 Eps(inf)=   1.806874
 ------------------------------------------------------------------------------
 Spheres list:
 ISph  on   Nord     Re0    Alpha      Xe            Ye            Ze
    1   C      1    1.9255  1.100      0.913145      0.003026     -0.014635
    2   C      2    1.9255  1.100      2.422414      0.001903      0.009958
    3   H      3    1.4430  1.100      2.829266     -0.829277     -0.573577
    4   C      4    1.9255  1.100      0.191973      1.207681     -0.009430
    5   C      5    1.9255  1.100      0.195835     -1.206071     -0.009439
    6   C      6    1.9255  1.100     -1.204175      1.215485      0.001989
    7   H      7    1.4430  1.100      0.728037      2.152828     -0.011183
    8   C      8    1.9255  1.100     -1.198505     -1.216778      0.002627
    9   H      9    1.4430  1.100      0.734338     -2.149767     -0.008824
   10   C     10    1.9255  1.100     -1.887430      0.000074     -0.006337
   11   H     11    1.4430  1.100     -1.759461      2.147356      0.020035
   12   H     12    1.4430  1.100     -1.735392     -2.161385      0.014822
   13   H     13    1.4430  1.100      2.791791     -0.109109      1.036958
   14   H     14    1.4430  1.100      2.828597      0.936118     -0.387150
   15   H     15    1.4430  1.100     -3.016709     -0.018683      0.060524
 ------------------------------------------------------------------------------
 One-electron integrals computed using PRISM.
 NBasis=   173 RedAO= T EigKep=  5.03D-06  NBF=   173
 NBsUse=   173 1.00D-06 EigRej= -1.00D+00 NBFU=   173
 ExpMin= 4.38D-02 ExpMax= 3.05D+03 ExpMxC= 4.57D+02 IAcc=3 IRadAn=         5 AccDes= 0.00D+00
 Harris functional with IExCor=  402 and IRadAn=       5 diagonalized for initial guess.
 HarFok:  IExCor=  402 AccDes= 0.00D+00 IRadAn=         5 IDoV= 1 UseB2=F ITyADJ=14
 ICtDFT=  3500011 ScaDFX=  1.000000  1.000000  1.000000  1.000000
 FoFCou: FMM=F IPFlag=           0 FMFlag=      100000 FMFlg1=           0
         NFxFlg=           0 DoJE=T BraDBF=F KetDBF=T FulRan=T
         wScrn=  0.000000 ICntrl=       500 IOpCl=  0 I1Cent=   200000004 NGrid=           0
         NMat0=    1 NMatS0=      1 NMatT0=    0 NMatD0=    1 NMtDS0=    0 NMtDT0=    0
 Petite list used in FoFCou.
 Keep R1 ints in memory in canonical form, NReq=117275397.
 Requested convergence on RMS density matrix=1.00D-08 within 128 cycles.
 Requested convergence on MAX density matrix=1.00D-06.
 Requested convergence on             energy=1.00D-06.
 No special actions if energy rises.
 Inv3:  Mode=1 IEnd=     4800675.
 Iteration    1 A*A^-1 deviation from unit magnitude is 5.44D-15 for    465.
 Iteration    1 A*A^-1 deviation from orthogonality  is 3.20D-15 for   1258   1048.
 Iteration    1 A^-1*A deviation from unit magnitude is 5.22D-15 for    465.
 Iteration    1 A^-1*A deviation from orthogonality  is 3.48D-15 for   1027    460.
 Error on total polarization charges =  0.01667
 SCF Done:  E(RB3LYP) =  -271.590222346     A.U. after   12 cycles
            NFock= 12  Conv=0.45D-08     -V/T= 2.0103

 **********************************************************************

            Population analysis using the SCF density.

 **********************************************************************

 Orbital symmetries:
       Occupied  (A) (A) (A) (A) (A) (A) (A) (A) (A) (A) (A) (A)
                 (A) (A) (A) (A) (A) (A) (A) (A) (A) (A) (A) (A)
                 (A)
       Virtual   (A) (A) (A) (A) (A) (A) (A) (A) (A) (A) (A) (A)
                 (A) (A) (A) (A) (A) (A) (A) (A) (A) (A) (A) (A)
                 (A) (A) (A) (A) (A) (A) (A) (A) (A) (A) (A) (A)
                 (A) (A) (A) (A) (A) (A) (A) (A) (A) (A) (A) (A)
                 (A) (A) (A) (A) (A) (A) (A) (A) (A) (A) (A) (A)
                 (A) (A) (A) (A) (A) (A) (A) (A) (A) (A) (A) (A)
                 (A) (A) (A) (A) (A) (A) (A) (A) (A) (A) (A) (A)
                 (A) (A) (A) (A) (A) (A) (A) (A) (A) (A) (A) (A)
                 (A) (A) (A) (A) (A) (A) (A) (A) (A) (A) (A) (A)
                 (A) (A) (A) (A) (A) (A) (A) (A) (A) (A) (A) (A)
                 (A) (A) (A) (A) (A) (A) (A) (A) (A) (A) (A) (A)
                 (A) (A) (A) (A) (A) (A) (A) (A) (A) (A) (A) (A)
                 (A) (A) (A) (A)
 The electronic state is 1-A.
 Alpha  occ. eigenvalues --  -10.20629 -10.19877 -10.19737 -10.19721 -10.19463
 Alpha  occ. eigenvalues --  -10.19414 -10.18505  -0.86086  -0.77420  -0.75038
 Alpha  occ. eigenvalues --   -0.68597  -0.60896  -0.58594  -0.51024  -0.46235
 Alpha  occ. eigenvalues --   -0.45731  -0.42525  -0.42138  -0.40565  -0.38604
 Alpha  occ. eigenvalues --   -0.36054  -0.34386  -0.34208  -0.25970  -0.24826
 Alpha virt. eigenvalues --   -0.01765  -0.01454   0.00824   0.02263   0.02876
 Alpha virt. eigenvalues --    0.04481   0.04912   0.05229   0.06149   0.07162
 Alpha virt. eigenvalues --    0.07714   0.08175   0.08676   0.10441   0.11799
 Alpha virt. eigenvalues --    0.12652   0.13287   0.13636   0.13891   0.14963
 Alpha virt. eigenvalues --    0.15785   0.16957   0.17867   0.18151   0.18808
 Alpha virt. eigenvalues --    0.19952   0.20897   0.21389   0.21785   0.23044
 Alpha virt. eigenvalues --    0.23849   0.24765   0.25085   0.26334   0.26619
 Alpha virt. eigenvalues --    0.28186   0.28748   0.29307   0.31920   0.34277
 Alpha virt. eigenvalues --    0.35180   0.35488   0.36894   0.37041   0.55678
 Alpha virt. eigenvalues --    0.59587   0.62551   0.66193   0.66765   0.68759
 Alpha virt. eigenvalues --    0.70762   0.71309   0.71406   0.72990   0.73839
 Alpha virt. eigenvalues --    0.74073   0.75569   0.76650   0.77439   0.79013
 Alpha virt. eigenvalues --    0.81389   0.83901   0.87897   0.91713   0.91878
 Alpha virt. eigenvalues --    0.95411   0.97310   1.00307   1.00917   1.02063
 Alpha virt. eigenvalues --    1.07741   1.08373   1.11501   1.12385   1.15064
 Alpha virt. eigenvalues --    1.16298   1.20506   1.25244   1.28082   1.30392
 Alpha virt. eigenvalues --    1.34562   1.37557   1.39634   1.41834   1.43131
 Alpha virt. eigenvalues --    1.43571   1.49421   1.73270   1.75970   1.80244
 Alpha virt. eigenvalues --    1.80711   1.83855   1.87665   1.89291   1.93980
 Alpha virt. eigenvalues --    1.97724   2.00108   2.00602   2.01077   2.03773
 Alpha virt. eigenvalues --    2.05564   2.07474   2.09195   2.13034   2.16957
 Alpha virt. eigenvalues --    2.24504   2.27606   2.29121   2.33582   2.36426
 Alpha virt. eigenvalues --    2.38599   2.40825   2.41150   2.42549   2.46964
 Alpha virt. eigenvalues --    2.49954   2.52267   2.54055   2.57152   2.59522
 Alpha virt. eigenvalues --    2.64285   2.65100   2.67964   2.72417   2.73983
 Alpha virt. eigenvalues --    2.76803   2.83945   2.84916   2.88295   3.04886
 Alpha virt. eigenvalues --    3.05764   3.17858   3.22979   3.23886   3.27905
 Alpha virt. eigenvalues --    3.32380   3.41493   3.45709   3.48173   3.52591
 Alpha virt. eigenvalues --    3.88066   4.27066   4.29030   4.30071   4.44045
 Alpha virt. eigenvalues --    4.49000   4.55147   4.84515
          Condensed to atoms (all electrons):
               1          2          3          4          5          6
     1  C    6.065756  -0.314267  -0.114592   0.109410  -0.096934   0.117321
     2  C   -0.314267   5.601520   0.451666   0.108287   0.083468  -0.080940
     3  H   -0.114592   0.451666   0.536337   0.019533   0.010072  -0.006111
     4  C    0.109410   0.108287   0.019533   6.762373  -1.084018   0.079522
     5  C   -0.096934   0.083468   0.010072  -1.084018   6.881220   0.047719
     6  C    0.117321  -0.080940  -0.006111   0.079522   0.047719   5.227492
     7  H    0.024848  -0.010507   0.000114   0.237607   0.045426  -0.001542
     8  C    0.139510  -0.086846  -0.009313   0.069908   0.028342  -0.043419
     9  H    0.030665  -0.007106   0.001914   0.055436   0.229346  -0.009748
    10  C   -0.106446   0.018677   0.002982  -0.053371   0.044734   0.484397
    11  H   -0.002030  -0.001357   0.000002  -0.002527  -0.002997   0.298178
    12  H    0.002169  -0.001093  -0.000002  -0.002621  -0.002242   0.006931
    13  H   -0.090320   0.427662  -0.028414   0.008787   0.005010  -0.002966
    14  H   -0.099939   0.459969  -0.026025  -0.002208   0.013079  -0.010693
    15  H    0.004934   0.000448  -0.000000   0.003428   0.004700   0.014171
               7          8          9         10         11         12
     1  C    0.024848   0.139510   0.030665  -0.106446  -0.002030   0.002169
     2  C   -0.010507  -0.086846  -0.007106   0.018677  -0.001357  -0.001093
     3  H    0.000114  -0.009313   0.001914   0.002982   0.000002  -0.000002
     4  C    0.237607   0.069908   0.055436  -0.053371  -0.002527  -0.002621
     5  C    0.045426   0.028342   0.229346   0.044734  -0.002997  -0.002242
     6  C   -0.001542  -0.043419  -0.009748   0.484397   0.298178   0.006931
     7  H    0.569852  -0.008917  -0.000147   0.011085  -0.005323   0.000015
     8  C   -0.008917   5.269294  -0.010375   0.442051   0.007215   0.297515
     9  H   -0.000147  -0.010375   0.570163   0.010118   0.000015  -0.005545
    10  C    0.011085   0.442051   0.010118   4.974319   0.015918   0.011601
    11  H   -0.005323   0.007215   0.000015   0.015918   0.556076  -0.000152
    12  H    0.000015   0.297515  -0.005545   0.011601  -0.000152   0.556724
    13  H    0.000304  -0.004131   0.000425   0.004506   0.000002   0.000001
    14  H    0.002748  -0.006072   0.000115   0.000925  -0.000003   0.000002
    15  H   -0.000148   0.011988  -0.000154   0.269292  -0.005288  -0.005326
              13         14         15
     1  C   -0.090320  -0.099939   0.004934
     2  C    0.427662   0.459969   0.000448
     3  H   -0.028414  -0.026025  -0.000000
     4  C    0.008787  -0.002208   0.003428
     5  C    0.005010   0.013079   0.004700
     6  C   -0.002966  -0.010693   0.014171
     7  H    0.000304   0.002748  -0.000148
     8  C   -0.004131  -0.006072   0.011988
     9  H    0.000425   0.000115  -0.000154
    10  C    0.004506   0.000925   0.269292
    11  H    0.000002  -0.000003  -0.005288
    12  H    0.000001   0.000002  -0.005326
    13  H    0.534640  -0.027462   0.000000
    14  H   -0.027462   0.536678  -0.000000
    15  H    0.000000  -0.000000   0.564402
 Mulliken charges:
               1
     1  C    0.329915
     2  C   -0.649582
     3  H    0.161835
     4  C   -0.309547
     5  C   -0.206923
     6  C   -0.120312
     7  H    0.134584
     8  C   -0.096750
     9  H    0.134876
    10  C   -0.130788
    11  H    0.142270
    12  H    0.142024
    13  H    0.171957
    14  H    0.158886
    15  H    0.137554
 Sum of Mulliken charges =  -0.00000
 Mulliken charges with hydrogens summed into heavy atoms:
               1
     1  C    0.329915
     2  C   -0.156904
     4  C   -0.174963
     5  C   -0.072046
     6  C    0.021958
     8  C    0.045274
    10  C    0.006766
 Electronic spatial extent (au):  <R**2>=            721.5200
 Charge=             -0.0000 electrons
 Dipole moment (field-independent basis, Debye):
    X=              0.6000    Y=             -0.0330    Z=              0.1467  Tot=              0.6185
 Quadrupole moment (field-independent basis, Debye-Ang):
   XX=            -38.2944   YY=            -38.4072   ZZ=            -46.7886
   XY=             -0.0229   XZ=             -0.1451   YZ=              0.0071
 Traceless Quadrupole moment (field-independent basis, Debye-Ang):
   XX=              2.8690   YY=              2.7562   ZZ=             -5.6252
   XY=             -0.0229   XZ=             -0.1451   YZ=              0.0071
 Octapole moment (field-independent basis, Debye-Ang**2):
  XXX=             -2.2157  YYY=              0.0190  ZZZ=              0.9101  XYY=             -1.1141
  XXY=             -0.0960  XXZ=              0.8727  XZZ=              4.5005  YZZ=             -0.1995
  YYZ=             -0.3322  XYZ=             -0.0171
 Hexadecapole moment (field-independent basis, Debye-Ang**3):
 XXXX=           -617.2105 YYYY=           -291.5172 ZZZZ=            -66.1173 XXXY=              0.0242
 XXXZ=             -2.1349 YYYX=              0.4882 YYYZ=              0.0541 ZZZX=              1.5949
 ZZZY=             -0.0050 XXYY=           -147.6961 XXZZ=           -124.0096 YYZZ=            -71.3300
 XXYZ=              0.0595 YYXZ=             -2.0006 ZZXY=             -0.5711
 N-N= 2.683880490777D+02 E-N=-1.164641996106D+03  KE= 2.688134139710D+02
 1\1\GINC-NODE56\SP\RB3LYP\6-31+G(d,p)\C7H8\YANZ\22-Sep-2023\0\\# b3lyp
 /6-31+g(d,p) scrf=(iefpcm,solvent=acetonitrile)\\tmpdir/M3_ref_12.gjf\
 \0,1\C,0,5.053677,-2.721825,-0.34813\C,0,6.073683,-3.643374,-0.971696\
 H,0,5.69151,-4.095671,-1.891627\C,0,5.450644,-1.554672,0.323793\C,0,3.
 683245,-3.031431,-0.398492\C,0,4.51482,-0.715643,0.931809\H,0,6.505451
 ,-1.299006,0.375655\C,0,2.735119,-2.205131,0.203778\H,0,3.3548,-3.9322
 51,-0.909566\C,0,3.16165,-1.042641,0.853483\H,0,4.824778,0.17845,1.462
 445\H,0,1.681001,-2.465345,0.161342\H,0,6.3249,-4.461896,-0.285836\H,0
 ,7.000739,-3.112802,-1.205142\H,0,2.39099503,-0.40895372,1.38698451\\V
 ersion=ES64L-G16RevA.03\State=1-A\HF=-271.5902223\RMSD=4.464e-09\Dipol
 e=0.154504,-0.1796705,-0.0553548\Quadrupole=2.0183682,0.3721034,-2.390
 4715,0.2674171,-0.5085677,2.7996819\PG=C01 [X(C7H8)]\\@


 The arm of the moral universe is long, but it bends toward justice.
 -- Martin Luther King, Jr.
 Job cpu time:       0 days  0 hours  2 minutes 25.7 seconds.
 Elapsed time:       0 days  0 hours  0 minutes 38.8 seconds.
 File lengths (MBytes):  RWF=     44 Int=      0 D2E=      0 Chk=      3 Scr=      1
 Normal termination of Gaussian 16 at Fri Sep 22 17:04:07 2023.
