 Entering Gaussian System, Link 0=g16
 Initial command:
 /share/apps/gaussian/g16/l1.exe "/tmp/55648.mgr/Gau-179876.inp" -scrdir="/tmp/55648.mgr/"
 Entering Link 1 = /share/apps/gaussian/g16/l1.exe PID=    179877.
  
 Copyright (c) 1988,1990,1992,1993,1995,1998,2003,2009,2016,
            Gaussian, Inc.  All Rights Reserved.
  
 This is part of the Gaussian(R) 16 program.  It is based on
 the Gaussian(R) 09 system (copyright 2009, Gaussian, Inc.),
 the Gaussian(R) 03 system (copyright 2003, Gaussian, Inc.),
 the Gaussian(R) 98 system (copyright 1998, Gaussian, Inc.),
 the Gaussian(R) 94 system (copyright 1995, Gaussian, Inc.),
 the Gaussian 92(TM) system (copyright 1992, Gaussian, Inc.),
 the Gaussian 90(TM) system (copyright 1990, Gaussian, Inc.),
 the Gaussian 88(TM) system (copyright 1988, Gaussian, Inc.),
 the Gaussian 86(TM) system (copyright 1986, Carnegie Mellon
 University), and the Gaussian 82(TM) system (copyright 1983,
 Carnegie Mellon University). Gaussian is a federally registered
 trademark of Gaussian, Inc.
  
 This software contains proprietary and confidential information,
 including trade secrets, belonging to Gaussian, Inc.
  
 This software is provided under written license and may be
 used, copied, transmitted, or stored only in accord with that
 written license.
  
 The following legend is applicable only to US Government
 contracts under FAR:
  
                    RESTRICTED RIGHTS LEGEND
  
 Use, reproduction and disclosure by the US Government is
 subject to restrictions as set forth in subparagraphs (a)
 and (c) of the Commercial Computer Software - Restricted
 Rights clause in FAR 52.227-19.
  
 Gaussian, Inc.
 340 Quinnipiac St., Bldg. 40, Wallingford CT 06492
  
  
 ---------------------------------------------------------------
 Warning -- This program may not be used in any manner that
 competes with the business of Gaussian, Inc. or will provide
 assistance to any competitor of Gaussian, Inc.  The licensee
 of this program is prohibited from giving any competitor of
 Gaussian, Inc. access to this program.  By using this program,
 the user acknowledges that Gaussian, Inc. is engaged in the
 business of creating and licensing software in the field of
 computational chemistry and represents and warrants to the
 licensee that it is not a competitor of Gaussian, Inc. and that
 it will not use this program in any manner prohibited above.
 ---------------------------------------------------------------
  

 Cite this work as:
 Gaussian 16, Revision A.03,
 M. J. Frisch, G. W. Trucks, H. B. Schlegel, G. E. Scuseria, 
 M. A. Robb, J. R. Cheeseman, G. Scalmani, V. Barone, 
 G. A. Petersson, H. Nakatsuji, X. Li, M. Caricato, A. V. Marenich, 
 J. Bloino, B. G. Janesko, R. Gomperts, B. Mennucci, H. P. Hratchian, 
 J. V. Ortiz, A. F. Izmaylov, J. L. Sonnenberg, D. Williams-Young, 
 F. Ding, F. Lipparini, F. Egidi, J. Goings, B. Peng, A. Petrone, 
 T. Henderson, D. Ranasinghe, V. G. Zakrzewski, J. Gao, N. Rega, 
 G. Zheng, W. Liang, M. Hada, M. Ehara, K. Toyota, R. Fukuda, 
 J. Hasegawa, M. Ishida, T. Nakajima, Y. Honda, O. Kitao, H. Nakai, 
 T. Vreven, K. Throssell, J. A. Montgomery, Jr., J. E. Peralta, 
 F. Ogliaro, M. J. Bearpark, J. J. Heyd, E. N. Brothers, K. N. Kudin, 
 V. N. Staroverov, T. A. Keith, R. Kobayashi, J. Normand, 
 K. Raghavachari, A. P. Rendell, J. C. Burant, S. S. Iyengar, 
 J. Tomasi, M. Cossi, J. M. Millam, M. Klene, C. Adamo, R. Cammi, 
 J. W. Ochterski, R. L. Martin, K. Morokuma, O. Farkas, 
 J. B. Foresman, and D. J. Fox, Gaussian, Inc., Wallingford CT, 2016.
 
 ******************************************
 Gaussian 16:  ES64L-G16RevA.03 25-Dec-2016
                22-Sep-2023 
 ******************************************
 %nprocshared=4
 Will use up to    4 processors via shared memory.
 %mem=4GB
 ------------------------------------------------------
 # b3lyp/6-31+g(d,p) scrf=(iefpcm,solvent=acetonitrile)
 ------------------------------------------------------
 1/38=1,172=1/1;
 2/12=2,17=6,18=5,40=1/2;
 3/5=1,6=6,7=111,11=2,25=1,30=1,70=2201,72=2,74=-5/1,2,3;
 4//1;
 5/5=2,38=5,53=2/2;
 6/7=2,8=2,9=2,10=2,28=1/1;
 99/5=1,9=1/99;
 --------------------
 tmpdir/M3_ref_54.gjf
 --------------------
 Symbolic Z-matrix:
 Charge =  0 Multiplicity = 1
 C                    -2.28046  -0.33322   0.56154 
 S                    -3.83661   0.70238   0.57894 
 C                    -5.04005  -0.3325   -0.26783 
 C                    -5.18318  -0.21004  -1.65333 
 C                    -5.7945   -1.24518   0.4755 
 C                    -6.1104   -1.0247   -2.30654 
 H                    -4.59275   0.51388  -2.20413 
 C                    -6.71704  -2.05367  -0.19243 
 H                    -5.67248  -1.31171   1.55099 
 C                    -6.87286  -1.94426  -1.57826 
 H                    -6.23845  -0.93746  -3.38068 
 H                    -7.31484  -2.76337   0.37042 
 H                    -7.59263  -2.57454  -2.09133 
 H                    -1.40003   0.18694   0.89604 
 H                    -2.18579  -0.68057  -0.46778 
 H                    -2.53699  -1.16598   1.22537 
 O                    -3.61698   1.92367  -0.22715 
 O                    -4.26549   0.85346   1.99073 
 
                          Input orientation:                          
 ---------------------------------------------------------------------
 Center     Atomic      Atomic             Coordinates (Angstroms)
 Number     Number       Type             X           Y           Z
 ---------------------------------------------------------------------
      1          6           0       -2.280465   -0.333219    0.561543
      2         16           0       -3.836607    0.702377    0.578940
      3          6           0       -5.040051   -0.332504   -0.267830
      4          6           0       -5.183182   -0.210042   -1.653329
      5          6           0       -5.794502   -1.245176    0.475502
      6          6           0       -6.110395   -1.024696   -2.306535
      7          1           0       -4.592746    0.513878   -2.204127
      8          6           0       -6.717039   -2.053667   -0.192430
      9          1           0       -5.672484   -1.311713    1.550985
     10          6           0       -6.872857   -1.944259   -1.578262
     11          1           0       -6.238447   -0.937459   -3.380681
     12          1           0       -7.314841   -2.763369    0.370420
     13          1           0       -7.592633   -2.574536   -2.091326
     14          1           0       -1.400026    0.186942    0.896038
     15          1           0       -2.185793   -0.680573   -0.467782
     16          1           0       -2.536985   -1.165983    1.225374
     17          8           0       -3.616977    1.923666   -0.227148
     18          8           0       -4.265488    0.853458    1.990729
 ---------------------------------------------------------------------
                    Distance matrix (angstroms):
                    1          2          3          4          5
     1  C    0.000000
     2  S    1.869315   0.000000
     3  C    2.881523   1.798965   0.000000
     4  C    3.653299   2.762028   1.398246   0.000000
     5  C    3.631463   2.763515   1.398109   2.444818   0.000000
     6  C    4.834498   4.059416   2.404389   1.396447   2.808581
     7  H    3.703127   2.890111   2.160021   1.084460   3.423288
     8  C    4.817842   4.060502   2.404241   2.808184   1.396734
     9  H    3.666366   2.893419   2.160303   3.423554   1.084426
    10  C    5.316416   4.569137   2.770228   2.422425   2.422708
    11  H    5.618884   4.912891   3.389980   2.150922   3.893832
    12  H    5.593487   4.914569   3.389858   3.893457   2.151135
    13  H    6.346680   5.654751   3.855842   3.404134   3.404274
    14  H    1.075930   2.510607   3.856707   4.579207   4.641037
    15  H    1.090471   2.394445   2.882347   3.257493   3.772445
    16  H    1.095431   2.365938   3.031449   4.025309   3.343650
    17  O    2.738946   1.479717   2.667789   3.006609   3.908566
    18  O    2.718656   1.483210   2.665997   3.905426   3.006337
                    6          7          8          9         10
     6  C    0.000000
     7  H    2.163552   0.000000
     8  C    2.428217   3.892536   0.000000
     9  H    3.892892   4.312712   2.163582   0.000000
    10  C    1.399045   3.410726   1.398849   3.410747   0.000000
    11  H    1.085264   2.489777   3.411732   4.978123   2.159823
    12  H    3.411710   4.977795   1.085285   2.489654   2.159549
    13  H    2.155307   4.307011   2.154942   4.306753   1.085616
    14  H    5.823411   4.462216   5.871602   4.574802   6.373072
    15  H    4.347635   3.199223   4.742720   4.078084   4.979823
    16  H    5.026291   4.336999   4.502333   3.155727   5.221674
    17  O    4.385638   2.616882   5.042893   4.225464   5.233269
    18  O    5.039605   4.221283   4.384936   2.619347   5.230993
                   11         12         13         14         15
    11  H    0.000000
    12  H    4.308518   0.000000
    13  H    2.485212   2.484556   0.000000
    14  H    6.554763   6.630659   7.409351   0.000000
    15  H    4.997497   5.598907   5.954570   1.797224   0.000000
    16  H    5.913441   5.109843   6.208389   1.797649   1.796033
    17  O    5.000291   5.999965   6.286082   3.031935   2.981317
    18  O    5.995998   5.000539   6.283646   3.139023   3.566884
                   16         17         18
    16  H    0.000000
    17  O    3.580801   0.000000
    18  O    2.766159   2.546545   0.000000
 Stoichiometry    C7H8O2S
 Framework group  C1[X(C7H8O2S)]
 Deg. of freedom    48
 Full point group                 C1      NOp   1
 Largest Abelian subgroup         C1      NOp   1
 Largest concise Abelian subgroup C1      NOp   1
                         Standard orientation:                         
 ---------------------------------------------------------------------
 Center     Atomic      Atomic             Coordinates (Angstroms)
 Number     Number       Type             X           Y           Z
 ---------------------------------------------------------------------
      1          6           0       -1.998542   -0.040463    1.618394
      2         16           0       -1.472081    0.010944   -0.174519
      3          6           0        0.324675    0.003566   -0.085690
      4          6           0        1.005335    1.223791   -0.032358
      5          6           0        0.998942   -1.220888   -0.057677
      6          6           0        2.399369    1.211314    0.048741
      7          1           0        0.458023    2.159382   -0.066575
      8          6           0        2.393243   -1.216775    0.024618
      9          1           0        0.447566   -2.153073   -0.112406
     10          6           0        3.089992   -0.005013    0.078963
     11          1           0        2.943210    2.149810    0.084233
     12          1           0        2.932449   -2.158483    0.041556
     13          1           0        4.173804   -0.008580    0.141412
     14          1           0       -3.052546    0.109819    1.773686
     15          1           0       -1.397922    0.725814    2.109518
     16          1           0       -1.679697   -1.039402    1.935300
     17          8           0       -1.907888    1.292265   -0.772724
     18          8           0       -1.910821   -1.253962   -0.812823
 ---------------------------------------------------------------------
 Rotational constants (GHZ):           2.4380850           0.8085342           0.7171353
 Standard basis: 6-31+G(d,p) (6D, 7F)
 There are   234 symmetry adapted cartesian basis functions of A   symmetry.
 There are   234 symmetry adapted basis functions of A   symmetry.
   234 basis functions,   400 primitive gaussians,   234 cartesian basis functions
    41 alpha electrons       41 beta electrons
       nuclear repulsion energy       621.4193198655 Hartrees.
 NAtoms=   18 NActive=   18 NUniq=   18 SFac= 1.00D+00 NAtFMM=   60 NAOKFM=F Big=F
 Integral buffers will be    131072 words long.
 Raffenetti 2 integral format.
 Two-electron integral symmetry is turned on.
 ------------------------------------------------------------------------------
 Polarizable Continuum Model (PCM)
 =================================
 Model                : PCM.
 Atomic radii         : UFF (Universal Force Field).
 Polarization charges : Total charges.
 Charge compensation  : None.
 Solution method      : On-the-fly selection.
 Cavity type          : Scaled VdW (van der Waals Surface) (Alpha=1.100).
 Cavity algorithm     : GePol (No added spheres)
                        Default sphere list used, NSphG=   18.
                        Lebedev-Laikov grids with approx.  5.0 points / Ang**2.
                        Smoothing algorithm: York/Karplus (Gamma=1.0000).
                        Polarization charges: spherical gaussians, with
                                              point-specific exponents (IZeta= 3).
                        Self-potential: point-specific (ISelfS= 7).
                        Self-field    : sphere-specific E.n sum rule (ISelfD= 2).
 Solvent              : Acetonitrile, Eps=  35.688000 Eps(inf)=   1.806874
 ------------------------------------------------------------------------------
 Spheres list:
 ISph  on   Nord     Re0    Alpha      Xe            Ye            Ze
    1   C      1    1.9255  1.100     -1.998542     -0.040463      1.618394
    2   S      2    2.0175  1.100     -1.472081      0.010944     -0.174519
    3   C      3    1.9255  1.100      0.324675      0.003566     -0.085690
    4   C      4    1.9255  1.100      1.005335      1.223791     -0.032358
    5   C      5    1.9255  1.100      0.998942     -1.220888     -0.057677
    6   C      6    1.9255  1.100      2.399369      1.211314      0.048741
    7   H      7    1.4430  1.100      0.458023      2.159382     -0.066575
    8   C      8    1.9255  1.100      2.393243     -1.216775      0.024618
    9   H      9    1.4430  1.100      0.447566     -2.153073     -0.112406
   10   C     10    1.9255  1.100      3.089992     -0.005013      0.078963
   11   H     11    1.4430  1.100      2.943210      2.149810      0.084233
   12   H     12    1.4430  1.100      2.932449     -2.158483      0.041556
   13   H     13    1.4430  1.100      4.173804     -0.008580      0.141412
   14   H     14    1.4430  1.100     -3.052546      0.109819      1.773686
   15   H     15    1.4430  1.100     -1.397922      0.725814      2.109518
   16   H     16    1.4430  1.100     -1.679697     -1.039402      1.935300
   17   O     17    1.7500  1.100     -1.907888      1.292265     -0.772724
   18   O     18    1.7500  1.100     -1.910821     -1.253962     -0.812823
 ------------------------------------------------------------------------------
 One-electron integrals computed using PRISM.
 NBasis=   234 RedAO= T EigKep=  3.81D-06  NBF=   234
 NBsUse=   234 1.00D-06 EigRej= -1.00D+00 NBFU=   234
 ExpMin= 4.05D-02 ExpMax= 2.19D+04 ExpMxC= 3.30D+03 IAcc=3 IRadAn=         5 AccDes= 0.00D+00
 Harris functional with IExCor=  402 and IRadAn=       5 diagonalized for initial guess.
 HarFok:  IExCor=  402 AccDes= 0.00D+00 IRadAn=         5 IDoV= 1 UseB2=F ITyADJ=14
 ICtDFT=  3500011 ScaDFX=  1.000000  1.000000  1.000000  1.000000
 FoFCou: FMM=F IPFlag=           0 FMFlag=      100000 FMFlg1=           0
         NFxFlg=           0 DoJE=T BraDBF=F KetDBF=T FulRan=T
         wScrn=  0.000000 ICntrl=       500 IOpCl=  0 I1Cent=   200000004 NGrid=           0
         NMat0=    1 NMatS0=      1 NMatT0=    0 NMatD0=    1 NMtDS0=    0 NMtDT0=    0
 Petite list used in FoFCou.
 Keep R1 ints in memory in canonical form, NReq=384491478.
 Requested convergence on RMS density matrix=1.00D-08 within 128 cycles.
 Requested convergence on MAX density matrix=1.00D-06.
 Requested convergence on             energy=1.00D-06.
 No special actions if energy rises.
 Inv3:  Mode=1 IEnd=     7747347.
 Iteration    1 A*A^-1 deviation from unit magnitude is 4.66D-15 for   1598.
 Iteration    1 A*A^-1 deviation from orthogonality  is 2.37D-15 for   1474    720.
 Iteration    1 A^-1*A deviation from unit magnitude is 4.66D-15 for   1598.
 Iteration    1 A^-1*A deviation from orthogonality  is 1.83D-15 for   1607    730.
 Error on total polarization charges =  0.01527
 SCF Done:  E(RB3LYP) =  -820.177407038     A.U. after   14 cycles
            NFock= 14  Conv=0.98D-08     -V/T= 2.0070

 **********************************************************************

            Population analysis using the SCF density.

 **********************************************************************

 Orbital symmetries:
       Occupied  (A) (A) (A) (A) (A) (A) (A) (A) (A) (A) (A) (A)
                 (A) (A) (A) (A) (A) (A) (A) (A) (A) (A) (A) (A)
                 (A) (A) (A) (A) (A) (A) (A) (A) (A) (A) (A) (A)
                 (A) (A) (A) (A) (A)
       Virtual   (A) (A) (A) (A) (A) (A) (A) (A) (A) (A) (A) (A)
                 (A) (A) (A) (A) (A) (A) (A) (A) (A) (A) (A) (A)
                 (A) (A) (A) (A) (A) (A) (A) (A) (A) (A) (A) (A)
                 (A) (A) (A) (A) (A) (A) (A) (A) (A) (A) (A) (A)
                 (A) (A) (A) (A) (A) (A) (A) (A) (A) (A) (A) (A)
                 (A) (A) (A) (A) (A) (A) (A) (A) (A) (A) (A) (A)
                 (A) (A) (A) (A) (A) (A) (A) (A) (A) (A) (A) (A)
                 (A) (A) (A) (A) (A) (A) (A) (A) (A) (A) (A) (A)
                 (A) (A) (A) (A) (A) (A) (A) (A) (A) (A) (A) (A)
                 (A) (A) (A) (A) (A) (A) (A) (A) (A) (A) (A) (A)
                 (A) (A) (A) (A) (A) (A) (A) (A) (A) (A) (A) (A)
                 (A) (A) (A) (A) (A) (A) (A) (A) (A) (A) (A) (A)
                 (A) (A) (A) (A) (A) (A) (A) (A) (A) (A) (A) (A)
                 (A) (A) (A) (A) (A) (A) (A) (A) (A) (A) (A) (A)
                 (A) (A) (A) (A) (A) (A) (A) (A) (A) (A) (A) (A)
                 (A) (A) (A) (A) (A) (A) (A) (A) (A) (A) (A) (A)
                 (A)
 The electronic state is 1-A.
 Alpha  occ. eigenvalues --  -89.11397 -19.16323 -19.16206 -10.24351 -10.23141
 Alpha  occ. eigenvalues --  -10.22487 -10.22476 -10.21794 -10.21643 -10.21633
 Alpha  occ. eigenvalues --   -8.14226  -6.10694  -6.10598  -6.10506  -1.11340
 Alpha  occ. eigenvalues --   -1.01174  -0.88604  -0.79951  -0.77368  -0.76041
 Alpha  occ. eigenvalues --   -0.67019  -0.63215  -0.59871  -0.54765  -0.50125
 Alpha  occ. eigenvalues --   -0.49305  -0.48936  -0.46588  -0.46462  -0.44691
 Alpha  occ. eigenvalues --   -0.44141  -0.43601  -0.39437  -0.38601  -0.37064
 Alpha  occ. eigenvalues --   -0.34793  -0.33526  -0.31806  -0.30511  -0.28454
 Alpha  occ. eigenvalues --   -0.27911
 Alpha virt. eigenvalues --   -0.05534  -0.03511  -0.00374   0.01731   0.02550
 Alpha virt. eigenvalues --    0.02753   0.03574   0.04159   0.04296   0.04663
 Alpha virt. eigenvalues --    0.05880   0.06160   0.06761   0.07532   0.07850
 Alpha virt. eigenvalues --    0.08557   0.08679   0.09479   0.09776   0.11241
 Alpha virt. eigenvalues --    0.11540   0.12383   0.12596   0.13688   0.14155
 Alpha virt. eigenvalues --    0.14629   0.15152   0.15516   0.16777   0.17198
 Alpha virt. eigenvalues --    0.17858   0.18649   0.18953   0.19962   0.20763
 Alpha virt. eigenvalues --    0.21983   0.22227   0.23443   0.23686   0.24249
 Alpha virt. eigenvalues --    0.24355   0.25169   0.26061   0.26419   0.26570
 Alpha virt. eigenvalues --    0.26834   0.28429   0.30664   0.30799   0.31374
 Alpha virt. eigenvalues --    0.31793   0.33059   0.33317   0.33604   0.34974
 Alpha virt. eigenvalues --    0.36449   0.36625   0.41086   0.43049   0.49359
 Alpha virt. eigenvalues --    0.51040   0.53437   0.54434   0.58908   0.60607
 Alpha virt. eigenvalues --    0.62845   0.63599   0.66564   0.66920   0.67723
 Alpha virt. eigenvalues --    0.70486   0.72632   0.72855   0.73440   0.74665
 Alpha virt. eigenvalues --    0.74968   0.76003   0.77822   0.79279   0.82374
 Alpha virt. eigenvalues --    0.84619   0.85740   0.89227   0.89891   0.91427
 Alpha virt. eigenvalues --    0.91584   0.95389   0.95830   0.98015   0.98749
 Alpha virt. eigenvalues --    1.01916   1.02713   1.02889   1.06702   1.08248
 Alpha virt. eigenvalues --    1.09520   1.12149   1.14570   1.15679   1.19008
 Alpha virt. eigenvalues --    1.21191   1.25192   1.26357   1.28355   1.29023
 Alpha virt. eigenvalues --    1.30884   1.31812   1.32345   1.33414   1.35110
 Alpha virt. eigenvalues --    1.37460   1.37587   1.39535   1.42045   1.42894
 Alpha virt. eigenvalues --    1.44044   1.51858   1.52313   1.60262   1.69775
 Alpha virt. eigenvalues --    1.73557   1.77951   1.78539   1.80541   1.81995
 Alpha virt. eigenvalues --    1.82680   1.83927   1.88627   1.89382   1.93111
 Alpha virt. eigenvalues --    1.95111   1.95476   1.96545   1.98141   2.00055
 Alpha virt. eigenvalues --    2.00757   2.01581   2.04259   2.04966   2.05398
 Alpha virt. eigenvalues --    2.06292   2.07776   2.08535   2.10787   2.14105
 Alpha virt. eigenvalues --    2.24981   2.26513   2.27679   2.36414   2.36905
 Alpha virt. eigenvalues --    2.37000   2.37126   2.40025   2.40131   2.45077
 Alpha virt. eigenvalues --    2.49559   2.51297   2.52959   2.54524   2.57922
 Alpha virt. eigenvalues --    2.58013   2.61804   2.63514   2.64504   2.71806
 Alpha virt. eigenvalues --    2.74525   2.76982   2.81779   2.82820   2.83935
 Alpha virt. eigenvalues --    2.88148   2.95554   3.03858   3.16553   3.22845
 Alpha virt. eigenvalues --    3.25829   3.26709   3.31456   3.41150   3.41399
 Alpha virt. eigenvalues --    3.42740   3.51455   3.85071   3.99287   4.22800
 Alpha virt. eigenvalues --    4.25980   4.26854   4.28564   4.31955   4.42493
 Alpha virt. eigenvalues --    4.47917   4.48858   4.80302
          Condensed to atoms (all electrons):
               1          2          3          4          5          6
     1  C    6.107862  -0.475036  -0.287099   0.038520   0.085857   0.073702
     2  S   -0.475036  15.008366  -0.330325   0.216153   0.139808  -0.096074
     3  C   -0.287099  -0.330325  12.439976  -1.994791  -1.807236  -0.456603
     4  C    0.038520   0.216153  -1.994791  15.974159  -7.584832  -0.693134
     5  C    0.085857   0.139808  -1.807236  -7.584832  15.815947  -0.171520
     6  C    0.073702  -0.096074  -0.456603  -0.693134  -0.171520   6.787242
     7  H    0.003302  -0.011221   0.052993   0.202401   0.034517   0.031322
     8  C    0.078257  -0.124802  -0.420992  -0.240885  -0.725213  -0.109826
     9  H    0.002953  -0.011780   0.066218   0.044028   0.184211  -0.002795
    10  C    0.000234   0.025085  -0.888977   0.181335   0.166055   0.519587
    11  H    0.000131  -0.001506   0.022126  -0.000235  -0.008370   0.303563
    12  H    0.000127  -0.001484   0.020249  -0.009439  -0.000752   0.009748
    13  H   -0.000057   0.000359   0.003765   0.002822   0.004720   0.011580
    14  H    0.371027  -0.016416   0.018536   0.006417  -0.007534  -0.000150
    15  H    0.366056  -0.019928  -0.017026  -0.005916   0.000797   0.008541
    16  H    0.386754  -0.044330  -0.012816  -0.020847   0.019026   0.005181
    17  O   -0.106491   0.234133   0.149403  -0.445097   0.133743  -0.008241
    18  O   -0.130322   0.302610   0.149728   0.141427  -0.458757   0.063392
               7          8          9         10         11         12
     1  C    0.003302   0.078257   0.002953   0.000234   0.000131   0.000127
     2  S   -0.011221  -0.124802  -0.011780   0.025085  -0.001506  -0.001484
     3  C    0.052993  -0.420992   0.066218  -0.888977   0.022126   0.020249
     4  C    0.202401  -0.240885   0.044028   0.181335  -0.000235  -0.009439
     5  C    0.034517  -0.725213   0.184211   0.166055  -0.008370  -0.000752
     6  C    0.031322  -0.109826  -0.002795   0.519587   0.303563   0.009748
     7  H    0.519174  -0.002041  -0.000128  -0.000399  -0.005440   0.000011
     8  C   -0.002041   6.865595   0.029089   0.521849   0.008537   0.304726
     9  H   -0.000128   0.029089   0.519034  -0.000537   0.000011  -0.005427
    10  C   -0.000399   0.521849  -0.000537   5.319118  -0.007658  -0.006462
    11  H   -0.005440   0.008537   0.000011  -0.007658   0.534737  -0.000144
    12  H    0.000011   0.304726  -0.005427  -0.006462  -0.000144   0.534622
    13  H   -0.000129   0.010395  -0.000129   0.282349  -0.005216  -0.005220
    14  H   -0.000007  -0.000371  -0.000003  -0.000042  -0.000000  -0.000000
    15  H    0.000053   0.007870   0.000013  -0.000536  -0.000001  -0.000000
    16  H   -0.000002   0.009666  -0.000019  -0.001149   0.000000  -0.000001
    17  O    0.001763   0.069271   0.000934  -0.016696   0.000123   0.000021
    18  O    0.000899  -0.002318   0.001661  -0.016684   0.000021   0.000113
              13         14         15         16         17         18
     1  C   -0.000057   0.371027   0.366056   0.386754  -0.106491  -0.130322
     2  S    0.000359  -0.016416  -0.019928  -0.044330   0.234133   0.302610
     3  C    0.003765   0.018536  -0.017026  -0.012816   0.149403   0.149728
     4  C    0.002822   0.006417  -0.005916  -0.020847  -0.445097   0.141427
     5  C    0.004720  -0.007534   0.000797   0.019026   0.133743  -0.458757
     6  C    0.011580  -0.000150   0.008541   0.005181  -0.008241   0.063392
     7  H   -0.000129  -0.000007   0.000053  -0.000002   0.001763   0.000899
     8  C    0.010395  -0.000371   0.007870   0.009666   0.069271  -0.002318
     9  H   -0.000129  -0.000003   0.000013  -0.000019   0.000934   0.001661
    10  C    0.282349  -0.000042  -0.000536  -0.001149  -0.016696  -0.016684
    11  H   -0.005216  -0.000000  -0.000001   0.000000   0.000123   0.000021
    12  H   -0.005220  -0.000000  -0.000000  -0.000001   0.000021   0.000113
    13  H    0.537612   0.000000  -0.000000  -0.000000  -0.000001  -0.000001
    14  H    0.000000   0.450047  -0.017385  -0.018897  -0.004661  -0.003160
    15  H   -0.000000  -0.017385   0.480958  -0.021506  -0.002982   0.009396
    16  H   -0.000000  -0.018897  -0.021506   0.484367   0.010165  -0.005169
    17  O   -0.000001  -0.004661  -0.002982   0.010165   8.712264  -0.140819
    18  O   -0.000001  -0.003160   0.009396  -0.005169  -0.140819   8.686436
 Mulliken charges:
               1
     1  C   -0.515776
     2  S    1.206389
     3  C   -0.707128
     4  C    0.187914
     5  C    0.179533
     6  C   -0.275514
     7  H    0.172931
     8  C   -0.278807
     9  H    0.172666
    10  C   -0.076473
    11  H    0.159321
    12  H    0.159310
    13  H    0.157150
    14  H    0.222599
    15  H    0.211595
    16  H    0.209578
    17  O   -0.586832
    18  O   -0.598455
 Sum of Mulliken charges =  -0.00000
 Mulliken charges with hydrogens summed into heavy atoms:
               1
     1  C    0.127996
     2  S    1.206389
     3  C   -0.707128
     4  C    0.360845
     5  C    0.352199
     6  C   -0.116193
     8  C   -0.119497
    10  C    0.080677
    17  O   -0.586832
    18  O   -0.598455
 Electronic spatial extent (au):  <R**2>=           1662.2505
 Charge=             -0.0000 electrons
 Dipole moment (field-independent basis, Debye):
    X=              5.0714    Y=             -0.0942    Z=              5.3333  Tot=              7.3602
 Quadrupole moment (field-independent basis, Debye-Ang):
   XX=            -62.3151   YY=            -65.9278   ZZ=            -68.2104
   XY=              0.1757   XZ=            -10.5927   YZ=             -0.0099
 Traceless Quadrupole moment (field-independent basis, Debye-Ang):
   XX=              3.1693   YY=             -0.4434   ZZ=             -2.7260
   XY=              0.1757   XZ=            -10.5927   YZ=             -0.0099
 Octapole moment (field-independent basis, Debye-Ang**2):
  XXX=             28.6344  YYY=             -0.9478  ZZZ=              7.1567  XYY=             20.7771
  XXY=              0.0504  XXZ=             25.2478  XZZ=            -14.4535  YZZ=              0.3872
  YYZ=              7.5741  XYZ=              0.4991
 Hexadecapole moment (field-independent basis, Debye-Ang**3):
 XXXX=          -1373.9470 YYYY=           -424.8587 ZZZZ=           -249.6475 XXXY=             -1.9480
 XXXZ=            -45.3437 YYYX=              1.6789 YYYZ=             -0.3474 ZZZX=            -15.3873
 ZZZY=              0.5664 XXYY=           -331.8875 XXZZ=           -309.2600 YYZZ=           -126.3176
 XXYZ=              0.4467 YYXZ=            -12.5508 ZZXY=             -0.2898
 N-N= 6.214193198655D+02 E-N=-3.169408024489D+03  KE= 8.145143164541D+02
 1\1\GINC-NODE56\SP\RB3LYP\6-31+G(d,p)\C7H8O2S1\YANZ\22-Sep-2023\0\\# b
 3lyp/6-31+g(d,p) scrf=(iefpcm,solvent=acetonitrile)\\tmpdir/M3_ref_54.
 gjf\\0,1\C,0,-2.280465,-0.333219,0.561543\S,0,-3.836607,0.702377,0.578
 94\C,0,-5.040051,-0.332504,-0.26783\C,0,-5.183182,-0.210042,-1.653329\
 C,0,-5.794502,-1.245176,0.475502\C,0,-6.110395,-1.024696,-2.306535\H,0
 ,-4.592746,0.513878,-2.204127\C,0,-6.717039,-2.053667,-0.19243\H,0,-5.
 672484,-1.311713,1.550985\C,0,-6.872857,-1.944259,-1.578262\H,0,-6.238
 447,-0.937459,-3.380681\H,0,-7.314841,-2.763369,0.37042\H,0,-7.592633,
 -2.574536,-2.091326\H,0,-1.40002635,0.18694159,0.89603769\H,0,-2.18579
 3,-0.680573,-0.467782\H,0,-2.536985,-1.165983,1.225374\O,0,-3.616977,1
 .923666,-0.227148\O,0,-4.265488,0.853458,1.990729\\Version=ES64L-G16Re
 vA.03\State=1-A\HF=-820.177407\RMSD=9.831e-09\Dipole=-0.0059611,-2.608
 0522,-1.2582527\Quadrupole=7.5810909,-6.6292867,-0.9518042,0.6167045,2
 .6516166,-2.8893531\PG=C01 [X(C7H8O2S1)]\\@


 IT IS A SIMPLE TASK TO MAKE THINGS COMPLEX,
 BUT A COMPLEX TASK TO MAKE THEM SIMPLE.
 Job cpu time:       0 days  0 hours  4 minutes 55.4 seconds.
 Elapsed time:       0 days  0 hours  1 minutes 23.3 seconds.
 File lengths (MBytes):  RWF=     69 Int=      0 D2E=      0 Chk=      5 Scr=      1
 Normal termination of Gaussian 16 at Fri Sep 22 17:06:50 2023.
