 Entering Gaussian System, Link 0=g16
 Initial command:
 /share/apps/gaussian/g16/l1.exe "/tmp/55648.mgr/Gau-180190.inp" -scrdir="/tmp/55648.mgr/"
 Entering Link 1 = /share/apps/gaussian/g16/l1.exe PID=    180191.
  
 Copyright (c) 1988,1990,1992,1993,1995,1998,2003,2009,2016,
            Gaussian, Inc.  All Rights Reserved.
  
 This is part of the Gaussian(R) 16 program.  It is based on
 the Gaussian(R) 09 system (copyright 2009, Gaussian, Inc.),
 the Gaussian(R) 03 system (copyright 2003, Gaussian, Inc.),
 the Gaussian(R) 98 system (copyright 1998, Gaussian, Inc.),
 the Gaussian(R) 94 system (copyright 1995, Gaussian, Inc.),
 the Gaussian 92(TM) system (copyright 1992, Gaussian, Inc.),
 the Gaussian 90(TM) system (copyright 1990, Gaussian, Inc.),
 the Gaussian 88(TM) system (copyright 1988, Gaussian, Inc.),
 the Gaussian 86(TM) system (copyright 1986, Carnegie Mellon
 University), and the Gaussian 82(TM) system (copyright 1983,
 Carnegie Mellon University). Gaussian is a federally registered
 trademark of Gaussian, Inc.
  
 This software contains proprietary and confidential information,
 including trade secrets, belonging to Gaussian, Inc.
  
 This software is provided under written license and may be
 used, copied, transmitted, or stored only in accord with that
 written license.
  
 The following legend is applicable only to US Government
 contracts under FAR:
  
                    RESTRICTED RIGHTS LEGEND
  
 Use, reproduction and disclosure by the US Government is
 subject to restrictions as set forth in subparagraphs (a)
 and (c) of the Commercial Computer Software - Restricted
 Rights clause in FAR 52.227-19.
  
 Gaussian, Inc.
 340 Quinnipiac St., Bldg. 40, Wallingford CT 06492
  
  
 ---------------------------------------------------------------
 Warning -- This program may not be used in any manner that
 competes with the business of Gaussian, Inc. or will provide
 assistance to any competitor of Gaussian, Inc.  The licensee
 of this program is prohibited from giving any competitor of
 Gaussian, Inc. access to this program.  By using this program,
 the user acknowledges that Gaussian, Inc. is engaged in the
 business of creating and licensing software in the field of
 computational chemistry and represents and warrants to the
 licensee that it is not a competitor of Gaussian, Inc. and that
 it will not use this program in any manner prohibited above.
 ---------------------------------------------------------------
  

 Cite this work as:
 Gaussian 16, Revision A.03,
 M. J. Frisch, G. W. Trucks, H. B. Schlegel, G. E. Scuseria, 
 M. A. Robb, J. R. Cheeseman, G. Scalmani, V. Barone, 
 G. A. Petersson, H. Nakatsuji, X. Li, M. Caricato, A. V. Marenich, 
 J. Bloino, B. G. Janesko, R. Gomperts, B. Mennucci, H. P. Hratchian, 
 J. V. Ortiz, A. F. Izmaylov, J. L. Sonnenberg, D. Williams-Young, 
 F. Ding, F. Lipparini, F. Egidi, J. Goings, B. Peng, A. Petrone, 
 T. Henderson, D. Ranasinghe, V. G. Zakrzewski, J. Gao, N. Rega, 
 G. Zheng, W. Liang, M. Hada, M. Ehara, K. Toyota, R. Fukuda, 
 J. Hasegawa, M. Ishida, T. Nakajima, Y. Honda, O. Kitao, H. Nakai, 
 T. Vreven, K. Throssell, J. A. Montgomery, Jr., J. E. Peralta, 
 F. Ogliaro, M. J. Bearpark, J. J. Heyd, E. N. Brothers, K. N. Kudin, 
 V. N. Staroverov, T. A. Keith, R. Kobayashi, J. Normand, 
 K. Raghavachari, A. P. Rendell, J. C. Burant, S. S. Iyengar, 
 J. Tomasi, M. Cossi, J. M. Millam, M. Klene, C. Adamo, R. Cammi, 
 J. W. Ochterski, R. L. Martin, K. Morokuma, O. Farkas, 
 J. B. Foresman, and D. J. Fox, Gaussian, Inc., Wallingford CT, 2016.
 
 ******************************************
 Gaussian 16:  ES64L-G16RevA.03 25-Dec-2016
                22-Sep-2023 
 ******************************************
 %nprocshared=4
 Will use up to    4 processors via shared memory.
 %mem=4GB
 ------------------------------------------------------
 # b3lyp/6-31+g(d,p) scrf=(iefpcm,solvent=acetonitrile)
 ------------------------------------------------------
 1/38=1,172=1/1;
 2/12=2,17=6,18=5,40=1/2;
 3/5=1,6=6,7=111,11=2,25=1,30=1,70=2201,72=2,74=-5/1,2,3;
 4//1;
 5/5=2,38=5,53=2/2;
 6/7=2,8=2,9=2,10=2,28=1/1;
 99/5=1,9=1/99;
 --------------------
 tmpdir/M3_ref_56.gjf
 --------------------
 Symbolic Z-matrix:
 Charge =  0 Multiplicity = 1
 O                    -3.61698   1.92367  -0.22715 
 S                    -3.83661   0.70238   0.57894 
 C                    -5.04005  -0.3325   -0.26783 
 C                    -5.18318  -0.21004  -1.65333 
 C                    -5.7945   -1.24518   0.4755 
 C                    -6.1104   -1.0247   -2.30654 
 H                    -4.59275   0.51388  -2.20413 
 C                    -6.71704  -2.05367  -0.19243 
 H                    -5.67248  -1.31171   1.55099 
 C                    -6.87286  -1.94426  -1.57826 
 H                    -6.23845  -0.93746  -3.38068 
 H                    -7.31484  -2.76337   0.37042 
 H                    -7.59263  -2.57454  -2.09133 
 H                    -2.65149  -0.08631   0.56569 
 O                    -4.26549   0.85346   1.99073 
 
                          Input orientation:                          
 ---------------------------------------------------------------------
 Center     Atomic      Atomic             Coordinates (Angstroms)
 Number     Number       Type             X           Y           Z
 ---------------------------------------------------------------------
      1          8           0       -3.616977    1.923666   -0.227148
      2         16           0       -3.836607    0.702377    0.578940
      3          6           0       -5.040051   -0.332504   -0.267830
      4          6           0       -5.183182   -0.210042   -1.653329
      5          6           0       -5.794502   -1.245176    0.475502
      6          6           0       -6.110395   -1.024696   -2.306535
      7          1           0       -4.592746    0.513878   -2.204127
      8          6           0       -6.717039   -2.053667   -0.192430
      9          1           0       -5.672484   -1.311713    1.550985
     10          6           0       -6.872857   -1.944259   -1.578262
     11          1           0       -6.238447   -0.937459   -3.380681
     12          1           0       -7.314841   -2.763369    0.370420
     13          1           0       -7.592633   -2.574536   -2.091326
     14          1           0       -2.651488   -0.086307    0.565691
     15          8           0       -4.265488    0.853458    1.990729
 ---------------------------------------------------------------------
                    Distance matrix (angstroms):
                    1          2          3          4          5
     1  O    0.000000
     2  S    1.479717   0.000000
     3  C    2.667789   1.798965   0.000000
     4  C    3.006609   2.762028   1.398246   0.000000
     5  C    3.908566   2.763515   1.398109   2.444818   0.000000
     6  C    4.385638   4.059416   2.404389   1.396447   2.808581
     7  H    2.616882   2.890111   2.160021   1.084460   3.423288
     8  C    5.042893   4.060502   2.404241   2.808184   1.396734
     9  H    4.225464   2.893419   2.160303   3.423554   1.084426
    10  C    5.233269   4.569137   2.770228   2.422425   2.422708
    11  H    5.000291   4.912891   3.389980   2.150922   3.893832
    12  H    5.999965   4.914569   3.389858   3.893457   2.151135
    13  H    6.286082   5.654751   3.855842   3.404134   3.404274
    14  H    2.366591   1.423624   2.541772   3.368803   3.351067
    15  O    2.546545   1.483210   2.665997   3.905426   3.006337
                    6          7          8          9         10
     6  C    0.000000
     7  H    2.163552   0.000000
     8  C    2.428217   3.892536   0.000000
     9  H    3.892892   4.312712   2.163582   0.000000
    10  C    1.399045   3.410726   1.398849   3.410747   0.000000
    11  H    1.085264   2.489777   3.411732   4.978123   2.159823
    12  H    3.411710   4.977795   1.085285   2.489654   2.159549
    13  H    2.155307   4.307011   2.154942   4.306753   1.085616
    14  H    4.592852   3.435199   4.579733   3.405707   5.086106
    15  O    5.039605   4.221283   4.384936   2.619347   5.230993
                   11         12         13         14         15
    11  H    0.000000
    12  H    4.308518   0.000000
    13  H    2.485212   2.484556   0.000000
    14  H    5.400424   5.380674   6.137258   0.000000
    15  O    5.995998   5.000539   6.283646   2.349231   0.000000
 Stoichiometry    C6H6O2S
 Framework group  C1[X(C6H6O2S)]
 Deg. of freedom    39
 Full point group                 C1      NOp   1
 Largest Abelian subgroup         C1      NOp   1
 Largest concise Abelian subgroup C1      NOp   1
                         Standard orientation:                         
 ---------------------------------------------------------------------
 Center     Atomic      Atomic             Coordinates (Angstroms)
 Number     Number       Type             X           Y           Z
 ---------------------------------------------------------------------
      1          8           0       -2.187510    1.273546   -0.330975
      2         16           0       -1.676850    0.000530    0.224200
      3          6           0        0.117436   -0.000525    0.094538
      4          6           0        0.794253    1.222235    0.051325
      5          6           0        0.795420   -1.222581    0.054212
      6          6           0        2.187877    1.214805   -0.037110
      7          1           0        0.242785    2.155751    0.073316
      8          6           0        2.189382   -1.213409   -0.033254
      9          1           0        0.245517   -2.156958    0.077148
     10          6           0        2.882328    0.000949   -0.077318
     11          1           0        2.727942    2.155247   -0.078298
     12          1           0        2.730736   -2.153265   -0.071343
     13          1           0        3.965722    0.001299   -0.146740
     14          1           0       -1.909114   -0.023978    1.628535
     15          8           0       -2.184262   -1.272973   -0.342047
 ---------------------------------------------------------------------
 Rotational constants (GHZ):           3.3690592           0.9810042           0.7789237
 Standard basis: 6-31+G(d,p) (6D, 7F)
 There are   205 symmetry adapted cartesian basis functions of A   symmetry.
 There are   205 symmetry adapted basis functions of A   symmetry.
   205 basis functions,   354 primitive gaussians,   205 cartesian basis functions
    37 alpha electrons       37 beta electrons
       nuclear repulsion energy       515.7127778908 Hartrees.
 NAtoms=   15 NActive=   15 NUniq=   15 SFac= 1.00D+00 NAtFMM=   60 NAOKFM=F Big=F
 Integral buffers will be    131072 words long.
 Raffenetti 2 integral format.
 Two-electron integral symmetry is turned on.
 ------------------------------------------------------------------------------
 Polarizable Continuum Model (PCM)
 =================================
 Model                : PCM.
 Atomic radii         : UFF (Universal Force Field).
 Polarization charges : Total charges.
 Charge compensation  : None.
 Solution method      : On-the-fly selection.
 Cavity type          : Scaled VdW (van der Waals Surface) (Alpha=1.100).
 Cavity algorithm     : GePol (No added spheres)
                        Default sphere list used, NSphG=   15.
                        Lebedev-Laikov grids with approx.  5.0 points / Ang**2.
                        Smoothing algorithm: York/Karplus (Gamma=1.0000).
                        Polarization charges: spherical gaussians, with
                                              point-specific exponents (IZeta= 3).
                        Self-potential: point-specific (ISelfS= 7).
                        Self-field    : sphere-specific E.n sum rule (ISelfD= 2).
 Solvent              : Acetonitrile, Eps=  35.688000 Eps(inf)=   1.806874
 ------------------------------------------------------------------------------
 Spheres list:
 ISph  on   Nord     Re0    Alpha      Xe            Ye            Ze
    1   O      1    1.7500  1.100     -2.187510      1.273546     -0.330975
    2   S      2    2.0175  1.100     -1.676850      0.000530      0.224200
    3   C      3    1.9255  1.100      0.117436     -0.000525      0.094538
    4   C      4    1.9255  1.100      0.794253      1.222235      0.051325
    5   C      5    1.9255  1.100      0.795420     -1.222581      0.054212
    6   C      6    1.9255  1.100      2.187877      1.214805     -0.037110
    7   H      7    1.4430  1.100      0.242785      2.155751      0.073316
    8   C      8    1.9255  1.100      2.189382     -1.213409     -0.033254
    9   H      9    1.4430  1.100      0.245517     -2.156958      0.077148
   10   C     10    1.9255  1.100      2.882328      0.000949     -0.077318
   11   H     11    1.4430  1.100      2.727942      2.155247     -0.078298
   12   H     12    1.4430  1.100      2.730736     -2.153265     -0.071343
   13   H     13    1.4430  1.100      3.965722      0.001299     -0.146740
   14   H     14    1.4430  1.100     -1.909114     -0.023978      1.628535
   15   O     15    1.7500  1.100     -2.184262     -1.272973     -0.342047
 ------------------------------------------------------------------------------
 One-electron integrals computed using PRISM.
 NBasis=   205 RedAO= T EigKep=  5.10D-06  NBF=   205
 NBsUse=   205 1.00D-06 EigRej= -1.00D+00 NBFU=   205
 ExpMin= 4.05D-02 ExpMax= 2.19D+04 ExpMxC= 3.30D+03 IAcc=3 IRadAn=         5 AccDes= 0.00D+00
 Harris functional with IExCor=  402 and IRadAn=       5 diagonalized for initial guess.
 HarFok:  IExCor=  402 AccDes= 0.00D+00 IRadAn=         5 IDoV= 1 UseB2=F ITyADJ=14
 ICtDFT=  3500011 ScaDFX=  1.000000  1.000000  1.000000  1.000000
 FoFCou: FMM=F IPFlag=           0 FMFlag=      100000 FMFlg1=           0
         NFxFlg=           0 DoJE=T BraDBF=F KetDBF=T FulRan=T
         wScrn=  0.000000 ICntrl=       500 IOpCl=  0 I1Cent=   200000004 NGrid=           0
         NMat0=    1 NMatS0=      1 NMatT0=    0 NMatD0=    1 NMtDS0=    0 NMtDT0=    0
 Petite list used in FoFCou.
 Keep R1 ints in memory in canonical form, NReq=227304188.
 Requested convergence on RMS density matrix=1.00D-08 within 128 cycles.
 Requested convergence on MAX density matrix=1.00D-06.
 Requested convergence on             energy=1.00D-06.
 No special actions if energy rises.
 Inv3:  Mode=1 IEnd=     6220800.
 Iteration    1 A*A^-1 deviation from unit magnitude is 5.44D-15 for    381.
 Iteration    1 A*A^-1 deviation from orthogonality  is 1.86D-15 for   1439    643.
 Iteration    1 A^-1*A deviation from unit magnitude is 5.33D-15 for    370.
 Iteration    1 A^-1*A deviation from orthogonality  is 2.32D-15 for   1267    113.
 Error on total polarization charges =  0.01520
 SCF Done:  E(RB3LYP) =  -780.843832337     A.U. after   14 cycles
            NFock= 14  Conv=0.16D-08     -V/T= 2.0069

 **********************************************************************

            Population analysis using the SCF density.

 **********************************************************************

 Orbital symmetries:
       Occupied  (A) (A) (A) (A) (A) (A) (A) (A) (A) (A) (A) (A)
                 (A) (A) (A) (A) (A) (A) (A) (A) (A) (A) (A) (A)
                 (A) (A) (A) (A) (A) (A) (A) (A) (A) (A) (A) (A)
                 (A)
       Virtual   (A) (A) (A) (A) (A) (A) (A) (A) (A) (A) (A) (A)
                 (A) (A) (A) (A) (A) (A) (A) (A) (A) (A) (A) (A)
                 (A) (A) (A) (A) (A) (A) (A) (A) (A) (A) (A) (A)
                 (A) (A) (A) (A) (A) (A) (A) (A) (A) (A) (A) (A)
                 (A) (A) (A) (A) (A) (A) (A) (A) (A) (A) (A) (A)
                 (A) (A) (A) (A) (A) (A) (A) (A) (A) (A) (A) (A)
                 (A) (A) (A) (A) (A) (A) (A) (A) (A) (A) (A) (A)
                 (A) (A) (A) (A) (A) (A) (A) (A) (A) (A) (A) (A)
                 (A) (A) (A) (A) (A) (A) (A) (A) (A) (A) (A) (A)
                 (A) (A) (A) (A) (A) (A) (A) (A) (A) (A) (A) (A)
                 (A) (A) (A) (A) (A) (A) (A) (A) (A) (A) (A) (A)
                 (A) (A) (A) (A) (A) (A) (A) (A) (A) (A) (A) (A)
                 (A) (A) (A) (A) (A) (A) (A) (A) (A) (A) (A) (A)
                 (A) (A) (A) (A) (A) (A) (A) (A) (A) (A) (A) (A)
 The electronic state is 1-A.
 Alpha  occ. eigenvalues --  -89.12273 -19.17304 -19.17120 -10.24643 -10.22683
 Alpha  occ. eigenvalues --  -10.22677 -10.21928 -10.21752 -10.21743  -8.15123
 Alpha  occ. eigenvalues --   -6.11583  -6.11490  -6.11418  -1.12000  -1.01899
 Alpha  occ. eigenvalues --   -0.88742  -0.79419  -0.77494  -0.70614  -0.63338
 Alpha  occ. eigenvalues --   -0.61882  -0.56028  -0.52559  -0.49469  -0.48859
 Alpha  occ. eigenvalues --   -0.46466  -0.46354  -0.44805  -0.39662  -0.38904
 Alpha  occ. eigenvalues --   -0.37193  -0.35689  -0.34480  -0.32766  -0.31709
 Alpha  occ. eigenvalues --   -0.28725  -0.28012
 Alpha virt. eigenvalues --   -0.05932  -0.03646  -0.01038   0.00407   0.01876
 Alpha virt. eigenvalues --    0.01925   0.03280   0.03884   0.04818   0.06315
 Alpha virt. eigenvalues --    0.06479   0.06942   0.07781   0.08415   0.08633
 Alpha virt. eigenvalues --    0.09059   0.09129   0.11341   0.12035   0.13094
 Alpha virt. eigenvalues --    0.13384   0.13816   0.14444   0.14613   0.15779
 Alpha virt. eigenvalues --    0.16692   0.17797   0.18761   0.19265   0.19487
 Alpha virt. eigenvalues --    0.19727   0.20995   0.21562   0.22664   0.22759
 Alpha virt. eigenvalues --    0.24013   0.24658   0.25400   0.25708   0.26388
 Alpha virt. eigenvalues --    0.27059   0.28668   0.29212   0.29492   0.31010
 Alpha virt. eigenvalues --    0.31746   0.33066   0.33238   0.34037   0.36152
 Alpha virt. eigenvalues --    0.36900   0.37437   0.47877   0.48938   0.52548
 Alpha virt. eigenvalues --    0.54836   0.58621   0.61140   0.63154   0.65200
 Alpha virt. eigenvalues --    0.65526   0.66992   0.67431   0.70330   0.71396
 Alpha virt. eigenvalues --    0.72178   0.74461   0.74786   0.75935   0.77734
 Alpha virt. eigenvalues --    0.81195   0.84095   0.87532   0.89381   0.89543
 Alpha virt. eigenvalues --    0.91278   0.94581   0.95479   0.98308   1.01105
 Alpha virt. eigenvalues --    1.01304   1.06207   1.07168   1.07871   1.12997
 Alpha virt. eigenvalues --    1.13828   1.14266   1.18980   1.20141   1.24343
 Alpha virt. eigenvalues --    1.24468   1.26492   1.27912   1.29003   1.29324
 Alpha virt. eigenvalues --    1.30803   1.32207   1.34554   1.37282   1.39116
 Alpha virt. eigenvalues --    1.39432   1.42289   1.43074   1.51437   1.56093
 Alpha virt. eigenvalues --    1.59933   1.74829   1.75792   1.79386   1.79573
 Alpha virt. eigenvalues --    1.81594   1.81826   1.83809   1.87608   1.88214
 Alpha virt. eigenvalues --    1.93084   1.94673   1.94991   1.95234   1.96703
 Alpha virt. eigenvalues --    1.98570   2.01172   2.03946   2.05652   2.07856
 Alpha virt. eigenvalues --    2.10890   2.19733   2.22377   2.26046   2.26853
 Alpha virt. eigenvalues --    2.32112   2.36557   2.36813   2.36880   2.39536
 Alpha virt. eigenvalues --    2.44782   2.49174   2.50743   2.51110   2.54123
 Alpha virt. eigenvalues --    2.57853   2.60310   2.61680   2.63459   2.65070
 Alpha virt. eigenvalues --    2.71668   2.74110   2.78024   2.83681   2.86442
 Alpha virt. eigenvalues --    2.95008   3.03521   3.16424   3.25629   3.26600
 Alpha virt. eigenvalues --    3.31333   3.41001   3.51172   3.84944   3.95982
 Alpha virt. eigenvalues --    4.10157   4.12426   4.26131   4.27125   4.27159
 Alpha virt. eigenvalues --    4.43536   4.46978   4.79572
          Condensed to atoms (all electrons):
               1          2          3          4          5          6
     1  O    8.717265   0.174674   0.039206  -0.369407   0.243739  -0.040649
     2  S    0.174674  14.653305  -1.041521   0.416716   0.499647  -0.335554
     3  C    0.039206  -1.041521  10.189503  -1.093260  -1.256058   0.218258
     4  C   -0.369407   0.416716  -1.093260  11.919933  -3.392795  -1.614291
     5  C    0.243739   0.499647  -1.256058  -3.392795  12.038782  -0.793109
     6  C   -0.040649  -0.335554   0.218258  -1.614291  -0.793109   7.667789
     7  H    0.000789   0.003941   0.036179   0.234158   0.042002   0.000446
     8  C    0.018887  -0.326705   0.245065  -0.744573  -1.661297   0.615924
     9  H    0.000838   0.003791   0.038727   0.043785   0.232013  -0.009075
    10  C    0.003092   0.128678  -0.716216   0.278855   0.345360   0.113979
    11  H    0.000182   0.000716   0.001329   0.024334  -0.006086   0.275201
    12  H    0.000022   0.000744   0.000719  -0.006743   0.024138   0.001018
    13  H   -0.000002  -0.000237   0.006420  -0.004548  -0.004686   0.023543
    14  H   -0.069446   0.425427  -0.218107   0.024175   0.067541  -0.017135
    15  O   -0.089604   0.182243   0.045150   0.250339  -0.379629   0.018943
               7          8          9         10         11         12
     1  O    0.000789   0.018887   0.000838   0.003092   0.000182   0.000022
     2  S    0.003941  -0.326705   0.003791   0.128678   0.000716   0.000744
     3  C    0.036179   0.245065   0.038727  -0.716216   0.001329   0.000719
     4  C    0.234158  -0.744573   0.043785   0.278855   0.024334  -0.006743
     5  C    0.042002  -1.661297   0.232013   0.345360  -0.006086   0.024138
     6  C    0.000446   0.615924  -0.009075   0.113979   0.275201   0.001018
     7  H    0.518994  -0.008979  -0.000127   0.004051  -0.005502   0.000011
     8  C   -0.008979   7.653880  -0.001113   0.092536   0.000386   0.275906
     9  H   -0.000127  -0.001113   0.518794   0.003816   0.000011  -0.005501
    10  C    0.004051   0.092536   0.003816   5.568980   0.020339   0.020481
    11  H   -0.005502   0.000386   0.000011   0.020339   0.534468  -0.000142
    12  H    0.000011   0.275906  -0.005501   0.020481  -0.000142   0.534394
    13  H   -0.000129   0.023193  -0.000129   0.272257  -0.005257  -0.005262
    14  H   -0.000074  -0.014016  -0.000088   0.012676   0.000003   0.000003
    15  O    0.000828  -0.042450   0.000779   0.002919   0.000022   0.000181
              13         14         15
     1  O   -0.000002  -0.069446  -0.089604
     2  S   -0.000237   0.425427   0.182243
     3  C    0.006420  -0.218107   0.045150
     4  C   -0.004548   0.024175   0.250339
     5  C   -0.004686   0.067541  -0.379629
     6  C    0.023543  -0.017135   0.018943
     7  H   -0.000129  -0.000074   0.000828
     8  C    0.023193  -0.014016  -0.042450
     9  H   -0.000129  -0.000088   0.000779
    10  C    0.272257   0.012676   0.002919
    11  H   -0.005257   0.000003   0.000022
    12  H   -0.005262   0.000003   0.000181
    13  H    0.536435  -0.000000  -0.000002
    14  H   -0.000000   0.765833  -0.070203
    15  O   -0.000002  -0.070203   8.718399
 Mulliken charges:
               1
     1  O   -0.629586
     2  S    1.214136
     3  C   -0.495396
     4  C    0.033325
     5  C    0.000438
     6  C   -0.125288
     7  H    0.173413
     8  C   -0.126644
     9  H    0.173478
    10  C   -0.151803
    11  H    0.159996
    12  H    0.160030
    13  H    0.158404
    14  H    0.093412
    15  O   -0.637915
 Sum of Mulliken charges =  -0.00000
 Mulliken charges with hydrogens summed into heavy atoms:
               1
     1  O   -0.629586
     2  S    1.307548
     3  C   -0.495396
     4  C    0.206738
     5  C    0.173916
     6  C    0.034708
     8  C    0.033386
    10  C    0.006601
    15  O   -0.637915
 Electronic spatial extent (au):  <R**2>=           1407.5300
 Charge=             -0.0000 electrons
 Dipole moment (field-independent basis, Debye):
    X=              5.9964    Y=              0.0245    Z=              3.4704  Tot=              6.9283
 Quadrupole moment (field-independent basis, Debye-Ang):
   XX=            -61.4952   YY=            -59.5759   ZZ=            -60.1855
   XY=             -0.0535   XZ=             -7.9611   YZ=             -0.1002
 Traceless Quadrupole moment (field-independent basis, Debye-Ang):
   XX=             -1.0763   YY=              0.8429   ZZ=              0.2334
   XY=             -0.0535   XZ=             -7.9611   YZ=             -0.1002
 Octapole moment (field-independent basis, Debye-Ang**2):
  XXX=             43.3842  YYY=              0.1132  ZZZ=              5.0030  XYY=             21.5940
  XXY=              0.1043  XXZ=             13.4944  XZZ=            -16.4653  YZZ=              0.0052
  YYZ=              2.9303  XYZ=              0.1538
 Hexadecapole moment (field-independent basis, Debye-Ang**3):
 XXXX=          -1279.9133 YYYY=           -409.8078 ZZZZ=            -89.5059 XXXY=             -0.3734
 XXXZ=            -42.3644 YYYX=             -0.2671 YYYZ=             -0.1685 ZZZX=             -9.2950
 ZZZY=             -0.1412 XXYY=           -310.2132 XXZZ=           -246.3748 YYZZ=            -95.8489
 XXYZ=             -0.4567 YYXZ=             -7.1672 ZZXY=             -0.0146
 N-N= 5.157127778908D+02 E-N=-2.866905987770D+03  KE= 7.755149328833D+02
 1\1\GINC-NODE56\SP\RB3LYP\6-31+G(d,p)\C6H6O2S1\YANZ\22-Sep-2023\0\\# b
 3lyp/6-31+g(d,p) scrf=(iefpcm,solvent=acetonitrile)\\tmpdir/M3_ref_56.
 gjf\\0,1\O,0,-3.616977,1.923666,-0.227148\S,0,-3.836607,0.702377,0.578
 94\C,0,-5.040051,-0.332504,-0.26783\C,0,-5.183182,-0.210042,-1.653329\
 C,0,-5.794502,-1.245176,0.475502\C,0,-6.110395,-1.024696,-2.306535\H,0
 ,-4.592746,0.513878,-2.204127\C,0,-6.717039,-2.053667,-0.19243\H,0,-5.
 672484,-1.311713,1.550985\C,0,-6.872857,-1.944259,-1.578262\H,0,-6.238
 447,-0.937459,-3.380681\H,0,-7.314841,-2.763369,0.37042\H,0,-7.592633,
 -2.574536,-2.091326\H,0,-2.65148816,-0.08630702,0.56569088\O,0,-4.2654
 88,0.853458,1.990729\\Version=ES64L-G16RevA.03\State=1-A\HF=-780.84383
 23\RMSD=1.617e-09\Dipole=-0.4333562,-2.3657524,-1.2826978\Quadrupole=5
 .2637228,-4.9190803,-0.3446425,0.035581,1.3870698,-2.7631469\PG=C01 [X
 (C6H6O2S1)]\\@


 IT IS BY LOGIC THAT WE PROVE, BUT BY INTUITION THAT WE DISCOVER.
     -- J.H.POINCARE (1854-1912)
 Job cpu time:       0 days  0 hours  3 minutes  2.0 seconds.
 Elapsed time:       0 days  0 hours  0 minutes 49.7 seconds.
 File lengths (MBytes):  RWF=     53 Int=      0 D2E=      0 Chk=      4 Scr=      1
 Normal termination of Gaussian 16 at Fri Sep 22 17:07:44 2023.
