 Entering Gaussian System, Link 0=g16
 Initial command:
 /share/apps/gaussian/g16/l1.exe "/tmp/55648.mgr/Gau-178268.inp" -scrdir="/tmp/55648.mgr/"
 Entering Link 1 = /share/apps/gaussian/g16/l1.exe PID=    178274.
  
 Copyright (c) 1988,1990,1992,1993,1995,1998,2003,2009,2016,
            Gaussian, Inc.  All Rights Reserved.
  
 This is part of the Gaussian(R) 16 program.  It is based on
 the Gaussian(R) 09 system (copyright 2009, Gaussian, Inc.),
 the Gaussian(R) 03 system (copyright 2003, Gaussian, Inc.),
 the Gaussian(R) 98 system (copyright 1998, Gaussian, Inc.),
 the Gaussian(R) 94 system (copyright 1995, Gaussian, Inc.),
 the Gaussian 92(TM) system (copyright 1992, Gaussian, Inc.),
 the Gaussian 90(TM) system (copyright 1990, Gaussian, Inc.),
 the Gaussian 88(TM) system (copyright 1988, Gaussian, Inc.),
 the Gaussian 86(TM) system (copyright 1986, Carnegie Mellon
 University), and the Gaussian 82(TM) system (copyright 1983,
 Carnegie Mellon University). Gaussian is a federally registered
 trademark of Gaussian, Inc.
  
 This software contains proprietary and confidential information,
 including trade secrets, belonging to Gaussian, Inc.
  
 This software is provided under written license and may be
 used, copied, transmitted, or stored only in accord with that
 written license.
  
 The following legend is applicable only to US Government
 contracts under FAR:
  
                    RESTRICTED RIGHTS LEGEND
  
 Use, reproduction and disclosure by the US Government is
 subject to restrictions as set forth in subparagraphs (a)
 and (c) of the Commercial Computer Software - Restricted
 Rights clause in FAR 52.227-19.
  
 Gaussian, Inc.
 340 Quinnipiac St., Bldg. 40, Wallingford CT 06492
  
  
 ---------------------------------------------------------------
 Warning -- This program may not be used in any manner that
 competes with the business of Gaussian, Inc. or will provide
 assistance to any competitor of Gaussian, Inc.  The licensee
 of this program is prohibited from giving any competitor of
 Gaussian, Inc. access to this program.  By using this program,
 the user acknowledges that Gaussian, Inc. is engaged in the
 business of creating and licensing software in the field of
 computational chemistry and represents and warrants to the
 licensee that it is not a competitor of Gaussian, Inc. and that
 it will not use this program in any manner prohibited above.
 ---------------------------------------------------------------
  

 Cite this work as:
 Gaussian 16, Revision A.03,
 M. J. Frisch, G. W. Trucks, H. B. Schlegel, G. E. Scuseria, 
 M. A. Robb, J. R. Cheeseman, G. Scalmani, V. Barone, 
 G. A. Petersson, H. Nakatsuji, X. Li, M. Caricato, A. V. Marenich, 
 J. Bloino, B. G. Janesko, R. Gomperts, B. Mennucci, H. P. Hratchian, 
 J. V. Ortiz, A. F. Izmaylov, J. L. Sonnenberg, D. Williams-Young, 
 F. Ding, F. Lipparini, F. Egidi, J. Goings, B. Peng, A. Petrone, 
 T. Henderson, D. Ranasinghe, V. G. Zakrzewski, J. Gao, N. Rega, 
 G. Zheng, W. Liang, M. Hada, M. Ehara, K. Toyota, R. Fukuda, 
 J. Hasegawa, M. Ishida, T. Nakajima, Y. Honda, O. Kitao, H. Nakai, 
 T. Vreven, K. Throssell, J. A. Montgomery, Jr., J. E. Peralta, 
 F. Ogliaro, M. J. Bearpark, J. J. Heyd, E. N. Brothers, K. N. Kudin, 
 V. N. Staroverov, T. A. Keith, R. Kobayashi, J. Normand, 
 K. Raghavachari, A. P. Rendell, J. C. Burant, S. S. Iyengar, 
 J. Tomasi, M. Cossi, J. M. Millam, M. Klene, C. Adamo, R. Cammi, 
 J. W. Ochterski, R. L. Martin, K. Morokuma, O. Farkas, 
 J. B. Foresman, and D. J. Fox, Gaussian, Inc., Wallingford CT, 2016.
 
 ******************************************
 Gaussian 16:  ES64L-G16RevA.03 25-Dec-2016
                22-Sep-2023 
 ******************************************
 %nprocshared=4
 Will use up to    4 processors via shared memory.
 %mem=4GB
 ------------------------------------------------------
 # b3lyp/6-31+g(d,p) scrf=(iefpcm,solvent=acetonitrile)
 ------------------------------------------------------
 1/38=1,172=1/1;
 2/12=2,17=6,18=5,40=1/2;
 3/5=1,6=6,7=111,11=2,25=1,30=1,70=2201,72=2,74=-5/1,2,3;
 4//1;
 5/5=2,38=5,53=2/2;
 6/7=2,8=2,9=2,10=2,28=1/1;
 99/5=1,9=1/99;
 -------------------
 tmpdir/M3_ref_3.gjf
 -------------------
 Symbolic Z-matrix:
 Charge =  0 Multiplicity = 2
 C                    -0.08266   0.72607  -0.02167 
 C                    -1.0642    0.38535   1.02363 
 C                    -0.96888   0.81581   2.45386 
 H                     0.98047   0.84037   0.24668 
 O                    -0.45728   0.92555  -1.18366 
 H                    -1.94464  -0.13481   0.68913 
 H                    -0.86043  -0.05097   3.12135 
 H                    -0.13728   1.49835   2.63446 
 H                    -1.89563   1.31779   2.75588 
 
                          Input orientation:                          
 ---------------------------------------------------------------------
 Center     Atomic      Atomic             Coordinates (Angstroms)
 Number     Number       Type             X           Y           Z
 ---------------------------------------------------------------------
      1          6           0       -0.082660    0.726067   -0.021667
      2          6           0       -1.064198    0.385348    1.023625
      3          6           0       -0.968876    0.815813    2.453864
      4          1           0        0.980469    0.840366    0.246683
      5          8           0       -0.457275    0.925551   -1.183663
      6          1           0       -1.944637   -0.134813    0.689130
      7          1           0       -0.860427   -0.050966    3.121345
      8          1           0       -0.137284    1.498349    2.634459
      9          1           0       -1.895625    1.317792    2.755882
 ---------------------------------------------------------------------
                    Distance matrix (angstroms):
                    1          2          3          4          5
     1  C    0.000000
     2  C    1.473819   0.000000
     3  C    2.630910   1.496653   0.000000
     4  H    1.102415   2.234131   2.944859   0.000000
     5  O    1.237079   2.352083   3.674967   2.029841   0.000000
     6  H    2.171014   1.075930   2.229368   3.114959   2.616098
     7  H    3.329749   2.152283   1.099362   3.528037   4.432743
     8  H    2.766660   2.166270   1.090878   2.717312   3.874087
     9  H    3.369237   2.135752   1.096386   3.846548   4.212211
                    6          7          8          9
     6  H    0.000000
     7  H    2.664246   0.000000
     8  H    3.117378   1.777743   0.000000
     9  H    2.526643   1.754621   1.771753   0.000000
 Stoichiometry    C3H5O(2)
 Framework group  C1[X(C3H5O)]
 Deg. of freedom    21
 Full point group                 C1      NOp   1
 Largest Abelian subgroup         C1      NOp   1
 Largest concise Abelian subgroup C1      NOp   1
                         Standard orientation:                         
 ---------------------------------------------------------------------
 Center     Atomic      Atomic             Coordinates (Angstroms)
 Number     Number       Type             X           Y           Z
 ---------------------------------------------------------------------
      1          6           0       -0.794245    0.378374   -0.161121
      2          6           0        0.446748   -0.415905   -0.195738
      3          6           0        1.807749    0.116708    0.126708
      4          1           0       -0.761195    1.450711   -0.414733
      5          8           0       -1.857214   -0.146008    0.193119
      6          1           0        0.325293   -1.468450   -0.382884
      7          1           0        2.468425    0.070977   -0.750796
      8          1           0        1.783286    1.145474    0.488724
      9          1           0        2.280393   -0.505709    0.895647
 ---------------------------------------------------------------------
 Rotational constants (GHZ):          37.0159566           4.1259231           3.9124849
 Standard basis: 6-31+G(d,p) (6D, 7F)
 There are   101 symmetry adapted cartesian basis functions of A   symmetry.
 There are   101 symmetry adapted basis functions of A   symmetry.
   101 basis functions,   163 primitive gaussians,   101 cartesian basis functions
    16 alpha electrons       15 beta electrons
       nuclear repulsion energy       107.4063645412 Hartrees.
 NAtoms=    9 NActive=    9 NUniq=    9 SFac= 1.00D+00 NAtFMM=   60 NAOKFM=F Big=F
 Integral buffers will be    131072 words long.
 Raffenetti 2 integral format.
 Two-electron integral symmetry is turned on.
 ------------------------------------------------------------------------------
 Polarizable Continuum Model (PCM)
 =================================
 Model                : PCM.
 Atomic radii         : UFF (Universal Force Field).
 Polarization charges : Total charges.
 Charge compensation  : None.
 Solution method      : On-the-fly selection.
 Cavity type          : Scaled VdW (van der Waals Surface) (Alpha=1.100).
 Cavity algorithm     : GePol (No added spheres)
                        Default sphere list used, NSphG=    9.
                        Lebedev-Laikov grids with approx.  5.0 points / Ang**2.
                        Smoothing algorithm: York/Karplus (Gamma=1.0000).
                        Polarization charges: spherical gaussians, with
                                              point-specific exponents (IZeta= 3).
                        Self-potential: point-specific (ISelfS= 7).
                        Self-field    : sphere-specific E.n sum rule (ISelfD= 2).
 Solvent              : Acetonitrile, Eps=  35.688000 Eps(inf)=   1.806874
 ------------------------------------------------------------------------------
 Spheres list:
 ISph  on   Nord     Re0    Alpha      Xe            Ye            Ze
    1   C      1    1.9255  1.100     -0.794245      0.378374     -0.161121
    2   C      2    1.9255  1.100      0.446748     -0.415905     -0.195738
    3   C      3    1.9255  1.100      1.807749      0.116708      0.126708
    4   H      4    1.4430  1.100     -0.761195      1.450711     -0.414733
    5   O      5    1.7500  1.100     -1.857214     -0.146008      0.193119
    6   H      6    1.4430  1.100      0.325293     -1.468450     -0.382884
    7   H      7    1.4430  1.100      2.468425      0.070977     -0.750796
    8   H      8    1.4430  1.100      1.783286      1.145474      0.488724
    9   H      9    1.4430  1.100      2.280393     -0.505709      0.895647
 ------------------------------------------------------------------------------
 One-electron integrals computed using PRISM.
 NBasis=   101 RedAO= T EigKep=  2.00D-04  NBF=   101
 NBsUse=   101 1.00D-06 EigRej= -1.00D+00 NBFU=   101
 ExpMin= 4.38D-02 ExpMax= 5.48D+03 ExpMxC= 8.25D+02 IAcc=3 IRadAn=         5 AccDes= 0.00D+00
 Harris functional with IExCor=  402 and IRadAn=       5 diagonalized for initial guess.
 HarFok:  IExCor=  402 AccDes= 0.00D+00 IRadAn=         5 IDoV= 1 UseB2=F ITyADJ=14
 ICtDFT=  3500011 ScaDFX=  1.000000  1.000000  1.000000  1.000000
 FoFCou: FMM=F IPFlag=           0 FMFlag=      100000 FMFlg1=           0
         NFxFlg=           0 DoJE=T BraDBF=F KetDBF=T FulRan=T
         wScrn=  0.000000 ICntrl=       500 IOpCl=  0 I1Cent=   200000004 NGrid=           0
         NMat0=    1 NMatS0=      1 NMatT0=    0 NMatD0=    1 NMtDS0=    0 NMtDT0=    0
 Petite list used in FoFCou.
 Initial guess <Sx>= 0.0000 <Sy>= 0.0000 <Sz>= 0.5000 <S**2>= 0.7500 S= 0.5000
 Keep R1 and R2 ints in memory in canonical form, NReq=30239961.
 Requested convergence on RMS density matrix=1.00D-08 within 128 cycles.
 Requested convergence on MAX density matrix=1.00D-06.
 Requested convergence on             energy=1.00D-06.
 No special actions if energy rises.
 Inv3:  Mode=1 IEnd=     2403075.
 Iteration    1 A*A^-1 deviation from unit magnitude is 2.89D-15 for    863.
 Iteration    1 A*A^-1 deviation from orthogonality  is 1.52D-15 for    882    719.
 Iteration    1 A^-1*A deviation from unit magnitude is 2.89D-15 for    892.
 Iteration    1 A^-1*A deviation from orthogonality  is 1.78D-15 for    633    241.
 Error on total polarization charges =  0.01132
 SCF Done:  E(UB3LYP) =  -192.513687182     A.U. after   14 cycles
            NFock= 14  Conv=0.49D-08     -V/T= 2.0100
 <Sx>= 0.0000 <Sy>= 0.0000 <Sz>= 0.5000 <S**2>= 0.7601 S= 0.5050
 <L.S>= 0.000000000000E+00
 Annihilation of the first spin contaminant:
 S**2 before annihilation     0.7601,   after     0.7500

 **********************************************************************

            Population analysis using the SCF density.

 **********************************************************************

 Orbital symmetries:
 Alpha Orbitals:
       Occupied  (A) (A) (A) (A) (A) (A) (A) (A) (A) (A) (A) (A)
                 (A) (A) (A) (A)
       Virtual   (A) (A) (A) (A) (A) (A) (A) (A) (A) (A) (A) (A)
                 (A) (A) (A) (A) (A) (A) (A) (A) (A) (A) (A) (A)
                 (A) (A) (A) (A) (A) (A) (A) (A) (A) (A) (A) (A)
                 (A) (A) (A) (A) (A) (A) (A) (A) (A) (A) (A) (A)
                 (A) (A) (A) (A) (A) (A) (A) (A) (A) (A) (A) (A)
                 (A) (A) (A) (A) (A) (A) (A) (A) (A) (A) (A) (A)
                 (A) (A) (A) (A) (A) (A) (A) (A) (A) (A) (A) (A)
                 (A)
 Beta  Orbitals:
       Occupied  (A) (A) (A) (A) (A) (A) (A) (A) (A) (A) (A) (A)
                 (A) (A) (A)
       Virtual   (A) (A) (A) (A) (A) (A) (A) (A) (A) (A) (A) (A)
                 (A) (A) (A) (A) (A) (A) (A) (A) (A) (A) (A) (A)
                 (A) (A) (A) (A) (A) (A) (A) (A) (A) (A) (A) (A)
                 (A) (A) (A) (A) (A) (A) (A) (A) (A) (A) (A) (A)
                 (A) (A) (A) (A) (A) (A) (A) (A) (A) (A) (A) (A)
                 (A) (A) (A) (A) (A) (A) (A) (A) (A) (A) (A) (A)
                 (A) (A) (A) (A) (A) (A) (A) (A) (A) (A) (A) (A)
                 (A) (A)
 The electronic state is 2-A.
 Alpha  occ. eigenvalues --  -19.16767 -10.28410 -10.23446 -10.20058  -1.05431
 Alpha  occ. eigenvalues --   -0.79602  -0.67522  -0.58180  -0.47712  -0.46975
 Alpha  occ. eigenvalues --   -0.44011  -0.41862  -0.40095  -0.38488  -0.27814
 Alpha  occ. eigenvalues --   -0.23785
 Alpha virt. eigenvalues --   -0.02422   0.01721   0.03003   0.03301   0.05155
 Alpha virt. eigenvalues --    0.06689   0.07527   0.08547   0.09521   0.10166
 Alpha virt. eigenvalues --    0.11783   0.13895   0.15468   0.18186   0.21109
 Alpha virt. eigenvalues --    0.21811   0.22468   0.23239   0.25904   0.27131
 Alpha virt. eigenvalues --    0.27933   0.30183   0.31928   0.36723   0.41755
 Alpha virt. eigenvalues --    0.62059   0.62390   0.64609   0.68735   0.68971
 Alpha virt. eigenvalues --    0.70600   0.74323   0.77428   0.84086   0.90524
 Alpha virt. eigenvalues --    0.94622   0.95985   0.98880   1.04738   1.08407
 Alpha virt. eigenvalues --    1.09699   1.19441   1.21883   1.26935   1.28595
 Alpha virt. eigenvalues --    1.33911   1.41645   1.47273   1.53875   1.58861
 Alpha virt. eigenvalues --    1.73108   1.76043   1.77377   1.81630   1.86581
 Alpha virt. eigenvalues --    1.96519   1.98270   2.02856   2.06743   2.10044
 Alpha virt. eigenvalues --    2.13076   2.17974   2.29341   2.35180   2.36696
 Alpha virt. eigenvalues --    2.46879   2.50323   2.55547   2.60930   2.61924
 Alpha virt. eigenvalues --    2.67142   2.83474   2.84529   2.84756   2.96021
 Alpha virt. eigenvalues --    3.04010   3.22394   3.40364   3.41197   3.44855
 Alpha virt. eigenvalues --    3.47780   4.11857   4.23292   4.43791   4.55035
  Beta  occ. eigenvalues --  -19.16114 -10.28507 -10.22339 -10.20111  -1.04218
  Beta  occ. eigenvalues --   -0.77785  -0.66475  -0.57316  -0.47106  -0.46199
  Beta  occ. eigenvalues --   -0.42245  -0.41070  -0.38871  -0.37221  -0.26964
  Beta virt. eigenvalues --   -0.11749   0.00180   0.01848   0.03233   0.03411
  Beta virt. eigenvalues --    0.05264   0.06764   0.07551   0.08522   0.09786
  Beta virt. eigenvalues --    0.10864   0.11892   0.14021   0.15738   0.18757
  Beta virt. eigenvalues --    0.21860   0.22125   0.22964   0.23671   0.26102
  Beta virt. eigenvalues --    0.27819   0.28143   0.30766   0.32211   0.37450
  Beta virt. eigenvalues --    0.42066   0.62376   0.62695   0.65143   0.69193
  Beta virt. eigenvalues --    0.70810   0.73233   0.74894   0.77771   0.84552
  Beta virt. eigenvalues --    0.91110   0.95050   0.96208   1.00187   1.05227
  Beta virt. eigenvalues --    1.08900   1.10318   1.20960   1.22566   1.27601
  Beta virt. eigenvalues --    1.29588   1.35206   1.43580   1.47740   1.54557
  Beta virt. eigenvalues --    1.59263   1.74445   1.77740   1.78067   1.83285
  Beta virt. eigenvalues --    1.88432   1.97365   2.00743   2.03374   2.08064
  Beta virt. eigenvalues --    2.10809   2.13392   2.18108   2.29773   2.35894
  Beta virt. eigenvalues --    2.37059   2.47867   2.51684   2.57333   2.61853
  Beta virt. eigenvalues --    2.62642   2.67562   2.84025   2.85013   2.85108
  Beta virt. eigenvalues --    2.96217   3.04468   3.22850   3.40822   3.41555
  Beta virt. eigenvalues --    3.45107   3.48138   4.12756   4.24728   4.43868
  Beta virt. eigenvalues --    4.56225
          Condensed to atoms (all electrons):
               1          2          3          4          5          6
     1  C    4.701253   0.368195   0.047113   0.421703   0.390633  -0.021357
     2  C    0.368195   5.513640   0.074961  -0.139787  -0.152573   0.346877
     3  C    0.047113   0.074961   5.249792   0.031881   0.011764  -0.005521
     4  H    0.421703  -0.139787   0.031881   0.604329  -0.062142   0.003022
     5  O    0.390633  -0.152573   0.011764  -0.062142   8.281514  -0.002497
     6  H   -0.021357   0.346877  -0.005521   0.003022  -0.002497   0.507349
     7  H   -0.005876  -0.039169   0.390814  -0.000017  -0.000424  -0.000088
     8  H    0.003823  -0.078662   0.430639   0.001993   0.000990   0.003250
     9  H   -0.001442  -0.030370   0.388699  -0.000156  -0.000261  -0.004157
               7          8          9
     1  C   -0.005876   0.003823  -0.001442
     2  C   -0.039169  -0.078662  -0.030370
     3  C    0.390814   0.430639   0.388699
     4  H   -0.000017   0.001993  -0.000156
     5  O   -0.000424   0.000990  -0.000261
     6  H   -0.000088   0.003250  -0.004157
     7  H    0.522759  -0.024658  -0.028211
     8  H   -0.024658   0.515507  -0.025536
     9  H   -0.028211  -0.025536   0.516953
          Atomic-Atomic Spin Densities.
               1          2          3          4          5          6
     1  C   -0.051512   0.045678  -0.005727   0.005343  -0.041066  -0.003840
     2  C    0.045678   1.000805  -0.083347  -0.006907  -0.045552   0.004801
     3  C   -0.005727  -0.083347  -0.036266   0.003419   0.001923  -0.003895
     4  H    0.005343  -0.006907   0.003419  -0.003332   0.001338   0.000006
     5  O   -0.041066  -0.045552   0.001923   0.001338   0.309025   0.000469
     6  H   -0.003840   0.004801  -0.003895   0.000006   0.000469  -0.035694
     7  H    0.003163  -0.038931   0.025617   0.000173  -0.000203   0.001112
     8  H   -0.000857   0.000620   0.002282  -0.000238   0.000165  -0.000162
     9  H   -0.000750  -0.010689   0.008893  -0.000071   0.000549  -0.000776
               7          8          9
     1  C    0.003163  -0.000857  -0.000750
     2  C   -0.038931   0.000620  -0.010689
     3  C    0.025617   0.002282   0.008893
     4  H    0.000173  -0.000238  -0.000071
     5  O   -0.000203   0.000165   0.000549
     6  H    0.001112  -0.000162  -0.000776
     7  H    0.075208  -0.002386  -0.012260
     8  H   -0.002386   0.001722   0.001039
     9  H   -0.012260   0.001039   0.042179
 Mulliken charges and spin densities:
               1          2
     1  C    0.095955  -0.049567
     2  C    0.136889   0.866476
     3  C   -0.620142  -0.087101
     4  H    0.139173  -0.000269
     5  O   -0.467003   0.226647
     6  H    0.173122  -0.037979
     7  H    0.184870   0.051493
     8  H    0.172653   0.002185
     9  H    0.184482   0.028114
 Sum of Mulliken charges =  -0.00000   1.00000
 Mulliken charges and spin densities with hydrogens summed into heavy atoms:
               1          2
     1  C    0.235128  -0.049836
     2  C    0.310012   0.828497
     3  C   -0.078137  -0.005309
     5  O   -0.467003   0.226647
 Electronic spatial extent (au):  <R**2>=            336.7514
 Charge=             -0.0000 electrons
 Dipole moment (field-independent basis, Debye):
    X=              4.5298    Y=              0.8561    Z=             -0.8049  Tot=              4.6797
 Quadrupole moment (field-independent basis, Debye-Ang):
   XX=            -30.3337   YY=            -22.9802   ZZ=            -24.8371
   XY=             -1.8399   XZ=              1.5307   YZ=              0.1687
 Traceless Quadrupole moment (field-independent basis, Debye-Ang):
   XX=             -4.2834   YY=              3.0701   ZZ=              1.2133
   XY=             -1.8399   XZ=              1.5307   YZ=              0.1687
 Octapole moment (field-independent basis, Debye-Ang**2):
  XXX=             19.0473  YYY=              0.4595  ZZZ=              0.7404  XYY=             -0.5398
  XXY=              1.4616  XXZ=             -2.2578  XZZ=             -0.2945  YZZ=              0.0124
  YYZ=             -0.4651  XYZ=             -0.0811
 Hexadecapole moment (field-independent basis, Debye-Ang**3):
 XXXX=           -370.1284 YYYY=            -57.2954 ZZZZ=            -39.4501 XXXY=             -3.2993
 XXXZ=              2.7888 YYYX=             -1.8163 YYYZ=              0.9773 ZZZX=             -0.4176
 ZZZY=             -0.4692 XXYY=            -67.6314 XXZZ=            -60.7762 YYZZ=            -16.7432
 XXYZ=             -0.7960 YYXZ=              1.5365 ZZXY=             -0.7915
 N-N= 1.074063645412D+02 E-N=-6.631048250347D+02  KE= 1.906027883537D+02
                          Isotropic Fermi Contact Couplings
        Atom                 a.u.       MegaHertz       Gauss      10(-4) cm-1
     1  C(13)             -0.02390     -26.86340      -9.58553      -8.96067
     2  C(13)              0.08541      96.01582      34.26083      32.02743
     3  C(13)             -0.02068     -23.25375      -8.29752      -7.75662
     4  H(1)               0.00027       1.21859       0.43482       0.40648
     5  O(17)              0.04598     -27.87089      -9.94503      -9.29673
     6  H(1)              -0.01148     -51.32095     -18.31259     -17.11883
     7  H(1)               0.02657     118.77654      42.38242      39.61959
     8  H(1)               0.00128       5.72769       2.04378       1.91055
     9  H(1)               0.01511      67.52955      24.09622      22.52543
 --------------------------------------------------------
       Center         ----  Spin Dipole Couplings  ----
                      3XX-RR        3YY-RR        3ZZ-RR
 --------------------------------------------------------
     1   Atom        0.034592      0.001064     -0.035656
     2   Atom       -0.391307     -0.382505      0.773812
     3   Atom        0.003595     -0.016648      0.013054
     4   Atom       -0.000745      0.008074     -0.007328
     5   Atom       -0.223667     -0.478068      0.701735
     6   Atom       -0.053544      0.054358     -0.000815
     7   Atom        0.012320     -0.008605     -0.003716
     8   Atom        0.001208      0.003958     -0.005165
     9   Atom        0.010112     -0.006381     -0.003731
 --------------------------------------------------------
                        XY            XZ            YZ
 --------------------------------------------------------
     1   Atom        0.001159      0.000654     -0.005024
     2   Atom        0.038815     -0.210516     -0.234391
     3   Atom        0.009606     -0.007947     -0.004139
     4   Atom       -0.010042     -0.001440     -0.003920
     5   Atom        0.059348      0.543548      0.099334
     6   Atom        0.008528     -0.005917      0.016412
     7   Atom        0.003889     -0.006044      0.000832
     8   Atom        0.009518      0.003690      0.003953
     9   Atom       -0.002447      0.009848     -0.002092
 --------------------------------------------------------


 ---------------------------------------------------------------------------------
              Anisotropic Spin Dipole Couplings in Principal Axis System
 ---------------------------------------------------------------------------------

       Atom             a.u.   MegaHertz   Gauss  10(-4) cm-1        Axes

              Baa    -0.0363    -4.876    -1.740    -1.627 -0.0113  0.1335  0.9910
     1 C(13)  Bbb     0.0017     0.229     0.082     0.076 -0.0322  0.9905 -0.1338
              Bcc     0.0346     4.648     1.658     1.550  0.9994  0.0335  0.0069
 
              Baa    -0.4303   -57.740   -20.603   -19.260  0.6826  0.6856  0.2528
     2 C(13)  Bbb    -0.4260   -57.160   -20.396   -19.066  0.7109 -0.7032 -0.0126
              Bcc     0.8562   114.900    40.999    38.326 -0.1691 -0.1884  0.9674
 
              Baa    -0.0205    -2.752    -0.982    -0.918 -0.3617  0.9318  0.0293
     3 C(13)  Bbb     0.0009     0.121     0.043     0.041  0.7586  0.2759  0.5903
              Bcc     0.0196     2.630     0.939     0.877 -0.5419 -0.2357  0.8067
 
              Baa    -0.0108    -5.757    -2.054    -1.920  0.5400  0.4370  0.7194
     4 H(1)   Bbb    -0.0041    -2.202    -0.786    -0.735 -0.6549 -0.3188  0.6852
              Bcc     0.0149     7.960     2.840     2.655 -0.5288  0.8411 -0.1140
 
              Baa    -0.4947    35.796    12.773    11.940 -0.5018  0.8505  0.1574
     5 O(17)  Bbb    -0.4673    33.817    12.067    11.280  0.7569  0.5198 -0.3961
              Bcc     0.9620   -69.613   -24.840   -23.220  0.4187  0.0797  0.9046
 
              Baa    -0.0552   -29.454   -10.510    -9.825  0.9858 -0.0972  0.1366
     6 H(1)   Bbb    -0.0041    -2.168    -0.774    -0.723 -0.1568 -0.2458  0.9565
              Bcc     0.0593    31.622    11.284    10.548  0.0594  0.9644  0.2576
 
              Baa    -0.0100    -5.356    -1.911    -1.786 -0.2536  0.8976 -0.3607
     7 H(1)   Bbb    -0.0048    -2.566    -0.916    -0.856  0.2171  0.4161  0.8830
              Bcc     0.0148     7.922     2.827     2.642  0.9426  0.1457 -0.3004
 
              Baa    -0.0071    -3.802    -1.357    -1.268  0.7594 -0.5064 -0.4086
     8 H(1)   Bbb    -0.0066    -3.531    -1.260    -1.178  0.1571 -0.4667  0.8704
              Bcc     0.0137     7.333     2.617     2.446  0.6314  0.7251  0.2748
 
              Baa    -0.0091    -4.844    -1.728    -1.616 -0.4044  0.3024  0.8631
     9 H(1)   Bbb    -0.0066    -3.519    -1.256    -1.174  0.2608  0.9427 -0.2081
              Bcc     0.0157     8.363     2.984     2.790  0.8766 -0.1409  0.4601
 

 ---------------------------------------------------------------------------------

 1\1\GINC-NODE56\SP\UB3LYP\6-31+G(d,p)\C3H5O1(2)\YANZ\22-Sep-2023\0\\# 
 b3lyp/6-31+g(d,p) scrf=(iefpcm,solvent=acetonitrile)\\tmpdir/M3_ref_3.
 gjf\\0,2\C,0,-0.08266,0.726067,-0.021667\C,0,-1.064198,0.385348,1.0236
 25\C,0,-0.968876,0.815813,2.453864\H,0,0.98046861,0.84036558,0.2466834
 4\O,0,-0.457275,0.925551,-1.183663\H,0,-1.94463665,-0.13481259,0.68913
 031\H,0,-0.860427,-0.050966,3.121345\H,0,-0.137284,1.498349,2.634459\H
 ,0,-1.895625,1.317792,2.755882\\Version=ES64L-G16RevA.03\State=2-A\HF=
 -192.5136872\S2=0.760123\S2-1=0.\S2A=0.750047\RMSD=4.876e-09\Dipole=0.
 0375722,-0.252367,1.8233816\Quadrupole=2.5020774,1.0804389,-3.5825162,
 0.4118646,-0.4266014,0.8843963\PG=C01 [X(C3H5O1)]\\@


 IF NO USE IS MADE OF THE LABOR OF PAST AGES,
 THE WORLD MUST REMAIN ALWAYS IN THE INFANCY OF KNOWLEDGE.

                          -- CICERO
 Job cpu time:       0 days  0 hours  1 minutes 20.0 seconds.
 Elapsed time:       0 days  0 hours  0 minutes 20.7 seconds.
 File lengths (MBytes):  RWF=     25 Int=      0 D2E=      0 Chk=      2 Scr=      1
 Normal termination of Gaussian 16 at Fri Sep 22 17:03:48 2023.
