This job is running on host node11
Current directory: /share/home/Liaoyt/system-test/bnts-ome/ynets-vs/tmpdir/ori-sep
Thu Mar  7 20:09:11 CST 2024
/tmp/86146.mgr
 Entering Gaussian System, Link 0=g16
 Initial command:
 /share/apps/gaussian/g16/l1.exe "/tmp/86146.mgr/Gau-165150.inp" -scrdir="/tmp/86146.mgr/"
 Entering Link 1 = /share/apps/gaussian/g16/l1.exe PID=    165151.
  
 Copyright (c) 1988,1990,1992,1993,1995,1998,2003,2009,2016,
            Gaussian, Inc.  All Rights Reserved.
  
 This is part of the Gaussian(R) 16 program.  It is based on
 the Gaussian(R) 09 system (copyright 2009, Gaussian, Inc.),
 the Gaussian(R) 03 system (copyright 2003, Gaussian, Inc.),
 the Gaussian(R) 98 system (copyright 1998, Gaussian, Inc.),
 the Gaussian(R) 94 system (copyright 1995, Gaussian, Inc.),
 the Gaussian 92(TM) system (copyright 1992, Gaussian, Inc.),
 the Gaussian 90(TM) system (copyright 1990, Gaussian, Inc.),
 the Gaussian 88(TM) system (copyright 1988, Gaussian, Inc.),
 the Gaussian 86(TM) system (copyright 1986, Carnegie Mellon
 University), and the Gaussian 82(TM) system (copyright 1983,
 Carnegie Mellon University). Gaussian is a federally registered
 trademark of Gaussian, Inc.
  
 This software contains proprietary and confidential information,
 including trade secrets, belonging to Gaussian, Inc.
  
 This software is provided under written license and may be
 used, copied, transmitted, or stored only in accord with that
 written license.
  
 The following legend is applicable only to US Government
 contracts under FAR:
  
                    RESTRICTED RIGHTS LEGEND
  
 Use, reproduction and disclosure by the US Government is
 subject to restrictions as set forth in subparagraphs (a)
 and (c) of the Commercial Computer Software - Restricted
 Rights clause in FAR 52.227-19.
  
 Gaussian, Inc.
 340 Quinnipiac St., Bldg. 40, Wallingford CT 06492
  
  
 ---------------------------------------------------------------
 Warning -- This program may not be used in any manner that
 competes with the business of Gaussian, Inc. or will provide
 assistance to any competitor of Gaussian, Inc.  The licensee
 of this program is prohibited from giving any competitor of
 Gaussian, Inc. access to this program.  By using this program,
 the user acknowledges that Gaussian, Inc. is engaged in the
 business of creating and licensing software in the field of
 computational chemistry and represents and warrants to the
 licensee that it is not a competitor of Gaussian, Inc. and that
 it will not use this program in any manner prohibited above.
 ---------------------------------------------------------------
  

 Cite this work as:
 Gaussian 16, Revision A.03,
 M. J. Frisch, G. W. Trucks, H. B. Schlegel, G. E. Scuseria, 
 M. A. Robb, J. R. Cheeseman, G. Scalmani, V. Barone, 
 G. A. Petersson, H. Nakatsuji, X. Li, M. Caricato, A. V. Marenich, 
 J. Bloino, B. G. Janesko, R. Gomperts, B. Mennucci, H. P. Hratchian, 
 J. V. Ortiz, A. F. Izmaylov, J. L. Sonnenberg, D. Williams-Young, 
 F. Ding, F. Lipparini, F. Egidi, J. Goings, B. Peng, A. Petrone, 
 T. Henderson, D. Ranasinghe, V. G. Zakrzewski, J. Gao, N. Rega, 
 G. Zheng, W. Liang, M. Hada, M. Ehara, K. Toyota, R. Fukuda, 
 J. Hasegawa, M. Ishida, T. Nakajima, Y. Honda, O. Kitao, H. Nakai, 
 T. Vreven, K. Throssell, J. A. Montgomery, Jr., J. E. Peralta, 
 F. Ogliaro, M. J. Bearpark, J. J. Heyd, E. N. Brothers, K. N. Kudin, 
 V. N. Staroverov, T. A. Keith, R. Kobayashi, J. Normand, 
 K. Raghavachari, A. P. Rendell, J. C. Burant, S. S. Iyengar, 
 J. Tomasi, M. Cossi, J. M. Millam, M. Klene, C. Adamo, R. Cammi, 
 J. W. Ochterski, R. L. Martin, K. Morokuma, O. Farkas, 
 J. B. Foresman, and D. J. Fox, Gaussian, Inc., Wallingford CT, 2016.
 
 ******************************************
 Gaussian 16:  ES64L-G16RevA.03 25-Dec-2016
                 7-Mar-2024 
 ******************************************
 %chk=bnts-ts-pro.chk
 %nprocshared=16
 Will use up to   16 processors via shared memory.
 %mem=16GB
 ------------------------------
 # b3lyp/6-31g(d) nosymm em=gd3
 ------------------------------
 1/38=1,172=1/1;
 2/12=2,15=1,17=6,18=5,40=1/2;
 3/5=1,6=6,7=1,11=2,25=1,30=1,74=-5,124=31/1,2,3;
 4//1;
 5/5=2,38=5/2;
 6/7=2,8=2,9=2,10=2,28=1/1;
 99/5=1,9=1/99;
 -------------------
 tmpdir/Subs_0_0.gjf
 -------------------
 Symbolic Z-matrix:
 Charge =  0 Multiplicity = 1
 N                    -0.25773  -0.80105  -0.67695 
 N                    -0.31709  -2.12018  -0.41758 
 N                     0.75449  -2.4326    0.2576 
 C                    -1.37764  -0.1655   -1.37251 
 H                    -1.06162   0.84751  -1.6317 
 H                    -1.53747  -0.71693  -2.30311 
 C                    -2.65185  -0.13594  -0.55079 
 C                    -2.67822   0.48302   0.70582 
 C                    -3.81975  -0.71436  -1.05438 
 C                    -3.86129   0.51985   1.44202 
 H                    -1.76799   0.92501   1.0987 
 C                    -5.00646  -0.6711   -0.31919 
 H                    -3.80107  -1.20894  -2.02278 
 C                    -5.02926  -0.05374   0.93129 
 H                    -3.87246   0.99751   2.41836 
 H                    -5.90736  -1.1273   -0.72076 
 H                    -5.94982  -0.02343   1.50819 
 
                          Input orientation:                          
 ---------------------------------------------------------------------
 Center     Atomic      Atomic             Coordinates (Angstroms)
 Number     Number       Type             X           Y           Z
 ---------------------------------------------------------------------
      1          7           0       -0.257727   -0.801049   -0.676947
      2          7           0       -0.317094   -2.120182   -0.417583
      3          7           0        0.754488   -2.432603    0.257598
      4          6           0       -1.377644   -0.165498   -1.372512
      5          1           0       -1.061621    0.847511   -1.631702
      6          1           0       -1.537470   -0.716934   -2.303111
      7          6           0       -2.651853   -0.135942   -0.550793
      8          6           0       -2.678223    0.483020    0.705822
      9          6           0       -3.819746   -0.714363   -1.054375
     10          6           0       -3.861294    0.519854    1.442015
     11          1           0       -1.767989    0.925011    1.098701
     12          6           0       -5.006464   -0.671098   -0.319192
     13          1           0       -3.801067   -1.208941   -2.022781
     14          6           0       -5.029264   -0.053735    0.931290
     15          1           0       -3.872460    0.997511    2.418360
     16          1           0       -5.907358   -1.127296   -0.720755
     17          1           0       -5.949818   -0.023428    1.508189
 ---------------------------------------------------------------------
                    Distance matrix (angstroms):
                    1          2          3          4          5
     1  N    0.000000
     2  N    1.345699   0.000000
     3  N    2.135397   1.304517   0.000000
     4  C    1.463540   2.420216   3.513262   0.000000
     5  H    2.067741   3.291748   4.198435   1.092354   0.000000
     6  H    2.071045   2.648327   3.841070   1.093453   1.767685
     7  C    2.487995   3.066929   4.187040   1.516478   2.159718
     8  C    3.069150   3.689665   4.526065   2.536051   2.865358
     9  C    3.583008   3.827584   5.059371   2.523158   3.221802
    10  C    4.384117   4.794710   5.605826   3.815729   4.170523
    11  H    2.900534   3.698299   4.282980   2.729189   2.821358
    12  C    4.763967   4.909146   6.051789   3.812276   4.426132
    13  H    3.812205   3.942726   5.239328   2.717462   3.447681
    14  C    5.090429   5.319230   6.290045   4.319065   4.808676
    15  H    5.087439   5.513911   6.151685   4.684806   4.932172
    16  H    5.659213   5.685841   6.858658   4.676340   5.311389
    17  H    6.146496   6.311304   7.232968   5.405867   5.874685
                    6          7          8          9         10
     6  H    0.000000
     7  C    2.156390   0.000000
     8  C    3.434368   1.401032   0.000000
     9  C    2.601563   1.397190   2.415594   0.000000
    10  C    4.577747   2.421590   1.393913   2.785136   0.000000
    11  H    3.784369   2.151201   1.085466   3.396026   2.159616
    12  C    3.996493   2.425742   2.793447   1.396662   2.414877
    13  H    2.333351   2.153780   3.401292   1.087551   3.872618
    14  C    4.805602   2.802751   2.422052   2.417070   1.397855
    15  H    5.539295   3.404477   2.150277   3.872103   1.086982
    16  H    4.665637   3.407342   3.880149   2.154052   3.402507
    17  H    5.871607   3.889555   3.406408   3.403136   2.159043
                   11         12         13         14         15
    11  H    0.000000
    12  C    3.878879   0.000000
    13  H    4.293112   2.155104   0.000000
    14  C    3.409089   1.394762   3.401397   0.000000
    15  H    2.485066   3.400649   4.959563   2.157473   0.000000
    16  H    4.965557   1.086729   2.477579   2.157043   4.302285
    17  H    4.307541   2.156088   4.300037   1.086808   2.487196
                   16         17
    16  H    0.000000
    17  H    2.487673   0.000000
 Symmetry turned off by external request.
 Stoichiometry    C7H7N3
 Framework group  C1[X(C7H7N3)]
 Deg. of freedom    45
 Full point group                 C1      NOp   1
 Rotational constants (GHZ):           3.0292616           0.7645600           0.7246016
 Standard basis: 6-31G(d) (6D, 7F)
   164 basis functions,   308 primitive gaussians,   164 cartesian basis functions
    35 alpha electrons       35 beta electrons
       nuclear repulsion energy       454.9525555767 Hartrees.
 NAtoms=   17 NActive=   17 NUniq=   17 SFac= 1.00D+00 NAtFMM=   60 NAOKFM=F Big=F
 Integral buffers will be    131072 words long.
 Raffenetti 2 integral format.
 Two-electron integral symmetry is turned off.
 Nuclear repulsion after empirical dispersion term =      454.9415045577 Hartrees.
 One-electron integrals computed using PRISM.
 NBasis=   164 RedAO= T EigKep=  4.74D-04  NBF=   164
 NBsUse=   164 1.00D-06 EigRej= -1.00D+00 NBFU=   164
 ExpMin= 1.61D-01 ExpMax= 4.17D+03 ExpMxC= 6.27D+02 IAcc=3 IRadAn=         5 AccDes= 0.00D+00
 Harris functional with IExCor=  402 and IRadAn=       5 diagonalized for initial guess.
 HarFok:  IExCor=  402 AccDes= 0.00D+00 IRadAn=         5 IDoV= 1 UseB2=F ITyADJ=14
 ICtDFT=  3500011 ScaDFX=  1.000000  1.000000  1.000000  1.000000
 FoFCou: FMM=F IPFlag=           0 FMFlag=      100000 FMFlg1=           0
         NFxFlg=           0 DoJE=T BraDBF=F KetDBF=T FulRan=T
         wScrn=  0.000000 ICntrl=       500 IOpCl=  0 I1Cent=   200000004 NGrid=           0
         NMat0=    1 NMatS0=      1 NMatT0=    0 NMatD0=    1 NMtDS0=    0 NMtDT0=    0
 Symmetry not used in FoFCou.
 Requested convergence on RMS density matrix=1.00D-08 within 128 cycles.
 Requested convergence on MAX density matrix=1.00D-06.
 Requested convergence on             energy=1.00D-06.
 No special actions if energy rises.
 Integral accuracy reduced to 1.0D-05 until final iterations.
 EnCoef did     6 forward-backward iterations
 EnCoef did     2 forward-backward iterations
 Initial convergence to 1.0D-05 achieved.  Increase integral accuracy.
 SCF Done:  E(RB3LYP) =  -435.029576098     A.U. after   25 cycles
            NFock= 25  Conv=0.79D-08     -V/T= 2.0102

 **********************************************************************

            Population analysis using the SCF density.

 **********************************************************************

 Alpha  occ. eigenvalues --  -14.48850 -14.44972 -14.37512 -10.22450 -10.20232
 Alpha  occ. eigenvalues --  -10.19506 -10.19481 -10.19449 -10.19415 -10.19308
 Alpha  occ. eigenvalues --   -1.07616  -0.88633  -0.85265  -0.76678  -0.74830
 Alpha  occ. eigenvalues --   -0.69677  -0.61182  -0.59986  -0.55594  -0.51800
 Alpha  occ. eigenvalues --   -0.48915  -0.47333  -0.46761  -0.44622  -0.43880
 Alpha  occ. eigenvalues --   -0.42415  -0.41222  -0.40363  -0.36362  -0.35356
 Alpha  occ. eigenvalues --   -0.34654  -0.26931  -0.25498  -0.25159  -0.23361
 Alpha virt. eigenvalues --   -0.16853  -0.05746  -0.00816  -0.00320   0.09133
 Alpha virt. eigenvalues --    0.11827   0.12922   0.14947   0.15785   0.16161
 Alpha virt. eigenvalues --    0.18038   0.18843   0.22806   0.24578   0.26496
 Alpha virt. eigenvalues --    0.27355   0.30146   0.31955   0.32361   0.34765
 Alpha virt. eigenvalues --    0.45734   0.50189   0.51759   0.52907   0.54127
 Alpha virt. eigenvalues --    0.54808   0.56466   0.58534   0.58914   0.59110
 Alpha virt. eigenvalues --    0.60576   0.61192   0.61557   0.62213   0.63730
 Alpha virt. eigenvalues --    0.64955   0.66329   0.67814   0.68254   0.70165
 Alpha virt. eigenvalues --    0.71337   0.73897   0.76589   0.79907   0.81211
 Alpha virt. eigenvalues --    0.82662   0.83569   0.84086   0.84631   0.86629
 Alpha virt. eigenvalues --    0.87416   0.90845   0.92257   0.94005   0.96357
 Alpha virt. eigenvalues --    0.99436   1.00761   1.07180   1.10160   1.11255
 Alpha virt. eigenvalues --    1.14517   1.15359   1.18720   1.22157   1.25204
 Alpha virt. eigenvalues --    1.31110   1.34229   1.37791   1.42765   1.44146
 Alpha virt. eigenvalues --    1.47157   1.47382   1.48128   1.49378   1.50819
 Alpha virt. eigenvalues --    1.53845   1.60048   1.71646   1.73425   1.73889
 Alpha virt. eigenvalues --    1.77942   1.79368   1.81652   1.88493   1.89049
 Alpha virt. eigenvalues --    1.91338   1.96945   1.98348   1.99557   2.05398
 Alpha virt. eigenvalues --    2.06968   2.09110   2.13469   2.14065   2.15640
 Alpha virt. eigenvalues --    2.21740   2.23387   2.24504   2.29018   2.29414
 Alpha virt. eigenvalues --    2.30596   2.31945   2.38470   2.43811   2.47165
 Alpha virt. eigenvalues --    2.48881   2.57774   2.58099   2.64182   2.65173
 Alpha virt. eigenvalues --    2.71654   2.73225   2.74588   2.76947   2.80979
 Alpha virt. eigenvalues --    2.87618   2.89667   3.05683   3.37435   3.40534
 Alpha virt. eigenvalues --    3.61397   3.82599   4.08556   4.11183   4.13780
 Alpha virt. eigenvalues --    4.30083   4.33078   4.41549   4.69439
          Condensed to atoms (all electrons):
               1          2          3          4          5          6
     1  N    7.127335   0.197200  -0.158895   0.227721  -0.043686  -0.027345
     2  N    0.197200   6.500117   0.306936  -0.040486   0.005229  -0.007935
     3  N   -0.158895   0.306936   6.815658   0.006693   0.000024  -0.000223
     4  C    0.227721  -0.040486   0.006693   5.117745   0.374814   0.335635
     5  H   -0.043686   0.005229   0.000024   0.374814   0.549312  -0.034715
     6  H   -0.027345  -0.007935  -0.000223   0.335635  -0.034715   0.602025
     7  C   -0.062631  -0.001415   0.000171   0.333139  -0.031088  -0.030064
     8  C    0.001122  -0.000275  -0.000105  -0.070566  -0.006046   0.006714
     9  C   -0.000306   0.001557   0.000001  -0.041211   0.002752  -0.007507
    10  C    0.000089  -0.000066  -0.000001   0.005425  -0.000061  -0.000139
    11  H    0.005100   0.000171  -0.000128  -0.010155   0.001648   0.000207
    12  C   -0.000094  -0.000035   0.000000   0.006111  -0.000241   0.000236
    13  H    0.000072   0.000040  -0.000000  -0.010607   0.000154   0.008481
    14  C    0.000013  -0.000002  -0.000000   0.000390   0.000023   0.000001
    15  H    0.000001   0.000001  -0.000000  -0.000177   0.000000   0.000003
    16  H    0.000001   0.000000  -0.000000  -0.000170   0.000004  -0.000011
    17  H    0.000000  -0.000000  -0.000000   0.000008  -0.000000  -0.000000
               7          8          9         10         11         12
     1  N   -0.062631   0.001122  -0.000306   0.000089   0.005100  -0.000094
     2  N   -0.001415  -0.000275   0.001557  -0.000066   0.000171  -0.000035
     3  N    0.000171  -0.000105   0.000001  -0.000001  -0.000128   0.000000
     4  C    0.333139  -0.070566  -0.041211   0.005425  -0.010155   0.006111
     5  H   -0.031088  -0.006046   0.002752  -0.000061   0.001648  -0.000241
     6  H   -0.030064   0.006714  -0.007507  -0.000139   0.000207   0.000236
     7  C    4.711551   0.532160   0.545770  -0.018361  -0.045156  -0.022288
     8  C    0.532160   4.970894  -0.049236   0.528920   0.358788  -0.044025
     9  C    0.545770  -0.049236   4.965029  -0.044827   0.005789   0.523448
    10  C   -0.018361   0.528920  -0.044827   4.865217  -0.043224  -0.026491
    11  H   -0.045156   0.358788   0.005789  -0.043224   0.586083   0.000383
    12  C   -0.022288  -0.044025   0.523448  -0.026491   0.000383   4.863335
    13  H   -0.043463   0.006385   0.352555   0.000330  -0.000166  -0.045120
    14  C   -0.035478  -0.035041  -0.036954   0.544383   0.004588   0.553445
    15  H    0.003718  -0.039881   0.000890   0.357596  -0.005251   0.004549
    16  H    0.003905   0.000766  -0.039626   0.004596   0.000017   0.356890
    17  H    0.000683   0.004583   0.004700  -0.042724  -0.000168  -0.042916
              13         14         15         16         17
     1  N    0.000072   0.000013   0.000001   0.000001   0.000000
     2  N    0.000040  -0.000002   0.000001   0.000000  -0.000000
     3  N   -0.000000  -0.000000  -0.000000  -0.000000  -0.000000
     4  C   -0.010607   0.000390  -0.000177  -0.000170   0.000008
     5  H    0.000154   0.000023   0.000000   0.000004  -0.000000
     6  H    0.008481   0.000001   0.000003  -0.000011  -0.000000
     7  C   -0.043463  -0.035478   0.003718   0.003905   0.000683
     8  C    0.006385  -0.035041  -0.039881   0.000766   0.004583
     9  C    0.352555  -0.036954   0.000890  -0.039626   0.004700
    10  C    0.000330   0.544383   0.357596   0.004596  -0.042724
    11  H   -0.000166   0.004588  -0.005251   0.000017  -0.000168
    12  C   -0.045120   0.553445   0.004549   0.356890  -0.042916
    13  H    0.604580   0.004739   0.000017  -0.005478  -0.000178
    14  C    0.004739   4.852578  -0.042879  -0.042807   0.359687
    15  H    0.000017  -0.042879   0.593241  -0.000183  -0.005489
    16  H   -0.005478  -0.042807  -0.000183   0.595225  -0.005567
    17  H   -0.000178   0.359687  -0.005489  -0.005567   0.594472
 Mulliken charges:
               1
     1  N   -0.265697
     2  N    0.038965
     3  N    0.029870
     4  C   -0.234309
     5  H    0.181878
     6  H    0.154637
     7  C    0.158848
     8  C   -0.165157
     9  C   -0.182823
    10  C   -0.130663
    11  H    0.141473
    12  C   -0.127187
    13  H    0.127661
    14  C   -0.126688
    15  H    0.133844
    16  H    0.132438
    17  H    0.132910
 Sum of Mulliken charges =  -0.00000
 Mulliken charges with hydrogens summed into heavy atoms:
               1
     1  N   -0.265697
     2  N    0.038965
     3  N    0.029870
     4  C    0.102206
     7  C    0.158848
     8  C   -0.023684
     9  C   -0.055163
    10  C    0.003181
    12  C    0.005251
    14  C    0.006222
 Electronic spatial extent (au):  <R**2>=           3147.3092
 Charge=             -0.0000 electrons
 Dipole moment (field-independent basis, Debye):
    X=             -1.8872    Y=              0.4796    Z=             -0.6497  Tot=              2.0528
 Quadrupole moment (field-independent basis, Debye-Ang):
   XX=            -51.2048   YY=            -58.2371   ZZ=            -53.4214
   XY=              2.9199   XZ=              0.0566   YZ=              3.0689
 Traceless Quadrupole moment (field-independent basis, Debye-Ang):
   XX=              3.0830   YY=             -3.9493   ZZ=              0.8663
   XY=              2.9199   XZ=              0.0566   YZ=              3.0689
 Octapole moment (field-independent basis, Debye-Ang**2):
  XXX=            373.6546  YYY=             99.5703  ZZZ=             18.8718  XYY=            142.0116
  XXY=             22.5671  XXZ=             13.7997  XZZ=            128.2176  YZZ=             34.7334
  YYZ=              3.3180  XYZ=             -9.7933
 Hexadecapole moment (field-independent basis, Debye-Ang**3):
 XXXX=          -3121.8791 YYYY=           -486.2150 ZZZZ=           -364.9645 XXXY=             30.5558
 XXXZ=             -5.0138 YYYX=            -43.7580 YYYZ=            -59.9386 ZZZX=             40.2009
 ZZZY=            -48.4636 XXYY=           -688.7406 XXZZ=           -596.2345 YYZZ=           -141.8202
 XXYZ=             20.8534 YYXZ=             21.7137 ZZXY=            -18.7069
 N-N= 4.549415045577D+02 E-N=-1.919738200306D+03  KE= 4.306201289930D+02
 1\1\GINC-NODE11\SP\RB3LYP\6-31G(d)\C7H7N3\LIAOYT\07-Mar-2024\0\\# b3ly
 p/6-31g(d) nosymm em=gd3\\tmpdir/Subs_0_0.gjf\\0,1\N,0,-0.257727,-0.80
 1049,-0.676947\N,0,-0.317094,-2.120182,-0.417583\N,0,0.754488,-2.43260
 3,0.257598\C,0,-1.377644,-0.165498,-1.372512\H,0,-1.061621,0.847511,-1
 .631702\H,0,-1.53747,-0.716934,-2.303111\C,0,-2.651853,-0.135942,-0.55
 0793\C,0,-2.678223,0.48302,0.705822\C,0,-3.819746,-0.714363,-1.054375\
 C,0,-3.861294,0.519854,1.442015\H,0,-1.767989,0.925011,1.098701\C,0,-5
 .006464,-0.671098,-0.319192\H,0,-3.801067,-1.208941,-2.022781\C,0,-5.0
 29264,-0.053735,0.93129\H,0,-3.87246,0.997511,2.41836\H,0,-5.907358,-1
 .127296,-0.720755\H,0,-5.949818,-0.023428,1.508189\\Version=ES64L-G16R
 evA.03\HF=-435.0295761\RMSD=7.873e-09\Dipole=-0.7424921,0.1886887,-0.2
 556263\Quadrupole=2.2921162,-2.9362041,0.644088,2.1708577,0.0421177,2.
 281632\PG=C01 [X(C7H7N3)]\\@


 THERE'S SMALL CHOICE IN A BOWL OF ROTTEN APPLES.
                     SHAKESPEARE
 Job cpu time:       0 days  0 hours  5 minutes  6.5 seconds.
 Elapsed time:       0 days  0 hours  0 minutes 19.4 seconds.
 File lengths (MBytes):  RWF=     19 Int=      0 D2E=      0 Chk=      3 Scr=      1
 Normal termination of Gaussian 16 at Thu Mar  7 20:09:31 2024.
Thu Mar  7 20:09:31 CST 2024
