This job is running on host node10
Current directory: /share/home/Liaoyt/system-test/bnts-ome/ynets-vs/tmpdir/ori-sep
Thu Mar  7 20:06:16 CST 2024
/tmp/86147.mgr
 Entering Gaussian System, Link 0=g16
 Initial command:
 /share/apps/gaussian/g16/l1.exe "/tmp/86147.mgr/Gau-148350.inp" -scrdir="/tmp/86147.mgr/"
 Entering Link 1 = /share/apps/gaussian/g16/l1.exe PID=    148351.
  
 Copyright (c) 1988,1990,1992,1993,1995,1998,2003,2009,2016,
            Gaussian, Inc.  All Rights Reserved.
  
 This is part of the Gaussian(R) 16 program.  It is based on
 the Gaussian(R) 09 system (copyright 2009, Gaussian, Inc.),
 the Gaussian(R) 03 system (copyright 2003, Gaussian, Inc.),
 the Gaussian(R) 98 system (copyright 1998, Gaussian, Inc.),
 the Gaussian(R) 94 system (copyright 1995, Gaussian, Inc.),
 the Gaussian 92(TM) system (copyright 1992, Gaussian, Inc.),
 the Gaussian 90(TM) system (copyright 1990, Gaussian, Inc.),
 the Gaussian 88(TM) system (copyright 1988, Gaussian, Inc.),
 the Gaussian 86(TM) system (copyright 1986, Carnegie Mellon
 University), and the Gaussian 82(TM) system (copyright 1983,
 Carnegie Mellon University). Gaussian is a federally registered
 trademark of Gaussian, Inc.
  
 This software contains proprietary and confidential information,
 including trade secrets, belonging to Gaussian, Inc.
  
 This software is provided under written license and may be
 used, copied, transmitted, or stored only in accord with that
 written license.
  
 The following legend is applicable only to US Government
 contracts under FAR:
  
                    RESTRICTED RIGHTS LEGEND
  
 Use, reproduction and disclosure by the US Government is
 subject to restrictions as set forth in subparagraphs (a)
 and (c) of the Commercial Computer Software - Restricted
 Rights clause in FAR 52.227-19.
  
 Gaussian, Inc.
 340 Quinnipiac St., Bldg. 40, Wallingford CT 06492
  
  
 ---------------------------------------------------------------
 Warning -- This program may not be used in any manner that
 competes with the business of Gaussian, Inc. or will provide
 assistance to any competitor of Gaussian, Inc.  The licensee
 of this program is prohibited from giving any competitor of
 Gaussian, Inc. access to this program.  By using this program,
 the user acknowledges that Gaussian, Inc. is engaged in the
 business of creating and licensing software in the field of
 computational chemistry and represents and warrants to the
 licensee that it is not a competitor of Gaussian, Inc. and that
 it will not use this program in any manner prohibited above.
 ---------------------------------------------------------------
  

 Cite this work as:
 Gaussian 16, Revision A.03,
 M. J. Frisch, G. W. Trucks, H. B. Schlegel, G. E. Scuseria, 
 M. A. Robb, J. R. Cheeseman, G. Scalmani, V. Barone, 
 G. A. Petersson, H. Nakatsuji, X. Li, M. Caricato, A. V. Marenich, 
 J. Bloino, B. G. Janesko, R. Gomperts, B. Mennucci, H. P. Hratchian, 
 J. V. Ortiz, A. F. Izmaylov, J. L. Sonnenberg, D. Williams-Young, 
 F. Ding, F. Lipparini, F. Egidi, J. Goings, B. Peng, A. Petrone, 
 T. Henderson, D. Ranasinghe, V. G. Zakrzewski, J. Gao, N. Rega, 
 G. Zheng, W. Liang, M. Hada, M. Ehara, K. Toyota, R. Fukuda, 
 J. Hasegawa, M. Ishida, T. Nakajima, Y. Honda, O. Kitao, H. Nakai, 
 T. Vreven, K. Throssell, J. A. Montgomery, Jr., J. E. Peralta, 
 F. Ogliaro, M. J. Bearpark, J. J. Heyd, E. N. Brothers, K. N. Kudin, 
 V. N. Staroverov, T. A. Keith, R. Kobayashi, J. Normand, 
 K. Raghavachari, A. P. Rendell, J. C. Burant, S. S. Iyengar, 
 J. Tomasi, M. Cossi, J. M. Millam, M. Klene, C. Adamo, R. Cammi, 
 J. W. Ochterski, R. L. Martin, K. Morokuma, O. Farkas, 
 J. B. Foresman, and D. J. Fox, Gaussian, Inc., Wallingford CT, 2016.
 
 ******************************************
 Gaussian 16:  ES64L-G16RevA.03 25-Dec-2016
                 7-Mar-2024 
 ******************************************
 %chk=bnts-ts-pro.chk
 %nprocshared=16
 Will use up to   16 processors via shared memory.
 %mem=16GB
 ------------------------------
 # b3lyp/6-31g(d) nosymm em=gd3
 ------------------------------
 1/38=1,172=1/1;
 2/12=2,15=1,17=6,18=5,40=1/2;
 3/5=1,6=6,7=1,11=2,25=1,30=1,74=-5,124=31/1,2,3;
 4//1;
 5/5=2,38=5/2;
 6/7=2,8=2,9=2,10=2,28=1/1;
 99/5=1,9=1/99;
 -------------------
 tmpdir/Subs_0_0.gjf
 -------------------
 Symbolic Z-matrix:
 Charge =  0 Multiplicity = 1
 C                     2.81536  -1.44992   1.20387 
 C                     1.19388   1.21002  -0.3234 
 C                     0.87873  -0.24557  -0.15339 
 C                     1.51959  -1.31472   0.45434 
 H                     3.73733  -1.42809   0.56911 
 H                     2.75967  -2.42375   1.70115 
 H                     2.89196  -0.69966   2.0004 
 H                     2.22609   1.48159  -0.02283 
 H                     1.07261   1.4686   -1.39113 
 H                     0.39124   1.81223   0.29539 
 
                          Input orientation:                          
 ---------------------------------------------------------------------
 Center     Atomic      Atomic             Coordinates (Angstroms)
 Number     Number       Type             X           Y           Z
 ---------------------------------------------------------------------
      1          6           0        2.815363   -1.449917    1.203873
      2          6           0        1.193882    1.210024   -0.323396
      3          6           0        0.878727   -0.245571   -0.153391
      4          6           0        1.519588   -1.314724    0.454338
      5          1           0        3.737327   -1.428085    0.569113
      6          1           0        2.759673   -2.423746    1.701153
      7          1           0        2.891963   -0.699661    2.000401
      8          1           0        2.226086    1.481588   -0.022833
      9          1           0        1.072605    1.468603   -1.391131
     10          1           0        0.391242    1.812233    0.295391
 ---------------------------------------------------------------------
                    Distance matrix (angstroms):
                    1          2          3          4          5
     1  C    0.000000
     2  C    3.469443   0.000000
     3  C    2.653898   1.498993   0.000000
     4  C    1.503035   2.661824   1.386768   0.000000
     5  H    1.119561   3.771645   3.176783   2.223599   0.000000
     6  H    1.094866   4.444635   3.423702   2.079011   1.796848
     7  H    1.096909   3.454042   2.982975   2.156856   1.814891
     8  H    3.231993   1.108842   2.194425   2.923388   3.331734
     9  H    4.276565   1.105273   2.123201   3.369341   4.397056
    10  H    4.164532   1.178891   2.161852   3.328106   4.665927
                    6          7          8          9         10
     6  H    0.000000
     7  H    1.754856   0.000000
     8  H    4.302148   3.048724   0.000000
     9  H    5.249648   4.417456   1.789673   0.000000
    10  H    5.052638   3.933227   1.891361   1.851133   0.000000
 Symmetry turned off by external request.
 Stoichiometry    C4H6
 Framework group  C1[X(C4H6)]
 Deg. of freedom    24
 Full point group                 C1      NOp   1
 Rotational constants (GHZ):          22.3769138           4.4515336           3.9098309
 Standard basis: 6-31G(d) (6D, 7F)
    72 basis functions,   136 primitive gaussians,    72 cartesian basis functions
    15 alpha electrons       15 beta electrons
       nuclear repulsion energy        98.6789752348 Hartrees.
 NAtoms=   10 NActive=   10 NUniq=   10 SFac= 1.00D+00 NAtFMM=   60 NAOKFM=F Big=F
 Integral buffers will be    131072 words long.
 Raffenetti 2 integral format.
 Two-electron integral symmetry is turned off.
 Nuclear repulsion after empirical dispersion term =       98.6759207670 Hartrees.
 One-electron integrals computed using PRISM.
 NBasis=    72 RedAO= T EigKep=  4.90D-03  NBF=    72
 NBsUse=    72 1.00D-06 EigRej= -1.00D+00 NBFU=    72
 ExpMin= 1.61D-01 ExpMax= 3.05D+03 ExpMxC= 4.57D+02 IAcc=3 IRadAn=         5 AccDes= 0.00D+00
 Harris functional with IExCor=  402 and IRadAn=       5 diagonalized for initial guess.
 HarFok:  IExCor=  402 AccDes= 0.00D+00 IRadAn=         5 IDoV= 1 UseB2=F ITyADJ=14
 ICtDFT=  3500011 ScaDFX=  1.000000  1.000000  1.000000  1.000000
 FoFCou: FMM=F IPFlag=           0 FMFlag=      100000 FMFlg1=           0
         NFxFlg=           0 DoJE=T BraDBF=F KetDBF=T FulRan=T
         wScrn=  0.000000 ICntrl=       500 IOpCl=  0 I1Cent=   200000004 NGrid=           0
         NMat0=    1 NMatS0=      1 NMatT0=    0 NMatD0=    1 NMtDS0=    0 NMtDT0=    0
 Symmetry not used in FoFCou.
 Keep R1 ints in memory in canonical form, NReq=17794524.
 Requested convergence on RMS density matrix=1.00D-08 within 128 cycles.
 Requested convergence on MAX density matrix=1.00D-06.
 Requested convergence on             energy=1.00D-06.
 No special actions if energy rises.
 Integral accuracy reduced to 1.0D-05 until final iterations.
 Initial convergence to 1.0D-05 achieved.  Increase integral accuracy.
 SCF Done:  E(RB3LYP) =  -155.874516659     A.U. after   13 cycles
            NFock= 13  Conv=0.65D-08     -V/T= 2.0145

 **********************************************************************

            Population analysis using the SCF density.

 **********************************************************************

 Alpha  occ. eigenvalues --  -10.22114 -10.21251 -10.20554 -10.20467  -0.77083
 Alpha  occ. eigenvalues --   -0.73020  -0.62514  -0.47498  -0.43610  -0.42602
 Alpha  occ. eigenvalues --   -0.41185  -0.40402  -0.39503  -0.22228  -0.22146
 Alpha virt. eigenvalues --   -0.08041   0.02597   0.09395   0.12433   0.15405
 Alpha virt. eigenvalues --    0.16018   0.16846   0.18022   0.23869   0.26882
 Alpha virt. eigenvalues --    0.42653   0.47209   0.53074   0.54677   0.58137
 Alpha virt. eigenvalues --    0.58518   0.61822   0.63217   0.64734   0.70468
 Alpha virt. eigenvalues --    0.71391   0.73097   0.78618   0.82918   0.84968
 Alpha virt. eigenvalues --    0.85950   0.87875   0.88544   0.90950   0.94589
 Alpha virt. eigenvalues --    1.12180   1.28212   1.36695   1.41891   1.49701
 Alpha virt. eigenvalues --    1.52939   1.57936   1.69936   1.72336   1.84872
 Alpha virt. eigenvalues --    1.98195   2.04624   2.06565   2.08517   2.19609
 Alpha virt. eigenvalues --    2.19848   2.22928   2.30731   2.33313   2.48965
 Alpha virt. eigenvalues --    2.53059   2.76562   2.96114   4.00215   4.15875
 Alpha virt. eigenvalues --    4.27786   4.47755
          Condensed to atoms (all electrons):
               1          2          3          4          5          6
     1  C    5.020550   0.002071  -0.045212   0.384565   0.369373   0.366904
     2  C    0.002071   5.030341   0.388239  -0.047173   0.000054  -0.000014
     3  C   -0.045212   0.388239   5.027254   0.788248  -0.005411   0.004336
     4  C    0.384565  -0.047173   0.788248   5.050218  -0.029501  -0.045439
     5  H    0.369373   0.000054  -0.005411  -0.029501   0.552467  -0.031568
     6  H    0.366904  -0.000014   0.004336  -0.045439  -0.031568   0.571814
     7  H    0.376563   0.000293  -0.010724  -0.034295  -0.030706  -0.035587
     8  H    0.001338   0.374829  -0.034313  -0.014879   0.000906  -0.000143
     9  H   -0.000076   0.364305  -0.040345   0.002515   0.000061   0.000002
    10  H   -0.000076   0.359045  -0.040843  -0.000040  -0.000058   0.000008
               7          8          9         10
     1  C    0.376563   0.001338  -0.000076  -0.000076
     2  C    0.000293   0.374829   0.364305   0.359045
     3  C   -0.010724  -0.034313  -0.040345  -0.040843
     4  C   -0.034295  -0.014879   0.002515  -0.000040
     5  H   -0.030706   0.000906   0.000061  -0.000058
     6  H   -0.035587  -0.000143   0.000002   0.000008
     7  H    0.552122   0.002364  -0.000100   0.000178
     8  H    0.002364   0.559702  -0.037785  -0.028446
     9  H   -0.000100  -0.037785   0.564466  -0.027387
    10  H    0.000178  -0.028446  -0.027387   0.578915
 Mulliken charges:
               1
     1  C   -0.475999
     2  C   -0.471992
     3  C   -0.031228
     4  C   -0.054217
     5  H    0.174382
     6  H    0.169689
     7  H    0.179891
     8  H    0.176426
     9  H    0.174344
    10  H    0.158704
 Sum of Mulliken charges =  -0.00000
 Mulliken charges with hydrogens summed into heavy atoms:
               1
     1  C    0.047963
     2  C    0.037482
     3  C   -0.031228
     4  C   -0.054217
 Electronic spatial extent (au):  <R**2>=            690.7241
 Charge=             -0.0000 electrons
 Dipole moment (field-independent basis, Debye):
    X=              1.3981    Y=              1.1480    Z=              0.5076  Tot=              1.8789
 Quadrupole moment (field-independent basis, Debye-Ang):
   XX=            -20.2627   YY=            -24.6962   ZZ=            -24.6997
   XY=             -0.2785   XZ=              2.0318   YZ=             -1.3764
 Traceless Quadrupole moment (field-independent basis, Debye-Ang):
   XX=              2.9568   YY=             -1.4767   ZZ=             -1.4802
   XY=             -0.2785   XZ=              2.0318   YZ=             -1.3764
 Octapole moment (field-independent basis, Debye-Ang**2):
  XXX=           -111.0746  YYY=             28.4611  ZZZ=            -24.1654  XYY=            -39.6596
  XXY=              6.1179  XXZ=             -2.4981  XZZ=            -40.2034  YZZ=              9.5400
  YYZ=             -6.1363  XYZ=             -3.4362
 Hexadecapole moment (field-independent basis, Debye-Ang**3):
 XXXX=           -511.0893 YYYY=           -265.8405 ZZZZ=           -117.2549 XXXY=             81.2028
 XXXZ=            -65.2240 YYYX=             91.0829 YYYZ=             54.3516 ZZZX=            -74.5876
 ZZZY=             56.2955 XXYY=           -129.3847 XXZZ=           -108.7555 YYZZ=            -62.1293
 XXYZ=             13.1739 YYXZ=            -21.8485 ZZXY=             29.8786
 N-N= 9.867592076705D+01 E-N=-5.570440719210D+02  KE= 1.536537913467D+02
 1\1\GINC-NODE10\SP\RB3LYP\6-31G(d)\C4H6\LIAOYT\07-Mar-2024\0\\# b3lyp/
 6-31g(d) nosymm em=gd3\\tmpdir/Subs_0_0.gjf\\0,1\C,0,2.815363,-1.44991
 7,1.203873\C,0,1.193882,1.210024,-0.323396\C,0,0.878727,-0.245571,-0.1
 53391\C,0,1.519588,-1.314724,0.454338\H,0,3.73732737,-1.42808532,0.569
 11257\H,0,2.759673,-2.423746,1.701153\H,0,2.891963,-0.699661,2.000401\
 H,0,2.22608625,1.48158839,-0.02283274\H,0,1.072605,1.468603,-1.391131\
 H,0,0.39124189,1.81223275,0.29539138\\Version=ES64L-G16RevA.03\HF=-155
 .8745167\RMSD=6.550e-09\Dipole=0.5500582,0.4516395,0.1996898\Quadrupol
 e=2.1983383,-1.0978617,-1.1004765,-0.2070261,1.5106278,-1.0232842\PG=C
 01 [X(C4H6)]\\@


 BULLDOZER: SOMEONE WHO SLEEPS THROUGH SPEECHES.
 Job cpu time:       0 days  0 hours  0 minutes 44.1 seconds.
 Elapsed time:       0 days  0 hours  0 minutes  3.1 seconds.
 File lengths (MBytes):  RWF=      6 Int=      0 D2E=      0 Chk=      1 Scr=      1
 Normal termination of Gaussian 16 at Thu Mar  7 20:06:19 2024.
Thu Mar  7 20:06:19 CST 2024
