This job is running on host node103
Current directory: /share/home/Liaoyt/system-test/bnts-ome/Ene-Me/nogd3/Linear
Fri Aug 30 10:33:35 CST 2024
/tmp/95789.mgr
 Entering Gaussian System, Link 0=g16
 Initial command:
 /share/apps/gaussian/g16/l1.exe "/tmp/95789.mgr/Gau-118841.inp" -scrdir="/tmp/95789.mgr/"
 Entering Link 1 = /share/apps/gaussian/g16/l1.exe PID=    118842.
  
 Copyright (c) 1988,1990,1992,1993,1995,1998,2003,2009,2016,
            Gaussian, Inc.  All Rights Reserved.
  
 This is part of the Gaussian(R) 16 program.  It is based on
 the Gaussian(R) 09 system (copyright 2009, Gaussian, Inc.),
 the Gaussian(R) 03 system (copyright 2003, Gaussian, Inc.),
 the Gaussian(R) 98 system (copyright 1998, Gaussian, Inc.),
 the Gaussian(R) 94 system (copyright 1995, Gaussian, Inc.),
 the Gaussian 92(TM) system (copyright 1992, Gaussian, Inc.),
 the Gaussian 90(TM) system (copyright 1990, Gaussian, Inc.),
 the Gaussian 88(TM) system (copyright 1988, Gaussian, Inc.),
 the Gaussian 86(TM) system (copyright 1986, Carnegie Mellon
 University), and the Gaussian 82(TM) system (copyright 1983,
 Carnegie Mellon University). Gaussian is a federally registered
 trademark of Gaussian, Inc.
  
 This software contains proprietary and confidential information,
 including trade secrets, belonging to Gaussian, Inc.
  
 This software is provided under written license and may be
 used, copied, transmitted, or stored only in accord with that
 written license.
  
 The following legend is applicable only to US Government
 contracts under FAR:
  
                    RESTRICTED RIGHTS LEGEND
  
 Use, reproduction and disclosure by the US Government is
 subject to restrictions as set forth in subparagraphs (a)
 and (c) of the Commercial Computer Software - Restricted
 Rights clause in FAR 52.227-19.
  
 Gaussian, Inc.
 340 Quinnipiac St., Bldg. 40, Wallingford CT 06492
  
  
 ---------------------------------------------------------------
 Warning -- This program may not be used in any manner that
 competes with the business of Gaussian, Inc. or will provide
 assistance to any competitor of Gaussian, Inc.  The licensee
 of this program is prohibited from giving any competitor of
 Gaussian, Inc. access to this program.  By using this program,
 the user acknowledges that Gaussian, Inc. is engaged in the
 business of creating and licensing software in the field of
 computational chemistry and represents and warrants to the
 licensee that it is not a competitor of Gaussian, Inc. and that
 it will not use this program in any manner prohibited above.
 ---------------------------------------------------------------
  

 Cite this work as:
 Gaussian 16, Revision A.03,
 M. J. Frisch, G. W. Trucks, H. B. Schlegel, G. E. Scuseria, 
 M. A. Robb, J. R. Cheeseman, G. Scalmani, V. Barone, 
 G. A. Petersson, H. Nakatsuji, X. Li, M. Caricato, A. V. Marenich, 
 J. Bloino, B. G. Janesko, R. Gomperts, B. Mennucci, H. P. Hratchian, 
 J. V. Ortiz, A. F. Izmaylov, J. L. Sonnenberg, D. Williams-Young, 
 F. Ding, F. Lipparini, F. Egidi, J. Goings, B. Peng, A. Petrone, 
 T. Henderson, D. Ranasinghe, V. G. Zakrzewski, J. Gao, N. Rega, 
 G. Zheng, W. Liang, M. Hada, M. Ehara, K. Toyota, R. Fukuda, 
 J. Hasegawa, M. Ishida, T. Nakajima, Y. Honda, O. Kitao, H. Nakai, 
 T. Vreven, K. Throssell, J. A. Montgomery, Jr., J. E. Peralta, 
 F. Ogliaro, M. J. Bearpark, J. J. Heyd, E. N. Brothers, K. N. Kudin, 
 V. N. Staroverov, T. A. Keith, R. Kobayashi, J. Normand, 
 K. Raghavachari, A. P. Rendell, J. C. Burant, S. S. Iyengar, 
 J. Tomasi, M. Cossi, J. M. Millam, M. Klene, C. Adamo, R. Cammi, 
 J. W. Ochterski, R. L. Martin, K. Morokuma, O. Farkas, 
 J. B. Foresman, and D. J. Fox, Gaussian, Inc., Wallingford CT, 2016.
 
 ******************************************
 Gaussian 16:  ES64L-G16RevA.03 25-Dec-2016
                30-Aug-2024 
 ******************************************
 %chk=bnme-ts-sp.chk
 %nprocshared=24
 Will use up to   24 processors via shared memory.
 %mem=24GB
 ----------------------------
 #P MP2 IOp(3/125=0333312000)
 ----------------------------
 1/38=1,172=1/1;
 2/12=2,17=6,18=5,40=1/2;
 3/11=9,25=1,30=1,125=333312000/1,2,3;
 4//1;
 5/5=2,38=5/2;
 8/10=1/1;
 9/16=-3/6;
 6/7=2,8=2,9=2,10=2/1;
 99/5=1,9=1/99;
 Leave Link    1 at Fri Aug 30 10:33:35 2024, MaxMem=  3221225472 cpu:               1.8 elap:               0.1
 (Enter /share/apps/gaussian/g16/l101.exe)
 -----
 title
 -----
 Symbolic Z-matrix:
 Charge =  0 Multiplicity = 1
 C                     2.24722   0.18267   0.92958 
 C                     2.84394  -0.54051   0.11829 
 N                     0.8512    1.31045  -0.40187 
 N                     1.12774   0.66049  -1.45322 
 N                     1.92869  -0.12201  -1.79669 
 C                    -0.52889   1.72104  -0.15981 
 H                    -0.4833    2.26746   0.79018 
 H                    -0.84651   2.45232  -0.91566 
 C                    -1.54685   0.59511  -0.05816 
 C                    -1.16655  -0.70892   0.27998 
 C                    -2.9023    0.87383  -0.27146 
 C                    -2.12898  -1.71277   0.40603 
 H                    -0.11677  -0.94077   0.43265 
 C                    -3.86412  -0.12803  -0.14167 
 H                    -3.20706   1.88231  -0.54471 
 C                    -3.47908  -1.42686   0.19835 
 H                    -1.8198   -2.72231   0.66427 
 H                    -4.91205   0.10347  -0.31383 
 H                    -4.22584  -2.21046   0.29457 
 C                     3.82324  -1.54399  -0.33852 
 H                     4.51317  -1.11051  -1.07095 
 H                     4.40975  -1.93509   0.50137 
 H                     3.31953  -2.38213  -0.83224 
 C                     1.83944   0.80973   2.19578 
 H                     0.78372   0.60988   2.41611 
 H                     2.43759   0.41877   3.02842 
 H                     1.97171   1.89672   2.16184 
 
 ITRead=  0  0  0  0  0  0  0  0  0  0  0  0  0  0  0  0  0  0  0  0
 ITRead=  0  0  0  0  0  0  0
 MicOpt= -1 -1 -1 -1 -1 -1 -1 -1 -1 -1 -1 -1 -1 -1 -1 -1 -1 -1 -1 -1
 MicOpt= -1 -1 -1 -1 -1 -1 -1
 NAtoms=     27 NQM=       27 NQMF=       0 NMMI=      0 NMMIF=      0
                NMic=       0 NMicF=      0.
                    Isotopes and Nuclear Properties:
 (Nuclear quadrupole moments (NQMom) in fm**2, nuclear magnetic moments (NMagM)
  in nuclear magnetons)

  Atom         1           2           3           4           5           6           7           8           9          10
 IAtWgt=          12          12          14          14          14          12           1           1          12          12
 AtmWgt=  12.0000000  12.0000000  14.0030740  14.0030740  14.0030740  12.0000000   1.0078250   1.0078250  12.0000000  12.0000000
 NucSpn=           0           0           2           2           2           0           1           1           0           0
 AtZEff=  -0.0000000  -0.0000000  -0.0000000  -0.0000000  -0.0000000  -0.0000000  -0.0000000  -0.0000000  -0.0000000  -0.0000000
 NQMom=    0.0000000   0.0000000   2.0440000   2.0440000   2.0440000   0.0000000   0.0000000   0.0000000   0.0000000   0.0000000
 NMagM=    0.0000000   0.0000000   0.4037610   0.4037610   0.4037610   0.0000000   2.7928460   2.7928460   0.0000000   0.0000000
 AtZNuc=   6.0000000   6.0000000   7.0000000   7.0000000   7.0000000   6.0000000   1.0000000   1.0000000   6.0000000   6.0000000

  Atom        11          12          13          14          15          16          17          18          19          20
 IAtWgt=          12          12           1          12           1          12           1           1           1          12
 AtmWgt=  12.0000000  12.0000000   1.0078250  12.0000000   1.0078250  12.0000000   1.0078250   1.0078250   1.0078250  12.0000000
 NucSpn=           0           0           1           0           1           0           1           1           1           0
 AtZEff=  -0.0000000  -0.0000000  -0.0000000  -0.0000000  -0.0000000  -0.0000000  -0.0000000  -0.0000000  -0.0000000  -0.0000000
 NQMom=    0.0000000   0.0000000   0.0000000   0.0000000   0.0000000   0.0000000   0.0000000   0.0000000   0.0000000   0.0000000
 NMagM=    0.0000000   0.0000000   2.7928460   0.0000000   2.7928460   0.0000000   2.7928460   2.7928460   2.7928460   0.0000000
 AtZNuc=   6.0000000   6.0000000   1.0000000   6.0000000   1.0000000   6.0000000   1.0000000   1.0000000   1.0000000   6.0000000

  Atom        21          22          23          24          25          26          27
 IAtWgt=           1           1           1          12           1           1           1
 AtmWgt=   1.0078250   1.0078250   1.0078250  12.0000000   1.0078250   1.0078250   1.0078250
 NucSpn=           1           1           1           0           1           1           1
 AtZEff=  -0.0000000  -0.0000000  -0.0000000  -0.0000000  -0.0000000  -0.0000000  -0.0000000
 NQMom=    0.0000000   0.0000000   0.0000000   0.0000000   0.0000000   0.0000000   0.0000000
 NMagM=    2.7928460   2.7928460   2.7928460   0.0000000   2.7928460   2.7928460   2.7928460
 AtZNuc=   1.0000000   1.0000000   1.0000000   6.0000000   1.0000000   1.0000000   1.0000000
 Leave Link  101 at Fri Aug 30 10:33:36 2024, MaxMem=  3221225472 cpu:               3.7 elap:               0.2
 (Enter /share/apps/gaussian/g16/l202.exe)
                          Input orientation:                          
 ---------------------------------------------------------------------
 Center     Atomic      Atomic             Coordinates (Angstroms)
 Number     Number       Type             X           Y           Z
 ---------------------------------------------------------------------
      1          6           0        2.247220    0.182674    0.929575
      2          6           0        2.843937   -0.540508    0.118292
      3          7           0        0.851203    1.310451   -0.401869
      4          7           0        1.127736    0.660492   -1.453222
      5          7           0        1.928692   -0.122006   -1.796685
      6          6           0       -0.528893    1.721043   -0.159810
      7          1           0       -0.483295    2.267461    0.790180
      8          1           0       -0.846511    2.452315   -0.915660
      9          6           0       -1.546852    0.595107   -0.058162
     10          6           0       -1.166546   -0.708916    0.279984
     11          6           0       -2.902299    0.873830   -0.271455
     12          6           0       -2.128980   -1.712774    0.406030
     13          1           0       -0.116773   -0.940771    0.432649
     14          6           0       -3.864117   -0.128034   -0.141666
     15          1           0       -3.207061    1.882310   -0.544713
     16          6           0       -3.479083   -1.426857    0.198350
     17          1           0       -1.819801   -2.722307    0.664273
     18          1           0       -4.912049    0.103474   -0.313827
     19          1           0       -4.225837   -2.210457    0.294573
     20          6           0        3.823244   -1.543991   -0.338519
     21          1           0        4.513165   -1.110514   -1.070949
     22          1           0        4.409748   -1.935094    0.501371
     23          1           0        3.319527   -2.382132   -0.832244
     24          6           0        1.839444    0.809725    2.195784
     25          1           0        0.783721    0.609882    2.416109
     26          1           0        2.437593    0.418766    3.028417
     27          1           0        1.971706    1.896720    2.161840
 ---------------------------------------------------------------------
                    Distance matrix (angstroms):
                    1          2          3          4          5
     1  C    0.000000
     2  C    1.239856   0.000000
     3  N    2.234611   2.769044   0.000000
     4  N    2.675682   2.618664   1.266594   0.000000
     5  N    2.761663   2.163320   2.271217   1.171239   0.000000
     6  C    3.355614   4.070373   1.460083   2.354167   3.480792
     7  H    3.438238   4.405292   2.029220   3.195407   4.268384
     8  H    4.257621   4.862659   2.109518   2.719789   3.886526
     9  C    3.942170   4.538699   2.525969   3.017265   3.951724
    10  C    3.587576   4.017273   2.934975   3.184809   3.773263
    11  C    5.332702   5.930555   3.781061   4.205148   5.162992
    12  C    4.797702   5.117314   4.321352   4.437951   4.883359
    13  H    2.664118   3.004136   2.588706   2.769360   3.134363
    14  C    6.212289   6.725749   4.936718   5.221164   6.024596
    15  H    5.900124   6.551656   4.100846   4.594420   5.653377
    16  C    5.992981   6.385343   5.157955   5.320479   5.909893
    17  H    5.004993   5.177721   4.953187   4.961360   5.183539
    18  H    7.266874   7.794662   5.888940   6.171507   7.003245
    19  H    6.930424   7.266465   6.217569   6.321225   6.827387
    20  C    2.659565   1.474685   4.121272   3.656237   2.781657
    21  H    3.287695   2.127328   4.440575   3.839756   2.860654
    22  H    3.056931   2.131521   4.900270   4.618344   3.837185
    23  H    3.291212   2.126331   4.462400   3.800937   2.823604
    24  C    1.470632   2.673595   2.824030   3.720758   4.100719
    25  H    2.129347   3.293607   2.904540   3.884923   4.426539
    26  H    2.120641   3.090979   3.883117   4.675387   4.881908
    27  H    2.128929   3.298023   2.858643   3.912700   4.443762
                    6          7          8          9         10
     6  C    0.000000
     7  H    1.096874   0.000000
     8  H    1.098612   1.753849   0.000000
     9  C    1.521284   2.155831   2.162175   0.000000
    10  C    2.550435   3.096119   3.394903   1.399804   0.000000
    11  C    2.522556   2.986780   2.670745   1.400149   2.412884
    12  C    3.830346   4.324132   4.554070   2.425008   1.396387
    13  H    2.757917   3.248834   3.723370   2.155213   1.085858
    14  C    3.813546   4.246963   4.045147   2.428914   2.791434
    15  H    2.710487   3.057643   2.456563   2.156367   3.399747
    16  C    4.329108   4.793015   4.818654   2.808497   2.422794
    17  H    4.699885   5.167193   5.497290   3.406119   2.151317
    18  H    4.674645   5.051290   4.733694   3.410516   3.878322
    19  H    5.415769   5.856961   5.884382   3.895199   3.407947
    20  C    5.443664   5.860666   6.173343   5.787251   5.096852
    21  H    5.854079   6.311825   6.437701   6.376416   5.851958
    22  H    6.180184   6.456528   6.991823   6.495851   5.713806
    23  H    5.665558   6.221931   6.382375   5.757152   4.915440
    24  C    3.462419   3.081531   4.426459   4.073492   3.874601
    25  H    3.097256   2.645098   4.141606   3.399089   3.178962
    26  H    4.545410   4.118126   5.520544   5.043200   4.670693
    27  H    3.416711   2.836535   4.209755   4.359227   4.492143
                   11         12         13         14         15
    11  C    0.000000
    12  C    2.783438   0.000000
    13  H    3.398190   2.155383   0.000000
    14  C    1.394873   2.412897   3.877237   0.000000
    15  H    1.088385   3.871795   4.298244   2.153057   0.000000
    16  C    2.417966   1.395585   3.405335   1.396712   3.402459
    17  H    3.870348   1.086940   2.475444   3.399856   4.958693
    18  H    2.152751   3.400356   4.964106   1.086921   2.474783
    19  H    3.403670   2.157990   4.302973   2.158155   4.300354
    20  C    7.147257   6.000984   4.059841   7.819156   7.823506
    21  H    7.717896   6.830979   4.870929   8.485734   8.296735
    22  H    7.871045   6.543201   4.634953   8.493280   8.583860
    23  H    7.044636   5.627396   3.935179   7.560595   7.801570
    24  C    5.345606   5.031363   3.162225   6.234876   5.841915
    25  H    4.569400   4.233081   2.673860   5.356224   5.129511
    26  H    6.293702   5.681018   3.887305   7.075307   6.838957
    27  H    5.542847   5.738200   3.924691   6.592617   5.843395
                   16         17         18         19         20
    16  C    0.000000
    17  H    2.156036   0.000000
    18  H    2.158154   4.301595   0.000000
    19  H    1.086706   2.487504   2.489039   0.000000
    20  C    7.322973   5.851323   8.889325   8.101400   0.000000
    21  H    8.098594   6.761311   9.533187   8.913175   1.095603
    22  H    7.910991   6.281204   9.576858   8.642449   1.096523
    23  H    6.942317   5.363579   8.614281   7.630970   1.095434
    24  C    6.105634   5.311389   7.237375   7.037310   3.987246
    25  H    5.219029   4.577198   6.336466   6.127879   4.633125
    26  H    6.813418   5.794905   8.080052   7.667334   4.136267
    27  H    6.679263   6.160653   7.531981   7.665842   4.638802
                   21         22         23         24         25
    21  H    0.000000
    22  H    1.778431   0.000000
    23  H    1.760331   1.779594   0.000000
    24  C    4.637634   4.124504   4.641934   0.000000
    25  H    5.387772   4.826095   5.092569   1.096828   0.000000
    26  H    4.842675   3.976935   4.850520   1.097228   1.773905
    27  H    5.094447   4.835701   5.393490   1.095538   1.769721
                   26         27
    26  H    0.000000
    27  H    1.775487   0.000000
 Stoichiometry    C11H13N3
 Framework group  C1[X(C11H13N3)]
 Deg. of freedom    75
 Full point group                 C1      NOp   1
 Largest Abelian subgroup         C1      NOp   1
 Largest concise Abelian subgroup C1      NOp   1
                         Standard orientation:                         
 ---------------------------------------------------------------------
 Center     Atomic      Atomic             Coordinates (Angstroms)
 Number     Number       Type             X           Y           Z
 ---------------------------------------------------------------------
      1          6           0       -2.247220   -0.182674    0.929575
      2          6           0       -2.843937    0.540508    0.118292
      3          7           0       -0.851203   -1.310451   -0.401869
      4          7           0       -1.127736   -0.660492   -1.453222
      5          7           0       -1.928692    0.122006   -1.796685
      6          6           0        0.528893   -1.721043   -0.159810
      7          1           0        0.483295   -2.267461    0.790180
      8          1           0        0.846511   -2.452315   -0.915660
      9          6           0        1.546852   -0.595107   -0.058162
     10          6           0        1.166546    0.708916    0.279984
     11          6           0        2.902299   -0.873830   -0.271455
     12          6           0        2.128980    1.712774    0.406030
     13          1           0        0.116773    0.940771    0.432649
     14          6           0        3.864117    0.128034   -0.141666
     15          1           0        3.207061   -1.882310   -0.544713
     16          6           0        3.479083    1.426857    0.198350
     17          1           0        1.819801    2.722307    0.664273
     18          1           0        4.912049   -0.103474   -0.313827
     19          1           0        4.225837    2.210457    0.294573
     20          6           0       -3.823244    1.543991   -0.338519
     21          1           0       -4.513165    1.110514   -1.070949
     22          1           0       -4.409748    1.935094    0.501371
     23          1           0       -3.319527    2.382132   -0.832244
     24          6           0       -1.839444   -0.809725    2.195784
     25          1           0       -0.783721   -0.609882    2.416109
     26          1           0       -2.437593   -0.418766    3.028417
     27          1           0       -1.971706   -1.896720    2.161840
 ---------------------------------------------------------------------
 Rotational constants (GHZ):           1.2500037           0.3959143           0.3800486
 Leave Link  202 at Fri Aug 30 10:33:36 2024, MaxMem=  3221225472 cpu:               0.3 elap:               0.0
 (Enter /share/apps/gaussian/g16/l301.exe)
 Standard basis: STO-3G (5D, 7F)
 Ernie: Thresh=  0.10000D-02 Tol=  0.10000D-05 Strict=F.
 There are    83 symmetry adapted cartesian basis functions of A   symmetry.
 There are    83 symmetry adapted basis functions of A   symmetry.
    83 basis functions,   249 primitive gaussians,    83 cartesian basis functions
    50 alpha electrons       50 beta electrons
       nuclear repulsion energy       821.4605707556 Hartrees.
 IExCor=    0 DFT=F Ex=HF Corr=None ExCW=0 ScaHFX=  1.000000
 ScaDFX=  1.000000  1.000000  1.000000  1.000000 ScalE2=  0.333300  1.200000
 IRadAn=      5 IRanWt=     -1 IRanGd=            0 ICorTp=0 IEmpDi=  4
 NAtoms=   27 NActive=   27 NUniq=   27 SFac= 1.00D+00 NAtFMM=   60 NAOKFM=F Big=F
 Integral buffers will be    131072 words long.
 Raffenetti 1 integral format.
 Two-electron integral symmetry is turned on.
 Leave Link  301 at Fri Aug 30 10:33:37 2024, MaxMem=  3221225472 cpu:               1.8 elap:               0.1
 (Enter /share/apps/gaussian/g16/l302.exe)
 NPDir=0 NMtPBC=     1 NCelOv=     1 NCel=       1 NClECP=     1 NCelD=      1
         NCelK=      1 NCelE2=     1 NClLst=     1 CellRange=     0.0.
 One-electron integrals computed using PRISM.
 One-electron integral symmetry used in STVInt
 NBasis=    83 RedAO= T EigKep=  1.54D-01  NBF=    83
 NBsUse=    83 1.00D-06 EigRej= -1.00D+00 NBFU=    83
 Leave Link  302 at Fri Aug 30 10:33:37 2024, MaxMem=  3221225472 cpu:               3.2 elap:               0.2
 (Enter /share/apps/gaussian/g16/l303.exe)
 DipDrv:  MaxL=1.
 Leave Link  303 at Fri Aug 30 10:33:37 2024, MaxMem=  3221225472 cpu:               0.8 elap:               0.1
 (Enter /share/apps/gaussian/g16/l401.exe)
 ExpMin= 1.69D-01 ExpMax= 9.91D+01 ExpMxC= 9.91D+01 IAcc=3 IRadAn=         5 AccDes= 0.00D+00
 Harris functional with IExCor=  205 and IRadAn=       5 diagonalized for initial guess.
 HarFok:  IExCor=  205 AccDes= 0.00D+00 IRadAn=         5 IDoV= 1 UseB2=F ITyADJ=14
 ICtDFT=  3500011 ScaDFX=  1.000000  1.000000  1.000000  1.000000
 FoFCou: FMM=F IPFlag=           0 FMFlag=      100000 FMFlg1=           0
         NFxFlg=           0 DoJE=T BraDBF=F KetDBF=T FulRan=T
         wScrn=  0.000000 ICntrl=       500 IOpCl=  0 I1Cent=   200000004 NGrid=           0
         NMat0=    1 NMatS0=      1 NMatT0=    0 NMatD0=    1 NMtDS0=    0 NMtDT0=    0
 Petite list used in FoFCou.
 Harris En= -580.664146573884    
 JPrj=0 DoOrth=F DoCkMO=F.
 Leave Link  401 at Fri Aug 30 10:33:37 2024, MaxMem=  3221225472 cpu:               8.3 elap:               0.4
 (Enter /share/apps/gaussian/g16/l502.exe)
 Integral symmetry usage will be decided dynamically.
 Closed shell SCF:
 Using DIIS extrapolation, IDIIS=  1040.
 NGot=  3221225472 LenX=  3221208071 LenY=  3221200741
 Requested convergence on RMS density matrix=1.00D-08 within 128 cycles.
 Requested convergence on MAX density matrix=1.00D-06.
 Requested convergence on             energy=1.00D-06.
 No special actions if energy rises.
 Fock matrices will be formed incrementally for  20 cycles.
 Integral accuracy reduced to 1.0D-05 until final iterations.

 Cycle   1  Pass 0  IDiag  1:
 FoFJK:  IHMeth= 1 ICntrl=       0 DoSepK=F KAlg= 0 I1Cent=           0 FoldK=F
 IRaf= 890000000 NMat=       1 IRICut=       1 DoRegI=T DoRafI=F ISym2E= 0 IDoP0=0 IntGTp=1.
 FoFCou: FMM=F IPFlag=           0 FMFlag=      100000 FMFlg1=           0
         NFxFlg=           0 DoJE=F BraDBF=F KetDBF=F FulRan=T
         wScrn=  0.000000 ICntrl=         0 IOpCl=  0 I1Cent=           0 NGrid=           0
         NMat0=    1 NMatS0=      1 NMatT0=    0 NMatD0=    1 NMtDS0=    0 NMtDT0=    0
 Symmetry not used in FoFCou.
 E= -579.728380849189    
 DIIS: error= 4.63D-02 at cycle   1 NSaved=   1.
 NSaved= 1 IEnMin= 1 EnMin= -579.728380849189     IErMin= 1 ErrMin= 4.63D-02
 ErrMax= 4.63D-02  0.00D+00 EMaxC= 1.00D-01 BMatC= 2.65D-01 BMatP= 2.65D-01
 IDIUse=3 WtCom= 5.37D-01 WtEn= 4.63D-01
 Coeff-Com:  0.100D+01
 Coeff-En:   0.100D+01
 Coeff:      0.100D+01
 Gap=     0.618 Goal=   None    Shift=    0.000
 GapD=    0.618 DampG=2.000 DampE=0.500 DampFc=1.0000 IDamp=-1.
 RMSDP=8.91D-03 MaxDP=1.26D-01              OVMax= 0.00D+00

 Cycle   2  Pass 0  IDiag  1:
 RMSU=  8.90D-03    CP:  9.96D-01
 E= -579.952320793357     Delta-E=       -0.223939944169 Rises=F Damp=F
 DIIS: error= 2.51D-02 at cycle   2 NSaved=   2.
 NSaved= 2 IEnMin= 2 EnMin= -579.952320793357     IErMin= 2 ErrMin= 2.51D-02
 ErrMax= 2.51D-02  0.00D+00 EMaxC= 1.00D-01 BMatC= 2.54D-02 BMatP= 2.65D-01
 IDIUse=3 WtCom= 7.49D-01 WtEn= 2.51D-01
 Coeff-Com:  0.152D+00 0.848D+00
 Coeff-En:   0.000D+00 0.100D+01
 Coeff:      0.114D+00 0.886D+00
 Gap=     0.514 Goal=   None    Shift=    0.000
 RMSDP=3.34D-03 MaxDP=8.24D-02 DE=-2.24D-01 OVMax= 0.00D+00

 Cycle   3  Pass 0  IDiag  1:
 RMSU=  2.60D-03    CP:  9.96D-01  7.64D-01
 E= -579.969647021306     Delta-E=       -0.017326227949 Rises=F Damp=F
 DIIS: error= 1.74D-02 at cycle   3 NSaved=   3.
 NSaved= 3 IEnMin= 3 EnMin= -579.969647021306     IErMin= 3 ErrMin= 1.74D-02
 ErrMax= 1.74D-02  0.00D+00 EMaxC= 1.00D-01 BMatC= 1.12D-02 BMatP= 2.54D-02
 IDIUse=3 WtCom= 8.26D-01 WtEn= 1.74D-01
 Coeff-Com:  0.125D-02 0.391D+00 0.608D+00
 Coeff-En:   0.000D+00 0.218D+00 0.782D+00
 Coeff:      0.103D-02 0.361D+00 0.638D+00
 Gap=     0.481 Goal=   None    Shift=    0.000
 RMSDP=1.68D-03 MaxDP=4.35D-02 DE=-1.73D-02 OVMax= 0.00D+00

 Cycle   4  Pass 0  IDiag  1:
 RMSU=  9.46D-04    CP:  9.97D-01  8.39D-01  5.33D-01
 E= -579.980839252766     Delta-E=       -0.011192231459 Rises=F Damp=F
 DIIS: error= 4.26D-03 at cycle   4 NSaved=   4.
 NSaved= 4 IEnMin= 4 EnMin= -579.980839252766     IErMin= 4 ErrMin= 4.26D-03
 ErrMax= 4.26D-03  0.00D+00 EMaxC= 1.00D-01 BMatC= 1.02D-03 BMatP= 1.12D-02
 IDIUse=3 WtCom= 9.57D-01 WtEn= 4.26D-02
 Coeff-Com: -0.101D-01 0.899D-01 0.283D+00 0.637D+00
 Coeff-En:   0.000D+00 0.000D+00 0.000D+00 0.100D+01
 Coeff:     -0.962D-02 0.861D-01 0.271D+00 0.652D+00
 Gap=     0.474 Goal=   None    Shift=    0.000
 RMSDP=4.94D-04 MaxDP=9.36D-03 DE=-1.12D-02 OVMax= 0.00D+00

 Cycle   5  Pass 0  IDiag  1:
 RMSU=  3.20D-04    CP:  9.97D-01  8.40D-01  6.57D-01  7.96D-01
 E= -579.982056500861     Delta-E=       -0.001217248095 Rises=F Damp=F
 DIIS: error= 1.40D-03 at cycle   5 NSaved=   5.
 NSaved= 5 IEnMin= 5 EnMin= -579.982056500861     IErMin= 5 ErrMin= 1.40D-03
 ErrMax= 1.40D-03  0.00D+00 EMaxC= 1.00D-01 BMatC= 7.04D-05 BMatP= 1.02D-03
 IDIUse=3 WtCom= 9.86D-01 WtEn= 1.40D-02
 Coeff-Com: -0.236D-02-0.317D-01-0.317D-01 0.120D+00 0.946D+00
 Coeff-En:   0.000D+00 0.000D+00 0.000D+00 0.000D+00 0.100D+01
 Coeff:     -0.233D-02-0.313D-01-0.312D-01 0.118D+00 0.946D+00
 Gap=     0.473 Goal=   None    Shift=    0.000
 RMSDP=2.17D-04 MaxDP=3.80D-03 DE=-1.22D-03 OVMax= 0.00D+00

 Cycle   6  Pass 0  IDiag  1:
 RMSU=  1.30D-04    CP:  9.97D-01  8.44D-01  6.71D-01  9.62D-01  1.16D+00
 E= -579.982271009899     Delta-E=       -0.000214509038 Rises=F Damp=F
 DIIS: error= 7.25D-04 at cycle   6 NSaved=   6.
 NSaved= 6 IEnMin= 6 EnMin= -579.982271009899     IErMin= 6 ErrMin= 7.25D-04
 ErrMax= 7.25D-04  0.00D+00 EMaxC= 1.00D-01 BMatC= 1.88D-05 BMatP= 7.04D-05
 IDIUse=3 WtCom= 9.93D-01 WtEn= 7.25D-03
 Coeff-Com:  0.178D-02-0.141D-01-0.537D-01-0.152D+00 0.140D-01 0.120D+01
 Coeff-En:   0.000D+00 0.000D+00 0.000D+00 0.000D+00 0.000D+00 0.100D+01
 Coeff:      0.177D-02-0.140D-01-0.533D-01-0.151D+00 0.139D-01 0.120D+01
 Gap=     0.474 Goal=   None    Shift=    0.000
 RMSDP=1.80D-04 MaxDP=3.71D-03 DE=-2.15D-04 OVMax= 0.00D+00

 Cycle   7  Pass 0  IDiag  1:
 RMSU=  7.29D-05    CP:  9.97D-01  8.46D-01  6.84D-01  1.05D+00  1.52D+00
                    CP:  1.62D+00
 E= -579.982372392785     Delta-E=       -0.000101382886 Rises=F Damp=F
 DIIS: error= 4.36D-04 at cycle   7 NSaved=   7.
 NSaved= 7 IEnMin= 7 EnMin= -579.982372392785     IErMin= 7 ErrMin= 4.36D-04
 ErrMax= 4.36D-04  0.00D+00 EMaxC= 1.00D-01 BMatC= 5.72D-06 BMatP= 1.88D-05
 IDIUse=3 WtCom= 9.96D-01 WtEn= 4.36D-03
 Coeff-Com:  0.654D-03 0.379D-02-0.708D-03-0.443D-01-0.195D+00 0.107D+00
 Coeff-Com:  0.113D+01
 Coeff-En:   0.000D+00 0.000D+00 0.000D+00 0.000D+00 0.000D+00 0.000D+00
 Coeff-En:   0.100D+01
 Coeff:      0.651D-03 0.377D-02-0.705D-03-0.441D-01-0.194D+00 0.107D+00
 Coeff:      0.113D+01
 Gap=     0.475 Goal=   None    Shift=    0.000
 RMSDP=1.20D-04 MaxDP=2.52D-03 DE=-1.01D-04 OVMax= 0.00D+00

 Cycle   8  Pass 0  IDiag  1:
 RMSU=  3.88D-05    CP:  9.97D-01  8.46D-01  6.91D-01  1.08D+00  1.70D+00
                    CP:  2.23D+00  1.57D+00
 E= -579.982412916374     Delta-E=       -0.000040523589 Rises=F Damp=F
 DIIS: error= 3.48D-04 at cycle   8 NSaved=   8.
 NSaved= 8 IEnMin= 8 EnMin= -579.982412916374     IErMin= 8 ErrMin= 3.48D-04
 ErrMax= 3.48D-04  0.00D+00 EMaxC= 1.00D-01 BMatC= 2.28D-06 BMatP= 5.72D-06
 IDIUse=3 WtCom= 9.97D-01 WtEn= 3.48D-03
 Coeff-Com: -0.109D-02 0.520D-02 0.290D-01 0.107D+00 0.532D-01-0.658D+00
 Coeff-Com: -0.274D+00 0.174D+01
 Coeff-En:   0.000D+00 0.000D+00 0.000D+00 0.000D+00 0.000D+00 0.000D+00
 Coeff-En:   0.000D+00 0.100D+01
 Coeff:     -0.109D-02 0.518D-02 0.289D-01 0.107D+00 0.530D-01-0.656D+00
 Coeff:     -0.273D+00 0.174D+01
 Gap=     0.475 Goal=   None    Shift=    0.000
 RMSDP=1.34D-04 MaxDP=2.70D-03 DE=-4.05D-05 OVMax= 0.00D+00

 Cycle   9  Pass 0  IDiag  1:
 RMSU=  1.88D-05    CP:  9.97D-01  8.46D-01  6.95D-01  1.11D+00  1.85D+00
                    CP:  2.85D+00  2.64D+00  2.18D+00
 E= -579.982437763379     Delta-E=       -0.000024847005 Rises=F Damp=F
 DIIS: error= 1.26D-04 at cycle   9 NSaved=   9.
 NSaved= 9 IEnMin= 9 EnMin= -579.982437763379     IErMin= 9 ErrMin= 1.26D-04
 ErrMax= 1.26D-04  0.00D+00 EMaxC= 1.00D-01 BMatC= 4.02D-07 BMatP= 2.28D-06
 IDIUse=3 WtCom= 9.99D-01 WtEn= 1.26D-03
 Coeff-Com:  0.342D-03-0.424D-02-0.126D-01-0.318D-01 0.651D-02 0.268D+00
 Coeff-Com: -0.807D-01-0.918D+00 0.177D+01
 Coeff-En:   0.000D+00 0.000D+00 0.000D+00 0.000D+00 0.000D+00 0.000D+00
 Coeff-En:   0.000D+00 0.000D+00 0.100D+01
 Coeff:      0.342D-03-0.423D-02-0.126D-01-0.317D-01 0.650D-02 0.267D+00
 Coeff:     -0.806D-01-0.916D+00 0.177D+01
 Gap=     0.475 Goal=   None    Shift=    0.000
 RMSDP=7.35D-05 MaxDP=1.45D-03 DE=-2.48D-05 OVMax= 0.00D+00

 Cycle  10  Pass 0  IDiag  1:
 RMSU=  2.72D-05    CP:  9.97D-01  8.46D-01  6.97D-01  1.12D+00  1.91D+00
                    CP:  3.00D+00  3.00D+00  3.00D+00  1.97D+00
 E= -579.982442746864     Delta-E=       -0.000004983485 Rises=F Damp=F
 DIIS: error= 3.30D-05 at cycle  10 NSaved=  10.
 NSaved=10 IEnMin=10 EnMin= -579.982442746864     IErMin=10 ErrMin= 3.30D-05
 ErrMax= 3.30D-05  0.00D+00 EMaxC= 1.00D-01 BMatC= 4.30D-08 BMatP= 4.02D-07
 IDIUse=1 WtCom= 1.00D+00 WtEn= 0.00D+00
 Coeff-Com:  0.813D-04-0.540D-04-0.164D-02-0.734D-02-0.882D-02 0.394D-01
 Coeff-Com:  0.501D-01-0.725D-01-0.324D+00 0.133D+01
 Coeff:      0.813D-04-0.540D-04-0.164D-02-0.734D-02-0.882D-02 0.394D-01
 Coeff:      0.501D-01-0.725D-01-0.324D+00 0.133D+01
 Gap=     0.475 Goal=   None    Shift=    0.000
 RMSDP=1.88D-05 MaxDP=3.71D-04 DE=-4.98D-06 OVMax= 0.00D+00

 Cycle  11  Pass 0  IDiag  1:
 RMSU=  8.62D-06    CP:  9.97D-01  8.46D-01  6.97D-01  1.12D+00  1.92D+00
                    CP:  3.00D+00  3.00D+00  3.00D+00  2.36D+00  1.52D+00
 E= -579.982443101481     Delta-E=       -0.000000354618 Rises=F Damp=F
 DIIS: error= 1.18D-05 at cycle  11 NSaved=  11.
 NSaved=11 IEnMin=11 EnMin= -579.982443101481     IErMin=11 ErrMin= 1.18D-05
 ErrMax= 1.18D-05  0.00D+00 EMaxC= 1.00D-01 BMatC= 8.34D-09 BMatP= 4.30D-08
 IDIUse=1 WtCom= 1.00D+00 WtEn= 0.00D+00
 Coeff-Com: -0.739D-04 0.694D-03 0.224D-02 0.661D-02 0.311D-02-0.533D-01
 Coeff-Com: -0.992D-02 0.180D+00-0.209D+00-0.358D+00 0.144D+01
 Coeff:     -0.739D-04 0.694D-03 0.224D-02 0.661D-02 0.311D-02-0.533D-01
 Coeff:     -0.992D-02 0.180D+00-0.209D+00-0.358D+00 0.144D+01
 Gap=     0.475 Goal=   None    Shift=    0.000
 RMSDP=6.70D-06 MaxDP=1.32D-04 DE=-3.55D-07 OVMax= 0.00D+00

 Initial convergence to 1.0D-05 achieved.  Increase integral accuracy.
 Cycle  12  Pass 1  IDiag  1:
 E= -579.982450393688     Delta-E=       -0.000007292206 Rises=F Damp=F
 DIIS: error= 5.60D-06 at cycle   1 NSaved=   1.
 NSaved= 1 IEnMin= 1 EnMin= -579.982450393688     IErMin= 1 ErrMin= 5.60D-06
 ErrMax= 5.60D-06  0.00D+00 EMaxC= 1.00D-01 BMatC= 2.74D-09 BMatP= 2.74D-09
 IDIUse=1 WtCom= 1.00D+00 WtEn= 0.00D+00
 Coeff-Com:  0.100D+01
 Coeff:      0.100D+01
 Gap=     0.475 Goal=   None    Shift=    0.000
 RMSDP=6.70D-06 MaxDP=1.32D-04 DE=-7.29D-06 OVMax= 0.00D+00

 Cycle  13  Pass 1  IDiag  1:
 RMSU=  1.39D-06    CP:  1.00D+00
 E= -579.982450402410     Delta-E=       -0.000000008722 Rises=F Damp=F
 DIIS: error= 4.42D-06 at cycle   2 NSaved=   2.
 NSaved= 2 IEnMin= 2 EnMin= -579.982450402410     IErMin= 2 ErrMin= 4.42D-06
 ErrMax= 4.42D-06  0.00D+00 EMaxC= 1.00D-01 BMatC= 7.90D-10 BMatP= 2.74D-09
 IDIUse=1 WtCom= 1.00D+00 WtEn= 0.00D+00
 Coeff-Com: -0.334D-01 0.103D+01
 Coeff:     -0.334D-01 0.103D+01
 Gap=     0.475 Goal=   None    Shift=    0.000
 RMSDP=9.65D-07 MaxDP=2.65D-05 DE=-8.72D-09 OVMax= 0.00D+00

 Cycle  14  Pass 1  IDiag  1:
 RMSU=  6.59D-07    CP:  1.00D+00  1.51D+00
 E= -579.982450406478     Delta-E=       -0.000000004068 Rises=F Damp=F
 DIIS: error= 3.84D-06 at cycle   3 NSaved=   3.
 NSaved= 3 IEnMin= 3 EnMin= -579.982450406478     IErMin= 3 ErrMin= 3.84D-06
 ErrMax= 3.84D-06  0.00D+00 EMaxC= 1.00D-01 BMatC= 4.76D-10 BMatP= 7.90D-10
 IDIUse=1 WtCom= 1.00D+00 WtEn= 0.00D+00
 Coeff-Com: -0.238D+00 0.136D+00 0.110D+01
 Coeff:     -0.238D+00 0.136D+00 0.110D+01
 Gap=     0.475 Goal=   None    Shift=    0.000
 RMSDP=9.73D-07 MaxDP=2.12D-05 DE=-4.07D-09 OVMax= 0.00D+00

 Cycle  15  Pass 1  IDiag  1:
 RMSU=  3.70D-07    CP:  1.00D+00  2.10D+00  1.54D+00
 E= -579.982450409519     Delta-E=       -0.000000003042 Rises=F Damp=F
 DIIS: error= 2.57D-06 at cycle   4 NSaved=   4.
 NSaved= 4 IEnMin= 4 EnMin= -579.982450409519     IErMin= 4 ErrMin= 2.57D-06
 ErrMax= 2.57D-06  0.00D+00 EMaxC= 1.00D-01 BMatC= 2.33D-10 BMatP= 4.76D-10
 IDIUse=1 WtCom= 1.00D+00 WtEn= 0.00D+00
 Coeff-Com: -0.744D-01-0.524D+00 0.372D+00 0.123D+01
 Coeff:     -0.744D-01-0.524D+00 0.372D+00 0.123D+01
 Gap=     0.475 Goal=   None    Shift=    0.000
 RMSDP=1.15D-06 MaxDP=3.42D-05 DE=-3.04D-09 OVMax= 0.00D+00

 Cycle  16  Pass 1  IDiag  1:
 RMSU=  2.51D-07    CP:  1.00D+00  2.75D+00  2.49D+00  1.60D+00
 E= -579.982450411716     Delta-E=       -0.000000002197 Rises=F Damp=F
 DIIS: error= 1.66D-06 at cycle   5 NSaved=   5.
 NSaved= 5 IEnMin= 5 EnMin= -579.982450411716     IErMin= 5 ErrMin= 1.66D-06
 ErrMax= 1.66D-06  0.00D+00 EMaxC= 1.00D-01 BMatC= 8.65D-11 BMatP= 2.33D-10
 IDIUse=1 WtCom= 1.00D+00 WtEn= 0.00D+00
 Coeff-Com:  0.643D-01-0.298D+00-0.280D+00 0.565D+00 0.949D+00
 Coeff:      0.643D-01-0.298D+00-0.280D+00 0.565D+00 0.949D+00
 Gap=     0.475 Goal=   None    Shift=    0.000
 RMSDP=7.04D-07 MaxDP=1.80D-05 DE=-2.20D-09 OVMax= 0.00D+00

 Cycle  17  Pass 1  IDiag  1:
 RMSU=  2.20D-07    CP:  1.00D+00  3.00D+00  3.00D+00  2.31D+00  1.32D+00
 E= -579.982450412433     Delta-E=       -0.000000000717 Rises=F Damp=F
 DIIS: error= 8.07D-07 at cycle   6 NSaved=   6.
 NSaved= 6 IEnMin= 6 EnMin= -579.982450412433     IErMin= 6 ErrMin= 8.07D-07
 ErrMax= 8.07D-07  0.00D+00 EMaxC= 1.00D-01 BMatC= 2.25D-11 BMatP= 8.65D-11
 IDIUse=1 WtCom= 1.00D+00 WtEn= 0.00D+00
 Coeff-Com: -0.567D-01 0.501D+00 0.239D+00-0.101D+01-0.122D+01 0.255D+01
 Coeff:     -0.567D-01 0.501D+00 0.239D+00-0.101D+01-0.122D+01 0.255D+01
 Gap=     0.475 Goal=   None    Shift=    0.000
 RMSDP=5.90D-07 MaxDP=1.60D-05 DE=-7.17D-10 OVMax= 0.00D+00

 Cycle  18  Pass 1  IDiag  1:
 RMSU=  1.91D-07    CP:  1.00D+00  3.00D+00  3.00D+00  2.96D+00  2.26D+00
                    CP:  3.00D+00
 E= -579.982450412766     Delta-E=       -0.000000000333 Rises=F Damp=F
 DIIS: error= 3.59D-07 at cycle   7 NSaved=   7.
 NSaved= 7 IEnMin= 7 EnMin= -579.982450412766     IErMin= 7 ErrMin= 3.59D-07
 ErrMax= 3.59D-07  0.00D+00 EMaxC= 1.00D-01 BMatC= 3.90D-12 BMatP= 2.25D-11
 IDIUse=1 WtCom= 1.00D+00 WtEn= 0.00D+00
 Coeff-Com: -0.170D-01 0.837D-01 0.601D-01-0.135D+00-0.261D+00 0.244D-01
 Coeff-Com:  0.124D+01
 Coeff:     -0.170D-01 0.837D-01 0.601D-01-0.135D+00-0.261D+00 0.244D-01
 Coeff:      0.124D+01
 Gap=     0.475 Goal=   None    Shift=    0.000
 RMSDP=2.12D-07 MaxDP=5.27D-06 DE=-3.33D-10 OVMax= 0.00D+00

 Cycle  19  Pass 1  IDiag  1:
 RMSU=  1.75D-07    CP:  1.00D+00  3.00D+00  3.00D+00  3.00D+00  2.61D+00
                    CP:  3.00D+00  1.34D+00
 E= -579.982450412808     Delta-E=       -0.000000000042 Rises=F Damp=F
 DIIS: error= 1.49D-07 at cycle   8 NSaved=   8.
 NSaved= 8 IEnMin= 8 EnMin= -579.982450412808     IErMin= 8 ErrMin= 1.49D-07
 ErrMax= 1.49D-07  0.00D+00 EMaxC= 1.00D-01 BMatC= 6.96D-13 BMatP= 3.90D-12
 IDIUse=1 WtCom= 1.00D+00 WtEn= 0.00D+00
 Coeff-Com:  0.173D-01-0.139D+00-0.841D-01 0.298D+00 0.359D+00-0.665D+00
 Coeff-Com: -0.184D+00 0.140D+01
 Coeff:      0.173D-01-0.139D+00-0.841D-01 0.298D+00 0.359D+00-0.665D+00
 Coeff:     -0.184D+00 0.140D+01
 Gap=     0.475 Goal=   None    Shift=    0.000
 RMSDP=6.79D-08 MaxDP=1.48D-06 DE=-4.23D-11 OVMax= 0.00D+00

 Cycle  20  Pass 1  IDiag  1:
 RMSU=  2.61D-08    CP:  1.00D+00  3.00D+00  3.00D+00  3.00D+00  2.73D+00
                    CP:  3.00D+00  1.44D+00  1.30D+00
 E= -579.982450412813     Delta-E=       -0.000000000005 Rises=F Damp=F
 DIIS: error= 3.83D-08 at cycle   9 NSaved=   9.
 NSaved= 9 IEnMin= 9 EnMin= -579.982450412813     IErMin= 9 ErrMin= 3.83D-08
 ErrMax= 3.83D-08  0.00D+00 EMaxC= 1.00D-01 BMatC= 6.01D-14 BMatP= 6.96D-13
 IDIUse=1 WtCom= 1.00D+00 WtEn= 0.00D+00
 Coeff-Com:  0.436D-03 0.320D-02-0.278D-02-0.701D-02 0.670D-05 0.507D-01
 Coeff-Com: -0.127D+00-0.984D-01 0.118D+01
 Coeff:      0.436D-03 0.320D-02-0.278D-02-0.701D-02 0.670D-05 0.507D-01
 Coeff:     -0.127D+00-0.984D-01 0.118D+01
 Gap=     0.475 Goal=   None    Shift=    0.000
 RMSDP=1.27D-08 MaxDP=2.46D-07 DE=-5.23D-12 OVMax= 0.00D+00

 Cycle  21  Pass 1  IDiag  1:
 RMSU=  5.37D-09    CP:  1.00D+00  3.00D+00  3.00D+00  3.00D+00  2.74D+00
                    CP:  3.00D+00  1.45D+00  1.34D+00  1.27D+00
 E= -579.982450412814     Delta-E=       -0.000000000001 Rises=F Damp=F
 DIIS: error= 1.56D-08 at cycle  10 NSaved=  10.
 NSaved=10 IEnMin=10 EnMin= -579.982450412814     IErMin=10 ErrMin= 1.56D-08
 ErrMax= 1.56D-08  0.00D+00 EMaxC= 1.00D-01 BMatC= 1.36D-14 BMatP= 6.01D-14
 IDIUse=1 WtCom= 1.00D+00 WtEn= 0.00D+00
 Coeff-Com: -0.216D-02 0.194D-01 0.100D-01-0.416D-01-0.469D-01 0.105D+00
 Coeff-Com: -0.164D-01-0.210D+00 0.334D+00 0.849D+00
 Coeff:     -0.216D-02 0.194D-01 0.100D-01-0.416D-01-0.469D-01 0.105D+00
 Coeff:     -0.164D-01-0.210D+00 0.334D+00 0.849D+00
 Gap=     0.475 Goal=   None    Shift=    0.000
 RMSDP=3.40D-09 MaxDP=6.88D-08 DE=-9.09D-13 OVMax= 0.00D+00

 SCF Done:  E(RHF) =  -579.982450413     A.U. after   21 cycles
            NFock= 21  Conv=0.34D-08     -V/T= 2.0093
 KE= 5.746659434787D+02 PE=-2.995874218505D+03 EE= 1.019765253858D+03
 Leave Link  502 at Fri Aug 30 10:33:39 2024, MaxMem=  3221225472 cpu:              27.3 elap:               1.2
 (Enter /share/apps/gaussian/g16/l801.exe)
 DoSCS=T DFT=F ScalE2(SS,OS)=  0.333300  1.200000
 ExpMin= 1.69D-01 ExpMax= 9.91D+01 ExpMxC= 9.91D+01 IAcc=3 IRadAn=         5 AccDes= 0.00D+00
 HarFok:  IExCor=  205 AccDes= 0.00D+00 IRadAn=         5 IDoV=-2 UseB2=F ITyADJ=14
 ICtDFT= 12500011 ScaDFX=  1.000000  1.000000  1.000000  1.000000
 Largest valence mixing into a core orbital is  1.75D-04
 Largest core mixing into a valence orbital is  3.38D-04
 Range of M.O.s used for correlation:    15    83
 NBasis=    83 NAE=    50 NBE=    50 NFC=    14 NFV=     0
 NROrb=     69 NOA=    36 NOB=    36 NVA=    33 NVB=    33
 Leave Link  801 at Fri Aug 30 10:33:39 2024, MaxMem=  3221225472 cpu:               1.8 elap:               0.1
 (Enter /share/apps/gaussian/g16/l906.exe)
 DoSCS=T DFT=F ScalE2(SS,OS)=  0.333300  1.200000
 FulOut=F Deriv=F AODrv=F NAtomX=    27
   MMem=        1259  MDisk=          36 MDiskD=          36
  W3Min=       98604 MinDsk=      147802 NBas6D=          83
 NBas2D=        3570    NTT=        3486    LW2=     2000000
    MDV=  3221127210 MDiskM=      404006 NBas2p=        3408
 Fully in-core method, ICMem=    19113586.
 IMap=   1   2   3   4   5   6   7   8   9  10  11  12  13  14  15  16  17  18  19  20
 IMap=  21  22  23  24  25  26  27  28  29  30  31  32  33  34  35  36
 JobTyp=1 Pass  1 fully in-core, NPsUse= 24.
 Compute canonical integrals.
 FoFCou: FMM=F IPFlag=           0 FMFlag=           0 FMFlg1=           0
         NFxFlg=           0 DoJE=F BraDBF=F KetDBF=F FulRan=T
         wScrn=  0.000000 ICntrl=       600 IOpCl=  1 I1Cent=           0 NGrid=           0
         NMat0=    1 NMatS0=   3570 NMatT0=    0 NMatD0=    1 NMtDS0=    0 NMtDT0=    0
 Symmetry not used in FoFCou.
 Spin components of T(2) and E(2):
     alpha-alpha T2 =       0.5060639929D-01 E2=     -0.3214143486D-01
     alpha-beta  T2 =       0.3473011426D+00 E2=     -0.8411307639D+00
     beta-beta   T2 =       0.5060639929D-01 E2=     -0.3214143486D-01
 The integrals were generated   1 times.
 E2 =    -0.9054136337D+00 EUMP2 =    -0.58088786404647D+03
 Leave Link  906 at Fri Aug 30 10:33:40 2024, MaxMem=  3221225472 cpu:              10.9 elap:               0.5
 (Enter /share/apps/gaussian/g16/l601.exe)
 Copying SCF densities to generalized density rwf, IOpCl= 0 IROHF=0.

 **********************************************************************

            Population analysis using the SCF density.

 **********************************************************************

 Orbital symmetries:
       Occupied  (A) (A) (A) (A) (A) (A) (A) (A) (A) (A) (A) (A)
                 (A) (A) (A) (A) (A) (A) (A) (A) (A) (A) (A) (A)
                 (A) (A) (A) (A) (A) (A) (A) (A) (A) (A) (A) (A)
                 (A) (A) (A) (A) (A) (A) (A) (A) (A) (A) (A) (A)
                 (A) (A)
       Virtual   (A) (A) (A) (A) (A) (A) (A) (A) (A) (A) (A) (A)
                 (A) (A) (A) (A) (A) (A) (A) (A) (A) (A) (A) (A)
                 (A) (A) (A) (A) (A) (A) (A) (A) (A)
 The electronic state is 1-A.
 Alpha  occ. eigenvalues --  -15.55910 -15.44022 -15.35953 -11.10379 -11.06531
 Alpha  occ. eigenvalues --  -11.05963 -11.04391 -11.03424 -11.03341 -11.03226
 Alpha  occ. eigenvalues --  -11.03218 -11.02963 -10.99513 -10.97559  -1.40554
 Alpha  occ. eigenvalues --   -1.17229  -1.09637  -1.00142  -0.99056  -0.95860
 Alpha  occ. eigenvalues --   -0.94544  -0.89904  -0.85006  -0.77730  -0.75988
 Alpha  occ. eigenvalues --   -0.68415  -0.65861  -0.62957  -0.61177  -0.60801
 Alpha  occ. eigenvalues --   -0.58703  -0.58045  -0.54985  -0.54898  -0.54158
 Alpha  occ. eigenvalues --   -0.53503  -0.53315  -0.53111  -0.52469  -0.52036
 Alpha  occ. eigenvalues --   -0.51193  -0.45102  -0.44395  -0.43457  -0.33356
 Alpha  occ. eigenvalues --   -0.29576  -0.28426  -0.28208  -0.27115  -0.26581
 Alpha virt. eigenvalues --    0.20966   0.25888   0.26302   0.27407   0.37209
 Alpha virt. eigenvalues --    0.38075   0.48867   0.57183   0.58189   0.62002
 Alpha virt. eigenvalues --    0.63291   0.64739   0.67564   0.69163   0.70306
 Alpha virt. eigenvalues --    0.70610   0.70753   0.72416   0.72463   0.73583
 Alpha virt. eigenvalues --    0.74164   0.74542   0.76201   0.78007   0.83604
 Alpha virt. eigenvalues --    0.87078   0.88190   0.89391   0.91595   1.07281
 Alpha virt. eigenvalues --    1.08768   1.13860   1.38188
          Condensed to atoms (all electrons):
               1          2          3          4          5          6
     1  C    4.862338   0.818229   0.049334  -0.016473  -0.006922  -0.001617
     2  C    0.818229   4.921945  -0.013458  -0.015564   0.051464   0.000168
     3  N    0.049334  -0.013458   6.620652   0.344114  -0.044662   0.310383
     4  N   -0.016473  -0.015564   0.344114   6.172227   0.516742  -0.032792
     5  N   -0.006922   0.051464  -0.044662   0.516742   6.505554   0.001241
     6  C   -0.001617   0.000168   0.310383  -0.032792   0.001241   4.679384
     7  H   -0.000238   0.000006  -0.025446   0.001835  -0.000022   0.379640
     8  H    0.000085  -0.000005  -0.018919  -0.002476  -0.000002   0.376537
     9  C   -0.000024   0.000005  -0.019581  -0.001729   0.000068   0.372000
    10  C   -0.000670  -0.000181  -0.002691  -0.000098  -0.000017  -0.025852
    11  C   -0.000000  -0.000000   0.000399   0.000010  -0.000000  -0.027005
    12  C    0.000002   0.000001   0.000008  -0.000002   0.000000   0.000792
    13  H    0.000755   0.000129   0.000202  -0.000247  -0.000188  -0.003315
    14  C   -0.000000  -0.000000  -0.000003  -0.000000   0.000000   0.000790
    15  H    0.000000   0.000000   0.000013   0.000001  -0.000000  -0.003661
    16  C   -0.000000  -0.000000  -0.000000  -0.000000   0.000000   0.000014
    17  H    0.000001   0.000000   0.000000   0.000000  -0.000000  -0.000014
    18  H   -0.000000  -0.000000   0.000000   0.000000  -0.000000  -0.000014
    19  H    0.000000   0.000000   0.000000   0.000000   0.000000   0.000001
    20  C   -0.016544   0.391982   0.000120   0.000031  -0.006558  -0.000001
    21  H    0.000264  -0.023282   0.000003   0.000036  -0.000673  -0.000000
    22  H   -0.002278  -0.022724  -0.000004  -0.000008   0.000195   0.000000
    23  H    0.000291  -0.023239   0.000003   0.000044  -0.000744   0.000000
    24  C    0.394096  -0.015699  -0.007470   0.000097   0.000115  -0.000088
    25  H   -0.023627   0.000149  -0.000787   0.000038   0.000001  -0.000222
    26  H   -0.022152  -0.001740   0.000211  -0.000008  -0.000002  -0.000003
    27  H   -0.022919   0.000164  -0.000811   0.000037  -0.000001  -0.000052
               7          8          9         10         11         12
     1  C   -0.000238   0.000085  -0.000024  -0.000670  -0.000000   0.000002
     2  C    0.000006  -0.000005   0.000005  -0.000181  -0.000000   0.000001
     3  N   -0.025446  -0.018919  -0.019581  -0.002691   0.000399   0.000008
     4  N    0.001835  -0.002476  -0.001729  -0.000098   0.000010  -0.000002
     5  N   -0.000022  -0.000002   0.000068  -0.000017  -0.000000   0.000000
     6  C    0.379640   0.376537   0.372000  -0.025852  -0.027005   0.000792
     7  H    0.604902  -0.021629  -0.022842  -0.000380  -0.000680  -0.000012
     8  H   -0.021629   0.615878  -0.024225   0.000982  -0.003555  -0.000018
     9  C   -0.022842  -0.024225   4.802747   0.505081   0.504586  -0.029001
    10  C   -0.000380   0.000982   0.505081   4.790018  -0.031024   0.506805
    11  C   -0.000680  -0.003555   0.504586  -0.031024   4.786655  -0.011429
    12  C   -0.000012  -0.000018  -0.029001   0.506805  -0.011429   4.770847
    13  H    0.000072   0.000035  -0.025742   0.393438   0.001347  -0.024840
    14  C   -0.000014   0.000020  -0.028754  -0.011133   0.508535  -0.030683
    15  H    0.000123   0.000380  -0.026088   0.001346   0.392952   0.000036
    16  C    0.000003   0.000000  -0.010829  -0.029806  -0.030206   0.507113
    17  H    0.000000   0.000000   0.001347  -0.025642   0.000031   0.393748
    18  H    0.000000  -0.000001   0.001329   0.000028  -0.025455   0.001370
    19  H   -0.000000  -0.000000   0.000029   0.001346   0.001355  -0.025144
    20  C   -0.000000   0.000000  -0.000000   0.000000  -0.000000  -0.000000
    21  H   -0.000000  -0.000000   0.000000  -0.000000  -0.000000   0.000000
    22  H    0.000000  -0.000000   0.000000  -0.000000   0.000000   0.000000
    23  H    0.000000   0.000000  -0.000000   0.000002   0.000000  -0.000000
    24  C   -0.000185  -0.000004  -0.000008  -0.000132  -0.000000   0.000001
    25  H   -0.000146  -0.000001   0.000010   0.000056   0.000000  -0.000000
    26  H   -0.000004   0.000000  -0.000000   0.000001  -0.000000  -0.000000
    27  H   -0.000012  -0.000003   0.000002   0.000002   0.000000  -0.000000
              13         14         15         16         17         18
     1  C    0.000755  -0.000000   0.000000  -0.000000   0.000001  -0.000000
     2  C    0.000129  -0.000000   0.000000  -0.000000   0.000000  -0.000000
     3  N    0.000202  -0.000003   0.000013  -0.000000   0.000000   0.000000
     4  N   -0.000247  -0.000000   0.000001  -0.000000   0.000000   0.000000
     5  N   -0.000188   0.000000  -0.000000   0.000000  -0.000000  -0.000000
     6  C   -0.003315   0.000790  -0.003661   0.000014  -0.000014  -0.000014
     7  H    0.000072  -0.000014   0.000123   0.000003   0.000000   0.000000
     8  H    0.000035   0.000020   0.000380   0.000000   0.000000  -0.000001
     9  C   -0.025742  -0.028754  -0.026088  -0.010829   0.001347   0.001329
    10  C    0.393438  -0.011133   0.001346  -0.029806  -0.025642   0.000028
    11  C    0.001347   0.508535   0.392952  -0.030206   0.000031  -0.025455
    12  C   -0.024840  -0.030683   0.000036   0.507113   0.393748   0.001370
    13  H    0.588378   0.000032  -0.000033   0.001331  -0.003647   0.000002
    14  C    0.000032   4.771498  -0.025467   0.505620   0.001376   0.393714
    15  H   -0.000033  -0.025467   0.603704   0.001363   0.000002  -0.003674
    16  C    0.001331   0.505620   0.001363   4.775178  -0.025340  -0.025160
    17  H   -0.003647   0.001376   0.000002  -0.025340   0.597544  -0.000032
    18  H    0.000002   0.393714  -0.003674  -0.025160  -0.000032   0.597813
    19  H   -0.000030  -0.025216  -0.000031   0.393942  -0.003516  -0.003487
    20  C   -0.000003   0.000000  -0.000000  -0.000000   0.000000  -0.000000
    21  H    0.000000   0.000000   0.000000  -0.000000   0.000000  -0.000000
    22  H    0.000000  -0.000000   0.000000  -0.000000   0.000000   0.000000
    23  H   -0.000006  -0.000000  -0.000000   0.000000  -0.000000   0.000000
    24  C   -0.000334   0.000000   0.000000  -0.000000   0.000000  -0.000000
    25  H   -0.000307  -0.000000  -0.000000  -0.000000  -0.000000  -0.000000
    26  H    0.000008   0.000000   0.000000   0.000000   0.000000  -0.000000
    27  H    0.000009  -0.000000  -0.000000   0.000000  -0.000000   0.000000
              19         20         21         22         23         24
     1  C    0.000000  -0.016544   0.000264  -0.002278   0.000291   0.394096
     2  C    0.000000   0.391982  -0.023282  -0.022724  -0.023239  -0.015699
     3  N    0.000000   0.000120   0.000003  -0.000004   0.000003  -0.007470
     4  N    0.000000   0.000031   0.000036  -0.000008   0.000044   0.000097
     5  N    0.000000  -0.006558  -0.000673   0.000195  -0.000744   0.000115
     6  C    0.000001  -0.000001  -0.000000   0.000000   0.000000  -0.000088
     7  H   -0.000000  -0.000000  -0.000000   0.000000   0.000000  -0.000185
     8  H   -0.000000   0.000000  -0.000000  -0.000000   0.000000  -0.000004
     9  C    0.000029  -0.000000   0.000000   0.000000  -0.000000  -0.000008
    10  C    0.001346   0.000000  -0.000000  -0.000000   0.000002  -0.000132
    11  C    0.001355  -0.000000  -0.000000   0.000000   0.000000  -0.000000
    12  C   -0.025144  -0.000000   0.000000   0.000000  -0.000000   0.000001
    13  H   -0.000030  -0.000003   0.000000   0.000000  -0.000006  -0.000334
    14  C   -0.025216   0.000000   0.000000  -0.000000  -0.000000   0.000000
    15  H   -0.000031  -0.000000   0.000000   0.000000  -0.000000   0.000000
    16  C    0.393942  -0.000000  -0.000000  -0.000000   0.000000  -0.000000
    17  H   -0.003516   0.000000   0.000000   0.000000  -0.000000   0.000000
    18  H   -0.003487  -0.000000  -0.000000   0.000000   0.000000  -0.000000
    19  H    0.597204   0.000000   0.000000   0.000000  -0.000000   0.000000
    20  C    0.000000   4.659310   0.380524   0.381333   0.380464   0.000133
    21  H    0.000000   0.380524   0.606289  -0.021392  -0.020357  -0.000005
    22  H    0.000000   0.381333  -0.021392   0.614656  -0.021198   0.000020
    23  H   -0.000000   0.380464  -0.020357  -0.021198   0.606273  -0.000004
    24  C    0.000000   0.000133  -0.000005   0.000020  -0.000004   4.662700
    25  H   -0.000000  -0.000003  -0.000001  -0.000002   0.000003   0.380379
    26  H    0.000000   0.000005  -0.000002   0.000053  -0.000002   0.380098
    27  H   -0.000000  -0.000002   0.000003  -0.000003  -0.000001   0.380651
              25         26         27
     1  C   -0.023627  -0.022152  -0.022919
     2  C    0.000149  -0.001740   0.000164
     3  N   -0.000787   0.000211  -0.000811
     4  N    0.000038  -0.000008   0.000037
     5  N    0.000001  -0.000002  -0.000001
     6  C   -0.000222  -0.000003  -0.000052
     7  H   -0.000146  -0.000004  -0.000012
     8  H   -0.000001   0.000000  -0.000003
     9  C    0.000010  -0.000000   0.000002
    10  C    0.000056   0.000001   0.000002
    11  C    0.000000  -0.000000   0.000000
    12  C   -0.000000  -0.000000  -0.000000
    13  H   -0.000307   0.000008   0.000009
    14  C   -0.000000   0.000000  -0.000000
    15  H   -0.000000   0.000000  -0.000000
    16  C   -0.000000   0.000000   0.000000
    17  H   -0.000000   0.000000  -0.000000
    18  H   -0.000000  -0.000000   0.000000
    19  H   -0.000000   0.000000  -0.000000
    20  C   -0.000003   0.000005  -0.000002
    21  H   -0.000001  -0.000002   0.000003
    22  H   -0.000002   0.000053  -0.000003
    23  H    0.000003  -0.000002  -0.000001
    24  C    0.380379   0.380098   0.380651
    25  H    0.612249  -0.021194  -0.020740
    26  H   -0.021194   0.608955  -0.020682
    27  H   -0.020740  -0.020682   0.604298
 Mulliken charges:
               1
     1  C   -0.011932
     2  C   -0.068349
     3  N   -0.191614
     4  N    0.034183
     5  N   -0.015589
     6  C   -0.026312
     7  H    0.085028
     8  H    0.076919
     9  C    0.001618
    10  C   -0.071478
    11  C   -0.066514
    12  C   -0.059595
    13  H    0.072954
    14  C   -0.060316
    15  H    0.059035
    16  C   -0.063223
    17  H    0.064141
    18  H    0.063567
    19  H    0.063548
    20  C   -0.170791
    21  H    0.078591
    22  H    0.071353
    23  H    0.078473
    24  C   -0.174362
    25  H    0.074146
    26  H    0.076458
    27  H    0.080059
 Sum of Mulliken charges =   0.00000
 Mulliken charges with hydrogens summed into heavy atoms:
               1
     1  C   -0.011932
     2  C   -0.068349
     3  N   -0.191614
     4  N    0.034183
     5  N   -0.015589
     6  C    0.135635
     9  C    0.001618
    10  C    0.001476
    11  C   -0.007479
    12  C    0.004547
    14  C    0.003251
    16  C    0.000325
    20  C    0.057626
    24  C    0.056302
 Electronic spatial extent (au):  <R**2>=           3184.4159
 Charge=             -0.0000 electrons
 Dipole moment (field-independent basis, Debye):
    X=              1.2949    Y=             -0.2862    Z=              0.9074  Tot=              1.6069
 Quadrupole moment (field-independent basis, Debye-Ang):
   XX=            -75.2718   YY=            -73.8111   ZZ=            -77.9624
   XY=             -2.1945   XZ=             -2.6637   YZ=              0.6985
 Traceless Quadrupole moment (field-independent basis, Debye-Ang):
   XX=              0.4099   YY=              1.8707   ZZ=             -2.2806
   XY=             -2.1945   XZ=             -2.6637   YZ=              0.6985
 Octapole moment (field-independent basis, Debye-Ang**2):
  XXX=              0.8567  YYY=             -1.5533  ZZZ=              2.5767  XYY=              2.7756
  XXY=              6.6167  XXZ=             -0.1806  XZZ=             -5.8884  YZZ=             -6.3387
  YYZ=             -1.0462  XYZ=              2.2089
 Hexadecapole moment (field-independent basis, Debye-Ang**3):
 XXXX=          -2777.3811 YYYY=           -659.4887 ZZZZ=           -512.8780 XXXY=            -14.2808
 XXXZ=             -2.7187 YYYX=             -1.8552 YYYZ=              4.3713 ZZZX=            -15.0358
 ZZZY=              3.5418 XXYY=           -573.6242 XXZZ=           -583.9942 YYZZ=           -196.0399
 XXYZ=              9.5734 YYXZ=              1.9949 ZZXY=              4.1082
 N-N= 8.214605707556D+02 E-N=-2.995874218683D+03  KE= 5.746659434787D+02
 Leave Link  601 at Fri Aug 30 10:33:40 2024, MaxMem=  3221225472 cpu:               0.6 elap:               0.0
 (Enter /share/apps/gaussian/g16/l9999.exe)

 Test job not archived.
 1\1\GINC-NODE103\SP\RMP2-FC\STO-3G\C11H13N3\LIAOYT\30-Aug-2024\0\\#P M
 P2 IOp(3/125=0333312000)\\title\\0,1\C,0,2.24722,0.182674,0.929575\C,0
 ,2.843937,-0.540508,0.118292\N,0,0.851203,1.310451,-0.401869\N,0,1.127
 736,0.660492,-1.453222\N,0,1.928692,-0.122006,-1.796685\C,0,-0.528893,
 1.721043,-0.15981\H,0,-0.483295,2.267461,0.79018\H,0,-0.846511,2.45231
 5,-0.91566\C,0,-1.546852,0.595107,-0.058162\C,0,-1.166546,-0.708916,0.
 279984\C,0,-2.902299,0.87383,-0.271455\C,0,-2.12898,-1.712774,0.40603\
 H,0,-0.116773,-0.940771,0.432649\C,0,-3.864117,-0.128034,-0.141666\H,0
 ,-3.207061,1.88231,-0.544713\C,0,-3.479083,-1.426857,0.19835\H,0,-1.81
 9801,-2.722307,0.664273\H,0,-4.912049,0.103474,-0.313827\H,0,-4.225837
 ,-2.210457,0.294573\C,0,3.823244,-1.543991,-0.338519\H,0,4.513165,-1.1
 10514,-1.070949\H,0,4.409748,-1.935094,0.501371\H,0,3.319527,-2.382132
 ,-0.832244\C,0,1.839444,0.809725,2.195784\H,0,0.783721,0.609882,2.4161
 09\H,0,2.437593,0.418766,3.028417\H,0,1.971706,1.89672,2.16184\\Versio
 n=ES64L-G16RevA.03\State=1-A\HF=-579.9824504\MP2=-580.887864\RMSD=3.40
 2e-09\PG=C01 [X(C11H13N3)]\\@


 THOSE WHO ASPIRE NOT TO GUESS AND DIVINE,
 BUT TO DISCOVER AND KNOW, WHO PROPOSE NOT TO DEVISE 
 MIMIC AND FABULOUS WORLDS OF THEIR OWN, BUT TO 
 EXAMINE AND DISSECT THE NATURE OF THIS VERY WORLD 
 ITSELF, MUST GO TO THE FACTS THEMSELVES FOR EVERYTHING.

                               -- FRANCIS BACON, 1620
 Job cpu time:       0 days  0 hours  1 minutes  1.5 seconds.
 Elapsed time:       0 days  0 hours  0 minutes  2.9 seconds.
 File lengths (MBytes):  RWF=     10 Int=      0 D2E=      0 Chk=      5 Scr=      1
 Normal termination of Gaussian 16 at Fri Aug 30 10:33:40 2024.
Fri Aug 30 10:33:40 CST 2024
