This job is running on host node109
Current directory: /share/home/Liaoyt/system-test/bnts-ome/Ene-Me/nogd3/Linear
Fri Aug 30 10:39:32 CST 2024
/tmp/95790.mgr
 Entering Gaussian System, Link 0=g16
 Initial command:
 /share/apps/gaussian/g16/l1.exe "/tmp/95790.mgr/Gau-202682.inp" -scrdir="/tmp/95790.mgr/"
 Entering Link 1 = /share/apps/gaussian/g16/l1.exe PID=    202686.
  
 Copyright (c) 1988,1990,1992,1993,1995,1998,2003,2009,2016,
            Gaussian, Inc.  All Rights Reserved.
  
 This is part of the Gaussian(R) 16 program.  It is based on
 the Gaussian(R) 09 system (copyright 2009, Gaussian, Inc.),
 the Gaussian(R) 03 system (copyright 2003, Gaussian, Inc.),
 the Gaussian(R) 98 system (copyright 1998, Gaussian, Inc.),
 the Gaussian(R) 94 system (copyright 1995, Gaussian, Inc.),
 the Gaussian 92(TM) system (copyright 1992, Gaussian, Inc.),
 the Gaussian 90(TM) system (copyright 1990, Gaussian, Inc.),
 the Gaussian 88(TM) system (copyright 1988, Gaussian, Inc.),
 the Gaussian 86(TM) system (copyright 1986, Carnegie Mellon
 University), and the Gaussian 82(TM) system (copyright 1983,
 Carnegie Mellon University). Gaussian is a federally registered
 trademark of Gaussian, Inc.
  
 This software contains proprietary and confidential information,
 including trade secrets, belonging to Gaussian, Inc.
  
 This software is provided under written license and may be
 used, copied, transmitted, or stored only in accord with that
 written license.
  
 The following legend is applicable only to US Government
 contracts under FAR:
  
                    RESTRICTED RIGHTS LEGEND
  
 Use, reproduction and disclosure by the US Government is
 subject to restrictions as set forth in subparagraphs (a)
 and (c) of the Commercial Computer Software - Restricted
 Rights clause in FAR 52.227-19.
  
 Gaussian, Inc.
 340 Quinnipiac St., Bldg. 40, Wallingford CT 06492
  
  
 ---------------------------------------------------------------
 Warning -- This program may not be used in any manner that
 competes with the business of Gaussian, Inc. or will provide
 assistance to any competitor of Gaussian, Inc.  The licensee
 of this program is prohibited from giving any competitor of
 Gaussian, Inc. access to this program.  By using this program,
 the user acknowledges that Gaussian, Inc. is engaged in the
 business of creating and licensing software in the field of
 computational chemistry and represents and warrants to the
 licensee that it is not a competitor of Gaussian, Inc. and that
 it will not use this program in any manner prohibited above.
 ---------------------------------------------------------------
  

 Cite this work as:
 Gaussian 16, Revision A.03,
 M. J. Frisch, G. W. Trucks, H. B. Schlegel, G. E. Scuseria, 
 M. A. Robb, J. R. Cheeseman, G. Scalmani, V. Barone, 
 G. A. Petersson, H. Nakatsuji, X. Li, M. Caricato, A. V. Marenich, 
 J. Bloino, B. G. Janesko, R. Gomperts, B. Mennucci, H. P. Hratchian, 
 J. V. Ortiz, A. F. Izmaylov, J. L. Sonnenberg, D. Williams-Young, 
 F. Ding, F. Lipparini, F. Egidi, J. Goings, B. Peng, A. Petrone, 
 T. Henderson, D. Ranasinghe, V. G. Zakrzewski, J. Gao, N. Rega, 
 G. Zheng, W. Liang, M. Hada, M. Ehara, K. Toyota, R. Fukuda, 
 J. Hasegawa, M. Ishida, T. Nakajima, Y. Honda, O. Kitao, H. Nakai, 
 T. Vreven, K. Throssell, J. A. Montgomery, Jr., J. E. Peralta, 
 F. Ogliaro, M. J. Bearpark, J. J. Heyd, E. N. Brothers, K. N. Kudin, 
 V. N. Staroverov, T. A. Keith, R. Kobayashi, J. Normand, 
 K. Raghavachari, A. P. Rendell, J. C. Burant, S. S. Iyengar, 
 J. Tomasi, M. Cossi, J. M. Millam, M. Klene, C. Adamo, R. Cammi, 
 J. W. Ochterski, R. L. Martin, K. Morokuma, O. Farkas, 
 J. B. Foresman, and D. J. Fox, Gaussian, Inc., Wallingford CT, 2016.
 
 ******************************************
 Gaussian 16:  ES64L-G16RevA.03 25-Dec-2016
                30-Aug-2024 
 ******************************************
 %chk=cutopt-pro.chk
 %nprocshared=16
 Will use up to   16 processors via shared memory.
 %mem=16GB
 ----------------------------
 #p MP2 IOp(3/125=0333312000)
 ----------------------------
 1/38=1,172=1/1;
 2/12=2,17=6,18=5,40=1/2;
 3/11=9,25=1,30=1,125=333312000/1,2,3;
 4//1;
 5/5=2,38=5/2;
 8/10=1/1;
 9/16=-3/6;
 6/7=2,8=2,9=2,10=2/1;
 99/5=1,9=1/99;
 Leave Link    1 at Fri Aug 30 10:39:33 2024, MaxMem=  2147483648 cpu:               1.9 elap:               0.1
 (Enter /share/apps/gaussian/g16/l101.exe)
 -------------------
 tmpdir/Subs_0_0.gjf
 -------------------
 Symbolic Z-matrix:
 Charge =  0 Multiplicity = 1
 C                     3.80195  -0.40788  -1.35113 
 C                     1.12945  -2.04597  -0.15946 
 C                     1.63233  -0.66014   0.07121 
 C                     2.72807   0.03561  -0.40819 
 N                     1.00668   0.23941   0.88211 
 N                     1.66319   1.42486   0.89364 
 N                     2.70447   1.29713   0.11827 
 C                    -0.25952   0.10101   1.58653 
 H                    -0.23953  -0.82288   2.17451 
 H                    -0.29624   0.94273   2.28438 
 C                    -1.44968   0.11364   0.64542 
 C                    -2.44058  -0.8681    0.73123 
 C                    -1.5644    1.12296  -0.31924 
 C                    -3.5412   -0.84014  -0.1291 
 H                    -2.35268  -1.65898   1.47325 
 C                    -2.65991   1.14909  -1.18034 
 H                    -0.78676   1.87901  -0.39193 
 C                    -3.65202   0.1683   -1.08659 
 H                    -4.30543  -1.60903  -0.05391 
 H                    -2.74053   1.93536  -1.92606 
 H                    -4.50497   0.1898   -1.75946 
 H                     3.94479  -1.49316  -1.31472 
 H                     4.75018   0.07282  -1.09279 
 H                     3.56689  -0.13753  -2.38846 
 H                     1.81417  -2.59013  -0.81518 
 H                     1.04441  -2.60896   0.77893 
 H                     0.13834  -2.0391   -0.62881 
 
 ITRead=  0  0  0  0  0  0  0  0  0  0  0  0  0  0  0  0  0  0  0  0
 ITRead=  0  0  0  0  0  0  0
 MicOpt= -1 -1 -1 -1 -1 -1 -1 -1 -1 -1 -1 -1 -1 -1 -1 -1 -1 -1 -1 -1
 MicOpt= -1 -1 -1 -1 -1 -1 -1
 NAtoms=     27 NQM=       27 NQMF=       0 NMMI=      0 NMMIF=      0
                NMic=       0 NMicF=      0.
                    Isotopes and Nuclear Properties:
 (Nuclear quadrupole moments (NQMom) in fm**2, nuclear magnetic moments (NMagM)
  in nuclear magnetons)

  Atom         1           2           3           4           5           6           7           8           9          10
 IAtWgt=          12          12          12          12          14          14          14          12           1           1
 AtmWgt=  12.0000000  12.0000000  12.0000000  12.0000000  14.0030740  14.0030740  14.0030740  12.0000000   1.0078250   1.0078250
 NucSpn=           0           0           0           0           2           2           2           0           1           1
 AtZEff=  -0.0000000  -0.0000000  -0.0000000  -0.0000000  -0.0000000  -0.0000000  -0.0000000  -0.0000000  -0.0000000  -0.0000000
 NQMom=    0.0000000   0.0000000   0.0000000   0.0000000   2.0440000   2.0440000   2.0440000   0.0000000   0.0000000   0.0000000
 NMagM=    0.0000000   0.0000000   0.0000000   0.0000000   0.4037610   0.4037610   0.4037610   0.0000000   2.7928460   2.7928460
 AtZNuc=   6.0000000   6.0000000   6.0000000   6.0000000   7.0000000   7.0000000   7.0000000   6.0000000   1.0000000   1.0000000

  Atom        11          12          13          14          15          16          17          18          19          20
 IAtWgt=          12          12          12          12           1          12           1          12           1           1
 AtmWgt=  12.0000000  12.0000000  12.0000000  12.0000000   1.0078250  12.0000000   1.0078250  12.0000000   1.0078250   1.0078250
 NucSpn=           0           0           0           0           1           0           1           0           1           1
 AtZEff=  -0.0000000  -0.0000000  -0.0000000  -0.0000000  -0.0000000  -0.0000000  -0.0000000  -0.0000000  -0.0000000  -0.0000000
 NQMom=    0.0000000   0.0000000   0.0000000   0.0000000   0.0000000   0.0000000   0.0000000   0.0000000   0.0000000   0.0000000
 NMagM=    0.0000000   0.0000000   0.0000000   0.0000000   2.7928460   0.0000000   2.7928460   0.0000000   2.7928460   2.7928460
 AtZNuc=   6.0000000   6.0000000   6.0000000   6.0000000   1.0000000   6.0000000   1.0000000   6.0000000   1.0000000   1.0000000

  Atom        21          22          23          24          25          26          27
 IAtWgt=           1           1           1           1           1           1           1
 AtmWgt=   1.0078250   1.0078250   1.0078250   1.0078250   1.0078250   1.0078250   1.0078250
 NucSpn=           1           1           1           1           1           1           1
 AtZEff=  -0.0000000  -0.0000000  -0.0000000  -0.0000000  -0.0000000  -0.0000000  -0.0000000
 NQMom=    0.0000000   0.0000000   0.0000000   0.0000000   0.0000000   0.0000000   0.0000000
 NMagM=    2.7928460   2.7928460   2.7928460   2.7928460   2.7928460   2.7928460   2.7928460
 AtZNuc=   1.0000000   1.0000000   1.0000000   1.0000000   1.0000000   1.0000000   1.0000000
 Leave Link  101 at Fri Aug 30 10:39:33 2024, MaxMem=  2147483648 cpu:               1.8 elap:               0.2
 (Enter /share/apps/gaussian/g16/l202.exe)
                          Input orientation:                          
 ---------------------------------------------------------------------
 Center     Atomic      Atomic             Coordinates (Angstroms)
 Number     Number       Type             X           Y           Z
 ---------------------------------------------------------------------
      1          6           0        3.801952   -0.407883   -1.351129
      2          6           0        1.129452   -2.045973   -0.159460
      3          6           0        1.632328   -0.660136    0.071213
      4          6           0        2.728072    0.035605   -0.408187
      5          7           0        1.006681    0.239406    0.882112
      6          7           0        1.663185    1.424861    0.893637
      7          7           0        2.704473    1.297129    0.118268
      8          6           0       -0.259524    0.101011    1.586532
      9          1           0       -0.239533   -0.822882    2.174512
     10          1           0       -0.296243    0.942731    2.284379
     11          6           0       -1.449678    0.113638    0.645423
     12          6           0       -2.440578   -0.868099    0.731230
     13          6           0       -1.564397    1.122957   -0.319236
     14          6           0       -3.541195   -0.840139   -0.129102
     15          1           0       -2.352681   -1.658975    1.473245
     16          6           0       -2.659906    1.149094   -1.180345
     17          1           0       -0.786764    1.879010   -0.391929
     18          6           0       -3.652024    0.168304   -1.086588
     19          1           0       -4.305428   -1.609034   -0.053910
     20          1           0       -2.740533    1.935361   -1.926056
     21          1           0       -4.504974    0.189795   -1.759460
     22          1           0        3.944794   -1.493162   -1.314715
     23          1           0        4.750176    0.072815   -1.092785
     24          1           0        3.566886   -0.137527   -2.388460
     25          1           0        1.814171   -2.590127   -0.815178
     26          1           0        1.044407   -2.608964    0.778933
     27          1           0        0.138339   -2.039101   -0.628810
 ---------------------------------------------------------------------
                    Distance matrix (angstroms):
                    1          2          3          4          5
     1  C    0.000000
     2  C    3.353456   0.000000
     3  C    2.606522   1.492193   0.000000
     4  C    1.496342   2.636365   1.383667   0.000000
     5  N    3.635916   2.514538   1.363146   2.160924   0.000000
     6  N    3.601701   3.666139   2.241550   2.181459   1.355151
     7  N    2.504127   3.705962   2.232173   1.367170   2.141199
     8  C    5.038295   3.096334   2.540598   3.592897   1.455553
     9  H    5.379216   2.969427   2.820322   4.026663   2.086098
    10  H    5.642365   4.115496   3.344648   4.149611   2.039272
    11  C    5.642501   3.458854   3.229118   4.309267   2.470939
    12  C    6.596757   3.863396   4.131275   5.369348   3.623938
    13  C    5.675031   4.162267   3.681158   4.428943   2.972262
    14  C    7.456675   4.823889   5.180528   6.336286   4.782379
    15  H    6.886351   3.865326   4.340930   5.676745   3.903665
    16  C    6.648981   5.060622   4.823172   5.555753   4.304082
    17  H    5.215962   4.373948   3.537481   3.968939   2.743707
    18  C    7.480891   5.350243   5.472768   6.417434   5.058099
    19  H    8.297900   5.453437   6.014400   7.231907   5.701874
    20  H    6.973195   5.826548   5.463296   5.984868   4.980330
    21  H    8.338403   6.269403   6.460667   7.359801   6.112177
    22  H    1.095244   3.092954   2.821742   2.153911   4.057136
    23  H    1.094048   4.297674   3.407798   2.135173   4.235767
    24  H    1.097453   3.814668   3.172637   2.157560   4.170536
    25  H    3.000118   1.093119   2.131577   2.809862   3.396924
    26  H    4.121405   1.097621   2.155098   3.352272   2.850488
    27  H    4.074884   1.096650   2.150251   3.325627   2.868536
                    6          7          8          9         10
     6  N    0.000000
     7  N    1.304528   0.000000
     8  C    2.435055   3.517354   0.000000
     9  H    3.211437   4.170103   1.095307   0.000000
    10  H    2.450708   3.717786   1.093998   1.769937   0.000000
    11  C    3.386862   4.351496   1.517337   2.163246   2.168867
    12  C    4.703713   5.615646   2.535293   2.632434   3.207733
    13  C    3.461140   4.294764   2.525672   3.429334   2.901639
    14  C    5.767304   6.605867   3.820802   4.025905   4.419641
    15  H    5.096388   6.012430   2.737095   2.378281   3.414052
    16  C    4.802766   5.521311   3.809976   4.582790   4.199262
    17  H    2.803780   3.575979   2.711747   3.766471   2.877473
    18  C    5.809619   6.567418   4.319624   4.823102   4.819172
    19  H    6.762152   7.590398   4.688778   4.702702   5.296477
    20  H    5.253952   5.851042   4.675310   5.538733   4.968665
    21  H    6.827188   7.531811   5.406236   5.890300   5.884978
    22  H    4.312472   3.373064   5.351160   5.489314   6.072351
    23  H    3.911958   2.674041   5.681252   6.031144   6.134194
    24  H    4.103327   3.014246   5.522579   5.981576   6.158421
    25  H    4.366117   4.095695   4.160606   4.034737   5.151911
    26  H    4.082620   4.295330   3.113907   2.605040   4.083901
    27  H    4.079465   4.274763   3.105819   3.079057   4.191283
                   11         12         13         14         15
    11  C    0.000000
    12  C    1.397517   0.000000
    13  C    1.400876   2.415673   0.000000
    14  C    2.425700   1.397251   2.792423   0.000000
    15  H    2.154730   1.088024   3.401988   2.156519   0.000000
    16  C    2.422860   2.787704   1.393676   2.416367   3.875717
    17  H    2.152230   3.397528   1.087020   3.879399   4.295149
    18  C    2.802352   2.417891   2.420409   1.394998   3.402938
    19  H    3.407635   2.154784   3.879101   1.086695   2.479499
    20  H    3.405508   3.874343   2.150620   3.401985   4.962351
    21  H    3.888971   3.403587   3.404707   2.155853   4.301244
    22  H    5.960224   6.734209   6.179502   7.607375   6.889006
    23  H    6.439039   7.477920   6.447869   8.396964   7.748173
    24  H    5.868002   6.808511   5.674555   7.491540   7.229719
    25  H    4.482902   4.843516   5.044569   5.675659   4.844232
    26  H    3.694705   3.895896   4.683916   4.998101   3.595102
    27  H    2.963065   3.141937   3.604685   3.902075   3.281511
                   16         17         18         19         20
    16  C    0.000000
    17  H    2.159407   0.000000
    18  C    1.398227   3.408633   0.000000
    19  H    3.403508   4.966055   2.156917   0.000000
    20  H    1.086647   2.484740   2.158243   4.303088   0.000000
    21  H    2.158681   4.306817   1.086620   2.486867   2.487570
    22  H    7.114888   5.883088   7.779727   8.346809   7.538044
    23  H    7.488348   5.866110   8.402745   9.268864   7.763642
    24  H    6.472084   5.196809   7.341734   8.341989   6.655390
    25  H    5.842301   5.188178   6.128776   6.244323   6.516089
    26  H    5.628828   4.986584   5.766268   5.505835   6.503355
    27  H    4.277728   4.032806   4.410108   4.501392   5.076130
                   21         22         23         24         25
    21  H    0.000000
    22  H    8.627208   0.000000
    23  H    9.279868   1.774874   0.000000
    24  H    8.102944   1.770166   1.767256   0.000000
    25  H    6.967871   2.447943   3.973468   3.400364   0.000000
    26  H    6.713577   3.747082   4.942468   4.743762   1.770334
    27  H    5.273206   3.906100   5.093575   4.297358   1.773915
                   26         27
    26  H    0.000000
    27  H    1.768458   0.000000
 Stoichiometry    C11H13N3
 Framework group  C1[X(C11H13N3)]
 Deg. of freedom    75
 Full point group                 C1      NOp   1
 Largest Abelian subgroup         C1      NOp   1
 Largest concise Abelian subgroup C1      NOp   1
                         Standard orientation:                         
 ---------------------------------------------------------------------
 Center     Atomic      Atomic             Coordinates (Angstroms)
 Number     Number       Type             X           Y           Z
 ---------------------------------------------------------------------
      1          6           0        3.801952    0.407883    1.351129
      2          6           0        1.129452    2.045973    0.159460
      3          6           0        1.632328    0.660136   -0.071213
      4          6           0        2.728072   -0.035605    0.408187
      5          7           0        1.006681   -0.239406   -0.882112
      6          7           0        1.663185   -1.424861   -0.893637
      7          7           0        2.704473   -1.297129   -0.118268
      8          6           0       -0.259524   -0.101011   -1.586532
      9          1           0       -0.239533    0.822882   -2.174512
     10          1           0       -0.296243   -0.942731   -2.284379
     11          6           0       -1.449678   -0.113638   -0.645423
     12          6           0       -2.440578    0.868099   -0.731230
     13          6           0       -1.564397   -1.122957    0.319236
     14          6           0       -3.541195    0.840139    0.129102
     15          1           0       -2.352681    1.658975   -1.473245
     16          6           0       -2.659906   -1.149094    1.180345
     17          1           0       -0.786764   -1.879010    0.391929
     18          6           0       -3.652024   -0.168304    1.086588
     19          1           0       -4.305428    1.609034    0.053910
     20          1           0       -2.740533   -1.935361    1.926056
     21          1           0       -4.504974   -0.189795    1.759460
     22          1           0        3.944794    1.493162    1.314715
     23          1           0        4.750176   -0.072815    1.092785
     24          1           0        3.566886    0.137527    2.388460
     25          1           0        1.814171    2.590127    0.815178
     26          1           0        1.044407    2.608964   -0.778933
     27          1           0        0.138339    2.039101    0.628810
 ---------------------------------------------------------------------
 Rotational constants (GHZ):           1.4724501           0.4054812           0.3917062
 Leave Link  202 at Fri Aug 30 10:39:33 2024, MaxMem=  2147483648 cpu:               0.2 elap:               0.1
 (Enter /share/apps/gaussian/g16/l301.exe)
 Standard basis: STO-3G (5D, 7F)
 Ernie: Thresh=  0.10000D-02 Tol=  0.10000D-05 Strict=F.
 There are    83 symmetry adapted cartesian basis functions of A   symmetry.
 There are    83 symmetry adapted basis functions of A   symmetry.
    83 basis functions,   249 primitive gaussians,    83 cartesian basis functions
    50 alpha electrons       50 beta electrons
       nuclear repulsion energy       848.2365947407 Hartrees.
 IExCor=    0 DFT=F Ex=HF Corr=None ExCW=0 ScaHFX=  1.000000
 ScaDFX=  1.000000  1.000000  1.000000  1.000000 ScalE2=  0.333300  1.200000
 IRadAn=      5 IRanWt=     -1 IRanGd=            0 ICorTp=0 IEmpDi=  4
 NAtoms=   27 NActive=   27 NUniq=   27 SFac= 1.00D+00 NAtFMM=   60 NAOKFM=F Big=F
 Integral buffers will be    131072 words long.
 Raffenetti 1 integral format.
 Two-electron integral symmetry is turned on.
 Leave Link  301 at Fri Aug 30 10:39:33 2024, MaxMem=  2147483648 cpu:               0.8 elap:               0.1
 (Enter /share/apps/gaussian/g16/l302.exe)
 NPDir=0 NMtPBC=     1 NCelOv=     1 NCel=       1 NClECP=     1 NCelD=      1
         NCelK=      1 NCelE2=     1 NClLst=     1 CellRange=     0.0.
 One-electron integrals computed using PRISM.
 One-electron integral symmetry used in STVInt
 NBasis=    83 RedAO= T EigKep=  1.72D-01  NBF=    83
 NBsUse=    83 1.00D-06 EigRej= -1.00D+00 NBFU=    83
 Leave Link  302 at Fri Aug 30 10:39:34 2024, MaxMem=  2147483648 cpu:               1.8 elap:               0.2
 (Enter /share/apps/gaussian/g16/l303.exe)
 DipDrv:  MaxL=1.
 Leave Link  303 at Fri Aug 30 10:39:34 2024, MaxMem=  2147483648 cpu:               0.4 elap:               0.1
 (Enter /share/apps/gaussian/g16/l401.exe)
 ExpMin= 1.69D-01 ExpMax= 9.91D+01 ExpMxC= 9.91D+01 IAcc=3 IRadAn=         5 AccDes= 0.00D+00
 Harris functional with IExCor=  205 and IRadAn=       5 diagonalized for initial guess.
 HarFok:  IExCor=  205 AccDes= 0.00D+00 IRadAn=         5 IDoV= 1 UseB2=F ITyADJ=14
 ICtDFT=  3500011 ScaDFX=  1.000000  1.000000  1.000000  1.000000
 FoFCou: FMM=F IPFlag=           0 FMFlag=      100000 FMFlg1=           0
         NFxFlg=           0 DoJE=T BraDBF=F KetDBF=T FulRan=T
         wScrn=  0.000000 ICntrl=       500 IOpCl=  0 I1Cent=   200000004 NGrid=           0
         NMat0=    1 NMatS0=      1 NMatT0=    0 NMatD0=    1 NMtDS0=    0 NMtDT0=    0
 Petite list used in FoFCou.
 Harris En= -580.856161182802    
 JPrj=0 DoOrth=F DoCkMO=F.
 Leave Link  401 at Fri Aug 30 10:39:34 2024, MaxMem=  2147483648 cpu:               6.7 elap:               0.5
 (Enter /share/apps/gaussian/g16/l502.exe)
 Integral symmetry usage will be decided dynamically.
 Closed shell SCF:
 Using DIIS extrapolation, IDIIS=  1040.
 NGot=  2147483648 LenX=  2147466911 LenY=  2147459581
 Requested convergence on RMS density matrix=1.00D-08 within 128 cycles.
 Requested convergence on MAX density matrix=1.00D-06.
 Requested convergence on             energy=1.00D-06.
 No special actions if energy rises.
 Fock matrices will be formed incrementally for  20 cycles.
 Integral accuracy reduced to 1.0D-05 until final iterations.

 Cycle   1  Pass 0  IDiag  1:
 FoFJK:  IHMeth= 1 ICntrl=       0 DoSepK=F KAlg= 0 I1Cent=           0 FoldK=F
 IRaf= 900000000 NMat=       1 IRICut=       1 DoRegI=T DoRafI=F ISym2E= 0 IDoP0=0 IntGTp=1.
 FoFCou: FMM=F IPFlag=           0 FMFlag=      100000 FMFlg1=           0
         NFxFlg=           0 DoJE=F BraDBF=F KetDBF=F FulRan=T
         wScrn=  0.000000 ICntrl=         0 IOpCl=  0 I1Cent=           0 NGrid=           0
         NMat0=    1 NMatS0=      1 NMatT0=    0 NMatD0=    1 NMtDS0=    0 NMtDT0=    0
 Symmetry not used in FoFCou.
 E= -579.999607883542    
 DIIS: error= 4.61D-02 at cycle   1 NSaved=   1.
 NSaved= 1 IEnMin= 1 EnMin= -579.999607883542     IErMin= 1 ErrMin= 4.61D-02
 ErrMax= 4.61D-02  0.00D+00 EMaxC= 1.00D-01 BMatC= 2.65D-01 BMatP= 2.65D-01
 IDIUse=3 WtCom= 5.39D-01 WtEn= 4.61D-01
 Coeff-Com:  0.100D+01
 Coeff-En:   0.100D+01
 Coeff:      0.100D+01
 Gap=     0.572 Goal=   None    Shift=    0.000
 GapD=    0.572 DampG=2.000 DampE=0.500 DampFc=1.0000 IDamp=-1.
 RMSDP=8.27D-03 MaxDP=1.32D-01              OVMax= 0.00D+00

 Cycle   2  Pass 0  IDiag  1:
 RMSU=  8.26D-03    CP:  9.95D-01
 E= -580.201627762608     Delta-E=       -0.202019879066 Rises=F Damp=F
 DIIS: error= 2.29D-02 at cycle   2 NSaved=   2.
 NSaved= 2 IEnMin= 2 EnMin= -580.201627762608     IErMin= 2 ErrMin= 2.29D-02
 ErrMax= 2.29D-02  0.00D+00 EMaxC= 1.00D-01 BMatC= 2.27D-02 BMatP= 2.65D-01
 IDIUse=3 WtCom= 7.71D-01 WtEn= 2.29D-01
 Coeff-Com:  0.150D+00 0.850D+00
 Coeff-En:   0.000D+00 0.100D+01
 Coeff:      0.116D+00 0.884D+00
 Gap=     0.571 Goal=   None    Shift=    0.000
 RMSDP=3.16D-03 MaxDP=6.00D-02 DE=-2.02D-01 OVMax= 0.00D+00

 Cycle   3  Pass 0  IDiag  1:
 RMSU=  2.22D-03    CP:  9.96D-01  7.28D-01
 E= -580.223427964325     Delta-E=       -0.021800201717 Rises=F Damp=F
 DIIS: error= 1.16D-02 at cycle   3 NSaved=   3.
 NSaved= 3 IEnMin= 3 EnMin= -580.223427964325     IErMin= 3 ErrMin= 1.16D-02
 ErrMax= 1.16D-02  0.00D+00 EMaxC= 1.00D-01 BMatC= 3.59D-03 BMatP= 2.27D-02
 IDIUse=3 WtCom= 8.84D-01 WtEn= 1.16D-01
 Coeff-Com: -0.102D-01 0.262D+00 0.749D+00
 Coeff-En:   0.000D+00 0.000D+00 0.100D+01
 Coeff:     -0.903D-02 0.231D+00 0.778D+00
 Gap=     0.512 Goal=   None    Shift=    0.000
 RMSDP=1.10D-03 MaxDP=2.29D-02 DE=-2.18D-02 OVMax= 0.00D+00

 Cycle   4  Pass 0  IDiag  1:
 RMSU=  5.35D-04    CP:  9.96D-01  8.13D-01  7.05D-01
 E= -580.227966025005     Delta-E=       -0.004538060680 Rises=F Damp=F
 DIIS: error= 1.59D-03 at cycle   4 NSaved=   4.
 NSaved= 4 IEnMin= 4 EnMin= -580.227966025005     IErMin= 4 ErrMin= 1.59D-03
 ErrMax= 1.59D-03  0.00D+00 EMaxC= 1.00D-01 BMatC= 1.75D-04 BMatP= 3.59D-03
 IDIUse=3 WtCom= 9.84D-01 WtEn= 1.59D-02
 Coeff-Com: -0.629D-02 0.368D-02 0.182D+00 0.821D+00
 Coeff-En:   0.000D+00 0.000D+00 0.000D+00 0.100D+01
 Coeff:     -0.619D-02 0.362D-02 0.179D+00 0.824D+00
 Gap=     0.513 Goal=   None    Shift=    0.000
 RMSDP=2.23D-04 MaxDP=3.42D-03 DE=-4.54D-03 OVMax= 0.00D+00

 Cycle   5  Pass 0  IDiag  1:
 RMSU=  1.45D-04    CP:  9.96D-01  8.08D-01  7.79D-01  9.92D-01
 E= -580.228207701353     Delta-E=       -0.000241676347 Rises=F Damp=F
 DIIS: error= 8.31D-04 at cycle   5 NSaved=   5.
 NSaved= 5 IEnMin= 5 EnMin= -580.228207701353     IErMin= 5 ErrMin= 8.31D-04
 ErrMax= 8.31D-04  0.00D+00 EMaxC= 1.00D-01 BMatC= 1.18D-05 BMatP= 1.75D-04
 IDIUse=3 WtCom= 9.92D-01 WtEn= 8.31D-03
 Coeff-Com:  0.135D-02-0.234D-01-0.604D-01-0.919D-01 0.117D+01
 Coeff-En:   0.000D+00 0.000D+00 0.000D+00 0.000D+00 0.100D+01
 Coeff:      0.134D-02-0.232D-01-0.599D-01-0.912D-01 0.117D+01
 Gap=     0.514 Goal=   None    Shift=    0.000
 RMSDP=1.14D-04 MaxDP=1.91D-03 DE=-2.42D-04 OVMax= 0.00D+00

 Cycle   6  Pass 0  IDiag  1:
 RMSU=  5.76D-05    CP:  9.96D-01  8.09D-01  7.94D-01  1.13D+00  1.36D+00
 E= -580.228250016148     Delta-E=       -0.000042314795 Rises=F Damp=F
 DIIS: error= 3.41D-04 at cycle   6 NSaved=   6.
 NSaved= 6 IEnMin= 6 EnMin= -580.228250016148     IErMin= 6 ErrMin= 3.41D-04
 ErrMax= 3.41D-04  0.00D+00 EMaxC= 1.00D-01 BMatC= 2.50D-06 BMatP= 1.18D-05
 IDIUse=3 WtCom= 9.97D-01 WtEn= 3.41D-03
 Coeff-Com:  0.941D-03-0.147D-02-0.221D-01-0.141D+00-0.382D-01 0.120D+01
 Coeff-En:   0.000D+00 0.000D+00 0.000D+00 0.000D+00 0.000D+00 0.100D+01
 Coeff:      0.938D-03-0.146D-02-0.220D-01-0.141D+00-0.381D-01 0.120D+01
 Gap=     0.514 Goal=   None    Shift=    0.000
 RMSDP=6.52D-05 MaxDP=1.03D-03 DE=-4.23D-05 OVMax= 0.00D+00

 Cycle   7  Pass 0  IDiag  1:
 RMSU=  1.98D-05    CP:  9.96D-01  8.09D-01  8.02D-01  1.19D+00  1.68D+00
                    CP:  1.38D+00
 E= -580.228260356758     Delta-E=       -0.000010340610 Rises=F Damp=F
 DIIS: error= 1.29D-04 at cycle   7 NSaved=   7.
 NSaved= 7 IEnMin= 7 EnMin= -580.228260356758     IErMin= 7 ErrMin= 1.29D-04
 ErrMax= 1.29D-04  0.00D+00 EMaxC= 1.00D-01 BMatC= 2.71D-07 BMatP= 2.50D-06
 IDIUse=3 WtCom= 9.99D-01 WtEn= 1.29D-03
 Coeff-Com: -0.337D-03 0.407D-02 0.151D-01 0.301D-01-0.202D+00-0.905D-01
 Coeff-Com:  0.124D+01
 Coeff-En:   0.000D+00 0.000D+00 0.000D+00 0.000D+00 0.000D+00 0.000D+00
 Coeff-En:   0.100D+01
 Coeff:     -0.336D-03 0.406D-02 0.150D-01 0.300D-01-0.202D+00-0.904D-01
 Coeff:      0.124D+01
 Gap=     0.514 Goal=   None    Shift=    0.000
 RMSDP=2.49D-05 MaxDP=3.94D-04 DE=-1.03D-05 OVMax= 0.00D+00

 Cycle   8  Pass 0  IDiag  1:
 RMSU=  6.03D-06    CP:  9.96D-01  8.09D-01  8.03D-01  1.21D+00  1.77D+00
                    CP:  1.67D+00  1.27D+00
 E= -580.228261421176     Delta-E=       -0.000001064418 Rises=F Damp=F
 DIIS: error= 1.75D-05 at cycle   8 NSaved=   8.
 NSaved= 8 IEnMin= 8 EnMin= -580.228261421176     IErMin= 8 ErrMin= 1.75D-05
 ErrMax= 1.75D-05  0.00D+00 EMaxC= 1.00D-01 BMatC= 1.73D-08 BMatP= 2.71D-07
 IDIUse=1 WtCom= 1.00D+00 WtEn= 0.00D+00
 Coeff-Com: -0.129D-03 0.936D-03 0.452D-02 0.164D-01-0.426D-01-0.103D+00
 Coeff-Com:  0.242D+00 0.882D+00
 Coeff:     -0.129D-03 0.936D-03 0.452D-02 0.164D-01-0.426D-01-0.103D+00
 Coeff:      0.242D+00 0.882D+00
 Gap=     0.514 Goal=   None    Shift=    0.000
 RMSDP=4.17D-06 MaxDP=8.02D-05 DE=-1.06D-06 OVMax= 0.00D+00

 Initial convergence to 1.0D-05 achieved.  Increase integral accuracy.
 Cycle   9  Pass 1  IDiag  1:
 E= -580.228265775454     Delta-E=       -0.000004354278 Rises=F Damp=F
 DIIS: error= 3.43D-06 at cycle   1 NSaved=   1.
 NSaved= 1 IEnMin= 1 EnMin= -580.228265775454     IErMin= 1 ErrMin= 3.43D-06
 ErrMax= 3.43D-06  0.00D+00 EMaxC= 1.00D-01 BMatC= 1.93D-09 BMatP= 1.93D-09
 IDIUse=1 WtCom= 1.00D+00 WtEn= 0.00D+00
 Coeff-Com:  0.100D+01
 Coeff:      0.100D+01
 Gap=     0.514 Goal=   None    Shift=    0.000
 RMSDP=4.17D-06 MaxDP=8.02D-05 DE=-4.35D-06 OVMax= 0.00D+00

 Cycle  10  Pass 1  IDiag  1:
 RMSU=  9.36D-07    CP:  1.00D+00
 E= -580.228265778661     Delta-E=       -0.000000003207 Rises=F Damp=F
 DIIS: error= 2.42D-06 at cycle   2 NSaved=   2.
 NSaved= 2 IEnMin= 2 EnMin= -580.228265778661     IErMin= 2 ErrMin= 2.42D-06
 ErrMax= 2.42D-06  0.00D+00 EMaxC= 1.00D-01 BMatC= 2.12D-10 BMatP= 1.93D-09
 IDIUse=1 WtCom= 1.00D+00 WtEn= 0.00D+00
 Coeff-Com:  0.440D-02 0.996D+00
 Coeff:      0.440D-02 0.996D+00
 Gap=     0.514 Goal=   None    Shift=    0.000
 RMSDP=3.61D-07 MaxDP=5.14D-06 DE=-3.21D-09 OVMax= 0.00D+00

 Cycle  11  Pass 1  IDiag  1:
 RMSU=  3.39D-07    CP:  1.00D+00  1.13D+00
 E= -580.228265779134     Delta-E=       -0.000000000473 Rises=F Damp=F
 DIIS: error= 1.12D-06 at cycle   3 NSaved=   3.
 NSaved= 3 IEnMin= 3 EnMin= -580.228265779134     IErMin= 3 ErrMin= 1.12D-06
 ErrMax= 1.12D-06  0.00D+00 EMaxC= 1.00D-01 BMatC= 6.88D-11 BMatP= 2.12D-10
 IDIUse=1 WtCom= 1.00D+00 WtEn= 0.00D+00
 Coeff-Com: -0.131D+00 0.198D+00 0.934D+00
 Coeff:     -0.131D+00 0.198D+00 0.934D+00
 Gap=     0.514 Goal=   None    Shift=    0.000
 RMSDP=1.95D-07 MaxDP=2.43D-06 DE=-4.73D-10 OVMax= 0.00D+00

 Cycle  12  Pass 1  IDiag  1:
 RMSU=  1.11D-07    CP:  1.00D+00  1.30D+00  1.06D+00
 E= -580.228265779267     Delta-E=       -0.000000000133 Rises=F Damp=F
 DIIS: error= 4.48D-07 at cycle   4 NSaved=   4.
 NSaved= 4 IEnMin= 4 EnMin= -580.228265779267     IErMin= 4 ErrMin= 4.48D-07
 ErrMax= 4.48D-07  0.00D+00 EMaxC= 1.00D-01 BMatC= 5.42D-12 BMatP= 6.88D-11
 IDIUse=1 WtCom= 1.00D+00 WtEn= 0.00D+00
 Coeff-Com:  0.781D-02-0.133D+00-0.960D-01 0.122D+01
 Coeff:      0.781D-02-0.133D+00-0.960D-01 0.122D+01
 Gap=     0.514 Goal=   None    Shift=    0.000
 RMSDP=9.00D-08 MaxDP=1.48D-06 DE=-1.33D-10 OVMax= 0.00D+00

 Cycle  13  Pass 1  IDiag  1:
 RMSU=  3.63D-08    CP:  1.00D+00  1.35D+00  1.23D+00  1.34D+00
 E= -580.228265779296     Delta-E=       -0.000000000029 Rises=F Damp=F
 DIIS: error= 1.31D-07 at cycle   5 NSaved=   5.
 NSaved= 5 IEnMin= 5 EnMin= -580.228265779296     IErMin= 5 ErrMin= 1.31D-07
 ErrMax= 1.31D-07  0.00D+00 EMaxC= 1.00D-01 BMatC= 8.26D-13 BMatP= 5.42D-12
 IDIUse=1 WtCom= 1.00D+00 WtEn= 0.00D+00
 Coeff-Com:  0.114D-01-0.427D-01-0.962D-01 0.214D+00 0.914D+00
 Coeff:      0.114D-01-0.427D-01-0.962D-01 0.214D+00 0.914D+00
 Gap=     0.514 Goal=   None    Shift=    0.000
 RMSDP=2.62D-08 MaxDP=4.52D-07 DE=-2.86D-11 OVMax= 0.00D+00

 Cycle  14  Pass 1  IDiag  1:
 RMSU=  1.53D-08    CP:  1.00D+00  1.36D+00  1.26D+00  1.49D+00  1.14D+00
 E= -580.228265779294     Delta-E=        0.000000000002 Rises=F Damp=F
 DIIS: error= 4.66D-08 at cycle   6 NSaved=   6.
 NSaved= 6 IEnMin= 5 EnMin= -580.228265779296     IErMin= 6 ErrMin= 4.66D-08
 ErrMax= 4.66D-08  0.00D+00 EMaxC= 1.00D-01 BMatC= 1.68D-13 BMatP= 8.26D-13
 IDIUse=1 WtCom= 1.00D+00 WtEn= 0.00D+00
 Coeff-Com: -0.434D-02 0.402D-01 0.529D-01-0.335D+00-0.170D+00 0.142D+01
 Coeff:     -0.434D-02 0.402D-01 0.529D-01-0.335D+00-0.170D+00 0.142D+01
 Gap=     0.514 Goal=   None    Shift=    0.000
 RMSDP=1.78D-08 MaxDP=2.48D-07 DE= 1.59D-12 OVMax= 0.00D+00

 Cycle  15  Pass 1  IDiag  1:
 RMSU=  5.12D-09    CP:  1.00D+00  1.36D+00  1.27D+00  1.55D+00  1.48D+00
                    CP:  1.56D+00
 E= -580.228265779299     Delta-E=       -0.000000000005 Rises=F Damp=F
 DIIS: error= 2.16D-08 at cycle   7 NSaved=   7.
 NSaved= 7 IEnMin= 7 EnMin= -580.228265779299     IErMin= 7 ErrMin= 2.16D-08
 ErrMax= 2.16D-08  0.00D+00 EMaxC= 1.00D-01 BMatC= 1.30D-14 BMatP= 1.68D-13
 IDIUse=1 WtCom= 1.00D+00 WtEn= 0.00D+00
 Coeff-Com: -0.190D-02 0.969D-02 0.196D-01-0.785D-01-0.981D-01 0.181D+00
 Coeff-Com:  0.968D+00
 Coeff:     -0.190D-02 0.969D-02 0.196D-01-0.785D-01-0.981D-01 0.181D+00
 Coeff:      0.968D+00
 Gap=     0.514 Goal=   None    Shift=    0.000
 RMSDP=4.35D-09 MaxDP=5.36D-08 DE=-5.00D-12 OVMax= 0.00D+00

 SCF Done:  E(RHF) =  -580.228265779     A.U. after   15 cycles
            NFock= 15  Conv=0.44D-08     -V/T= 2.0098
 KE= 5.746068272445D+02 PE=-3.048834637998D+03 EE= 1.045762950233D+03
 Leave Link  502 at Fri Aug 30 10:39:35 2024, MaxMem=  2147483648 cpu:              12.9 elap:               0.9
 (Enter /share/apps/gaussian/g16/l801.exe)
 DoSCS=T DFT=F ScalE2(SS,OS)=  0.333300  1.200000
 ExpMin= 1.69D-01 ExpMax= 9.91D+01 ExpMxC= 9.91D+01 IAcc=3 IRadAn=         5 AccDes= 0.00D+00
 HarFok:  IExCor=  205 AccDes= 0.00D+00 IRadAn=         5 IDoV=-2 UseB2=F ITyADJ=14
 ICtDFT= 12500011 ScaDFX=  1.000000  1.000000  1.000000  1.000000
 Largest valence mixing into a core orbital is  1.76D-04
 Largest core mixing into a valence orbital is  3.24D-04
 Range of M.O.s used for correlation:    15    83
 NBasis=    83 NAE=    50 NBE=    50 NFC=    14 NFV=     0
 NROrb=     69 NOA=    36 NOB=    36 NVA=    33 NVB=    33
 Leave Link  801 at Fri Aug 30 10:39:35 2024, MaxMem=  2147483648 cpu:               1.2 elap:               0.2
 (Enter /share/apps/gaussian/g16/l906.exe)
 DoSCS=T DFT=F ScalE2(SS,OS)=  0.333300  1.200000
 FulOut=F Deriv=F AODrv=F NAtomX=    27
   MMem=        1259  MDisk=          36 MDiskD=          36
  W3Min=       98604 MinDsk=      147802 NBas6D=          83
 NBas2D=        3570    NTT=        3486    LW2=     2000000
    MDV=  2147383467 MDiskM=      269249 NBas2p=        3397
 Fully in-core method, ICMem=    19058474.
 IMap=   1   2   3   4   5   6   7   8   9  10  11  12  13  14  15  16  17  18  19  20
 IMap=  21  22  23  24  25  26  27  28  29  30  31  32  33  34  35  36
 JobTyp=1 Pass  1 fully in-core, NPsUse= 16.
 Compute canonical integrals.
 FoFCou: FMM=F IPFlag=           0 FMFlag=           0 FMFlg1=           0
         NFxFlg=           0 DoJE=F BraDBF=F KetDBF=F FulRan=T
         wScrn=  0.000000 ICntrl=       600 IOpCl=  1 I1Cent=           0 NGrid=           0
         NMat0=    1 NMatS0=   3570 NMatT0=    0 NMatD0=    1 NMtDS0=    0 NMtDT0=    0
 Symmetry not used in FoFCou.
 Spin components of T(2) and E(2):
     alpha-alpha T2 =       0.3837044601D-01 E2=     -0.2693032642D-01
     alpha-beta  T2 =       0.2905063793D+00 E2=     -0.7666419755D+00
     beta-beta   T2 =       0.3837044601D-01 E2=     -0.2693032642D-01
 The integrals were generated   1 times.
 E2 =    -0.8205026283D+00 EUMP2 =    -0.58104876840762D+03
 Leave Link  906 at Fri Aug 30 10:39:36 2024, MaxMem=  2147483648 cpu:               5.4 elap:               0.4
 (Enter /share/apps/gaussian/g16/l601.exe)
 Copying SCF densities to generalized density rwf, IOpCl= 0 IROHF=0.

 **********************************************************************

            Population analysis using the SCF density.

 **********************************************************************

 Orbital symmetries:
       Occupied  (A) (A) (A) (A) (A) (A) (A) (A) (A) (A) (A) (A)
                 (A) (A) (A) (A) (A) (A) (A) (A) (A) (A) (A) (A)
                 (A) (A) (A) (A) (A) (A) (A) (A) (A) (A) (A) (A)
                 (A) (A) (A) (A) (A) (A) (A) (A) (A) (A) (A) (A)
                 (A) (A)
       Virtual   (A) (A) (A) (A) (A) (A) (A) (A) (A) (A) (A) (A)
                 (A) (A) (A) (A) (A) (A) (A) (A) (A) (A) (A) (A)
                 (A) (A) (A) (A) (A) (A) (A) (A) (A)
 The electronic state is 1-A.
 Alpha  occ. eigenvalues --  -15.45450 -15.39027 -15.34358 -11.12959 -11.08145
 Alpha  occ. eigenvalues --  -11.07632 -11.05469 -11.04744 -11.04371 -11.04247
 Alpha  occ. eigenvalues --  -11.04184 -11.04125 -11.04047 -11.03998  -1.37024
 Alpha  occ. eigenvalues --   -1.16036  -1.10409  -1.04828  -1.00084  -0.96750
 Alpha  occ. eigenvalues --   -0.94796  -0.90804  -0.89099  -0.78591  -0.77125
 Alpha  occ. eigenvalues --   -0.74327  -0.71062  -0.66753  -0.63438  -0.61519
 Alpha  occ. eigenvalues --   -0.58878  -0.58769  -0.56349  -0.55112  -0.54754
 Alpha  occ. eigenvalues --   -0.54224  -0.53841  -0.52551  -0.50443  -0.49752
 Alpha  occ. eigenvalues --   -0.48959  -0.45949  -0.44712  -0.44217  -0.40431
 Alpha  occ. eigenvalues --   -0.33567  -0.32351  -0.29256  -0.28686  -0.26893
 Alpha virt. eigenvalues --    0.24511   0.25589   0.27217   0.35724   0.47380
 Alpha virt. eigenvalues --    0.55331   0.56092   0.57576   0.60892   0.62184
 Alpha virt. eigenvalues --    0.62813   0.64955   0.65607   0.67515   0.68679
 Alpha virt. eigenvalues --    0.69295   0.70460   0.71275   0.71745   0.73052
 Alpha virt. eigenvalues --    0.73276   0.74626   0.78380   0.79578   0.85991
 Alpha virt. eigenvalues --    0.87085   0.87232   0.88468   0.90230   0.99181
 Alpha virt. eigenvalues --    1.06187   1.08105   1.12961
          Condensed to atoms (all electrons):
               1          2          3          4          5          6
     1  C    4.693755  -0.000905  -0.022861   0.384027   0.000656   0.001011
     2  C   -0.000905   4.697332   0.384801  -0.017799  -0.020134   0.000723
     3  C   -0.022861   0.384801   4.797351   0.533458   0.414404  -0.053924
     4  C    0.384027  -0.017799   0.533458   4.847398  -0.069047  -0.053872
     5  N    0.000656  -0.020134   0.414404  -0.069047   6.329335   0.315826
     6  N    0.001011   0.000723  -0.053924  -0.053872   0.315826   6.507066
     7  N   -0.021277   0.000563  -0.046316   0.402025  -0.055876   0.381581
     8  C   -0.000005  -0.001377  -0.027184   0.001471   0.327668  -0.026173
     9  H   -0.000000  -0.000183  -0.001887   0.000010  -0.022293   0.000866
    10  H    0.000000   0.000008   0.001545  -0.000035  -0.023216  -0.002584
    11  C    0.000000  -0.000294  -0.000777   0.000008  -0.023686   0.000192
    12  C    0.000000  -0.000137   0.000018  -0.000000   0.000363  -0.000003
    13  C    0.000000  -0.000023   0.000078  -0.000003  -0.002165  -0.000197
    14  C    0.000000  -0.000001  -0.000000   0.000000  -0.000004   0.000000
    15  H    0.000000  -0.000014   0.000003  -0.000000   0.000022  -0.000000
    16  C   -0.000000   0.000000  -0.000003   0.000000   0.000002   0.000000
    17  H   -0.000000  -0.000001  -0.000004  -0.000009   0.000123   0.000226
    18  C   -0.000000   0.000000   0.000000   0.000000   0.000000  -0.000000
    19  H   -0.000000  -0.000000   0.000000  -0.000000   0.000000  -0.000000
    20  H    0.000000  -0.000000   0.000000  -0.000000   0.000000   0.000000
    21  H   -0.000000   0.000000  -0.000000  -0.000000   0.000000   0.000000
    22  H    0.381708  -0.000232  -0.002851  -0.020375   0.000009  -0.000023
    23  H    0.382298   0.000008   0.001027  -0.021433  -0.000012   0.000023
    24  H    0.379767   0.000032  -0.000272  -0.022295   0.000001  -0.000003
    25  H   -0.000092   0.383216  -0.020398  -0.002985   0.000884  -0.000016
    26  H    0.000010   0.379557  -0.021565   0.000500  -0.001378   0.000010
    27  H    0.000012   0.380147  -0.021893   0.000407  -0.001218   0.000012
               7          8          9         10         11         12
     1  C   -0.021277  -0.000005  -0.000000   0.000000   0.000000   0.000000
     2  C    0.000563  -0.001377  -0.000183   0.000008  -0.000294  -0.000137
     3  C   -0.046316  -0.027184  -0.001887   0.001545  -0.000777   0.000018
     4  C    0.402025   0.001471   0.000010  -0.000035   0.000008  -0.000000
     5  N   -0.055876   0.327668  -0.022293  -0.023216  -0.023686   0.000363
     6  N    0.381581  -0.026173   0.000866  -0.002584   0.000192  -0.000003
     7  N    6.519988   0.001328  -0.000031   0.000041  -0.000004   0.000000
     8  C    0.001328   4.645531   0.382812   0.381561   0.377226  -0.027099
     9  H   -0.000031   0.382812   0.604902  -0.020243  -0.023440  -0.004084
    10  H    0.000041   0.381561  -0.020243   0.579764  -0.020981   0.000453
    11  C   -0.000004   0.377226  -0.023440  -0.020981   4.796356   0.508308
    12  C    0.000000  -0.027099  -0.004084   0.000453   0.508308   4.783119
    13  C   -0.000003  -0.027404   0.001173  -0.001740   0.503032  -0.031147
    14  C   -0.000000   0.000811   0.000028  -0.000018  -0.029103   0.505794
    15  H    0.000000  -0.003761   0.000513   0.000058  -0.026061   0.392917
    16  C    0.000000   0.000829  -0.000019   0.000002  -0.029229  -0.011220
    17  H   -0.000011  -0.003536   0.000033   0.000134  -0.025816   0.001335
    18  C    0.000000   0.000014  -0.000000   0.000002  -0.011024  -0.030141
    19  H    0.000000  -0.000014  -0.000002   0.000000   0.001327  -0.025378
    20  H   -0.000000  -0.000015   0.000000  -0.000000   0.001354   0.000028
    21  H   -0.000000   0.000001  -0.000000  -0.000000   0.000031   0.001361
    22  H    0.000770  -0.000000  -0.000000   0.000000   0.000000  -0.000000
    23  H   -0.002066   0.000000  -0.000000  -0.000000   0.000000  -0.000000
    24  H   -0.000265   0.000000   0.000000  -0.000000  -0.000000   0.000000
    25  H    0.000015   0.000003   0.000003   0.000000   0.000004   0.000002
    26  H   -0.000013  -0.000101   0.000151   0.000002  -0.000054   0.000005
    27  H   -0.000012   0.000008  -0.000195  -0.000001   0.000252   0.000013
              13         14         15         16         17         18
     1  C    0.000000   0.000000   0.000000  -0.000000  -0.000000  -0.000000
     2  C   -0.000023  -0.000001  -0.000014   0.000000  -0.000001   0.000000
     3  C    0.000078  -0.000000   0.000003  -0.000003  -0.000004   0.000000
     4  C   -0.000003   0.000000  -0.000000   0.000000  -0.000009   0.000000
     5  N   -0.002165  -0.000004   0.000022   0.000002   0.000123   0.000000
     6  N   -0.000197   0.000000  -0.000000   0.000000   0.000226  -0.000000
     7  N   -0.000003  -0.000000   0.000000   0.000000  -0.000011   0.000000
     8  C   -0.027404   0.000811  -0.003761   0.000829  -0.003536   0.000014
     9  H    0.001173   0.000028   0.000513  -0.000019   0.000033  -0.000000
    10  H   -0.001740  -0.000018   0.000058   0.000002   0.000134   0.000002
    11  C    0.503032  -0.029103  -0.026061  -0.029229  -0.025816  -0.011024
    12  C   -0.031147   0.505794   0.392917  -0.011220   0.001335  -0.030141
    13  C    4.781073  -0.011070   0.001337   0.509646   0.393569  -0.029884
    14  C   -0.011070   4.772006  -0.025144  -0.030371   0.000032   0.508009
    15  H    0.001337  -0.025144   0.602015   0.000034  -0.000034   0.001355
    16  C    0.509646  -0.030371   0.000034   4.769363  -0.024359   0.504204
    17  H    0.393569   0.000032  -0.000034  -0.024359   0.583910   0.001331
    18  C   -0.029884   0.508009   0.001355   0.504204   0.001331   4.771852
    19  H    0.000027   0.393964  -0.003610   0.001362   0.000002  -0.025090
    20  H   -0.025511   0.001359   0.000002   0.394019  -0.003588  -0.025141
    21  H    0.001350  -0.025246  -0.000031  -0.025086  -0.000030   0.393964
    22  H    0.000000   0.000000  -0.000000   0.000000  -0.000000  -0.000000
    23  H    0.000000   0.000000  -0.000000   0.000000  -0.000000   0.000000
    24  H   -0.000000  -0.000000   0.000000  -0.000000   0.000000   0.000000
    25  H    0.000001   0.000000   0.000000  -0.000000   0.000000  -0.000000
    26  H    0.000000  -0.000000   0.000004  -0.000000  -0.000000   0.000000
    27  H   -0.000023  -0.000000  -0.000023  -0.000000   0.000000  -0.000001
              19         20         21         22         23         24
     1  C   -0.000000   0.000000  -0.000000   0.381708   0.382298   0.379767
     2  C   -0.000000  -0.000000   0.000000  -0.000232   0.000008   0.000032
     3  C    0.000000   0.000000  -0.000000  -0.002851   0.001027  -0.000272
     4  C   -0.000000  -0.000000  -0.000000  -0.020375  -0.021433  -0.022295
     5  N    0.000000   0.000000   0.000000   0.000009  -0.000012   0.000001
     6  N   -0.000000   0.000000   0.000000  -0.000023   0.000023  -0.000003
     7  N    0.000000  -0.000000  -0.000000   0.000770  -0.002066  -0.000265
     8  C   -0.000014  -0.000015   0.000001  -0.000000   0.000000   0.000000
     9  H   -0.000002   0.000000  -0.000000  -0.000000  -0.000000   0.000000
    10  H    0.000000  -0.000000  -0.000000   0.000000  -0.000000  -0.000000
    11  C    0.001327   0.001354   0.000031   0.000000   0.000000  -0.000000
    12  C   -0.025378   0.000028   0.001361  -0.000000  -0.000000   0.000000
    13  C    0.000027  -0.025511   0.001350   0.000000   0.000000  -0.000000
    14  C    0.393964   0.001359  -0.025246   0.000000   0.000000  -0.000000
    15  H   -0.003610   0.000002  -0.000031  -0.000000  -0.000000   0.000000
    16  C    0.001362   0.394019  -0.025086   0.000000   0.000000  -0.000000
    17  H    0.000002  -0.003588  -0.000030  -0.000000  -0.000000   0.000000
    18  C   -0.025090  -0.025141   0.393964  -0.000000   0.000000   0.000000
    19  H    0.595320  -0.000031  -0.003523  -0.000000  -0.000000   0.000000
    20  H   -0.000031   0.593099  -0.003495  -0.000000  -0.000000   0.000000
    21  H   -0.003523  -0.003495   0.594250  -0.000000  -0.000000   0.000000
    22  H   -0.000000  -0.000000  -0.000000   0.620693  -0.019847  -0.021824
    23  H   -0.000000  -0.000000  -0.000000  -0.019847   0.603357  -0.021205
    24  H    0.000000   0.000000   0.000000  -0.021824  -0.021205   0.618586
    25  H   -0.000000   0.000000  -0.000000   0.000093  -0.000009  -0.000024
    26  H    0.000000   0.000000  -0.000000   0.000022   0.000002  -0.000005
    27  H   -0.000000  -0.000000   0.000000  -0.000025  -0.000001   0.000017
              25         26         27
     1  C   -0.000092   0.000010   0.000012
     2  C    0.383216   0.379557   0.380147
     3  C   -0.020398  -0.021565  -0.021893
     4  C   -0.002985   0.000500   0.000407
     5  N    0.000884  -0.001378  -0.001218
     6  N   -0.000016   0.000010   0.000012
     7  N    0.000015  -0.000013  -0.000012
     8  C    0.000003  -0.000101   0.000008
     9  H    0.000003   0.000151  -0.000195
    10  H    0.000000   0.000002  -0.000001
    11  C    0.000004  -0.000054   0.000252
    12  C    0.000002   0.000005   0.000013
    13  C    0.000001   0.000000  -0.000023
    14  C    0.000000  -0.000000  -0.000000
    15  H    0.000000   0.000004  -0.000023
    16  C   -0.000000  -0.000000  -0.000000
    17  H    0.000000  -0.000000   0.000000
    18  C   -0.000000   0.000000  -0.000001
    19  H   -0.000000   0.000000  -0.000000
    20  H    0.000000   0.000000  -0.000000
    21  H   -0.000000  -0.000000   0.000000
    22  H    0.000093   0.000022  -0.000025
    23  H   -0.000009   0.000002  -0.000001
    24  H   -0.000024  -0.000005   0.000017
    25  H    0.597548  -0.019930  -0.019650
    26  H   -0.019930   0.610912  -0.021673
    27  H   -0.019650  -0.021673   0.604664
 Mulliken charges:
               1
     1  C   -0.178103
     2  C   -0.185287
     3  C    0.087250
     4  C    0.038547
     5  N   -0.170269
     6  N   -0.070744
     7  N   -0.180436
     8  C   -0.002592
     9  H    0.081883
    10  H    0.105248
    11  C    0.002378
    12  C   -0.064506
    13  C   -0.062116
    14  C   -0.061046
    15  H    0.060417
    16  C   -0.059174
    17  H    0.076692
    18  C   -0.059449
    19  H    0.065645
    20  H    0.067919
    21  H    0.066454
    22  H    0.061883
    23  H    0.077856
    24  H    0.067491
    25  H    0.081333
    26  H    0.073544
    27  H    0.079183
 Sum of Mulliken charges =  -0.00000
 Mulliken charges with hydrogens summed into heavy atoms:
               1
     1  C    0.029127
     2  C    0.048773
     3  C    0.087250
     4  C    0.038547
     5  N   -0.170269
     6  N   -0.070744
     7  N   -0.180436
     8  C    0.184539
    11  C    0.002378
    12  C   -0.004089
    13  C    0.014576
    14  C    0.004599
    16  C    0.008745
    18  C    0.007005
 Electronic spatial extent (au):  <R**2>=           3050.8102
 Charge=             -0.0000 electrons
 Dipole moment (field-independent basis, Debye):
    X=             -2.7309    Y=              3.6578    Z=              0.1861  Tot=              4.5686
 Quadrupole moment (field-independent basis, Debye-Ang):
   XX=            -80.9098   YY=            -80.2927   ZZ=            -74.9003
   XY=              7.6151   XZ=              1.3804   YZ=             -3.1381
 Traceless Quadrupole moment (field-independent basis, Debye-Ang):
   XX=             -2.2089   YY=             -1.5918   ZZ=              3.8006
   XY=              7.6151   XZ=              1.3804   YZ=             -3.1381
 Octapole moment (field-independent basis, Debye-Ang**2):
  XXX=            -16.7077  YYY=             10.7159  ZZZ=             -5.5480  XYY=            -11.5835
  XXY=             24.9402  XXZ=             13.8116  XZZ=             -0.0659  YZZ=             -0.2939
  YYZ=              2.7975  XYZ=              1.3469
 Hexadecapole moment (field-independent basis, Debye-Ang**3):
 XXXX=          -2833.3769 YYYY=           -591.9600 ZZZZ=           -460.2349 XXXY=             20.9618
 XXXZ=            -23.2652 YYYX=             23.1422 YYYZ=            -11.3869 ZZZX=             -3.2465
 ZZZY=             -5.0353 XXYY=           -600.4981 XXZZ=           -544.9146 YYZZ=           -171.1777
 XXYZ=            -11.0000 YYXZ=              5.6989 ZZXY=              5.0390
 N-N= 8.482365947407D+02 E-N=-3.048834638066D+03  KE= 5.746068272445D+02
 Leave Link  601 at Fri Aug 30 10:39:36 2024, MaxMem=  2147483648 cpu:               0.4 elap:               0.1
 (Enter /share/apps/gaussian/g16/l9999.exe)

 Test job not archived.
 1\1\GINC-NODE109\SP\RMP2-FC\STO-3G\C11H13N3\LIAOYT\30-Aug-2024\0\\#p M
 P2 IOp(3/125=0333312000)\\tmpdir/Subs_0_0.gjf\\0,1\C,0,3.801952,-0.407
 883,-1.351129\C,0,1.129452,-2.045973,-0.15946\C,0,1.632328,-0.660136,0
 .071213\C,0,2.728072,0.035605,-0.408187\N,0,1.006681,0.239406,0.882112
 \N,0,1.663185,1.424861,0.893637\N,0,2.704473,1.297129,0.118268\C,0,-0.
 259524,0.101011,1.586532\H,0,-0.239533,-0.822882,2.174512\H,0,-0.29624
 3,0.942731,2.284379\C,0,-1.449678,0.113638,0.645423\C,0,-2.440578,-0.8
 68099,0.73123\C,0,-1.564397,1.122957,-0.319236\C,0,-3.541195,-0.840139
 ,-0.129102\H,0,-2.352681,-1.658975,1.473245\C,0,-2.659906,1.149094,-1.
 180345\H,0,-0.786764,1.87901,-0.391929\C,0,-3.652024,0.168304,-1.08658
 8\H,0,-4.305428,-1.609034,-0.05391\H,0,-2.740533,1.935361,-1.926056\H,
 0,-4.504974,0.189795,-1.75946\H,0,3.944794,-1.493162,-1.314715\H,0,4.7
 50176,0.072815,-1.092785\H,0,3.566886,-0.137527,-2.38846\H,0,1.814171,
 -2.590127,-0.815178\H,0,1.044407,-2.608964,0.778933\H,0,0.138339,-2.03
 9101,-0.62881\\Version=ES64L-G16RevA.03\State=1-A\HF=-580.2282658\MP2=
 -581.0487684\RMSD=4.351e-09\PG=C01 [X(C11H13N3)]\\@


 TWO ROADS DIVERGED IN A WOOD, AND I--
 I TOOK THE ONE LESS TRAVELED BY,
 AND THAT HAS MADE ALL THE DIFFERENCE.

                       -- ROBERT FROST
 Job cpu time:       0 days  0 hours  0 minutes 34.2 seconds.
 Elapsed time:       0 days  0 hours  0 minutes  2.9 seconds.
 File lengths (MBytes):  RWF=     10 Int=      0 D2E=      0 Chk=      5 Scr=      1
 Normal termination of Gaussian 16 at Fri Aug 30 10:39:36 2024.
Fri Aug 30 10:39:36 CST 2024
