This job is running on host node102
Current directory: /share/home/Liaoyt/system-test/bnts-ome/Ene-Me/nogd3/Linear
Fri Aug 30 10:33:25 CST 2024
/tmp/95792.mgr
 Entering Gaussian System, Link 0=g16
 Initial command:
 /share/apps/gaussian/g16/l1.exe "/tmp/95792.mgr/Gau-146015.inp" -scrdir="/tmp/95792.mgr/"
 Entering Link 1 = /share/apps/gaussian/g16/l1.exe PID=    146017.
  
 Copyright (c) 1988,1990,1992,1993,1995,1998,2003,2009,2016,
            Gaussian, Inc.  All Rights Reserved.
  
 This is part of the Gaussian(R) 16 program.  It is based on
 the Gaussian(R) 09 system (copyright 2009, Gaussian, Inc.),
 the Gaussian(R) 03 system (copyright 2003, Gaussian, Inc.),
 the Gaussian(R) 98 system (copyright 1998, Gaussian, Inc.),
 the Gaussian(R) 94 system (copyright 1995, Gaussian, Inc.),
 the Gaussian 92(TM) system (copyright 1992, Gaussian, Inc.),
 the Gaussian 90(TM) system (copyright 1990, Gaussian, Inc.),
 the Gaussian 88(TM) system (copyright 1988, Gaussian, Inc.),
 the Gaussian 86(TM) system (copyright 1986, Carnegie Mellon
 University), and the Gaussian 82(TM) system (copyright 1983,
 Carnegie Mellon University). Gaussian is a federally registered
 trademark of Gaussian, Inc.
  
 This software contains proprietary and confidential information,
 including trade secrets, belonging to Gaussian, Inc.
  
 This software is provided under written license and may be
 used, copied, transmitted, or stored only in accord with that
 written license.
  
 The following legend is applicable only to US Government
 contracts under FAR:
  
                    RESTRICTED RIGHTS LEGEND
  
 Use, reproduction and disclosure by the US Government is
 subject to restrictions as set forth in subparagraphs (a)
 and (c) of the Commercial Computer Software - Restricted
 Rights clause in FAR 52.227-19.
  
 Gaussian, Inc.
 340 Quinnipiac St., Bldg. 40, Wallingford CT 06492
  
  
 ---------------------------------------------------------------
 Warning -- This program may not be used in any manner that
 competes with the business of Gaussian, Inc. or will provide
 assistance to any competitor of Gaussian, Inc.  The licensee
 of this program is prohibited from giving any competitor of
 Gaussian, Inc. access to this program.  By using this program,
 the user acknowledges that Gaussian, Inc. is engaged in the
 business of creating and licensing software in the field of
 computational chemistry and represents and warrants to the
 licensee that it is not a competitor of Gaussian, Inc. and that
 it will not use this program in any manner prohibited above.
 ---------------------------------------------------------------
  

 Cite this work as:
 Gaussian 16, Revision A.03,
 M. J. Frisch, G. W. Trucks, H. B. Schlegel, G. E. Scuseria, 
 M. A. Robb, J. R. Cheeseman, G. Scalmani, V. Barone, 
 G. A. Petersson, H. Nakatsuji, X. Li, M. Caricato, A. V. Marenich, 
 J. Bloino, B. G. Janesko, R. Gomperts, B. Mennucci, H. P. Hratchian, 
 J. V. Ortiz, A. F. Izmaylov, J. L. Sonnenberg, D. Williams-Young, 
 F. Ding, F. Lipparini, F. Egidi, J. Goings, B. Peng, A. Petrone, 
 T. Henderson, D. Ranasinghe, V. G. Zakrzewski, J. Gao, N. Rega, 
 G. Zheng, W. Liang, M. Hada, M. Ehara, K. Toyota, R. Fukuda, 
 J. Hasegawa, M. Ishida, T. Nakajima, Y. Honda, O. Kitao, H. Nakai, 
 T. Vreven, K. Throssell, J. A. Montgomery, Jr., J. E. Peralta, 
 F. Ogliaro, M. J. Bearpark, J. J. Heyd, E. N. Brothers, K. N. Kudin, 
 V. N. Staroverov, T. A. Keith, R. Kobayashi, J. Normand, 
 K. Raghavachari, A. P. Rendell, J. C. Burant, S. S. Iyengar, 
 J. Tomasi, M. Cossi, J. M. Millam, M. Klene, C. Adamo, R. Cammi, 
 J. W. Ochterski, R. L. Martin, K. Morokuma, O. Farkas, 
 J. B. Foresman, and D. J. Fox, Gaussian, Inc., Wallingford CT, 2016.
 
 ******************************************
 Gaussian 16:  ES64L-G16RevA.03 25-Dec-2016
                30-Aug-2024 
 ******************************************
 %chk=Ene-Me-optimum.chk
 %nprocshared=16
 Will use up to   16 processors via shared memory.
 %mem=16GB
 ----------------------------------------------
 #p MP2 IOp(3/125=0333312000) geom=connectivity
 ----------------------------------------------
 1/38=1,57=2,172=1/1;
 2/12=2,17=6,18=5,40=1/2;
 3/11=9,25=1,30=1,125=333312000/1,2,3;
 4//1;
 5/5=2,38=5/2;
 8/10=1/1;
 9/16=-3/6;
 6/7=2,8=2,9=2,10=2/1;
 99/5=1,9=1/99;
 Leave Link    1 at Fri Aug 30 10:33:26 2024, MaxMem=  2147483648 cpu:               2.0 elap:               0.2
 (Enter /share/apps/gaussian/g16/l101.exe)
 -----
 title
 -----
 Symbolic Z-matrix:
 Charge =  0 Multiplicity = 1
 C                     0.60444   0.       -0.00006 
 C                    -0.60445   0.00012   0.00032 
 C                    -2.06599  -0.00003  -0.00009 
 H                    -2.46569   0.81949  -0.61043 
 H                    -2.46545  -0.9384   -0.40489 
 H                    -2.46614   0.11858   1.01467 
 C                     2.06599  -0.00001  -0.00004 
 H                     2.46573  -0.90784  -0.46916 
 H                     2.46581   0.86013  -0.55163 
 H                     2.46579   0.04755   1.02067 
 
 ITRead=  0  0  0  0  0  0  0  0  0  0
 MicOpt= -1 -1 -1 -1 -1 -1 -1 -1 -1 -1
 NAtoms=     10 NQM=       10 NQMF=       0 NMMI=      0 NMMIF=      0
                NMic=       0 NMicF=      0.
                    Isotopes and Nuclear Properties:
 (Nuclear quadrupole moments (NQMom) in fm**2, nuclear magnetic moments (NMagM)
  in nuclear magnetons)

  Atom         1           2           3           4           5           6           7           8           9          10
 IAtWgt=          12          12          12           1           1           1          12           1           1           1
 AtmWgt=  12.0000000  12.0000000  12.0000000   1.0078250   1.0078250   1.0078250  12.0000000   1.0078250   1.0078250   1.0078250
 NucSpn=           0           0           0           1           1           1           0           1           1           1
 AtZEff=  -0.0000000  -0.0000000  -0.0000000  -0.0000000  -0.0000000  -0.0000000  -0.0000000  -0.0000000  -0.0000000  -0.0000000
 NQMom=    0.0000000   0.0000000   0.0000000   0.0000000   0.0000000   0.0000000   0.0000000   0.0000000   0.0000000   0.0000000
 NMagM=    0.0000000   0.0000000   0.0000000   2.7928460   2.7928460   2.7928460   0.0000000   2.7928460   2.7928460   2.7928460
 AtZNuc=   6.0000000   6.0000000   6.0000000   1.0000000   1.0000000   1.0000000   6.0000000   1.0000000   1.0000000   1.0000000
 Leave Link  101 at Fri Aug 30 10:33:27 2024, MaxMem=  2147483648 cpu:               2.3 elap:               0.2
 (Enter /share/apps/gaussian/g16/l202.exe)
                          Input orientation:                          
 ---------------------------------------------------------------------
 Center     Atomic      Atomic             Coordinates (Angstroms)
 Number     Number       Type             X           Y           Z
 ---------------------------------------------------------------------
      1          6           0        0.604438    0.000003   -0.000063
      2          6           0       -0.604450    0.000119    0.000323
      3          6           0       -2.065989   -0.000029   -0.000091
      4          1           0       -2.465688    0.819494   -0.610431
      5          1           0       -2.465447   -0.938400   -0.404886
      6          1           0       -2.466138    0.118579    1.014666
      7          6           0        2.065992   -0.000011   -0.000041
      8          1           0        2.465725   -0.907841   -0.469156
      9          1           0        2.465814    0.860125   -0.551633
     10          1           0        2.465792    0.047552    1.020670
 ---------------------------------------------------------------------
                    Distance matrix (angstroms):
                    1          2          3          4          5
     1  C    0.000000
     2  C    1.208888   0.000000
     3  C    2.670427   1.461539   0.000000
     4  H    3.235705   2.123347   1.097220   0.000000
     5  H    3.235533   2.123281   1.097254   1.769870   0.000000
     6  H    3.236074   2.123395   1.097232   1.769809   1.769840
     7  C    1.461554   2.670442   4.131981   4.645459   4.645257
     8  H    2.123351   3.235858   4.645490   5.227091   4.931685
     9  H    2.123384   3.235860   4.645568   4.932020   5.251053
    10  H    2.123392   3.235698   4.645563   5.251274   5.226990
                    6          7          8          9         10
     6  H    0.000000
     7  C    4.645847   0.000000
     8  H    5.251527   1.097274   0.000000
     9  H    5.227555   1.097244   1.769889   0.000000
    10  H    4.932445   1.097248   1.769847   1.769862   0.000000
 Stoichiometry    C4H6
 Framework group  C1[X(C4H6)]
 Deg. of freedom    24
 Full point group                 C1      NOp   1
 Largest Abelian subgroup         C1      NOp   1
 Largest concise Abelian subgroup C1      NOp   1
                         Standard orientation:                         
 ---------------------------------------------------------------------
 Center     Atomic      Atomic             Coordinates (Angstroms)
 Number     Number       Type             X           Y           Z
 ---------------------------------------------------------------------
      1          6           0       -0.604438   -0.000003   -0.000063
      2          6           0        0.604450   -0.000118    0.000323
      3          6           0        2.065989    0.000029   -0.000091
      4          1           0        2.465688   -0.821265   -0.608047
      5          1           0        2.465447    0.937219   -0.407612
      6          1           0        2.466138   -0.115630    1.015006
      7          6           0       -2.065992    0.000011   -0.000041
      8          1           0       -2.465725    0.906474   -0.471792
      9          1           0       -2.465814   -0.861724   -0.549131
     10          1           0       -2.465792   -0.044585    1.020804
 ---------------------------------------------------------------------
 Rotational constants (GHZ):          80.0438064           3.3439939           3.3439895
 Leave Link  202 at Fri Aug 30 10:33:27 2024, MaxMem=  2147483648 cpu:               0.2 elap:               0.0
 (Enter /share/apps/gaussian/g16/l301.exe)
 Standard basis: STO-3G (5D, 7F)
 Ernie: Thresh=  0.10000D-02 Tol=  0.10000D-05 Strict=F.
 There are    26 symmetry adapted cartesian basis functions of A   symmetry.
 There are    26 symmetry adapted basis functions of A   symmetry.
    26 basis functions,    78 primitive gaussians,    26 cartesian basis functions
    15 alpha electrons       15 beta electrons
       nuclear repulsion energy        99.7493754524 Hartrees.
 IExCor=    0 DFT=F Ex=HF Corr=None ExCW=0 ScaHFX=  1.000000
 ScaDFX=  1.000000  1.000000  1.000000  1.000000 ScalE2=  0.333300  1.200000
 IRadAn=      5 IRanWt=     -1 IRanGd=            0 ICorTp=0 IEmpDi=  4
 NAtoms=   10 NActive=   10 NUniq=   10 SFac= 1.00D+00 NAtFMM=   60 NAOKFM=F Big=F
 Integral buffers will be    131072 words long.
 Raffenetti 1 integral format.
 Two-electron integral symmetry is turned on.
 Leave Link  301 at Fri Aug 30 10:33:27 2024, MaxMem=  2147483648 cpu:               1.2 elap:               0.1
 (Enter /share/apps/gaussian/g16/l302.exe)
 NPDir=0 NMtPBC=     1 NCelOv=     1 NCel=       1 NClECP=     1 NCelD=      1
         NCelK=      1 NCelE2=     1 NClLst=     1 CellRange=     0.0.
 One-electron integrals computed using PRISM.
 One-electron integral symmetry used in STVInt
 NBasis=    26 RedAO= T EigKep=  1.38D-01  NBF=    26
 NBsUse=    26 1.00D-06 EigRej= -1.00D+00 NBFU=    26
 Leave Link  302 at Fri Aug 30 10:33:27 2024, MaxMem=  2147483648 cpu:               1.7 elap:               0.1
 (Enter /share/apps/gaussian/g16/l303.exe)
 DipDrv:  MaxL=1.
 Leave Link  303 at Fri Aug 30 10:33:27 2024, MaxMem=  2147483648 cpu:               0.5 elap:               0.1
 (Enter /share/apps/gaussian/g16/l401.exe)
 ExpMin= 1.69D-01 ExpMax= 7.16D+01 ExpMxC= 7.16D+01 IAcc=3 IRadAn=         5 AccDes= 0.00D+00
 Harris functional with IExCor=  205 and IRadAn=       5 diagonalized for initial guess.
 HarFok:  IExCor=  205 AccDes= 0.00D+00 IRadAn=         5 IDoV= 1 UseB2=F ITyADJ=14
 ICtDFT=  3500011 ScaDFX=  1.000000  1.000000  1.000000  1.000000
 FoFCou: FMM=F IPFlag=           0 FMFlag=      100000 FMFlg1=           0
         NFxFlg=           0 DoJE=T BraDBF=F KetDBF=T FulRan=T
         wScrn=  0.000000 ICntrl=       500 IOpCl=  0 I1Cent=   200000004 NGrid=           0
         NMat0=    1 NMatS0=      1 NMatT0=    0 NMatD0=    1 NMtDS0=    0 NMtDT0=    0
 Petite list used in FoFCou.
 Harris En= -153.303496094157    
 JPrj=0 DoOrth=F DoCkMO=F.
 Leave Link  401 at Fri Aug 30 10:33:27 2024, MaxMem=  2147483648 cpu:               2.7 elap:               0.2
 (Enter /share/apps/gaussian/g16/l502.exe)
 Keep R1 ints in memory in canonical form, NReq=3289221.
 FoFCou: FMM=F IPFlag=           0 FMFlag=           0 FMFlg1=           0
         NFxFlg=           0 DoJE=F BraDBF=F KetDBF=F FulRan=T
         wScrn=  0.000000 ICntrl=       600 IOpCl=  0 I1Cent=           0 NGrid=           0
         NMat0=    1 NMatS0=    351 NMatT0=    0 NMatD0=    1 NMtDS0=    0 NMtDT0=    0
 Symmetry not used in FoFCou.
 Two-electron integral symmetry not used.
 Closed shell SCF:
 Using DIIS extrapolation, IDIIS=  1040.
 NGot=  2147483648 LenX=  2147419426 LenY=  2147418309
 Requested convergence on RMS density matrix=1.00D-08 within 128 cycles.
 Requested convergence on MAX density matrix=1.00D-06.
 Requested convergence on             energy=1.00D-06.
 No special actions if energy rises.

 Cycle   1  Pass 1  IDiag  1:
 E= -152.951677855856    
 DIIS: error= 4.05D-02 at cycle   1 NSaved=   1.
 NSaved= 1 IEnMin= 1 EnMin= -152.951677855856     IErMin= 1 ErrMin= 4.05D-02
 ErrMax= 4.05D-02  0.00D+00 EMaxC= 1.00D-01 BMatC= 8.21D-02 BMatP= 8.21D-02
 IDIUse=3 WtCom= 5.95D-01 WtEn= 4.05D-01
 Coeff-Com:  0.100D+01
 Coeff-En:   0.100D+01
 Coeff:      0.100D+01
 Gap=     0.695 Goal=   None    Shift=    0.000
 GapD=    0.695 DampG=2.000 DampE=0.500 DampFc=1.0000 IDamp=-1.
 RMSDP=1.40D-02 MaxDP=9.58D-02              OVMax= 0.00D+00

 Cycle   2  Pass 1  IDiag  1:
 E= -153.033933666319     Delta-E=       -0.082255810463 Rises=F Damp=F
 DIIS: error= 8.65D-03 at cycle   2 NSaved=   2.
 NSaved= 2 IEnMin= 2 EnMin= -153.033933666319     IErMin= 2 ErrMin= 8.65D-03
 ErrMax= 8.65D-03  0.00D+00 EMaxC= 1.00D-01 BMatC= 1.68D-03 BMatP= 8.21D-02
 IDIUse=3 WtCom= 9.14D-01 WtEn= 8.65D-02
 Coeff-Com:  0.286D-01 0.971D+00
 Coeff-En:   0.000D+00 0.100D+01
 Coeff:      0.262D-01 0.974D+00
 Gap=     0.691 Goal=   None    Shift=    0.000
 RMSDP=2.11D-03 MaxDP=1.64D-02 DE=-8.23D-02 OVMax= 0.00D+00

 Cycle   3  Pass 1  IDiag  1:
 E= -153.035649974432     Delta-E=       -0.001716308113 Rises=F Damp=F
 DIIS: error= 1.19D-03 at cycle   3 NSaved=   3.
 NSaved= 3 IEnMin= 3 EnMin= -153.035649974432     IErMin= 3 ErrMin= 1.19D-03
 ErrMax= 1.19D-03  0.00D+00 EMaxC= 1.00D-01 BMatC= 4.52D-05 BMatP= 1.68D-03
 IDIUse=3 WtCom= 9.88D-01 WtEn= 1.19D-02
 Coeff-Com: -0.131D-01 0.739D-01 0.939D+00
 Coeff-En:   0.000D+00 0.000D+00 0.100D+01
 Coeff:     -0.129D-01 0.730D-01 0.940D+00
 Gap=     0.693 Goal=   None    Shift=    0.000
 RMSDP=3.54D-04 MaxDP=2.14D-03 DE=-1.72D-03 OVMax= 0.00D+00

 Cycle   4  Pass 1  IDiag  1:
 E= -153.035716775106     Delta-E=       -0.000066800675 Rises=F Damp=F
 DIIS: error= 1.69D-04 at cycle   4 NSaved=   4.
 NSaved= 4 IEnMin= 4 EnMin= -153.035716775106     IErMin= 4 ErrMin= 1.69D-04
 ErrMax= 1.69D-04  0.00D+00 EMaxC= 1.00D-01 BMatC= 9.88D-07 BMatP= 4.52D-05
 IDIUse=3 WtCom= 9.98D-01 WtEn= 1.69D-03
 Coeff-Com:  0.307D-02-0.307D-01-0.237D+00 0.126D+01
 Coeff-En:   0.000D+00 0.000D+00 0.000D+00 0.100D+01
 Coeff:      0.306D-02-0.306D-01-0.237D+00 0.126D+01
 Gap=     0.693 Goal=   None    Shift=    0.000
 RMSDP=8.18D-05 MaxDP=4.44D-04 DE=-6.68D-05 OVMax= 0.00D+00

 Cycle   5  Pass 1  IDiag  1:
 E= -153.035718899101     Delta-E=       -0.000002123995 Rises=F Damp=F
 DIIS: error= 7.00D-06 at cycle   5 NSaved=   5.
 NSaved= 5 IEnMin= 5 EnMin= -153.035718899101     IErMin= 5 ErrMin= 7.00D-06
 ErrMax= 7.00D-06  0.00D+00 EMaxC= 1.00D-01 BMatC= 1.51D-09 BMatP= 9.88D-07
 IDIUse=1 WtCom= 1.00D+00 WtEn= 0.00D+00
 Coeff-Com: -0.176D-03 0.178D-02 0.126D-01-0.918D-01 0.108D+01
 Coeff:     -0.176D-03 0.178D-02 0.126D-01-0.918D-01 0.108D+01
 Gap=     0.693 Goal=   None    Shift=    0.000
 RMSDP=3.08D-06 MaxDP=1.79D-05 DE=-2.12D-06 OVMax= 0.00D+00

 Cycle   6  Pass 1  IDiag  1:
 E= -153.035718902675     Delta-E=       -0.000000003574 Rises=F Damp=F
 DIIS: error= 9.60D-07 at cycle   6 NSaved=   6.
 NSaved= 6 IEnMin= 6 EnMin= -153.035718902675     IErMin= 6 ErrMin= 9.60D-07
 ErrMax= 9.60D-07  0.00D+00 EMaxC= 1.00D-01 BMatC= 3.84D-11 BMatP= 1.51D-09
 IDIUse=1 WtCom= 1.00D+00 WtEn= 0.00D+00
 Coeff-Com:  0.225D-04-0.212D-03-0.134D-02 0.122D-01-0.233D+00 0.122D+01
 Coeff:      0.225D-04-0.212D-03-0.134D-02 0.122D-01-0.233D+00 0.122D+01
 Gap=     0.693 Goal=   None    Shift=    0.000
 RMSDP=5.16D-07 MaxDP=4.46D-06 DE=-3.57D-09 OVMax= 0.00D+00

 Cycle   7  Pass 1  IDiag  1:
 E= -153.035718902750     Delta-E=       -0.000000000075 Rises=F Damp=F
 DIIS: error= 5.25D-07 at cycle   7 NSaved=   7.
 NSaved= 7 IEnMin= 7 EnMin= -153.035718902750     IErMin= 7 ErrMin= 5.25D-07
 ErrMax= 5.25D-07  0.00D+00 EMaxC= 1.00D-01 BMatC= 7.02D-12 BMatP= 3.84D-11
 IDIUse=1 WtCom= 1.00D+00 WtEn= 0.00D+00
 Coeff-Com:  0.131D-04-0.125D-03-0.826D-03 0.687D-02-0.114D+00 0.490D+00
 Coeff-Com:  0.619D+00
 Coeff:      0.131D-04-0.125D-03-0.826D-03 0.687D-02-0.114D+00 0.490D+00
 Coeff:      0.619D+00
 Gap=     0.693 Goal=   None    Shift=    0.000
 RMSDP=1.16D-07 MaxDP=1.20D-06 DE=-7.54D-11 OVMax= 0.00D+00

 Cycle   8  Pass 1  IDiag  1:
 E= -153.035718902758     Delta-E=       -0.000000000008 Rises=F Damp=F
 DIIS: error= 7.30D-08 at cycle   8 NSaved=   8.
 NSaved= 8 IEnMin= 8 EnMin= -153.035718902758     IErMin= 8 ErrMin= 7.30D-08
 ErrMax= 7.30D-08  0.00D+00 EMaxC= 1.00D-01 BMatC= 2.15D-13 BMatP= 7.02D-12
 IDIUse=1 WtCom= 1.00D+00 WtEn= 0.00D+00
 Coeff-Com: -0.264D-05 0.256D-04 0.149D-03-0.154D-02 0.331D-01-0.176D+00
 Coeff-Com: -0.907D-02 0.115D+01
 Coeff:     -0.264D-05 0.256D-04 0.149D-03-0.154D-02 0.331D-01-0.176D+00
 Coeff:     -0.907D-02 0.115D+01
 Gap=     0.693 Goal=   None    Shift=    0.000
 RMSDP=2.93D-08 MaxDP=2.19D-07 DE=-7.56D-12 OVMax= 0.00D+00

 Cycle   9  Pass 1  IDiag  1:
 E= -153.035718902758     Delta-E=       -0.000000000000 Rises=F Damp=F
 DIIS: error= 3.18D-09 at cycle   9 NSaved=   9.
 NSaved= 9 IEnMin= 9 EnMin= -153.035718902758     IErMin= 9 ErrMin= 3.18D-09
 ErrMax= 3.18D-09  0.00D+00 EMaxC= 1.00D-01 BMatC= 3.58D-16 BMatP= 2.15D-13
 IDIUse=1 WtCom= 1.00D+00 WtEn= 0.00D+00
 Coeff-Com:  0.354D-06-0.345D-05-0.188D-04 0.213D-03-0.484D-02 0.265D-01
 Coeff-Com:  0.110D-03-0.178D+00 0.116D+01
 Coeff:      0.354D-06-0.345D-05-0.188D-04 0.213D-03-0.484D-02 0.265D-01
 Coeff:      0.110D-03-0.178D+00 0.116D+01
 Gap=     0.693 Goal=   None    Shift=    0.000
 RMSDP=1.62D-09 MaxDP=1.43D-08 DE=-1.14D-13 OVMax= 0.00D+00

 SCF Done:  E(RHF) =  -153.035718903     A.U. after    9 cycles
            NFock=  9  Conv=0.16D-08     -V/T= 2.0077
 KE= 1.518689183425D+02 PE=-5.558052907610D+02 EE= 1.511512780633D+02
 Leave Link  502 at Fri Aug 30 10:33:27 2024, MaxMem=  2147483648 cpu:               1.7 elap:               0.1
 (Enter /share/apps/gaussian/g16/l801.exe)
 DoSCS=T DFT=F ScalE2(SS,OS)=  0.333300  1.200000
 ExpMin= 1.69D-01 ExpMax= 7.16D+01 ExpMxC= 7.16D+01 IAcc=3 IRadAn=         5 AccDes= 0.00D+00
 HarFok:  IExCor=  205 AccDes= 0.00D+00 IRadAn=         5 IDoV=-2 UseB2=F ITyADJ=14
 ICtDFT= 12500011 ScaDFX=  1.000000  1.000000  1.000000  1.000000
 Largest valence mixing into a core orbital is  1.75D-04
 Largest core mixing into a valence orbital is  2.43D-04
 Range of M.O.s used for correlation:     5    26
 NBasis=    26 NAE=    15 NBE=    15 NFC=     4 NFV=     0
 NROrb=     22 NOA=    11 NOB=    11 NVA=    11 NVB=    11
 Leave Link  801 at Fri Aug 30 10:33:28 2024, MaxMem=  2147483648 cpu:               0.8 elap:               0.1
 (Enter /share/apps/gaussian/g16/l906.exe)
 DoSCS=T DFT=F ScalE2(SS,OS)=  0.333300  1.200000
 FulOut=F Deriv=F AODrv=F NAtomX=    10
   MMem=       23788  MDisk=          11 MDiskD=          11
  W3Min=        3146 MinDsk=       57090 NBas6D=          26
 NBas2D=         375    NTT=         351    LW2=     2000000
    MDV=  2147467713 MDiskM=      859562 NBas2p=         372
 Fully in-core method, ICMem=     6166651.
 IMap=   1   2   3   4   5   6   7   8   9  10  11
 JobTyp=1 Pass  1 fully in-core, NPsUse= 16.
 Compute canonical integrals.
 FoFCou: FMM=F IPFlag=           0 FMFlag=           0 FMFlg1=           0
         NFxFlg=           0 DoJE=F BraDBF=F KetDBF=F FulRan=T
         wScrn=  0.000000 ICntrl=       600 IOpCl=  1 I1Cent=           0 NGrid=           0
         NMat0=    1 NMatS0=    375 NMatT0=    0 NMatD0=    1 NMtDS0=    0 NMtDT0=    0
 Symmetry not used in FoFCou.
 Spin components of T(2) and E(2):
     alpha-alpha T2 =       0.1091674181D-01 E2=     -0.7337704708D-02
     alpha-beta  T2 =       0.9521003241D-01 E2=     -0.2468319691D+00
     beta-beta   T2 =       0.1091674181D-01 E2=     -0.7337704708D-02
 The integrals were generated   1 times.
 E2 =    -0.2615073785D+00 EUMP2 =    -0.15329722628125D+03
 Leave Link  906 at Fri Aug 30 10:33:28 2024, MaxMem=  2147483648 cpu:               1.7 elap:               0.1
 (Enter /share/apps/gaussian/g16/l601.exe)
 Copying SCF densities to generalized density rwf, IOpCl= 0 IROHF=0.

 **********************************************************************

            Population analysis using the SCF density.

 **********************************************************************

 Orbital symmetries:
       Occupied  (A) (A) (A) (A) (A) (A) (A) (A) (A) (A) (A) (A)
                 (A) (A) (A)
       Virtual   (A) (A) (A) (A) (A) (A) (A) (A) (A) (A) (A)
 The electronic state is 1-A.
 Alpha  occ. eigenvalues --  -11.06830 -11.06829 -10.97842 -10.97567  -1.00032
 Alpha  occ. eigenvalues --   -0.95212  -0.85411  -0.60119  -0.55428  -0.55427
 Alpha  occ. eigenvalues --   -0.53810  -0.53809  -0.53184  -0.30096  -0.30096
 Alpha virt. eigenvalues --    0.39238   0.39239   0.58741   0.69477   0.69480
 Alpha virt. eigenvalues --    0.72511   0.72746   0.74628   0.74631   0.77397
 Alpha virt. eigenvalues --    1.48881
          Condensed to atoms (all electrons):
               1          2          3          4          5          6
     1  C    4.855195   0.886393  -0.015219  -0.000384  -0.000385  -0.000381
     2  C    0.886393   4.855193   0.399976  -0.022842  -0.022846  -0.022842
     3  C   -0.015219   0.399976   4.657103   0.379948   0.379940   0.379943
     4  H   -0.000384  -0.022842   0.379948   0.605297  -0.020762  -0.020766
     5  H   -0.000385  -0.022846   0.379940  -0.020762   0.605313  -0.020764
     6  H   -0.000381  -0.022842   0.379943  -0.020766  -0.020764   0.605310
     7  C    0.399973  -0.015219   0.000160  -0.000002  -0.000002  -0.000002
     8  H   -0.022844  -0.000382  -0.000002  -0.000001   0.000005  -0.000001
     9  H   -0.022842  -0.000382  -0.000002   0.000005  -0.000001  -0.000001
    10  H   -0.022840  -0.000384  -0.000002  -0.000001  -0.000001   0.000005
               7          8          9         10
     1  C    0.399973  -0.022844  -0.022842  -0.022840
     2  C   -0.015219  -0.000382  -0.000382  -0.000384
     3  C    0.000160  -0.000002  -0.000002  -0.000002
     4  H   -0.000002  -0.000001   0.000005  -0.000001
     5  H   -0.000002   0.000005  -0.000001  -0.000001
     6  H   -0.000002  -0.000001  -0.000001   0.000005
     7  C    4.657100   0.379934   0.379943   0.379941
     8  H    0.379934   0.605326  -0.020762  -0.020765
     9  H    0.379943  -0.020762   0.605307  -0.020764
    10  H    0.379941  -0.020765  -0.020764   0.605311
 Mulliken charges:
               1
     1  C   -0.056668
     2  C   -0.056665
     3  C   -0.181844
     4  H    0.079508
     5  H    0.079503
     6  H    0.079499
     7  C   -0.181825
     8  H    0.079493
     9  H    0.079500
    10  H    0.079500
 Sum of Mulliken charges =  -0.00000
 Mulliken charges with hydrogens summed into heavy atoms:
               1
     1  C   -0.056668
     2  C   -0.056665
     3  C    0.056665
     7  C    0.056667
 Electronic spatial extent (au):  <R**2>=            400.7229
 Charge=             -0.0000 electrons
 Dipole moment (field-independent basis, Debye):
    X=             -0.0000    Y=              0.0001    Z=             -0.0002  Tot=              0.0003
 Quadrupole moment (field-independent basis, Debye-Ang):
   XX=            -19.2353   YY=            -23.6805   ZZ=            -23.6807
   XY=              0.0000   XZ=             -0.0002   YZ=              0.0000
 Traceless Quadrupole moment (field-independent basis, Debye-Ang):
   XX=              2.9635   YY=             -1.4817   ZZ=             -1.4818
   XY=              0.0000   XZ=             -0.0002   YZ=              0.0000
 Octapole moment (field-independent basis, Debye-Ang**2):
  XXX=             -0.0002  YYY=              0.2407  ZZZ=              0.9992  XYY=             -0.0001
  XXY=             -0.0004  XXZ=              0.0005  XZZ=              0.0001  YZZ=             -0.2401
  YYZ=             -1.0002  XYZ=             -0.0001
 Hexadecapole moment (field-independent basis, Debye-Ang**3):
 XXXX=           -437.2343 YYYY=            -32.6838 ZZZZ=            -32.6841 XXXY=             -0.0012
 XXXZ=              0.0018 YYYX=              0.2784 YYYZ=             -0.0003 ZZZX=             -0.0676
 ZZZY=              0.0003 XXYY=            -76.1330 XXZZ=            -76.1317 YYZZ=            -10.8943
 XXYZ=              0.0005 YYXZ=              0.0666 ZZXY=             -0.2781
 N-N= 9.974937545242D+01 E-N=-5.558052907648D+02  KE= 1.518689183425D+02
 Leave Link  601 at Fri Aug 30 10:33:28 2024, MaxMem=  2147483648 cpu:               0.4 elap:               0.0
 (Enter /share/apps/gaussian/g16/l9999.exe)

 Test job not archived.
 1\1\GINC-NODE102\SP\RMP2-FC\STO-3G\C4H6\LIAOYT\30-Aug-2024\0\\#p MP2 I
 Op(3/125=0333312000) geom=connectivity\\title\\0,1\C,0,0.604438,0.0000
 03,-0.000063\C,0,-0.60445,0.000119,0.000323\C,0,-2.065989,-0.000029,-0
 .000091\H,0,-2.465688,0.819494,-0.610431\H,0,-2.465447,-0.9384,-0.4048
 86\H,0,-2.466138,0.118579,1.014666\C,0,2.065992,-0.000011,-0.000041\H,
 0,2.465725,-0.907841,-0.469156\H,0,2.465814,0.860125,-0.551633\H,0,2.4
 65792,0.047552,1.02067\\Version=ES64L-G16RevA.03\State=1-A\HF=-153.035
 7189\MP2=-153.2972263\RMSD=1.623e-09\PG=C01 [X(C4H6)]\\@


 ROSE IS A RED
 TY COBB IS BLUE
 'CAUSE PETE JUST HIT
 NO. 4592.
 Job cpu time:       0 days  0 hours  0 minutes 15.7 seconds.
 Elapsed time:       0 days  0 hours  0 minutes  1.4 seconds.
 File lengths (MBytes):  RWF=      6 Int=      0 D2E=      0 Chk=      2 Scr=      1
 Normal termination of Gaussian 16 at Fri Aug 30 10:33:29 2024.
Fri Aug 30 10:33:29 CST 2024
