This job is running on host node106
Current directory: /share/home/Liaoyt/system-test/bnts-ome/Ene-Me/nogd3/Linear
Fri Aug 30 10:33:33 CST 2024
/tmp/95793.mgr
 Entering Gaussian System, Link 0=g16
 Initial command:
 /share/apps/gaussian/g16/l1.exe "/tmp/95793.mgr/Gau-250477.inp" -scrdir="/tmp/95793.mgr/"
 Entering Link 1 = /share/apps/gaussian/g16/l1.exe PID=    250478.
  
 Copyright (c) 1988,1990,1992,1993,1995,1998,2003,2009,2016,
            Gaussian, Inc.  All Rights Reserved.
  
 This is part of the Gaussian(R) 16 program.  It is based on
 the Gaussian(R) 09 system (copyright 2009, Gaussian, Inc.),
 the Gaussian(R) 03 system (copyright 2003, Gaussian, Inc.),
 the Gaussian(R) 98 system (copyright 1998, Gaussian, Inc.),
 the Gaussian(R) 94 system (copyright 1995, Gaussian, Inc.),
 the Gaussian 92(TM) system (copyright 1992, Gaussian, Inc.),
 the Gaussian 90(TM) system (copyright 1990, Gaussian, Inc.),
 the Gaussian 88(TM) system (copyright 1988, Gaussian, Inc.),
 the Gaussian 86(TM) system (copyright 1986, Carnegie Mellon
 University), and the Gaussian 82(TM) system (copyright 1983,
 Carnegie Mellon University). Gaussian is a federally registered
 trademark of Gaussian, Inc.
  
 This software contains proprietary and confidential information,
 including trade secrets, belonging to Gaussian, Inc.
  
 This software is provided under written license and may be
 used, copied, transmitted, or stored only in accord with that
 written license.
  
 The following legend is applicable only to US Government
 contracts under FAR:
  
                    RESTRICTED RIGHTS LEGEND
  
 Use, reproduction and disclosure by the US Government is
 subject to restrictions as set forth in subparagraphs (a)
 and (c) of the Commercial Computer Software - Restricted
 Rights clause in FAR 52.227-19.
  
 Gaussian, Inc.
 340 Quinnipiac St., Bldg. 40, Wallingford CT 06492
  
  
 ---------------------------------------------------------------
 Warning -- This program may not be used in any manner that
 competes with the business of Gaussian, Inc. or will provide
 assistance to any competitor of Gaussian, Inc.  The licensee
 of this program is prohibited from giving any competitor of
 Gaussian, Inc. access to this program.  By using this program,
 the user acknowledges that Gaussian, Inc. is engaged in the
 business of creating and licensing software in the field of
 computational chemistry and represents and warrants to the
 licensee that it is not a competitor of Gaussian, Inc. and that
 it will not use this program in any manner prohibited above.
 ---------------------------------------------------------------
  

 Cite this work as:
 Gaussian 16, Revision A.03,
 M. J. Frisch, G. W. Trucks, H. B. Schlegel, G. E. Scuseria, 
 M. A. Robb, J. R. Cheeseman, G. Scalmani, V. Barone, 
 G. A. Petersson, H. Nakatsuji, X. Li, M. Caricato, A. V. Marenich, 
 J. Bloino, B. G. Janesko, R. Gomperts, B. Mennucci, H. P. Hratchian, 
 J. V. Ortiz, A. F. Izmaylov, J. L. Sonnenberg, D. Williams-Young, 
 F. Ding, F. Lipparini, F. Egidi, J. Goings, B. Peng, A. Petrone, 
 T. Henderson, D. Ranasinghe, V. G. Zakrzewski, J. Gao, N. Rega, 
 G. Zheng, W. Liang, M. Hada, M. Ehara, K. Toyota, R. Fukuda, 
 J. Hasegawa, M. Ishida, T. Nakajima, Y. Honda, O. Kitao, H. Nakai, 
 T. Vreven, K. Throssell, J. A. Montgomery, Jr., J. E. Peralta, 
 F. Ogliaro, M. J. Bearpark, J. J. Heyd, E. N. Brothers, K. N. Kudin, 
 V. N. Staroverov, T. A. Keith, R. Kobayashi, J. Normand, 
 K. Raghavachari, A. P. Rendell, J. C. Burant, S. S. Iyengar, 
 J. Tomasi, M. Cossi, J. M. Millam, M. Klene, C. Adamo, R. Cammi, 
 J. W. Ochterski, R. L. Martin, K. Morokuma, O. Farkas, 
 J. B. Foresman, and D. J. Fox, Gaussian, Inc., Wallingford CT, 2016.
 
 ******************************************
 Gaussian 16:  ES64L-G16RevA.03 25-Dec-2016
                30-Aug-2024 
 ******************************************
 %chk=linear-n3-ene.chk
 %nprocshared=16
 Will use up to   16 processors via shared memory.
 %mem=16GB
 ----------------------------
 #p MP2 IOp(3/125=0333312000)
 ----------------------------
 1/38=1,172=1/1;
 2/12=2,17=6,18=5,40=1/2;
 3/11=9,25=1,30=1,125=333312000/1,2,3;
 4//1;
 5/5=2,38=5/2;
 8/10=1/1;
 9/16=-3/6;
 6/7=2,8=2,9=2,10=2/1;
 99/5=1,9=1/99;
 Leave Link    1 at Fri Aug 30 10:33:33 2024, MaxMem=  2147483648 cpu:               1.4 elap:               0.1
 (Enter /share/apps/gaussian/g16/l101.exe)
 -----
 title
 -----
 Symbolic Z-matrix:
 Charge =  0 Multiplicity = 1
 C                     0.60444   0.       -40.00006 
 C                    -0.60445   0.00012  -39.99968 
 C                    -2.06599  -0.00003  -40.00009 
 H                    -2.46569   0.81949  -40.61043 
 H                    -2.46545  -0.9384   -40.40489 
 H                    -2.46614   0.11858  -38.98533 
 C                     2.06599  -0.00001  -40.00004 
 H                     2.46573  -0.90784  -40.46916 
 H                     2.46581   0.86013  -40.55163 
 H                     2.46579   0.04755  -38.97933 
 N                     2.234    -0.78778  -0.10685 
 N                     2.38765   0.38371  -0.46804 
 N                     2.61107   1.42614  -0.87894 
 C                     1.17705  -0.98959   0.93111 
 H                     1.16534  -2.06934   1.09205 
 H                     1.49309  -0.51322   1.86869 
 C                    -0.18047  -0.4829    0.50364 
 C                    -0.98563  -1.24791  -0.35031 
 C                    -0.62371   0.78269   0.9042 
 C                    -2.21518  -0.75944  -0.78872 
 H                    -0.64118  -2.22737  -0.67365 
 C                    -1.8546    1.27493   0.46559 
 H                    -0.00424   1.38446   1.56554 
 C                    -2.65219   0.50414  -0.38094 
 H                    -2.83371  -1.36325  -1.44724 
 H                    -2.18884   2.25797   0.78581 
 H                    -3.61118   0.88465  -0.7219 
 
 ITRead=  0  0  0  0  0  0  0  0  0  0  0  0  0  0  0  0  0  0  0  0
 ITRead=  0  0  0  0  0  0  0
 MicOpt= -1 -1 -1 -1 -1 -1 -1 -1 -1 -1 -1 -1 -1 -1 -1 -1 -1 -1 -1 -1
 MicOpt= -1 -1 -1 -1 -1 -1 -1
 NAtoms=     27 NQM=       27 NQMF=       0 NMMI=      0 NMMIF=      0
                NMic=       0 NMicF=      0.
                    Isotopes and Nuclear Properties:
 (Nuclear quadrupole moments (NQMom) in fm**2, nuclear magnetic moments (NMagM)
  in nuclear magnetons)

  Atom         1           2           3           4           5           6           7           8           9          10
 IAtWgt=          12          12          12           1           1           1          12           1           1           1
 AtmWgt=  12.0000000  12.0000000  12.0000000   1.0078250   1.0078250   1.0078250  12.0000000   1.0078250   1.0078250   1.0078250
 NucSpn=           0           0           0           1           1           1           0           1           1           1
 AtZEff=  -0.0000000  -0.0000000  -0.0000000  -0.0000000  -0.0000000  -0.0000000  -0.0000000  -0.0000000  -0.0000000  -0.0000000
 NQMom=    0.0000000   0.0000000   0.0000000   0.0000000   0.0000000   0.0000000   0.0000000   0.0000000   0.0000000   0.0000000
 NMagM=    0.0000000   0.0000000   0.0000000   2.7928460   2.7928460   2.7928460   0.0000000   2.7928460   2.7928460   2.7928460
 AtZNuc=   6.0000000   6.0000000   6.0000000   1.0000000   1.0000000   1.0000000   6.0000000   1.0000000   1.0000000   1.0000000

  Atom        11          12          13          14          15          16          17          18          19          20
 IAtWgt=          14          14          14          12           1           1          12          12          12          12
 AtmWgt=  14.0030740  14.0030740  14.0030740  12.0000000   1.0078250   1.0078250  12.0000000  12.0000000  12.0000000  12.0000000
 NucSpn=           2           2           2           0           1           1           0           0           0           0
 AtZEff=  -0.0000000  -0.0000000  -0.0000000  -0.0000000  -0.0000000  -0.0000000  -0.0000000  -0.0000000  -0.0000000  -0.0000000
 NQMom=    2.0440000   2.0440000   2.0440000   0.0000000   0.0000000   0.0000000   0.0000000   0.0000000   0.0000000   0.0000000
 NMagM=    0.4037610   0.4037610   0.4037610   0.0000000   2.7928460   2.7928460   0.0000000   0.0000000   0.0000000   0.0000000
 AtZNuc=   7.0000000   7.0000000   7.0000000   6.0000000   1.0000000   1.0000000   6.0000000   6.0000000   6.0000000   6.0000000

  Atom        21          22          23          24          25          26          27
 IAtWgt=           1          12           1          12           1           1           1
 AtmWgt=   1.0078250  12.0000000   1.0078250  12.0000000   1.0078250   1.0078250   1.0078250
 NucSpn=           1           0           1           0           1           1           1
 AtZEff=  -0.0000000  -0.0000000  -0.0000000  -0.0000000  -0.0000000  -0.0000000  -0.0000000
 NQMom=    0.0000000   0.0000000   0.0000000   0.0000000   0.0000000   0.0000000   0.0000000
 NMagM=    2.7928460   0.0000000   2.7928460   0.0000000   2.7928460   2.7928460   2.7928460
 AtZNuc=   1.0000000   6.0000000   1.0000000   6.0000000   1.0000000   1.0000000   1.0000000
 Leave Link  101 at Fri Aug 30 10:33:34 2024, MaxMem=  2147483648 cpu:               2.3 elap:               0.2
 (Enter /share/apps/gaussian/g16/l202.exe)
                          Input orientation:                          
 ---------------------------------------------------------------------
 Center     Atomic      Atomic             Coordinates (Angstroms)
 Number     Number       Type             X           Y           Z
 ---------------------------------------------------------------------
      1          6           0        0.604438    0.000003  -40.000063
      2          6           0       -0.604450    0.000119  -39.999677
      3          6           0       -2.065989   -0.000029  -40.000091
      4          1           0       -2.465688    0.819494  -40.610431
      5          1           0       -2.465447   -0.938400  -40.404886
      6          1           0       -2.466138    0.118579  -38.985334
      7          6           0        2.065992   -0.000011  -40.000041
      8          1           0        2.465725   -0.907841  -40.469156
      9          1           0        2.465814    0.860125  -40.551633
     10          1           0        2.465792    0.047552  -38.979330
     11          7           0        2.234002   -0.787780   -0.106845
     12          7           0        2.387654    0.383710   -0.468037
     13          7           0        2.611074    1.426139   -0.878938
     14          6           0        1.177048   -0.989589    0.931108
     15          1           0        1.165338   -2.069343    1.092051
     16          1           0        1.493087   -0.513219    1.868691
     17          6           0       -0.180468   -0.482897    0.503640
     18          6           0       -0.985628   -1.247907   -0.350309
     19          6           0       -0.623713    0.782693    0.904200
     20          6           0       -2.215181   -0.759438   -0.788717
     21          1           0       -0.641184   -2.227372   -0.673653
     22          6           0       -1.854600    1.274933    0.465594
     23          1           0       -0.004236    1.384459    1.565543
     24          6           0       -2.652188    0.504141   -0.380941
     25          1           0       -2.833711   -1.363254   -1.447241
     26          1           0       -2.188841    2.257968    0.785807
     27          1           0       -3.611182    0.884653   -0.721904
 ---------------------------------------------------------------------
                    Distance matrix (angstroms):
                    1          2          3          4          5
     1  C    0.000000
     2  C    1.208888   0.000000
     3  C    2.670427   1.461539   0.000000
     4  H    3.235705   2.123347   1.097220   0.000000
     5  H    3.235533   2.123281   1.097254   1.769870   0.000000
     6  H    3.236074   2.123395   1.097232   1.769809   1.769840
     7  C    1.461554   2.670442   4.131981   4.645459   4.645257
     8  H    2.123351   3.235858   4.645490   5.227091   4.931685
     9  H    2.123384   3.235860   4.645568   4.932020   5.251053
    10  H    2.123392   3.235698   4.645563   5.251274   5.226990
    11  N   39.934258  40.001445  40.132051  40.806996  40.571414
    12  N   39.574085  39.646568  39.783985  40.437070  40.252360
    13  N   39.198506  39.278561  39.425544  40.059120  39.920705
    14  C   40.947136  40.981489  41.071396  41.740170  41.496202
    15  H   41.148009  41.181852  41.270906  41.959823  41.670822
    16  H   41.881328  41.924020  42.022914  42.684000  42.460642
    17  C   40.514185  40.508416  40.550469  41.198122  40.974823
    18  C   39.701242  39.670836  39.684123  40.340329  40.083099
    19  C   40.930181  40.911367  40.937194  41.555491  41.385924
    20  C   39.319927  39.251379  39.219011  39.853791  39.617364
    21  H   39.409127  39.389075  39.415224  40.094369  39.793973
    22  C   40.560347  40.504644  40.486317  41.083095  40.934925
    23  H   41.593110  41.592598  41.639759  42.251517  42.106652
    24  C   39.755938  39.674822  39.626694  40.231158  40.050368
    25  H   38.729826  38.640894  38.584583  39.225697  38.961702
    26  H   40.943718  40.878648  40.848539  41.422148  41.315451
    27  H   39.513641  39.402618  39.318523  39.905025  39.741355
                    6          7          8          9         10
     6  H    0.000000
     7  C    4.645847   0.000000
     8  H    5.251527   1.097274   0.000000
     9  H    5.227555   1.097244   1.769889   0.000000
    10  H    4.932445   1.097248   1.769847   1.769862   0.000000
    11  N   39.172053  39.901327  40.363155  40.479009  38.882150
    12  N   38.822825  39.535175  40.022040  40.086503  38.512839
    13  N   38.465377  39.150884  39.659223  39.676998  38.125601
    14  C   40.097671  40.952759  41.420396  41.543955  39.944707
    15  H   40.301010  41.154020  41.597765  41.766846  40.148325
    16  H   41.050286  41.875796  42.350856  42.453694  40.863449
    17  C   39.559640  40.568805  41.060357  41.162385  39.575106
    18  C   38.687522  39.786567  40.268466  40.404241  38.804533
    19  C   39.937583  41.000050  41.522971  41.570870  40.009767
    20  C   38.207531  39.451655  39.955852  40.070241  38.484876
    21  H   38.426799  39.482334  39.938404  40.117819  38.498746
    22  C   39.472609  40.675105  41.219940  41.246224  39.699802
    23  H   40.645259  41.640129  42.169554  42.192803  40.642036
    24  C   38.606767  39.902236  40.438246  40.496977  38.938899
    25  H   37.569128  38.886809  39.382753  39.524446  37.930632
    26  H   39.829606  41.069301  41.637235  41.622154  40.097602
    27  H   38.288224  39.696158  40.249048  40.290666  38.746109
                   11         12         13         14         15
    11  N    0.000000
    12  N    1.235499   0.000000
    13  N    2.374815   1.142547   0.000000
    14  C    1.495067   2.304154   3.341921   0.000000
    15  H    2.054701   3.153633   4.265366   1.091746   0.000000
    16  H    2.127694   2.658012   3.544075   1.098122   1.769777
    17  C    2.509046   2.879308   3.653580   1.510733   2.161997
    18  C    3.261443   3.749009   4.512897   2.527039   2.716949
    19  C    3.413961   3.333250   3.749327   2.526746   3.371958
    20  C    4.501220   4.753495   5.298832   3.810247   4.084244
    21  H    3.265025   4.004234   4.895658   2.722744   2.531048
    22  C    4.615099   4.434260   4.666141   3.812565   4.549358
    23  H    3.539098   3.295161   3.580094   2.726544   3.677070
    24  C    5.061526   5.042033   5.366564   4.314597   4.833842
    25  H    5.273476   5.592260   6.144051   4.677858   4.789463
    26  H    5.443799   5.101889   5.148058   4.679417   5.483605
    27  H    6.110770   6.025066   6.247747   5.401146   5.901836
                   16         17         18         19         20
    16  H    0.000000
    17  C    2.159877   0.000000
    18  C    3.407016   1.400982   0.000000
    19  C    2.662794   1.399512   2.414148   0.000000
    20  C    4.568774   2.426256   1.393773   2.788711   0.000000
    21  H    3.735900   2.154407   1.087449   3.398590   2.155351
    22  C    4.046378   2.427783   2.790257   1.396337   2.417019
    23  H    2.436197   2.155392   3.400437   1.087772   3.876482
    24  C    4.824849   2.804662   2.418271   2.417414   1.397816
    25  H    5.517168   3.408909   2.152202   3.875365   1.086659
    26  H    4.733784   3.409622   3.876808   2.154084   3.403610
    27  H    5.892265   3.891266   3.402856   3.402878   2.157850
                   21         22         23         24         25
    21  H    0.000000
    22  C    3.877680   0.000000
    23  H    4.297095   2.155396   0.000000
    24  C    3.404553   1.395309   3.402265   0.000000
    25  H    2.480386   3.402591   4.963136   2.158034   0.000000
    26  H    4.964226   1.086559   2.478610   2.156826   4.302977
    27  H    4.302083   2.155934   4.300265   1.086607   2.486697
                   26         27
    26  H    0.000000
    27  H    2.486411   0.000000
 Stoichiometry    C11H13N3
 Framework group  C1[X(C11H13N3)]
 Deg. of freedom    75
 Full point group                 C1      NOp   1
 Largest Abelian subgroup         C1      NOp   1
 Largest concise Abelian subgroup C1      NOp   1
                         Standard orientation:                         
 ---------------------------------------------------------------------
 Center     Atomic      Atomic             Coordinates (Angstroms)
 Number     Number       Type             X           Y           Z
 ---------------------------------------------------------------------
      1          6           0      -28.000063    0.604438    0.000003
      2          6           0      -27.999677   -0.604450    0.000119
      3          6           0      -28.000091   -2.065989   -0.000029
      4          1           0      -28.610431   -2.465688    0.819494
      5          1           0      -28.404886   -2.465447   -0.938400
      6          1           0      -26.985334   -2.466138    0.118579
      7          6           0      -28.000041    2.065992   -0.000011
      8          1           0      -28.469156    2.465725   -0.907841
      9          1           0      -28.551633    2.465814    0.860125
     10          1           0      -26.979330    2.465792    0.047552
     11          7           0       11.893155    2.234002   -0.787780
     12          7           0       11.531963    2.387654    0.383710
     13          7           0       11.121062    2.611074    1.426139
     14          6           0       12.931108    1.177048   -0.989589
     15          1           0       13.092051    1.165338   -2.069343
     16          1           0       13.868691    1.493087   -0.513219
     17          6           0       12.503640   -0.180468   -0.482897
     18          6           0       11.649691   -0.985628   -1.247907
     19          6           0       12.904200   -0.623713    0.782693
     20          6           0       11.211283   -2.215181   -0.759438
     21          1           0       11.326347   -0.641184   -2.227372
     22          6           0       12.465594   -1.854600    1.274933
     23          1           0       13.565543   -0.004236    1.384459
     24          6           0       11.619059   -2.652188    0.504141
     25          1           0       10.552759   -2.833711   -1.363254
     26          1           0       12.785807   -2.188841    2.257968
     27          1           0       11.278096   -3.611182    0.884653
 ---------------------------------------------------------------------
 Rotational constants (GHZ):           0.6541231           0.0081994           0.0081322
 Leave Link  202 at Fri Aug 30 10:33:34 2024, MaxMem=  2147483648 cpu:               0.2 elap:               0.0
 (Enter /share/apps/gaussian/g16/l301.exe)
 Standard basis: STO-3G (5D, 7F)
 Ernie: Thresh=  0.10000D-02 Tol=  0.10000D-05 Strict=F.
 There are    83 symmetry adapted cartesian basis functions of A   symmetry.
 There are    83 symmetry adapted basis functions of A   symmetry.
    83 basis functions,   249 primitive gaussians,    83 cartesian basis functions
    50 alpha electrons       50 beta electrons
       nuclear repulsion energy       592.9832088894 Hartrees.
 IExCor=    0 DFT=F Ex=HF Corr=None ExCW=0 ScaHFX=  1.000000
 ScaDFX=  1.000000  1.000000  1.000000  1.000000 ScalE2=  0.333300  1.200000
 IRadAn=      5 IRanWt=     -1 IRanGd=            0 ICorTp=0 IEmpDi=  4
 NAtoms=   27 NActive=   27 NUniq=   27 SFac= 1.00D+00 NAtFMM=   60 NAOKFM=F Big=F
 Integral buffers will be    131072 words long.
 Raffenetti 1 integral format.
 Two-electron integral symmetry is turned on.
 Leave Link  301 at Fri Aug 30 10:33:34 2024, MaxMem=  2147483648 cpu:               1.2 elap:               0.1
 (Enter /share/apps/gaussian/g16/l302.exe)
 NPDir=0 NMtPBC=     1 NCelOv=     1 NCel=       1 NClECP=     1 NCelD=      1
         NCelK=      1 NCelE2=     1 NClLst=     1 CellRange=     0.0.
 One-electron integrals computed using PRISM.
 One-electron integral symmetry used in STVInt
 NBasis=    83 RedAO= T EigKep=  1.38D-01  NBF=    83
 NBsUse=    83 1.00D-06 EigRej= -1.00D+00 NBFU=    83
 Leave Link  302 at Fri Aug 30 10:33:35 2024, MaxMem=  2147483648 cpu:               1.9 elap:               0.1
 (Enter /share/apps/gaussian/g16/l303.exe)
 DipDrv:  MaxL=1.
 Leave Link  303 at Fri Aug 30 10:33:35 2024, MaxMem=  2147483648 cpu:               0.5 elap:               0.1
 (Enter /share/apps/gaussian/g16/l401.exe)
 ExpMin= 1.69D-01 ExpMax= 9.91D+01 ExpMxC= 9.91D+01 IAcc=3 IRadAn=         5 AccDes= 0.00D+00
 Harris functional with IExCor=  205 and IRadAn=       5 diagonalized for initial guess.
 HarFok:  IExCor=  205 AccDes= 0.00D+00 IRadAn=         5 IDoV= 1 UseB2=F ITyADJ=14
 ICtDFT=  3500011 ScaDFX=  1.000000  1.000000  1.000000  1.000000
 FoFCou: FMM=F IPFlag=           0 FMFlag=      100000 FMFlg1=           0
         NFxFlg=           0 DoJE=T BraDBF=F KetDBF=T FulRan=T
         wScrn=  0.000000 ICntrl=       500 IOpCl=  0 I1Cent=   200000004 NGrid=           0
         NMat0=    1 NMatS0=      1 NMatT0=    0 NMatD0=    1 NMtDS0=    0 NMtDT0=    0
 Petite list used in FoFCou.
 Harris En= -580.668190738412    
 JPrj=0 DoOrth=F DoCkMO=F.
 Leave Link  401 at Fri Aug 30 10:33:35 2024, MaxMem=  2147483648 cpu:               4.7 elap:               0.3
 (Enter /share/apps/gaussian/g16/l502.exe)
 Integral symmetry usage will be decided dynamically.
 Closed shell SCF:
 Using DIIS extrapolation, IDIIS=  1040.
 NGot=  2147483648 LenX=  2147466911 LenY=  2147459581
 Requested convergence on RMS density matrix=1.00D-08 within 128 cycles.
 Requested convergence on MAX density matrix=1.00D-06.
 Requested convergence on             energy=1.00D-06.
 No special actions if energy rises.
 Fock matrices will be formed incrementally for  20 cycles.
 Integral accuracy reduced to 1.0D-05 until final iterations.

 Cycle   1  Pass 0  IDiag  1:
 FoFJK:  IHMeth= 1 ICntrl=       0 DoSepK=F KAlg= 0 I1Cent=           0 FoldK=F
 IRaf= 520000000 NMat=       1 IRICut=       1 DoRegI=T DoRafI=F ISym2E= 0 IDoP0=0 IntGTp=1.
 FoFCou: FMM=F IPFlag=           0 FMFlag=      100000 FMFlg1=           0
         NFxFlg=           0 DoJE=F BraDBF=F KetDBF=F FulRan=T
         wScrn=  0.000000 ICntrl=         0 IOpCl=  0 I1Cent=           0 NGrid=           0
         NMat0=    1 NMatS0=      1 NMatT0=    0 NMatD0=    1 NMtDS0=    0 NMtDT0=    0
 Symmetry not used in FoFCou.
 E= -579.796812025541    
 DIIS: error= 4.71D-02 at cycle   1 NSaved=   1.
 NSaved= 1 IEnMin= 1 EnMin= -579.796812025541     IErMin= 1 ErrMin= 4.71D-02
 ErrMax= 4.71D-02  0.00D+00 EMaxC= 1.00D-01 BMatC= 2.61D-01 BMatP= 2.61D-01
 IDIUse=3 WtCom= 5.29D-01 WtEn= 4.71D-01
 Coeff-Com:  0.100D+01
 Coeff-En:   0.100D+01
 Coeff:      0.100D+01
 Gap=     0.586 Goal=   None    Shift=    0.000
 GapD=    0.586 DampG=2.000 DampE=0.500 DampFc=1.0000 IDamp=-1.
 RMSDP=7.86D-03 MaxDP=1.43D-01              OVMax= 0.00D+00

 Cycle   2  Pass 0  IDiag  1:
 RMSU=  7.86D-03    CP:  9.99D-01
 E= -580.005078748806     Delta-E=       -0.208266723265 Rises=F Damp=F
 DIIS: error= 3.02D-02 at cycle   2 NSaved=   2.
 NSaved= 2 IEnMin= 2 EnMin= -580.005078748806     IErMin= 2 ErrMin= 3.02D-02
 ErrMax= 3.02D-02  0.00D+00 EMaxC= 1.00D-01 BMatC= 1.98D-02 BMatP= 2.61D-01
 IDIUse=3 WtCom= 6.98D-01 WtEn= 3.02D-01
 Coeff-Com:  0.130D+00 0.870D+00
 Coeff-En:   0.000D+00 0.100D+01
 Coeff:      0.910D-01 0.909D+00
 Gap=     0.505 Goal=   None    Shift=    0.000
 RMSDP=2.66D-03 MaxDP=7.25D-02 DE=-2.08D-01 OVMax= 0.00D+00

 Cycle   3  Pass 0  IDiag  1:
 RMSU=  2.23D-03    CP:  9.98D-01  8.16D-01
 E= -580.018296177965     Delta-E=       -0.013217429159 Rises=F Damp=F
 DIIS: error= 1.60D-02 at cycle   3 NSaved=   3.
 NSaved= 3 IEnMin= 3 EnMin= -580.018296177965     IErMin= 3 ErrMin= 1.60D-02
 ErrMax= 1.60D-02  0.00D+00 EMaxC= 1.00D-01 BMatC= 7.43D-03 BMatP= 1.98D-02
 IDIUse=3 WtCom= 8.40D-01 WtEn= 1.60D-01
 Coeff-Com: -0.628D-02 0.366D+00 0.640D+00
 Coeff-En:   0.000D+00 0.168D+00 0.832D+00
 Coeff:     -0.528D-02 0.335D+00 0.671D+00
 Gap=     0.508 Goal=   None    Shift=    0.000
 RMSDP=1.38D-03 MaxDP=4.13D-02 DE=-1.32D-02 OVMax= 0.00D+00

 Cycle   4  Pass 0  IDiag  1:
 RMSU=  8.06D-04    CP:  9.99D-01  8.84D-01  5.57D-01
 E= -580.025606710776     Delta-E=       -0.007310532811 Rises=F Damp=F
 DIIS: error= 5.10D-03 at cycle   4 NSaved=   4.
 NSaved= 4 IEnMin= 4 EnMin= -580.025606710776     IErMin= 4 ErrMin= 5.10D-03
 ErrMax= 5.10D-03  0.00D+00 EMaxC= 1.00D-01 BMatC= 6.63D-04 BMatP= 7.43D-03
 IDIUse=3 WtCom= 9.49D-01 WtEn= 5.10D-02
 Coeff-Com: -0.100D-01 0.750D-01 0.280D+00 0.655D+00
 Coeff-En:   0.000D+00 0.000D+00 0.000D+00 0.100D+01
 Coeff:     -0.952D-02 0.712D-01 0.266D+00 0.672D+00
 Gap=     0.502 Goal=   None    Shift=    0.000
 RMSDP=4.45D-04 MaxDP=1.13D-02 DE=-7.31D-03 OVMax= 0.00D+00

 Cycle   5  Pass 0  IDiag  1:
 RMSU=  3.06D-04    CP:  9.99D-01  8.86D-01  6.86D-01  8.18D-01
 E= -580.026538802997     Delta-E=       -0.000932092222 Rises=F Damp=F
 DIIS: error= 1.86D-03 at cycle   5 NSaved=   5.
 NSaved= 5 IEnMin= 5 EnMin= -580.026538802997     IErMin= 5 ErrMin= 1.86D-03
 ErrMax= 1.86D-03  0.00D+00 EMaxC= 1.00D-01 BMatC= 5.66D-05 BMatP= 6.63D-04
 IDIUse=3 WtCom= 9.81D-01 WtEn= 1.86D-02
 Coeff-Com:  0.838D-03-0.436D-01-0.828D-01 0.349D-01 0.109D+01
 Coeff-En:   0.000D+00 0.000D+00 0.000D+00 0.000D+00 0.100D+01
 Coeff:      0.822D-03-0.428D-01-0.813D-01 0.342D-01 0.109D+01
 Gap=     0.506 Goal=   None    Shift=    0.000
 RMSDP=2.52D-04 MaxDP=7.02D-03 DE=-9.32D-04 OVMax= 0.00D+00

 Cycle   6  Pass 0  IDiag  1:
 RMSU=  1.23D-04    CP:  9.99D-01  8.90D-01  7.03D-01  1.03D+00  1.42D+00
 E= -580.026802205349     Delta-E=       -0.000263402352 Rises=F Damp=F
 DIIS: error= 8.23D-04 at cycle   6 NSaved=   6.
 NSaved= 6 IEnMin= 6 EnMin= -580.026802205349     IErMin= 6 ErrMin= 8.23D-04
 ErrMax= 8.23D-04  0.00D+00 EMaxC= 1.00D-01 BMatC= 1.82D-05 BMatP= 5.66D-05
 IDIUse=3 WtCom= 9.92D-01 WtEn= 8.23D-03
 Coeff-Com:  0.199D-02-0.544D-02-0.342D-01-0.162D+00-0.462D+00 0.166D+01
 Coeff-En:   0.000D+00 0.000D+00 0.000D+00 0.000D+00 0.000D+00 0.100D+01
 Coeff:      0.197D-02-0.540D-02-0.339D-01-0.161D+00-0.458D+00 0.166D+01
 Gap=     0.507 Goal=   None    Shift=    0.000
 RMSDP=2.84D-04 MaxDP=8.83D-03 DE=-2.63D-04 OVMax= 0.00D+00

 Cycle   7  Pass 0  IDiag  1:
 RMSU=  5.85D-05    CP:  9.99D-01  8.93D-01  7.31D-01  1.18D+00  2.07D+00
                    CP:  2.13D+00
 E= -580.026965953270     Delta-E=       -0.000163747921 Rises=F Damp=F
 DIIS: error= 4.60D-04 at cycle   7 NSaved=   7.
 NSaved= 7 IEnMin= 7 EnMin= -580.026965953270     IErMin= 7 ErrMin= 4.60D-04
 ErrMax= 4.60D-04  0.00D+00 EMaxC= 1.00D-01 BMatC= 5.35D-06 BMatP= 1.82D-05
 IDIUse=3 WtCom= 9.95D-01 WtEn= 4.60D-03
 Coeff-Com: -0.127D-02 0.141D-01 0.553D-01 0.134D+00-0.228D+00-0.752D+00
 Coeff-Com:  0.178D+01
 Coeff-En:   0.000D+00 0.000D+00 0.000D+00 0.000D+00 0.000D+00 0.000D+00
 Coeff-En:   0.100D+01
 Coeff:     -0.127D-02 0.141D-01 0.551D-01 0.134D+00-0.227D+00-0.749D+00
 Coeff:      0.177D+01
 Gap=     0.508 Goal=   None    Shift=    0.000
 RMSDP=1.94D-04 MaxDP=5.90D-03 DE=-1.64D-04 OVMax= 0.00D+00

 Cycle   8  Pass 0  IDiag  1:
 RMSU=  3.52D-05    CP:  9.99D-01  8.93D-01  7.46D-01  1.27D+00  2.42D+00
                    CP:  3.00D+00  2.02D+00
 E= -580.027012306296     Delta-E=       -0.000046353026 Rises=F Damp=F
 DIIS: error= 1.36D-04 at cycle   8 NSaved=   8.
 NSaved= 8 IEnMin= 8 EnMin= -580.027012306296     IErMin= 8 ErrMin= 1.36D-04
 ErrMax= 1.36D-04  0.00D+00 EMaxC= 1.00D-01 BMatC= 7.13D-07 BMatP= 5.35D-06
 IDIUse=3 WtCom= 9.99D-01 WtEn= 1.36D-03
 Coeff-Com: -0.310D-03-0.145D-03 0.711D-02 0.445D-01 0.498D-01-0.241D+00
 Coeff-Com: -0.701D-01 0.121D+01
 Coeff-En:   0.000D+00 0.000D+00 0.000D+00 0.000D+00 0.000D+00 0.000D+00
 Coeff-En:   0.000D+00 0.100D+01
 Coeff:     -0.309D-03-0.144D-03 0.710D-02 0.445D-01 0.497D-01-0.241D+00
 Coeff:     -0.700D-01 0.121D+01
 Gap=     0.508 Goal=   None    Shift=    0.000
 RMSDP=5.66D-05 MaxDP=1.56D-03 DE=-4.64D-05 OVMax= 0.00D+00

 Cycle   9  Pass 0  IDiag  1:
 RMSU=  2.66D-05    CP:  9.99D-01  8.93D-01  7.49D-01  1.29D+00  2.50D+00
                    CP:  3.00D+00  2.50D+00  1.81D+00
 E= -580.027016224723     Delta-E=       -0.000003918427 Rises=F Damp=F
 DIIS: error= 3.92D-05 at cycle   9 NSaved=   9.
 NSaved= 9 IEnMin= 9 EnMin= -580.027016224723     IErMin= 9 ErrMin= 3.92D-05
 ErrMax= 3.92D-05  0.00D+00 EMaxC= 1.00D-01 BMatC= 9.17D-08 BMatP= 7.13D-07
 IDIUse=1 WtCom= 1.00D+00 WtEn= 0.00D+00
 Coeff-Com:  0.208D-03-0.270D-02-0.918D-02-0.162D-01 0.292D-01 0.131D+00
 Coeff-Com: -0.313D+00 0.767D-01 0.110D+01
 Coeff:      0.208D-03-0.270D-02-0.918D-02-0.162D-01 0.292D-01 0.131D+00
 Coeff:     -0.313D+00 0.767D-01 0.110D+01
 Gap=     0.508 Goal=   None    Shift=    0.000
 RMSDP=1.62D-05 MaxDP=3.76D-04 DE=-3.92D-06 OVMax= 0.00D+00

 Cycle  10  Pass 0  IDiag  1:
 RMSU=  3.66D-06    CP:  9.99D-01  8.93D-01  7.50D-01  1.29D+00  2.51D+00
                    CP:  3.00D+00  2.64D+00  2.15D+00  1.14D+00
 E= -580.027016557907     Delta-E=       -0.000000333184 Rises=F Damp=F
 DIIS: error= 1.42D-05 at cycle  10 NSaved=  10.
 NSaved=10 IEnMin=10 EnMin= -580.027016557907     IErMin=10 ErrMin= 1.42D-05
 ErrMax= 1.42D-05  0.00D+00 EMaxC= 1.00D-01 BMatC= 7.89D-09 BMatP= 9.17D-08
 IDIUse=1 WtCom= 1.00D+00 WtEn= 0.00D+00
 Coeff-Com:  0.250D-04 0.101D-03-0.678D-03-0.313D-02-0.597D-02 0.197D-01
 Coeff-Com:  0.126D-01-0.130D+00-0.564D-01 0.116D+01
 Coeff:      0.250D-04 0.101D-03-0.678D-03-0.313D-02-0.597D-02 0.197D-01
 Coeff:      0.126D-01-0.130D+00-0.564D-01 0.116D+01
 Gap=     0.508 Goal=   None    Shift=    0.000
 RMSDP=5.08D-06 MaxDP=1.11D-04 DE=-3.33D-07 OVMax= 0.00D+00

 Initial convergence to 1.0D-05 achieved.  Increase integral accuracy.
 Cycle  11  Pass 1  IDiag  1:
 E= -580.027017686110     Delta-E=       -0.000001128203 Rises=F Damp=F
 DIIS: error= 3.22D-06 at cycle   1 NSaved=   1.
 NSaved= 1 IEnMin= 1 EnMin= -580.027017686110     IErMin= 1 ErrMin= 3.22D-06
 ErrMax= 3.22D-06  0.00D+00 EMaxC= 1.00D-01 BMatC= 7.68D-10 BMatP= 7.68D-10
 IDIUse=1 WtCom= 1.00D+00 WtEn= 0.00D+00
 Coeff-Com:  0.100D+01
 Coeff:      0.100D+01
 Gap=     0.508 Goal=   None    Shift=    0.000
 RMSDP=5.08D-06 MaxDP=1.11D-04 DE=-1.13D-06 OVMax= 0.00D+00

 Cycle  12  Pass 1  IDiag  1:
 RMSU=  6.96D-07    CP:  1.00D+00
 E= -580.027017688277     Delta-E=       -0.000000002167 Rises=F Damp=F
 DIIS: error= 1.62D-06 at cycle   2 NSaved=   2.
 NSaved= 2 IEnMin= 2 EnMin= -580.027017688277     IErMin= 2 ErrMin= 1.62D-06
 ErrMax= 1.62D-06  0.00D+00 EMaxC= 1.00D-01 BMatC= 1.91D-10 BMatP= 7.68D-10
 IDIUse=1 WtCom= 1.00D+00 WtEn= 0.00D+00
 Coeff-Com: -0.206D+00 0.121D+01
 Coeff:     -0.206D+00 0.121D+01
 Gap=     0.508 Goal=   None    Shift=    0.000
 RMSDP=4.75D-07 MaxDP=1.14D-05 DE=-2.17D-09 OVMax= 0.00D+00

 Cycle  13  Pass 1  IDiag  1:
 RMSU=  2.72D-07    CP:  1.00D+00  1.56D+00
 E= -580.027017689071     Delta-E=       -0.000000000794 Rises=F Damp=F
 DIIS: error= 1.51D-06 at cycle   3 NSaved=   3.
 NSaved= 3 IEnMin= 3 EnMin= -580.027017689071     IErMin= 3 ErrMin= 1.51D-06
 ErrMax= 1.51D-06  0.00D+00 EMaxC= 1.00D-01 BMatC= 8.18D-11 BMatP= 1.91D-10
 IDIUse=1 WtCom= 1.00D+00 WtEn= 0.00D+00
 Coeff-Com: -0.270D+00 0.283D+00 0.987D+00
 Coeff:     -0.270D+00 0.283D+00 0.987D+00
 Gap=     0.508 Goal=   None    Shift=    0.000
 RMSDP=3.41D-07 MaxDP=9.91D-06 DE=-7.94D-10 OVMax= 0.00D+00

 Cycle  14  Pass 1  IDiag  1:
 RMSU=  1.51D-07    CP:  1.00D+00  1.99D+00  1.27D+00
 E= -580.027017689405     Delta-E=       -0.000000000335 Rises=F Damp=F
 DIIS: error= 9.48D-07 at cycle   4 NSaved=   4.
 NSaved= 4 IEnMin= 4 EnMin= -580.027017689405     IErMin= 4 ErrMin= 9.48D-07
 ErrMax= 9.48D-07  0.00D+00 EMaxC= 1.00D-01 BMatC= 2.45D-11 BMatP= 8.18D-11
 IDIUse=1 WtCom= 1.00D+00 WtEn= 0.00D+00
 Coeff-Com:  0.785D-02-0.282D+00 0.259D+00 0.102D+01
 Coeff:      0.785D-02-0.282D+00 0.259D+00 0.102D+01
 Gap=     0.508 Goal=   None    Shift=    0.000
 RMSDP=2.24D-07 MaxDP=7.14D-06 DE=-3.35D-10 OVMax= 0.00D+00

 Cycle  15  Pass 1  IDiag  1:
 RMSU=  8.79D-08    CP:  1.00D+00  2.20D+00  1.75D+00  1.35D+00
 E= -580.027017689542     Delta-E=       -0.000000000137 Rises=F Damp=F
 DIIS: error= 4.66D-07 at cycle   5 NSaved=   5.
 NSaved= 5 IEnMin= 5 EnMin= -580.027017689542     IErMin= 5 ErrMin= 4.66D-07
 ErrMax= 4.66D-07  0.00D+00 EMaxC= 1.00D-01 BMatC= 8.93D-12 BMatP= 2.45D-11
 IDIUse=1 WtCom= 1.00D+00 WtEn= 0.00D+00
 Coeff-Com:  0.906D-01-0.144D+00-0.250D+00 0.159D+00 0.114D+01
 Coeff:      0.906D-01-0.144D+00-0.250D+00 0.159D+00 0.114D+01
 Gap=     0.508 Goal=   None    Shift=    0.000
 RMSDP=1.62D-07 MaxDP=4.67D-06 DE=-1.37D-10 OVMax= 0.00D+00

 Cycle  16  Pass 1  IDiag  1:
 RMSU=  4.32D-08    CP:  1.00D+00  2.33D+00  2.04D+00  1.95D+00  1.50D+00
 E= -580.027017689601     Delta-E=       -0.000000000058 Rises=F Damp=F
 DIIS: error= 3.15D-07 at cycle   6 NSaved=   6.
 NSaved= 6 IEnMin= 6 EnMin= -580.027017689601     IErMin= 6 ErrMin= 3.15D-07
 ErrMax= 3.15D-07  0.00D+00 EMaxC= 1.00D-01 BMatC= 2.79D-12 BMatP= 8.93D-12
 IDIUse=1 WtCom= 1.00D+00 WtEn= 0.00D+00
 Coeff-Com: -0.308D-01 0.173D+00-0.241D-01-0.553D+00-0.415D+00 0.185D+01
 Coeff:     -0.308D-01 0.173D+00-0.241D-01-0.553D+00-0.415D+00 0.185D+01
 Gap=     0.508 Goal=   None    Shift=    0.000
 RMSDP=1.76D-07 MaxDP=5.70D-06 DE=-5.84D-11 OVMax= 0.00D+00

 Cycle  17  Pass 1  IDiag  1:
 RMSU=  2.09D-08    CP:  1.00D+00  2.44D+00  2.34D+00  2.54D+00  2.48D+00
                    CP:  2.20D+00
 E= -580.027017689639     Delta-E=       -0.000000000038 Rises=F Damp=F
 DIIS: error= 1.05D-07 at cycle   7 NSaved=   7.
 NSaved= 7 IEnMin= 7 EnMin= -580.027017689639     IErMin= 7 ErrMin= 1.05D-07
 ErrMax= 1.05D-07  0.00D+00 EMaxC= 1.00D-01 BMatC= 4.21D-13 BMatP= 2.79D-12
 IDIUse=1 WtCom= 1.00D+00 WtEn= 0.00D+00
 Coeff-Com: -0.989D-02 0.743D-02 0.280D-01 0.461D-01-0.488D-01-0.370D+00
 Coeff-Com:  0.135D+01
 Coeff:     -0.989D-02 0.743D-02 0.280D-01 0.461D-01-0.488D-01-0.370D+00
 Coeff:      0.135D+01
 Gap=     0.508 Goal=   None    Shift=    0.000
 RMSDP=5.08D-08 MaxDP=1.69D-06 DE=-3.84D-11 OVMax= 0.00D+00

 Cycle  18  Pass 1  IDiag  1:
 RMSU=  1.01D-08    CP:  1.00D+00  2.46D+00  2.41D+00  2.70D+00  2.76D+00
                    CP:  2.74D+00  1.65D+00
 E= -580.027017689642     Delta-E=       -0.000000000003 Rises=F Damp=F
 DIIS: error= 4.96D-08 at cycle   8 NSaved=   8.
 NSaved= 8 IEnMin= 8 EnMin= -580.027017689642     IErMin= 8 ErrMin= 4.96D-08
 ErrMax= 4.96D-08  0.00D+00 EMaxC= 1.00D-01 BMatC= 1.09D-13 BMatP= 4.21D-13
 IDIUse=1 WtCom= 1.00D+00 WtEn= 0.00D+00
 Coeff-Com:  0.717D-02-0.444D-01-0.108D-02 0.150D+00 0.162D+00-0.607D+00
 Coeff-Com:  0.138D+00 0.120D+01
 Coeff:      0.717D-02-0.444D-01-0.108D-02 0.150D+00 0.162D+00-0.607D+00
 Coeff:      0.138D+00 0.120D+01
 Gap=     0.508 Goal=   None    Shift=    0.000
 RMSDP=2.60D-08 MaxDP=8.79D-07 DE=-3.18D-12 OVMax= 0.00D+00

 Cycle  19  Pass 1  IDiag  1:
 RMSU=  4.43D-09    CP:  1.00D+00  2.47D+00  2.44D+00  2.77D+00  2.89D+00
                    CP:  2.99D+00  2.22D+00  1.38D+00
 E= -580.027017689643     Delta-E=       -0.000000000000 Rises=F Damp=F
 DIIS: error= 1.85D-08 at cycle   9 NSaved=   9.
 NSaved= 9 IEnMin= 9 EnMin= -580.027017689643     IErMin= 9 ErrMin= 1.85D-08
 ErrMax= 1.85D-08  0.00D+00 EMaxC= 1.00D-01 BMatC= 2.15D-14 BMatP= 1.09D-13
 IDIUse=1 WtCom= 1.00D+00 WtEn= 0.00D+00
 Coeff-Com:  0.274D-02-0.943D-02-0.640D-02 0.217D-01 0.561D-01-0.882D-01
 Coeff-Com: -0.175D+00 0.300D+00 0.898D+00
 Coeff:      0.274D-02-0.943D-02-0.640D-02 0.217D-01 0.561D-01-0.882D-01
 Coeff:     -0.175D+00 0.300D+00 0.898D+00
 Gap=     0.508 Goal=   None    Shift=    0.000
 RMSDP=6.25D-09 MaxDP=1.90D-07 DE=-4.55D-13 OVMax= 0.00D+00

 SCF Done:  E(RHF) =  -580.027017690     A.U. after   19 cycles
            NFock= 19  Conv=0.63D-08     -V/T= 2.0094
 KE= 5.746463721327D+02 PE=-2.537969250804D+03 EE= 7.903126520922D+02
 Leave Link  502 at Fri Aug 30 10:33:36 2024, MaxMem=  2147483648 cpu:              12.1 elap:               0.8
 (Enter /share/apps/gaussian/g16/l801.exe)
 DoSCS=T DFT=F ScalE2(SS,OS)=  0.333300  1.200000
 ExpMin= 1.69D-01 ExpMax= 9.91D+01 ExpMxC= 9.91D+01 IAcc=3 IRadAn=         5 AccDes= 0.00D+00
 HarFok:  IExCor=  205 AccDes= 0.00D+00 IRadAn=         5 IDoV=-2 UseB2=F ITyADJ=14
 ICtDFT= 12500011 ScaDFX=  1.000000  1.000000  1.000000  1.000000
 Largest valence mixing into a core orbital is  2.16D-04
 Largest core mixing into a valence orbital is  3.52D-04
 Range of M.O.s used for correlation:    15    83
 NBasis=    83 NAE=    50 NBE=    50 NFC=    14 NFV=     0
 NROrb=     69 NOA=    36 NOB=    36 NVA=    33 NVB=    33
 Leave Link  801 at Fri Aug 30 10:33:37 2024, MaxMem=  2147483648 cpu:               1.4 elap:               0.2
 (Enter /share/apps/gaussian/g16/l906.exe)
 DoSCS=T DFT=F ScalE2(SS,OS)=  0.333300  1.200000
 FulOut=F Deriv=F AODrv=F NAtomX=    27
   MMem=        1259  MDisk=          36 MDiskD=          36
  W3Min=       98604 MinDsk=      147802 NBas6D=          83
 NBas2D=        3570    NTT=        3486    LW2=     2000000
    MDV=  2147410912 MDiskM=      269253 NBas2p=        2050
 Fully in-core method, ICMem=    19058474.
 IMap=   1   2   3   4   5   6   7   8   9  10  11  12  13  14  15  16  17  18  19  20
 IMap=  21  22  23  24  25  26  27  28  29  30  31  32  33  34  35  36
 JobTyp=1 Pass  1 fully in-core, NPsUse= 16.
 Compute canonical integrals.
 FoFCou: FMM=F IPFlag=           0 FMFlag=           0 FMFlg1=           0
         NFxFlg=           0 DoJE=F BraDBF=F KetDBF=F FulRan=T
         wScrn=  0.000000 ICntrl=       600 IOpCl=  1 I1Cent=           0 NGrid=           0
         NMat0=    1 NMatS0=   3570 NMatT0=    0 NMatD0=    1 NMtDS0=    0 NMtDT0=    0
 Symmetry not used in FoFCou.
 Spin components of T(2) and E(2):
     alpha-alpha T2 =       0.4686307441D-01 E2=     -0.3066139965D-01
     alpha-beta  T2 =       0.3373203558D+00 E2=     -0.8323205859D+00
     beta-beta   T2 =       0.4686307441D-01 E2=     -0.3066139965D-01
 The integrals were generated   1 times.
 E2 =    -0.8936433851D+00 EUMP2 =    -0.58092066107479D+03
 Leave Link  906 at Fri Aug 30 10:33:38 2024, MaxMem=  2147483648 cpu:               6.0 elap:               0.4
 (Enter /share/apps/gaussian/g16/l601.exe)
 Copying SCF densities to generalized density rwf, IOpCl= 0 IROHF=0.

 **********************************************************************

            Population analysis using the SCF density.

 **********************************************************************

 Orbital symmetries:
       Occupied  (A) (A) (A) (A) (A) (A) (A) (A) (A) (A) (A) (A)
                 (A) (A) (A) (A) (A) (A) (A) (A) (A) (A) (A) (A)
                 (A) (A) (A) (A) (A) (A) (A) (A) (A) (A) (A) (A)
                 (A) (A) (A) (A) (A) (A) (A) (A) (A) (A) (A) (A)
                 (A) (A)
       Virtual   (A) (A) (A) (A) (A) (A) (A) (A) (A) (A) (A) (A)
                 (A) (A) (A) (A) (A) (A) (A) (A) (A) (A) (A) (A)
                 (A) (A) (A) (A) (A) (A) (A) (A) (A)
 The electronic state is 1-A.
 Alpha  occ. eigenvalues --  -15.63056 -15.45778 -15.36114 -11.10671 -11.06823
 Alpha  occ. eigenvalues --  -11.06821 -11.04888 -11.03982 -11.03960 -11.03934
 Alpha  occ. eigenvalues --  -11.03914 -11.03886 -10.97835 -10.97560  -1.44145
 Alpha  occ. eigenvalues --   -1.22279  -1.10495  -1.00221  -1.00025  -0.96506
 Alpha  occ. eigenvalues --   -0.95205  -0.90531  -0.85404  -0.78291  -0.76457
 Alpha  occ. eigenvalues --   -0.67866  -0.66426  -0.65592  -0.64083  -0.60112
 Alpha  occ. eigenvalues --   -0.59611  -0.59377  -0.56387  -0.55420  -0.55419
 Alpha  occ. eigenvalues --   -0.54307  -0.53803  -0.53802  -0.53252  -0.53177
 Alpha  occ. eigenvalues --   -0.51626  -0.46461  -0.44748  -0.43932  -0.35057
 Alpha  occ. eigenvalues --   -0.30089  -0.30089  -0.29076  -0.28822  -0.27563
 Alpha virt. eigenvalues --    0.23275   0.25823   0.26270   0.27363   0.39245
 Alpha virt. eigenvalues --    0.39246   0.47923   0.56198   0.57688   0.58748
 Alpha virt. eigenvalues --    0.61070   0.63585   0.66422   0.68979   0.69484
 Alpha virt. eigenvalues --    0.69487   0.69801   0.71960   0.72518   0.72753
 Alpha virt. eigenvalues --    0.73144   0.74635   0.74638   0.75425   0.77404
 Alpha virt. eigenvalues --    0.86563   0.87469   0.88762   0.90437   1.08103
 Alpha virt. eigenvalues --    1.13226   1.22972   1.48888
          Condensed to atoms (all electrons):
               1          2          3          4          5          6
     1  C    4.855191   0.886393  -0.015219  -0.000384  -0.000385  -0.000381
     2  C    0.886393   4.855197   0.399976  -0.022842  -0.022846  -0.022841
     3  C   -0.015219   0.399976   4.657102   0.379948   0.379940   0.379943
     4  H   -0.000384  -0.022842   0.379948   0.605302  -0.020762  -0.020766
     5  H   -0.000385  -0.022846   0.379940  -0.020762   0.605318  -0.020764
     6  H   -0.000381  -0.022841   0.379943  -0.020766  -0.020764   0.605309
     7  C    0.399973  -0.015219   0.000160  -0.000002  -0.000002  -0.000002
     8  H   -0.022844  -0.000382  -0.000002  -0.000001   0.000005  -0.000001
     9  H   -0.022842  -0.000382  -0.000002   0.000005  -0.000001  -0.000001
    10  H   -0.022839  -0.000384  -0.000002  -0.000001  -0.000001   0.000005
    11  N    0.000000   0.000000   0.000000   0.000000   0.000000   0.000000
    12  N    0.000000   0.000000   0.000000   0.000000   0.000000   0.000000
    13  N    0.000000   0.000000   0.000000   0.000000   0.000000   0.000000
    14  C    0.000000   0.000000   0.000000   0.000000   0.000000   0.000000
    15  H    0.000000   0.000000   0.000000   0.000000   0.000000   0.000000
    16  H    0.000000   0.000000   0.000000   0.000000   0.000000   0.000000
    17  C    0.000000   0.000000   0.000000   0.000000   0.000000   0.000000
    18  C    0.000000   0.000000   0.000000   0.000000   0.000000   0.000000
    19  C    0.000000   0.000000   0.000000   0.000000   0.000000   0.000000
    20  C    0.000000   0.000000   0.000000   0.000000   0.000000   0.000000
    21  H    0.000000   0.000000   0.000000   0.000000   0.000000   0.000000
    22  C    0.000000   0.000000   0.000000   0.000000   0.000000   0.000000
    23  H    0.000000   0.000000   0.000000   0.000000   0.000000   0.000000
    24  C    0.000000   0.000000   0.000000   0.000000   0.000000   0.000000
    25  H    0.000000   0.000000   0.000000   0.000000   0.000000   0.000000
    26  H    0.000000   0.000000   0.000000   0.000000   0.000000   0.000000
    27  H    0.000000   0.000000   0.000000   0.000000   0.000000   0.000000
               7          8          9         10         11         12
     1  C    0.399973  -0.022844  -0.022842  -0.022839   0.000000   0.000000
     2  C   -0.015219  -0.000382  -0.000382  -0.000384   0.000000   0.000000
     3  C    0.000160  -0.000002  -0.000002  -0.000002   0.000000   0.000000
     4  H   -0.000002  -0.000001   0.000005  -0.000001   0.000000   0.000000
     5  H   -0.000002   0.000005  -0.000001  -0.000001   0.000000   0.000000
     6  H   -0.000002  -0.000001  -0.000001   0.000005   0.000000   0.000000
     7  C    4.657101   0.379934   0.379943   0.379941   0.000000   0.000000
     8  H    0.379934   0.605326  -0.020762  -0.020764   0.000000   0.000000
     9  H    0.379943  -0.020762   0.605307  -0.020764   0.000000   0.000000
    10  H    0.379941  -0.020764  -0.020764   0.605302   0.000000   0.000000
    11  N    0.000000   0.000000   0.000000   0.000000   6.631140   0.362977
    12  N    0.000000   0.000000   0.000000   0.000000   0.362977   6.052263
    13  N    0.000000   0.000000   0.000000   0.000000  -0.020269   0.543245
    14  C    0.000000   0.000000   0.000000   0.000000   0.294872  -0.038779
    15  H    0.000000   0.000000   0.000000   0.000000  -0.024799   0.001940
    16  H    0.000000   0.000000   0.000000   0.000000  -0.019508  -0.002647
    17  C    0.000000   0.000000   0.000000   0.000000  -0.019262  -0.002821
    18  C    0.000000   0.000000   0.000000   0.000000  -0.000538   0.000018
    19  C    0.000000   0.000000   0.000000   0.000000  -0.000240   0.000045
    20  C    0.000000   0.000000   0.000000   0.000000  -0.000004  -0.000001
    21  H    0.000000   0.000000   0.000000   0.000000   0.000115   0.000009
    22  C    0.000000   0.000000   0.000000   0.000000  -0.000003  -0.000003
    23  H    0.000000   0.000000   0.000000   0.000000   0.000041   0.000013
    24  C    0.000000   0.000000   0.000000   0.000000   0.000001   0.000000
    25  H    0.000000   0.000000   0.000000   0.000000   0.000000   0.000000
    26  H    0.000000   0.000000   0.000000   0.000000   0.000000   0.000000
    27  H    0.000000   0.000000   0.000000   0.000000  -0.000000  -0.000000
              13         14         15         16         17         18
     1  C    0.000000   0.000000   0.000000   0.000000   0.000000   0.000000
     2  C    0.000000   0.000000   0.000000   0.000000   0.000000   0.000000
     3  C    0.000000   0.000000   0.000000   0.000000   0.000000   0.000000
     4  H    0.000000   0.000000   0.000000   0.000000   0.000000   0.000000
     5  H    0.000000   0.000000   0.000000   0.000000   0.000000   0.000000
     6  H    0.000000   0.000000   0.000000   0.000000   0.000000   0.000000
     7  C    0.000000   0.000000   0.000000   0.000000   0.000000   0.000000
     8  H    0.000000   0.000000   0.000000   0.000000   0.000000   0.000000
     9  H    0.000000   0.000000   0.000000   0.000000   0.000000   0.000000
    10  H    0.000000   0.000000   0.000000   0.000000   0.000000   0.000000
    11  N   -0.020269   0.294872  -0.024799  -0.019508  -0.019262  -0.000538
    12  N    0.543245  -0.038779   0.001940  -0.002647  -0.002821   0.000018
    13  N    6.505756  -0.000223  -0.000020   0.000228   0.000111   0.000001
    14  C   -0.000223   4.690189   0.385127   0.378009   0.378404  -0.027386
    15  H   -0.000020   0.385127   0.595385  -0.021965  -0.021334  -0.003432
    16  H    0.000228   0.378009  -0.021965   0.620710  -0.023620   0.001193
    17  C    0.000111   0.378404  -0.021334  -0.023620   4.800334   0.503566
    18  C    0.000001  -0.027386  -0.003432   0.001193   0.503566   4.778974
    19  C    0.000030  -0.027983   0.001102  -0.003976   0.506074  -0.031629
    20  C    0.000000   0.000821   0.000023  -0.000021  -0.029056   0.509180
    21  H   -0.000000  -0.003534   0.000288   0.000036  -0.025906   0.393366
    22  C    0.000001   0.000828  -0.000020   0.000028  -0.028957  -0.011104
    23  H   -0.000028  -0.003661   0.000035   0.000446  -0.026186   0.001347
    24  C   -0.000000   0.000014   0.000001   0.000000  -0.010935  -0.030046
    25  H   -0.000000  -0.000015  -0.000001   0.000000   0.001339  -0.025415
    26  H   -0.000000  -0.000015   0.000000  -0.000001   0.001326   0.000027
    27  H    0.000000   0.000001  -0.000000  -0.000000   0.000030   0.001356
              19         20         21         22         23         24
     1  C    0.000000   0.000000   0.000000   0.000000   0.000000   0.000000
     2  C    0.000000   0.000000   0.000000   0.000000   0.000000   0.000000
     3  C    0.000000   0.000000   0.000000   0.000000   0.000000   0.000000
     4  H    0.000000   0.000000   0.000000   0.000000   0.000000   0.000000
     5  H    0.000000   0.000000   0.000000   0.000000   0.000000   0.000000
     6  H    0.000000   0.000000   0.000000   0.000000   0.000000   0.000000
     7  C    0.000000   0.000000   0.000000   0.000000   0.000000   0.000000
     8  H    0.000000   0.000000   0.000000   0.000000   0.000000   0.000000
     9  H    0.000000   0.000000   0.000000   0.000000   0.000000   0.000000
    10  H    0.000000   0.000000   0.000000   0.000000   0.000000   0.000000
    11  N   -0.000240  -0.000004   0.000115  -0.000003   0.000041   0.000001
    12  N    0.000045  -0.000001   0.000009  -0.000003   0.000013   0.000000
    13  N    0.000030   0.000000  -0.000000   0.000001  -0.000028  -0.000000
    14  C   -0.027983   0.000821  -0.003534   0.000828  -0.003661   0.000014
    15  H    0.001102   0.000023   0.000288  -0.000020   0.000035   0.000001
    16  H   -0.003976  -0.000021   0.000036   0.000028   0.000446   0.000000
    17  C    0.506074  -0.029056  -0.025906  -0.028957  -0.026186  -0.010935
    18  C   -0.031629   0.509180   0.393366  -0.011104   0.001347  -0.030046
    19  C    4.786445  -0.011167   0.001344   0.506510   0.392957  -0.030146
    20  C   -0.011167   4.770919  -0.025048  -0.030278   0.000034   0.504714
    21  H    0.001344  -0.025048   0.594721   0.000033  -0.000033   0.001356
    22  C    0.506510  -0.030278   0.000033   4.770923  -0.025235   0.507418
    23  H    0.392957   0.000034  -0.000033  -0.025235   0.602354   0.001361
    24  C   -0.030146   0.504714   0.001356   0.507418   0.001361   4.771697
    25  H    0.000027   0.393977  -0.003626   0.001357   0.000002  -0.025142
    26  H   -0.025352   0.001360   0.000002   0.393989  -0.003623  -0.025113
    27  H    0.001363  -0.025174  -0.000031  -0.025253  -0.000031   0.393926
              25         26         27
     1  C    0.000000   0.000000   0.000000
     2  C    0.000000   0.000000   0.000000
     3  C    0.000000   0.000000   0.000000
     4  H    0.000000   0.000000   0.000000
     5  H    0.000000   0.000000   0.000000
     6  H    0.000000   0.000000   0.000000
     7  C    0.000000   0.000000   0.000000
     8  H    0.000000   0.000000   0.000000
     9  H    0.000000   0.000000   0.000000
    10  H    0.000000   0.000000   0.000000
    11  N    0.000000   0.000000  -0.000000
    12  N    0.000000   0.000000  -0.000000
    13  N   -0.000000  -0.000000   0.000000
    14  C   -0.000015  -0.000015   0.000001
    15  H   -0.000001   0.000000  -0.000000
    16  H    0.000000  -0.000001  -0.000000
    17  C    0.001339   0.001326   0.000030
    18  C   -0.025415   0.000027   0.001356
    19  C    0.000027  -0.025352   0.001363
    20  C    0.393977   0.001360  -0.025174
    21  H   -0.003626   0.000002  -0.000031
    22  C    0.001357   0.393989  -0.025253
    23  H    0.000002  -0.003623  -0.000031
    24  C   -0.025142  -0.025113   0.393926
    25  H    0.594907  -0.000031  -0.003506
    26  H   -0.000031   0.594954  -0.003529
    27  H   -0.003506  -0.003529   0.594969
 Mulliken charges:
               1
     1  C   -0.056663
     2  C   -0.056669
     3  C   -0.181843
     4  H    0.079503
     5  H    0.079499
     6  H    0.079500
     7  C   -0.181826
     8  H    0.079493
     9  H    0.079500
    10  H    0.079507
    11  N   -0.204521
    12  N    0.083742
    13  N   -0.028833
    14  C   -0.026669
    15  H    0.087670
    16  H    0.071087
    17  C   -0.003108
    18  C   -0.059478
    19  C   -0.065404
    20  C   -0.060277
    21  H    0.066910
    22  C   -0.060234
    23  H    0.060206
    24  C   -0.059105
    25  H    0.066127
    26  H    0.066006
    27  H    0.065880
 Sum of Mulliken charges =  -0.00000
 Mulliken charges with hydrogens summed into heavy atoms:
               1
     1  C   -0.056663
     2  C   -0.056669
     3  C    0.056659
     7  C    0.056674
    11  N   -0.204521
    12  N    0.083742
    13  N   -0.028833
    14  C    0.132088
    17  C   -0.003108
    18  C    0.007432
    19  C   -0.005198
    20  C    0.005850
    22  C    0.005772
    24  C    0.006775
 Electronic spatial extent (au):  <R**2>=         121817.7058
 Charge=             -0.0000 electrons
 Dipole moment (field-independent basis, Debye):
    X=              1.0935    Y=             -1.5508    Z=             -0.0522  Tot=              1.8982
 Quadrupole moment (field-independent basis, Debye-Ang):
   XX=            -50.8555   YY=            -75.8213   ZZ=            -78.8158
   XY=            -14.9161   XZ=              1.0954   YZ=             -0.3158
 Traceless Quadrupole moment (field-independent basis, Debye-Ang):
   XX=             17.6420   YY=             -7.3238   ZZ=            -10.3183
   XY=            -14.9161   XZ=              1.0954   YZ=             -0.3158
 Octapole moment (field-independent basis, Debye-Ang**2):
  XXX=            537.5510  YYY=             -7.7066  ZZZ=             -4.5273  XYY=           -141.3971
  XXY=           -128.9890  XXZ=             32.6902  XZZ=              4.6661  YZZ=             -8.8459
  YYZ=              4.2697  XYZ=             -3.6704
 Hexadecapole moment (field-independent basis, Debye-Ang**3):
 XXXX=        -150392.7409 YYYY=          -1656.8016 ZZZZ=           -406.1427 XXXY=           -889.9586
 XXXZ=            593.1729 YYYX=            -75.1463 YYYZ=             -0.4242 ZZZX=            -36.5604
 ZZZY=            -12.1288 XXYY=         -23562.3431 XXZZ=         -26456.4038 YYZZ=           -366.0364
 XXYZ=            -42.8989 YYXZ=             60.9555 ZZXY=            -95.8264
 N-N= 5.929832088894D+02 E-N=-2.537969250823D+03  KE= 5.746463721327D+02
 Leave Link  601 at Fri Aug 30 10:33:38 2024, MaxMem=  2147483648 cpu:               0.4 elap:               0.0
 (Enter /share/apps/gaussian/g16/l9999.exe)

 Test job not archived.
 1\1\GINC-NODE106\SP\RMP2-FC\STO-3G\C11H13N3\LIAOYT\30-Aug-2024\0\\#p M
 P2 IOp(3/125=0333312000)\\title\\0,1\C,0,0.604438,0.000003,-40.000063\
 C,0,-0.60445,0.000119,-39.999677\C,0,-2.065989,-0.000029,-40.000091\H,
 0,-2.465688,0.819494,-40.610431\H,0,-2.465447,-0.9384,-40.404886\H,0,-
 2.466138,0.118579,-38.985334\C,0,2.065992,-0.000011,-40.000041\H,0,2.4
 65725,-0.907841,-40.469156\H,0,2.465814,0.860125,-40.551633\H,0,2.4657
 92,0.047552,-38.97933\N,0,2.234002,-0.78778,-0.106845\N,0,2.387654,0.3
 8371,-0.468037\N,0,2.611074,1.426139,-0.878938\C,0,1.177048,-0.989589,
 0.931108\H,0,1.165338,-2.069343,1.092051\H,0,1.493087,-0.513219,1.8686
 91\C,0,-0.180468,-0.482897,0.50364\C,0,-0.985628,-1.247907,-0.350309\C
 ,0,-0.623713,0.782693,0.9042\C,0,-2.215181,-0.759438,-0.788717\H,0,-0.
 641184,-2.227372,-0.673653\C,0,-1.8546,1.274933,0.465594\H,0,-0.004236
 ,1.384459,1.565543\C,0,-2.652188,0.504141,-0.380941\H,0,-2.833711,-1.3
 63254,-1.447241\H,0,-2.188841,2.257968,0.785807\H,0,-3.611182,0.884653
 ,-0.721904\\Version=ES64L-G16RevA.03\State=1-A\HF=-580.0270177\MP2=-58
 0.9206611\RMSD=6.254e-09\PG=C01 [X(C11H13N3)]\\@


 ADAM SMITH SAID, "THE REAL PRICE OF ANYTHING IS THE TOIL AND TROUBLE
 OF ACQUIRING IT."  BUT IN ALL UNDERTAKINGS WITH NATURE WE SHOULD FIRST
 READ CAREFULLY THE SMALL PRINT IN THE CONTRACT. THIS MIGHT DISCLOSE
 THAT THE REAL PRICE IS TO BE PAID BY THOSE WHO INHERIT THE DEPLETION
 AND DESPOILATION THAT FOLLOWS.
                               -- E. R. HARRISON IN "COSMOLOGY" (1980)
 Job cpu time:       0 days  0 hours  0 minutes 32.7 seconds.
 Elapsed time:       0 days  0 hours  0 minutes  2.4 seconds.
 File lengths (MBytes):  RWF=     10 Int=      0 D2E=      0 Chk=      5 Scr=      1
 Normal termination of Gaussian 16 at Fri Aug 30 10:33:38 2024.
Fri Aug 30 10:33:38 CST 2024
