This job is running on host node107
Current directory: /share/home/Liaoyt/system-test/bnts-ome/Ene-Me/nogd3/Linear
Fri Aug 30 10:37:50 CST 2024
/tmp/95794.mgr
 Entering Gaussian System, Link 0=g16
 Initial command:
 /share/apps/gaussian/g16/l1.exe "/tmp/95794.mgr/Gau-39700.inp" -scrdir="/tmp/95794.mgr/"
 Entering Link 1 = /share/apps/gaussian/g16/l1.exe PID=     39701.
  
 Copyright (c) 1988,1990,1992,1993,1995,1998,2003,2009,2016,
            Gaussian, Inc.  All Rights Reserved.
  
 This is part of the Gaussian(R) 16 program.  It is based on
 the Gaussian(R) 09 system (copyright 2009, Gaussian, Inc.),
 the Gaussian(R) 03 system (copyright 2003, Gaussian, Inc.),
 the Gaussian(R) 98 system (copyright 1998, Gaussian, Inc.),
 the Gaussian(R) 94 system (copyright 1995, Gaussian, Inc.),
 the Gaussian 92(TM) system (copyright 1992, Gaussian, Inc.),
 the Gaussian 90(TM) system (copyright 1990, Gaussian, Inc.),
 the Gaussian 88(TM) system (copyright 1988, Gaussian, Inc.),
 the Gaussian 86(TM) system (copyright 1986, Carnegie Mellon
 University), and the Gaussian 82(TM) system (copyright 1983,
 Carnegie Mellon University). Gaussian is a federally registered
 trademark of Gaussian, Inc.
  
 This software contains proprietary and confidential information,
 including trade secrets, belonging to Gaussian, Inc.
  
 This software is provided under written license and may be
 used, copied, transmitted, or stored only in accord with that
 written license.
  
 The following legend is applicable only to US Government
 contracts under FAR:
  
                    RESTRICTED RIGHTS LEGEND
  
 Use, reproduction and disclosure by the US Government is
 subject to restrictions as set forth in subparagraphs (a)
 and (c) of the Commercial Computer Software - Restricted
 Rights clause in FAR 52.227-19.
  
 Gaussian, Inc.
 340 Quinnipiac St., Bldg. 40, Wallingford CT 06492
  
  
 ---------------------------------------------------------------
 Warning -- This program may not be used in any manner that
 competes with the business of Gaussian, Inc. or will provide
 assistance to any competitor of Gaussian, Inc.  The licensee
 of this program is prohibited from giving any competitor of
 Gaussian, Inc. access to this program.  By using this program,
 the user acknowledges that Gaussian, Inc. is engaged in the
 business of creating and licensing software in the field of
 computational chemistry and represents and warrants to the
 licensee that it is not a competitor of Gaussian, Inc. and that
 it will not use this program in any manner prohibited above.
 ---------------------------------------------------------------
  

 Cite this work as:
 Gaussian 16, Revision A.03,
 M. J. Frisch, G. W. Trucks, H. B. Schlegel, G. E. Scuseria, 
 M. A. Robb, J. R. Cheeseman, G. Scalmani, V. Barone, 
 G. A. Petersson, H. Nakatsuji, X. Li, M. Caricato, A. V. Marenich, 
 J. Bloino, B. G. Janesko, R. Gomperts, B. Mennucci, H. P. Hratchian, 
 J. V. Ortiz, A. F. Izmaylov, J. L. Sonnenberg, D. Williams-Young, 
 F. Ding, F. Lipparini, F. Egidi, J. Goings, B. Peng, A. Petrone, 
 T. Henderson, D. Ranasinghe, V. G. Zakrzewski, J. Gao, N. Rega, 
 G. Zheng, W. Liang, M. Hada, M. Ehara, K. Toyota, R. Fukuda, 
 J. Hasegawa, M. Ishida, T. Nakajima, Y. Honda, O. Kitao, H. Nakai, 
 T. Vreven, K. Throssell, J. A. Montgomery, Jr., J. E. Peralta, 
 F. Ogliaro, M. J. Bearpark, J. J. Heyd, E. N. Brothers, K. N. Kudin, 
 V. N. Staroverov, T. A. Keith, R. Kobayashi, J. Normand, 
 K. Raghavachari, A. P. Rendell, J. C. Burant, S. S. Iyengar, 
 J. Tomasi, M. Cossi, J. M. Millam, M. Klene, C. Adamo, R. Cammi, 
 J. W. Ochterski, R. L. Martin, K. Morokuma, O. Farkas, 
 J. B. Foresman, and D. J. Fox, Gaussian, Inc., Wallingford CT, 2016.
 
 ******************************************
 Gaussian 16:  ES64L-G16RevA.03 25-Dec-2016
                30-Aug-2024 
 ******************************************
 %chk=N3-opt-sp.chk
 %nprocshared=24
 Will use up to   24 processors via shared memory.
 %mem=24GB
 ----------------------------
 #p MP2 IOp(3/125=0333312000)
 ----------------------------
 1/38=1,172=1/1;
 2/12=2,17=6,18=5,40=1/2;
 3/11=9,25=1,30=1,125=333312000/1,2,3;
 4//1;
 5/5=2,38=5/2;
 8/10=1/1;
 9/16=-3/6;
 6/7=2,8=2,9=2,10=2/1;
 99/5=1,9=1/99;
 Leave Link    1 at Fri Aug 30 10:37:50 2024, MaxMem=  3221225472 cpu:               2.1 elap:               0.1
 (Enter /share/apps/gaussian/g16/l101.exe)
 -----
 title
 -----
 Symbolic Z-matrix:
 Charge =  0 Multiplicity = 1
 N                     2.234    -0.78778  -0.10685 
 N                     2.38765   0.38371  -0.46804 
 N                     2.61107   1.42614  -0.87894 
 C                     1.17705  -0.98959   0.93111 
 H                     1.16534  -2.06934   1.09205 
 H                     1.49309  -0.51322   1.86869 
 C                    -0.18047  -0.4829    0.50364 
 C                    -0.98563  -1.24791  -0.35031 
 C                    -0.62371   0.78269   0.9042 
 C                    -2.21518  -0.75944  -0.78872 
 H                    -0.64118  -2.22737  -0.67365 
 C                    -1.8546    1.27493   0.46559 
 H                    -0.00424   1.38446   1.56554 
 C                    -2.65219   0.50414  -0.38094 
 H                    -2.83371  -1.36325  -1.44724 
 H                    -2.18884   2.25797   0.78581 
 H                    -3.61118   0.88465  -0.7219 
 
 ITRead=  0  0  0  0  0  0  0  0  0  0  0  0  0  0  0  0  0
 MicOpt= -1 -1 -1 -1 -1 -1 -1 -1 -1 -1 -1 -1 -1 -1 -1 -1 -1
 NAtoms=     17 NQM=       17 NQMF=       0 NMMI=      0 NMMIF=      0
                NMic=       0 NMicF=      0.
                    Isotopes and Nuclear Properties:
 (Nuclear quadrupole moments (NQMom) in fm**2, nuclear magnetic moments (NMagM)
  in nuclear magnetons)

  Atom         1           2           3           4           5           6           7           8           9          10
 IAtWgt=          14          14          14          12           1           1          12          12          12          12
 AtmWgt=  14.0030740  14.0030740  14.0030740  12.0000000   1.0078250   1.0078250  12.0000000  12.0000000  12.0000000  12.0000000
 NucSpn=           2           2           2           0           1           1           0           0           0           0
 AtZEff=  -0.0000000  -0.0000000  -0.0000000  -0.0000000  -0.0000000  -0.0000000  -0.0000000  -0.0000000  -0.0000000  -0.0000000
 NQMom=    2.0440000   2.0440000   2.0440000   0.0000000   0.0000000   0.0000000   0.0000000   0.0000000   0.0000000   0.0000000
 NMagM=    0.4037610   0.4037610   0.4037610   0.0000000   2.7928460   2.7928460   0.0000000   0.0000000   0.0000000   0.0000000
 AtZNuc=   7.0000000   7.0000000   7.0000000   6.0000000   1.0000000   1.0000000   6.0000000   6.0000000   6.0000000   6.0000000

  Atom        11          12          13          14          15          16          17
 IAtWgt=           1          12           1          12           1           1           1
 AtmWgt=   1.0078250  12.0000000   1.0078250  12.0000000   1.0078250   1.0078250   1.0078250
 NucSpn=           1           0           1           0           1           1           1
 AtZEff=  -0.0000000  -0.0000000  -0.0000000  -0.0000000  -0.0000000  -0.0000000  -0.0000000
 NQMom=    0.0000000   0.0000000   0.0000000   0.0000000   0.0000000   0.0000000   0.0000000
 NMagM=    2.7928460   0.0000000   2.7928460   0.0000000   2.7928460   2.7928460   2.7928460
 AtZNuc=   1.0000000   6.0000000   1.0000000   6.0000000   1.0000000   1.0000000   1.0000000
 Leave Link  101 at Fri Aug 30 10:37:50 2024, MaxMem=  3221225472 cpu:               3.5 elap:               0.2
 (Enter /share/apps/gaussian/g16/l202.exe)
                          Input orientation:                          
 ---------------------------------------------------------------------
 Center     Atomic      Atomic             Coordinates (Angstroms)
 Number     Number       Type             X           Y           Z
 ---------------------------------------------------------------------
      1          7           0        2.234002   -0.787780   -0.106845
      2          7           0        2.387654    0.383710   -0.468037
      3          7           0        2.611074    1.426139   -0.878938
      4          6           0        1.177048   -0.989589    0.931108
      5          1           0        1.165338   -2.069343    1.092051
      6          1           0        1.493087   -0.513219    1.868691
      7          6           0       -0.180468   -0.482897    0.503640
      8          6           0       -0.985628   -1.247907   -0.350309
      9          6           0       -0.623713    0.782693    0.904200
     10          6           0       -2.215181   -0.759438   -0.788717
     11          1           0       -0.641184   -2.227372   -0.673653
     12          6           0       -1.854600    1.274933    0.465594
     13          1           0       -0.004236    1.384459    1.565543
     14          6           0       -2.652188    0.504141   -0.380941
     15          1           0       -2.833711   -1.363254   -1.447241
     16          1           0       -2.188841    2.257968    0.785807
     17          1           0       -3.611182    0.884653   -0.721904
 ---------------------------------------------------------------------
                    Distance matrix (angstroms):
                    1          2          3          4          5
     1  N    0.000000
     2  N    1.235499   0.000000
     3  N    2.374815   1.142547   0.000000
     4  C    1.495067   2.304154   3.341921   0.000000
     5  H    2.054701   3.153633   4.265366   1.091746   0.000000
     6  H    2.127694   2.658012   3.544075   1.098122   1.769777
     7  C    2.509046   2.879308   3.653580   1.510733   2.161997
     8  C    3.261443   3.749009   4.512897   2.527039   2.716949
     9  C    3.413961   3.333250   3.749327   2.526746   3.371958
    10  C    4.501220   4.753495   5.298832   3.810247   4.084244
    11  H    3.265025   4.004234   4.895658   2.722744   2.531048
    12  C    4.615099   4.434260   4.666141   3.812565   4.549358
    13  H    3.539098   3.295161   3.580094   2.726544   3.677070
    14  C    5.061526   5.042033   5.366564   4.314597   4.833842
    15  H    5.273476   5.592260   6.144051   4.677858   4.789463
    16  H    5.443799   5.101889   5.148058   4.679417   5.483605
    17  H    6.110770   6.025066   6.247747   5.401146   5.901836
                    6          7          8          9         10
     6  H    0.000000
     7  C    2.159877   0.000000
     8  C    3.407016   1.400982   0.000000
     9  C    2.662794   1.399512   2.414148   0.000000
    10  C    4.568774   2.426256   1.393773   2.788711   0.000000
    11  H    3.735900   2.154407   1.087449   3.398590   2.155351
    12  C    4.046378   2.427783   2.790257   1.396337   2.417019
    13  H    2.436197   2.155392   3.400437   1.087772   3.876482
    14  C    4.824849   2.804662   2.418271   2.417414   1.397816
    15  H    5.517168   3.408909   2.152202   3.875365   1.086659
    16  H    4.733784   3.409622   3.876808   2.154084   3.403610
    17  H    5.892265   3.891266   3.402856   3.402878   2.157850
                   11         12         13         14         15
    11  H    0.000000
    12  C    3.877680   0.000000
    13  H    4.297095   2.155396   0.000000
    14  C    3.404553   1.395309   3.402265   0.000000
    15  H    2.480386   3.402591   4.963136   2.158034   0.000000
    16  H    4.964226   1.086559   2.478610   2.156826   4.302977
    17  H    4.302083   2.155934   4.300265   1.086607   2.486697
                   16         17
    16  H    0.000000
    17  H    2.486411   0.000000
 Stoichiometry    C7H7N3
 Framework group  C1[X(C7H7N3)]
 Deg. of freedom    45
 Full point group                 C1      NOp   1
 Largest Abelian subgroup         C1      NOp   1
 Largest concise Abelian subgroup C1      NOp   1
                         Standard orientation:                         
 ---------------------------------------------------------------------
 Center     Atomic      Atomic             Coordinates (Angstroms)
 Number     Number       Type             X           Y           Z
 ---------------------------------------------------------------------
      1          7           0        2.234002   -0.787780   -0.106845
      2          7           0        2.387654    0.383710   -0.468037
      3          7           0        2.611074    1.426139   -0.878938
      4          6           0        1.177048   -0.989589    0.931108
      5          1           0        1.165338   -2.069343    1.092051
      6          1           0        1.493087   -0.513219    1.868691
      7          6           0       -0.180468   -0.482897    0.503640
      8          6           0       -0.985628   -1.247907   -0.350309
      9          6           0       -0.623713    0.782693    0.904200
     10          6           0       -2.215181   -0.759438   -0.788717
     11          1           0       -0.641184   -2.227372   -0.673653
     12          6           0       -1.854600    1.274933    0.465594
     13          1           0       -0.004236    1.384459    1.565543
     14          6           0       -2.652188    0.504141   -0.380941
     15          1           0       -2.833711   -1.363254   -1.447241
     16          1           0       -2.188841    2.257968    0.785807
     17          1           0       -3.611182    0.884653   -0.721904
 ---------------------------------------------------------------------
 Rotational constants (GHZ):           2.6635741           0.9118466           0.8127405
 Leave Link  202 at Fri Aug 30 10:37:50 2024, MaxMem=  3221225472 cpu:               0.3 elap:               0.0
 (Enter /share/apps/gaussian/g16/l301.exe)
 Standard basis: STO-3G (5D, 7F)
 Ernie: Thresh=  0.10000D-02 Tol=  0.10000D-05 Strict=F.
 There are    57 symmetry adapted cartesian basis functions of A   symmetry.
 There are    57 symmetry adapted basis functions of A   symmetry.
    57 basis functions,   171 primitive gaussians,    57 cartesian basis functions
    35 alpha electrons       35 beta electrons
       nuclear repulsion energy       465.5109461603 Hartrees.
 IExCor=    0 DFT=F Ex=HF Corr=None ExCW=0 ScaHFX=  1.000000
 ScaDFX=  1.000000  1.000000  1.000000  1.000000 ScalE2=  0.333300  1.200000
 IRadAn=      5 IRanWt=     -1 IRanGd=            0 ICorTp=0 IEmpDi=  4
 NAtoms=   17 NActive=   17 NUniq=   17 SFac= 1.00D+00 NAtFMM=   60 NAOKFM=F Big=F
 Integral buffers will be    131072 words long.
 Raffenetti 1 integral format.
 Two-electron integral symmetry is turned on.
 Leave Link  301 at Fri Aug 30 10:37:51 2024, MaxMem=  3221225472 cpu:               1.8 elap:               0.1
 (Enter /share/apps/gaussian/g16/l302.exe)
 NPDir=0 NMtPBC=     1 NCelOv=     1 NCel=       1 NClECP=     1 NCelD=      1
         NCelK=      1 NCelE2=     1 NClLst=     1 CellRange=     0.0.
 One-electron integrals computed using PRISM.
 One-electron integral symmetry used in STVInt
 NBasis=    57 RedAO= T EigKep=  1.73D-01  NBF=    57
 NBsUse=    57 1.00D-06 EigRej= -1.00D+00 NBFU=    57
 Leave Link  302 at Fri Aug 30 10:37:51 2024, MaxMem=  3221225472 cpu:               3.1 elap:               0.2
 (Enter /share/apps/gaussian/g16/l303.exe)
 DipDrv:  MaxL=1.
 Leave Link  303 at Fri Aug 30 10:37:51 2024, MaxMem=  3221225472 cpu:               0.7 elap:               0.1
 (Enter /share/apps/gaussian/g16/l401.exe)
 ExpMin= 1.69D-01 ExpMax= 9.91D+01 ExpMxC= 9.91D+01 IAcc=3 IRadAn=         5 AccDes= 0.00D+00
 Harris functional with IExCor=  205 and IRadAn=       5 diagonalized for initial guess.
 HarFok:  IExCor=  205 AccDes= 0.00D+00 IRadAn=         5 IDoV= 1 UseB2=F ITyADJ=14
 ICtDFT=  3500011 ScaDFX=  1.000000  1.000000  1.000000  1.000000
 FoFCou: FMM=F IPFlag=           0 FMFlag=      100000 FMFlg1=           0
         NFxFlg=           0 DoJE=T BraDBF=F KetDBF=T FulRan=T
         wScrn=  0.000000 ICntrl=       500 IOpCl=  0 I1Cent=   200000004 NGrid=           0
         NMat0=    1 NMatS0=      1 NMatT0=    0 NMatD0=    1 NMtDS0=    0 NMtDT0=    0
 Petite list used in FoFCou.
 Harris En= -427.364694645808    
 JPrj=0 DoOrth=F DoCkMO=F.
 Leave Link  401 at Fri Aug 30 10:37:51 2024, MaxMem=  3221225472 cpu:               5.2 elap:               0.3
 (Enter /share/apps/gaussian/g16/l502.exe)
 Integral symmetry usage will be decided dynamically.
 Closed shell SCF:
 Using DIIS extrapolation, IDIIS=  1040.
 NGot=  3221225472 LenX=  3221216481 LenY=  3221212791
 Requested convergence on RMS density matrix=1.00D-08 within 128 cycles.
 Requested convergence on MAX density matrix=1.00D-06.
 Requested convergence on             energy=1.00D-06.
 No special actions if energy rises.
 Fock matrices will be formed incrementally for  20 cycles.
 Integral accuracy reduced to 1.0D-05 until final iterations.

 Cycle   1  Pass 0  IDiag  1:
 FoFJK:  IHMeth= 1 ICntrl=       0 DoSepK=F KAlg= 0 I1Cent=           0 FoldK=F
 IRaf= 910000000 NMat=       1 IRICut=       1 DoRegI=T DoRafI=F ISym2E= 0 IDoP0=0 IntGTp=1.
 FoFCou: FMM=F IPFlag=           0 FMFlag=      100000 FMFlg1=           0
         NFxFlg=           0 DoJE=F BraDBF=F KetDBF=F FulRan=T
         wScrn=  0.000000 ICntrl=         0 IOpCl=  0 I1Cent=           0 NGrid=           0
         NMat0=    1 NMatS0=      1 NMatT0=    0 NMatD0=    1 NMtDS0=    0 NMtDT0=    0
 Symmetry not used in FoFCou.
 E= -426.845134201926    
 DIIS: error= 4.71D-02 at cycle   1 NSaved=   1.
 NSaved= 1 IEnMin= 1 EnMin= -426.845134201926     IErMin= 1 ErrMin= 4.71D-02
 ErrMax= 4.71D-02  0.00D+00 EMaxC= 1.00D-01 BMatC= 1.79D-01 BMatP= 1.79D-01
 IDIUse=3 WtCom= 5.29D-01 WtEn= 4.71D-01
 Coeff-Com:  0.100D+01
 Coeff-En:   0.100D+01
 Coeff:      0.100D+01
 Gap=     0.586 Goal=   None    Shift=    0.000
 GapD=    0.586 DampG=2.000 DampE=0.500 DampFc=1.0000 IDamp=-1.
 RMSDP=9.50D-03 MaxDP=1.43D-01              OVMax= 0.00D+00

 Cycle   2  Pass 0  IDiag  1:
 RMSU=  9.50D-03    CP:  1.00D+00
 E= -426.971145136758     Delta-E=       -0.126010934832 Rises=F Damp=F
 DIIS: error= 3.02D-02 at cycle   2 NSaved=   2.
 NSaved= 2 IEnMin= 2 EnMin= -426.971145136758     IErMin= 2 ErrMin= 3.02D-02
 ErrMax= 3.02D-02  0.00D+00 EMaxC= 1.00D-01 BMatC= 1.82D-02 BMatP= 1.79D-01
 IDIUse=3 WtCom= 6.98D-01 WtEn= 3.02D-01
 Coeff-Com:  0.166D+00 0.834D+00
 Coeff-En:   0.000D+00 0.100D+01
 Coeff:      0.116D+00 0.884D+00
 Gap=     0.503 Goal=   None    Shift=    0.000
 RMSDP=3.66D-03 MaxDP=7.04D-02 DE=-1.26D-01 OVMax= 0.00D+00

 Cycle   3  Pass 0  IDiag  1:
 RMSU=  2.94D-03    CP:  1.00D+00  7.72D-01
 E= -426.983536477057     Delta-E=       -0.012391340299 Rises=F Damp=F
 DIIS: error= 1.50D-02 at cycle   3 NSaved=   3.
 NSaved= 3 IEnMin= 3 EnMin= -426.983536477057     IErMin= 3 ErrMin= 1.50D-02
 ErrMax= 1.50D-02  0.00D+00 EMaxC= 1.00D-01 BMatC= 6.47D-03 BMatP= 1.82D-02
 IDIUse=3 WtCom= 8.50D-01 WtEn= 1.50D-01
 Coeff-Com: -0.502D-02 0.362D+00 0.643D+00
 Coeff-En:   0.000D+00 0.167D+00 0.833D+00
 Coeff:     -0.427D-02 0.333D+00 0.671D+00
 Gap=     0.508 Goal=   None    Shift=    0.000
 RMSDP=1.87D-03 MaxDP=3.82D-02 DE=-1.24D-02 OVMax= 0.00D+00

 Cycle   4  Pass 0  IDiag  1:
 RMSU=  1.07D-03    CP:  1.00D+00  8.57D-01  5.60D-01
 E= -426.990023465709     Delta-E=       -0.006486988651 Rises=F Damp=F
 DIIS: error= 4.73D-03 at cycle   4 NSaved=   4.
 NSaved= 4 IEnMin= 4 EnMin= -426.990023465709     IErMin= 4 ErrMin= 4.73D-03
 ErrMax= 4.73D-03  0.00D+00 EMaxC= 1.00D-01 BMatC= 5.40D-04 BMatP= 6.47D-03
 IDIUse=3 WtCom= 9.53D-01 WtEn= 4.73D-02
 Coeff-Com: -0.115D-01 0.857D-01 0.289D+00 0.637D+00
 Coeff-En:   0.000D+00 0.000D+00 0.000D+00 0.100D+01
 Coeff:     -0.109D-01 0.816D-01 0.275D+00 0.654D+00
 Gap=     0.503 Goal=   None    Shift=    0.000
 RMSDP=5.83D-04 MaxDP=9.80D-03 DE=-6.49D-03 OVMax= 0.00D+00

 Cycle   5  Pass 0  IDiag  1:
 RMSU=  4.03D-04    CP:  1.00D+00  8.60D-01  6.92D-01  8.48D-01
 E= -426.990819709100     Delta-E=       -0.000796243391 Rises=F Damp=F
 DIIS: error= 1.71D-03 at cycle   5 NSaved=   5.
 NSaved= 5 IEnMin= 5 EnMin= -426.990819709100     IErMin= 5 ErrMin= 1.71D-03
 ErrMax= 1.71D-03  0.00D+00 EMaxC= 1.00D-01 BMatC= 5.05D-05 BMatP= 5.40D-04
 IDIUse=3 WtCom= 9.83D-01 WtEn= 1.71D-02
 Coeff-Com:  0.253D-02-0.675D-01-0.148D+00-0.754D-01 0.129D+01
 Coeff-En:   0.000D+00 0.000D+00 0.000D+00 0.000D+00 0.100D+01
 Coeff:      0.249D-02-0.663D-01-0.146D+00-0.741D-01 0.128D+01
 Gap=     0.506 Goal=   None    Shift=    0.000
 RMSDP=4.29D-04 MaxDP=8.54D-03 DE=-7.96D-04 OVMax= 0.00D+00

 Cycle   6  Pass 0  IDiag  1:
 RMSU=  1.70D-04    CP:  1.00D+00  8.67D-01  7.24D-01  1.11D+00  1.61D+00
 E= -426.991113243329     Delta-E=       -0.000293534229 Rises=F Damp=F
 DIIS: error= 7.81D-04 at cycle   6 NSaved=   6.
 NSaved= 6 IEnMin= 6 EnMin= -426.991113243329     IErMin= 6 ErrMin= 7.81D-04
 ErrMax= 7.81D-04  0.00D+00 EMaxC= 1.00D-01 BMatC= 1.54D-05 BMatP= 5.05D-05
 IDIUse=3 WtCom= 9.92D-01 WtEn= 7.81D-03
 Coeff-Com:  0.136D-02 0.603D-02 0.582D-02-0.710D-01-0.661D+00 0.172D+01
 Coeff-En:   0.000D+00 0.000D+00 0.000D+00 0.000D+00 0.000D+00 0.100D+01
 Coeff:      0.135D-02 0.598D-02 0.578D-02-0.704D-01-0.656D+00 0.171D+01
 Gap=     0.507 Goal=   None    Shift=    0.000
 RMSDP=4.05D-04 MaxDP=8.64D-03 DE=-2.94D-04 OVMax= 0.00D+00

 Cycle   7  Pass 0  IDiag  1:
 RMSU=  7.21D-05    CP:  1.00D+00  8.71D-01  7.57D-01  1.29D+00  2.28D+00
                    CP:  2.19D+00
 E= -426.991258394905     Delta-E=       -0.000145151576 Rises=F Damp=F
 DIIS: error= 4.01D-04 at cycle   7 NSaved=   7.
 NSaved= 7 IEnMin= 7 EnMin= -426.991258394905     IErMin= 7 ErrMin= 4.01D-04
 ErrMax= 4.01D-04  0.00D+00 EMaxC= 1.00D-01 BMatC= 4.44D-06 BMatP= 1.54D-05
 IDIUse=3 WtCom= 9.96D-01 WtEn= 4.01D-03
 Coeff-Com: -0.101D-02 0.122D-01 0.456D-01 0.114D+00-0.214D+00-0.588D+00
 Coeff-Com:  0.163D+01
 Coeff-En:   0.000D+00 0.000D+00 0.000D+00 0.000D+00 0.000D+00 0.000D+00
 Coeff-En:   0.100D+01
 Coeff:     -0.101D-02 0.121D-01 0.454D-01 0.113D+00-0.213D+00-0.586D+00
 Coeff:      0.163D+01
 Gap=     0.508 Goal=   None    Shift=    0.000
 RMSDP=2.42D-04 MaxDP=4.99D-03 DE=-1.45D-04 OVMax= 0.00D+00

 Cycle   8  Pass 0  IDiag  1:
 RMSU=  4.69D-05    CP:  1.00D+00  8.71D-01  7.72D-01  1.37D+00  2.61D+00
                    CP:  3.00D+00  1.88D+00
 E= -426.991293827684     Delta-E=       -0.000035432780 Rises=F Damp=F
 DIIS: error= 1.32D-04 at cycle   8 NSaved=   8.
 NSaved= 8 IEnMin= 8 EnMin= -426.991293827684     IErMin= 8 ErrMin= 1.32D-04
 ErrMax= 1.32D-04  0.00D+00 EMaxC= 1.00D-01 BMatC= 6.84D-07 BMatP= 4.44D-06
 IDIUse=3 WtCom= 9.99D-01 WtEn= 1.32D-03
 Coeff-Com: -0.349D-03-0.155D-02 0.354D-02 0.469D-01 0.106D+00-0.426D+00
 Coeff-Com:  0.135D+00 0.114D+01
 Coeff-En:   0.000D+00 0.000D+00 0.000D+00 0.000D+00 0.000D+00 0.000D+00
 Coeff-En:   0.000D+00 0.100D+01
 Coeff:     -0.349D-03-0.155D-02 0.353D-02 0.468D-01 0.106D+00-0.425D+00
 Coeff:      0.135D+00 0.114D+01
 Gap=     0.508 Goal=   None    Shift=    0.000
 RMSDP=8.15D-05 MaxDP=1.54D-03 DE=-3.54D-05 OVMax= 0.00D+00

 Cycle   9  Pass 0  IDiag  1:
 RMSU=  4.40D-05    CP:  1.00D+00  8.71D-01  7.76D-01  1.40D+00  2.69D+00
                    CP:  3.00D+00  2.44D+00  1.70D+00
 E= -426.991297534394     Delta-E=       -0.000003706709 Rises=F Damp=F
 DIIS: error= 3.55D-05 at cycle   9 NSaved=   9.
 NSaved= 9 IEnMin= 9 EnMin= -426.991297534394     IErMin= 9 ErrMin= 3.55D-05
 ErrMax= 3.55D-05  0.00D+00 EMaxC= 1.00D-01 BMatC= 6.27D-08 BMatP= 6.84D-07
 IDIUse=1 WtCom= 1.00D+00 WtEn= 0.00D+00
 Coeff-Com:  0.158D-03-0.187D-02-0.682D-02-0.129D-01 0.157D-01 0.108D+00
 Coeff-Com: -0.228D+00-0.569D-01 0.118D+01
 Coeff:      0.158D-03-0.187D-02-0.682D-02-0.129D-01 0.157D-01 0.108D+00
 Coeff:     -0.228D+00-0.569D-01 0.118D+01
 Gap=     0.508 Goal=   None    Shift=    0.000
 RMSDP=2.02D-05 MaxDP=3.16D-04 DE=-3.71D-06 OVMax= 0.00D+00

 Cycle  10  Pass 0  IDiag  1:
 RMSU=  4.86D-06    CP:  1.00D+00  8.71D-01  7.77D-01  1.40D+00  2.70D+00
                    CP:  3.00D+00  2.58D+00  1.98D+00  1.15D+00
 E= -426.991297781431     Delta-E=       -0.000000247037 Rises=F Damp=F
 DIIS: error= 1.19D-05 at cycle  10 NSaved=  10.
 NSaved=10 IEnMin=10 EnMin= -426.991297781431     IErMin=10 ErrMin= 1.19D-05
 ErrMax= 1.19D-05  0.00D+00 EMaxC= 1.00D-01 BMatC= 5.95D-09 BMatP= 6.27D-08
 IDIUse=1 WtCom= 1.00D+00 WtEn= 0.00D+00
 Coeff-Com:  0.367D-04 0.150D-03-0.646D-03-0.402D-02-0.927D-02 0.393D-01
 Coeff-Com: -0.175D-01-0.110D+00-0.191D-01 0.112D+01
 Coeff:      0.367D-04 0.150D-03-0.646D-03-0.402D-02-0.927D-02 0.393D-01
 Coeff:     -0.175D-01-0.110D+00-0.191D-01 0.112D+01
 Gap=     0.508 Goal=   None    Shift=    0.000
 RMSDP=6.09D-06 MaxDP=9.00D-05 DE=-2.47D-07 OVMax= 0.00D+00

 Initial convergence to 1.0D-05 achieved.  Increase integral accuracy.
 Cycle  11  Pass 1  IDiag  1:
 E= -426.991298838628     Delta-E=       -0.000001057197 Rises=F Damp=F
 DIIS: error= 2.94D-06 at cycle   1 NSaved=   1.
 NSaved= 1 IEnMin= 1 EnMin= -426.991298838628     IErMin= 1 ErrMin= 2.94D-06
 ErrMax= 2.94D-06  0.00D+00 EMaxC= 1.00D-01 BMatC= 6.78D-10 BMatP= 6.78D-10
 IDIUse=1 WtCom= 1.00D+00 WtEn= 0.00D+00
 Coeff-Com:  0.100D+01
 Coeff:      0.100D+01
 Gap=     0.508 Goal=   None    Shift=    0.000
 RMSDP=6.09D-06 MaxDP=9.00D-05 DE=-1.06D-06 OVMax= 0.00D+00

 Cycle  12  Pass 1  IDiag  1:
 RMSU=  9.50D-07    CP:  1.00D+00
 E= -426.991298840547     Delta-E=       -0.000000001918 Rises=F Damp=F
 DIIS: error= 1.46D-06 at cycle   2 NSaved=   2.
 NSaved= 2 IEnMin= 2 EnMin= -426.991298840547     IErMin= 2 ErrMin= 1.46D-06
 ErrMax= 1.46D-06  0.00D+00 EMaxC= 1.00D-01 BMatC= 1.70D-10 BMatP= 6.78D-10
 IDIUse=1 WtCom= 1.00D+00 WtEn= 0.00D+00
 Coeff-Com: -0.199D+00 0.120D+01
 Coeff:     -0.199D+00 0.120D+01
 Gap=     0.508 Goal=   None    Shift=    0.000
 RMSDP=6.46D-07 MaxDP=1.08D-05 DE=-1.92D-09 OVMax= 0.00D+00

 Cycle  13  Pass 1  IDiag  1:
 RMSU=  3.72D-07    CP:  1.00D+00  1.56D+00
 E= -426.991298841262     Delta-E=       -0.000000000716 Rises=F Damp=F
 DIIS: error= 1.33D-06 at cycle   3 NSaved=   3.
 NSaved= 3 IEnMin= 3 EnMin= -426.991298841262     IErMin= 3 ErrMin= 1.33D-06
 ErrMax= 1.33D-06  0.00D+00 EMaxC= 1.00D-01 BMatC= 6.97D-11 BMatP= 1.70D-10
 IDIUse=1 WtCom= 1.00D+00 WtEn= 0.00D+00
 Coeff-Com: -0.258D+00 0.230D+00 0.103D+01
 Coeff:     -0.258D+00 0.230D+00 0.103D+01
 Gap=     0.508 Goal=   None    Shift=    0.000
 RMSDP=4.80D-07 MaxDP=9.75D-06 DE=-7.16D-10 OVMax= 0.00D+00

 Cycle  14  Pass 1  IDiag  1:
 RMSU=  2.07D-07    CP:  1.00D+00  1.99D+00  1.32D+00
 E= -426.991298841568     Delta-E=       -0.000000000306 Rises=F Damp=F
 DIIS: error= 8.71D-07 at cycle   4 NSaved=   4.
 NSaved= 4 IEnMin= 4 EnMin= -426.991298841568     IErMin= 4 ErrMin= 8.71D-07
 ErrMax= 8.71D-07  0.00D+00 EMaxC= 1.00D-01 BMatC= 2.23D-11 BMatP= 6.97D-11
 IDIUse=1 WtCom= 1.00D+00 WtEn= 0.00D+00
 Coeff-Com:  0.430D-02-0.283D+00 0.282D+00 0.996D+00
 Coeff:      0.430D-02-0.283D+00 0.282D+00 0.996D+00
 Gap=     0.508 Goal=   None    Shift=    0.000
 RMSDP=3.07D-07 MaxDP=6.95D-06 DE=-3.06D-10 OVMax= 0.00D+00

 Cycle  15  Pass 1  IDiag  1:
 RMSU=  1.23D-07    CP:  1.00D+00  2.21D+00  1.80D+00  1.34D+00
 E= -426.991298841690     Delta-E=       -0.000000000122 Rises=F Damp=F
 DIIS: error= 4.56D-07 at cycle   5 NSaved=   5.
 NSaved= 5 IEnMin= 5 EnMin= -426.991298841690     IErMin= 5 ErrMin= 4.56D-07
 ErrMax= 4.56D-07  0.00D+00 EMaxC= 1.00D-01 BMatC= 8.32D-12 BMatP= 2.23D-11
 IDIUse=1 WtCom= 1.00D+00 WtEn= 0.00D+00
 Coeff-Com:  0.896D-01-0.140D+00-0.266D+00 0.179D+00 0.114D+01
 Coeff:      0.896D-01-0.140D+00-0.266D+00 0.179D+00 0.114D+01
 Gap=     0.508 Goal=   None    Shift=    0.000
 RMSDP=2.31D-07 MaxDP=4.73D-06 DE=-1.22D-10 OVMax= 0.00D+00

 Cycle  16  Pass 1  IDiag  1:
 RMSU=  6.13D-08    CP:  1.00D+00  2.34D+00  2.12D+00  1.96D+00  1.48D+00
 E= -426.991298841752     Delta-E=       -0.000000000061 Rises=F Damp=F
 DIIS: error= 3.11D-07 at cycle   6 NSaved=   6.
 NSaved= 6 IEnMin= 6 EnMin= -426.991298841752     IErMin= 6 ErrMin= 3.11D-07
 ErrMax= 3.11D-07  0.00D+00 EMaxC= 1.00D-01 BMatC= 2.60D-12 BMatP= 8.32D-12
 IDIUse=1 WtCom= 1.00D+00 WtEn= 0.00D+00
 Coeff-Com: -0.306D-01 0.175D+00-0.261D-01-0.557D+00-0.415D+00 0.185D+01
 Coeff:     -0.306D-01 0.175D+00-0.261D-01-0.557D+00-0.415D+00 0.185D+01
 Gap=     0.508 Goal=   None    Shift=    0.000
 RMSDP=2.48D-07 MaxDP=5.61D-06 DE=-6.12D-11 OVMax= 0.00D+00

 Cycle  17  Pass 1  IDiag  1:
 RMSU=  2.99D-08    CP:  1.00D+00  2.46D+00  2.43D+00  2.55D+00  2.46D+00
                    CP:  2.20D+00
 E= -426.991298841784     Delta-E=       -0.000000000032 Rises=F Damp=F
 DIIS: error= 1.01D-07 at cycle   7 NSaved=   7.
 NSaved= 7 IEnMin= 7 EnMin= -426.991298841784     IErMin= 7 ErrMin= 1.01D-07
 ErrMax= 1.01D-07  0.00D+00 EMaxC= 1.00D-01 BMatC= 3.88D-13 BMatP= 2.60D-12
 IDIUse=1 WtCom= 1.00D+00 WtEn= 0.00D+00
 Coeff-Com: -0.114D-01 0.124D-01 0.324D-01 0.314D-01-0.758D-01-0.321D+00
 Coeff-Com:  0.133D+01
 Coeff:     -0.114D-01 0.124D-01 0.324D-01 0.314D-01-0.758D-01-0.321D+00
 Coeff:      0.133D+01
 Gap=     0.508 Goal=   None    Shift=    0.000
 RMSDP=7.31D-08 MaxDP=1.68D-06 DE=-3.24D-11 OVMax= 0.00D+00

 Cycle  18  Pass 1  IDiag  1:
 RMSU=  1.40D-08    CP:  1.00D+00  2.48D+00  2.50D+00  2.72D+00  2.74D+00
                    CP:  2.75D+00  1.61D+00
 E= -426.991298841781     Delta-E=        0.000000000003 Rises=F Damp=F
 DIIS: error= 4.77D-08 at cycle   8 NSaved=   8.
 NSaved= 8 IEnMin= 7 EnMin= -426.991298841784     IErMin= 8 ErrMin= 4.77D-08
 ErrMax= 4.77D-08  0.00D+00 EMaxC= 1.00D-01 BMatC= 8.72D-14 BMatP= 3.88D-13
 IDIUse=1 WtCom= 1.00D+00 WtEn= 0.00D+00
 Coeff-Com:  0.831D-02-0.441D-01-0.807D-02 0.139D+00 0.172D+00-0.537D+00
 Coeff-Com: -0.665D-01 0.134D+01
 Coeff:      0.831D-02-0.441D-01-0.807D-02 0.139D+00 0.172D+00-0.537D+00
 Coeff:     -0.665D-01 0.134D+01
 Gap=     0.508 Goal=   None    Shift=    0.000
 RMSDP=3.72D-08 MaxDP=8.61D-07 DE= 2.96D-12 OVMax= 0.00D+00

 Cycle  19  Pass 1  IDiag  1:
 RMSU=  5.31D-09    CP:  1.00D+00  2.49D+00  2.53D+00  2.80D+00  2.88D+00
                    CP:  3.00D+00  2.17D+00  1.50D+00
 E= -426.991298841786     Delta-E=       -0.000000000005 Rises=F Damp=F
 DIIS: error= 1.47D-08 at cycle   9 NSaved=   9.
 NSaved= 9 IEnMin= 9 EnMin= -426.991298841786     IErMin= 9 ErrMin= 1.47D-08
 ErrMax= 1.47D-08  0.00D+00 EMaxC= 1.00D-01 BMatC= 1.11D-14 BMatP= 8.72D-14
 IDIUse=1 WtCom= 1.00D+00 WtEn= 0.00D+00
 Coeff-Com: -0.531D-03 0.925D-02-0.514D-02-0.358D-01-0.802D-02 0.132D+00
 Coeff-Com: -0.167D+00-0.203D+00 0.128D+01
 Coeff:     -0.531D-03 0.925D-02-0.514D-02-0.358D-01-0.802D-02 0.132D+00
 Coeff:     -0.167D+00-0.203D+00 0.128D+01
 Gap=     0.508 Goal=   None    Shift=    0.000
 RMSDP=8.72D-09 MaxDP=1.70D-07 DE=-4.66D-12 OVMax= 0.00D+00

 SCF Done:  E(RHF) =  -426.991298842     A.U. after   19 cycles
            NFock= 19  Conv=0.87D-08     -V/T= 2.0100
 KE= 4.227774546429D+02 PE=-1.926715808129D+03 EE= 6.114361084836D+02
 Leave Link  502 at Fri Aug 30 10:37:52 2024, MaxMem=  3221225472 cpu:              19.9 elap:               0.9
 (Enter /share/apps/gaussian/g16/l801.exe)
 DoSCS=T DFT=F ScalE2(SS,OS)=  0.333300  1.200000
 ExpMin= 1.69D-01 ExpMax= 9.91D+01 ExpMxC= 9.91D+01 IAcc=3 IRadAn=         5 AccDes= 0.00D+00
 HarFok:  IExCor=  205 AccDes= 0.00D+00 IRadAn=         5 IDoV=-2 UseB2=F ITyADJ=14
 ICtDFT= 12500011 ScaDFX=  1.000000  1.000000  1.000000  1.000000
 Largest valence mixing into a core orbital is  2.16D-04
 Largest core mixing into a valence orbital is  3.52D-04
 Range of M.O.s used for correlation:    11    57
 NBasis=    57 NAE=    35 NBE=    35 NFC=    10 NFV=     0
 NROrb=     47 NOA=    25 NOB=    25 NVA=    22 NVB=    22
 Leave Link  801 at Fri Aug 30 10:37:52 2024, MaxMem=  3221225472 cpu:               1.3 elap:               0.1
 (Enter /share/apps/gaussian/g16/l906.exe)
 DoSCS=T DFT=F ScalE2(SS,OS)=  0.333300  1.200000
 FulOut=F Deriv=F AODrv=F NAtomX=    17
   MMem=        3644  MDisk=          25 MDiskD=          25
  W3Min=       31350 MinDsk=       89745 NBas6D=          57
 NBas2D=        1713    NTT=        1653    LW2=     2000000
    MDV=  3221174927 MDiskM=      588299 NBas2p=        1678
 Fully in-core method, ICMem=     9094881.
 IMap=   1   2   3   4   5   6   7   8   9  10  11  12  13  14  15  16  17  18  19  20
 IMap=  21  22  23  24  25
 JobTyp=1 Pass  1 fully in-core, NPsUse= 24.
 Compute canonical integrals.
 FoFCou: FMM=F IPFlag=           0 FMFlag=           0 FMFlg1=           0
         NFxFlg=           0 DoJE=F BraDBF=F KetDBF=F FulRan=T
         wScrn=  0.000000 ICntrl=       600 IOpCl=  1 I1Cent=           0 NGrid=           0
         NMat0=    1 NMatS0=   1713 NMatT0=    0 NMatD0=    1 NMtDS0=    0 NMtDT0=    0
 Symmetry not used in FoFCou.
 Spin components of T(2) and E(2):
     alpha-alpha T2 =       0.3594633465D-01 E2=     -0.2332369588D-01
     alpha-beta  T2 =       0.2421103313D+00 E2=     -0.5854886246D+00
     beta-beta   T2 =       0.3594633465D-01 E2=     -0.2332369588D-01
 The integrals were generated   1 times.
 E2 =    -0.6321360164D+00 EUMP2 =    -0.42762343485814D+03
 Leave Link  906 at Fri Aug 30 10:37:52 2024, MaxMem=  3221225472 cpu:               3.5 elap:               0.2
 (Enter /share/apps/gaussian/g16/l601.exe)
 Copying SCF densities to generalized density rwf, IOpCl= 0 IROHF=0.

 **********************************************************************

            Population analysis using the SCF density.

 **********************************************************************

 Orbital symmetries:
       Occupied  (A) (A) (A) (A) (A) (A) (A) (A) (A) (A) (A) (A)
                 (A) (A) (A) (A) (A) (A) (A) (A) (A) (A) (A) (A)
                 (A) (A) (A) (A) (A) (A) (A) (A) (A) (A) (A)
       Virtual   (A) (A) (A) (A) (A) (A) (A) (A) (A) (A) (A) (A)
                 (A) (A) (A) (A) (A) (A) (A) (A) (A) (A)
 The electronic state is 1-A.
 Alpha  occ. eigenvalues --  -15.63056 -15.45779 -15.36115 -11.10672 -11.04888
 Alpha  occ. eigenvalues --  -11.03982 -11.03960 -11.03935 -11.03914 -11.03887
 Alpha  occ. eigenvalues --   -1.44146  -1.22279  -1.10495  -1.00222  -0.96506
 Alpha  occ. eigenvalues --   -0.90531  -0.78291  -0.76457  -0.67866  -0.66427
 Alpha  occ. eigenvalues --   -0.65592  -0.64084  -0.59611  -0.59377  -0.56387
 Alpha  occ. eigenvalues --   -0.54307  -0.53253  -0.51627  -0.46461  -0.44748
 Alpha  occ. eigenvalues --   -0.43933  -0.35058  -0.29076  -0.28822  -0.27563
 Alpha virt. eigenvalues --    0.23275   0.25822   0.26269   0.27363   0.47923
 Alpha virt. eigenvalues --    0.56198   0.57688   0.61070   0.63585   0.66422
 Alpha virt. eigenvalues --    0.68979   0.69800   0.71959   0.73144   0.75424
 Alpha virt. eigenvalues --    0.86563   0.87468   0.88762   0.90436   1.08103
 Alpha virt. eigenvalues --    1.13226   1.22972
          Condensed to atoms (all electrons):
               1          2          3          4          5          6
     1  N    6.631140   0.362977  -0.020269   0.294872  -0.024799  -0.019508
     2  N    0.362977   6.052263   0.543245  -0.038779   0.001940  -0.002647
     3  N   -0.020269   0.543245   6.505756  -0.000223  -0.000020   0.000228
     4  C    0.294872  -0.038779  -0.000223   4.690189   0.385127   0.378009
     5  H   -0.024799   0.001940  -0.000020   0.385127   0.595385  -0.021965
     6  H   -0.019508  -0.002647   0.000228   0.378009  -0.021965   0.620710
     7  C   -0.019262  -0.002821   0.000111   0.378404  -0.021334  -0.023620
     8  C   -0.000538   0.000018   0.000001  -0.027386  -0.003432   0.001193
     9  C   -0.000240   0.000045   0.000030  -0.027983   0.001102  -0.003976
    10  C   -0.000004  -0.000001   0.000000   0.000821   0.000023  -0.000021
    11  H    0.000115   0.000009  -0.000000  -0.003534   0.000288   0.000036
    12  C   -0.000003  -0.000003   0.000001   0.000828  -0.000020   0.000028
    13  H    0.000041   0.000013  -0.000028  -0.003661   0.000035   0.000446
    14  C    0.000001   0.000000  -0.000000   0.000014   0.000001   0.000000
    15  H    0.000000   0.000000  -0.000000  -0.000015  -0.000001   0.000000
    16  H    0.000000   0.000000  -0.000000  -0.000015   0.000000  -0.000001
    17  H   -0.000000  -0.000000   0.000000   0.000001  -0.000000  -0.000000
               7          8          9         10         11         12
     1  N   -0.019262  -0.000538  -0.000240  -0.000004   0.000115  -0.000003
     2  N   -0.002821   0.000018   0.000045  -0.000001   0.000009  -0.000003
     3  N    0.000111   0.000001   0.000030   0.000000  -0.000000   0.000001
     4  C    0.378404  -0.027386  -0.027983   0.000821  -0.003534   0.000828
     5  H   -0.021334  -0.003432   0.001102   0.000023   0.000288  -0.000020
     6  H   -0.023620   0.001193  -0.003976  -0.000021   0.000036   0.000028
     7  C    4.800334   0.503566   0.506074  -0.029056  -0.025906  -0.028957
     8  C    0.503566   4.778974  -0.031629   0.509180   0.393366  -0.011104
     9  C    0.506074  -0.031629   4.786445  -0.011167   0.001344   0.506510
    10  C   -0.029056   0.509180  -0.011167   4.770919  -0.025048  -0.030278
    11  H   -0.025906   0.393366   0.001344  -0.025048   0.594722   0.000033
    12  C   -0.028957  -0.011104   0.506510  -0.030278   0.000033   4.770923
    13  H   -0.026186   0.001347   0.392957   0.000034  -0.000033  -0.025235
    14  C   -0.010935  -0.030046  -0.030146   0.504714   0.001356   0.507418
    15  H    0.001339  -0.025415   0.000027   0.393977  -0.003626   0.001357
    16  H    0.001326   0.000027  -0.025352   0.001360   0.000002   0.393989
    17  H    0.000030   0.001356   0.001363  -0.025174  -0.000031  -0.025253
              13         14         15         16         17
     1  N    0.000041   0.000001   0.000000   0.000000  -0.000000
     2  N    0.000013   0.000000   0.000000   0.000000  -0.000000
     3  N   -0.000028  -0.000000  -0.000000  -0.000000   0.000000
     4  C   -0.003661   0.000014  -0.000015  -0.000015   0.000001
     5  H    0.000035   0.000001  -0.000001   0.000000  -0.000000
     6  H    0.000446   0.000000   0.000000  -0.000001  -0.000000
     7  C   -0.026186  -0.010935   0.001339   0.001326   0.000030
     8  C    0.001347  -0.030046  -0.025415   0.000027   0.001356
     9  C    0.392957  -0.030146   0.000027  -0.025352   0.001363
    10  C    0.000034   0.504714   0.393977   0.001360  -0.025174
    11  H   -0.000033   0.001356  -0.003626   0.000002  -0.000031
    12  C   -0.025235   0.507418   0.001357   0.393989  -0.025253
    13  H    0.602354   0.001361   0.000002  -0.003623  -0.000031
    14  C    0.001361   4.771697  -0.025142  -0.025113   0.393926
    15  H    0.000002  -0.025142   0.594907  -0.000031  -0.003506
    16  H   -0.003623  -0.025113  -0.000031   0.594954  -0.003529
    17  H   -0.000031   0.393926  -0.003506  -0.003529   0.594969
 Mulliken charges:
               1
     1  N   -0.204521
     2  N    0.083742
     3  N   -0.028833
     4  C   -0.026669
     5  H    0.087670
     6  H    0.071088
     7  C   -0.003108
     8  C   -0.059478
     9  C   -0.065404
    10  C   -0.060277
    11  H    0.066910
    12  C   -0.060234
    13  H    0.060207
    14  C   -0.059105
    15  H    0.066127
    16  H    0.066006
    17  H    0.065879
 Sum of Mulliken charges =  -0.00000
 Mulliken charges with hydrogens summed into heavy atoms:
               1
     1  N   -0.204521
     2  N    0.083742
     3  N   -0.028833
     4  C    0.132089
     7  C   -0.003108
     8  C    0.007431
     9  C   -0.005198
    10  C    0.005849
    12  C    0.005773
    14  C    0.006775
 Electronic spatial extent (au):  <R**2>=           1448.7246
 Charge=              0.0000 electrons
 Dipole moment (field-independent basis, Debye):
    X=             -1.5509    Y=             -0.0520    Z=              1.0936  Tot=              1.8984
 Quadrupole moment (field-independent basis, Debye-Ang):
   XX=            -56.5859   YY=            -55.1353   ZZ=            -53.4308
   XY=             -0.3158   XZ=              3.6991   YZ=              1.7161
 Traceless Quadrupole moment (field-independent basis, Debye-Ang):
   XX=             -1.5353   YY=             -0.0846   ZZ=              1.6199
   XY=             -0.3158   XZ=              3.6991   YZ=              1.7161
 Octapole moment (field-independent basis, Debye-Ang**2):
  XXX=             -7.7078  YYY=             -4.2778  ZZZ=             -1.1839  XYY=             -8.8461
  XXY=              4.2693  XXZ=             -0.9562  XZZ=              5.4547  YZZ=             -1.1513
  YYZ=              4.2334  XYZ=              0.1192
 Hexadecapole moment (field-independent basis, Debye-Ang**3):
 XXXX=          -1219.5673 YYYY=           -373.4588 ZZZZ=           -206.7487 XXXY=             -0.4230
 XXXZ=             17.3816 YYYX=            -12.4066 YYYZ=              7.7891 ZZZX=             -1.4341
 ZZZY=              1.2457 XXYY=           -289.9032 XXZZ=           -234.3381 YYZZ=            -98.0001
 XXYZ=              9.7356 YYXZ=             10.4015 ZZXY=             -0.0198
 N-N= 4.655109461603D+02 E-N=-1.926715808250D+03  KE= 4.227774546429D+02
 Leave Link  601 at Fri Aug 30 10:37:52 2024, MaxMem=  3221225472 cpu:               0.5 elap:               0.0
 (Enter /share/apps/gaussian/g16/l9999.exe)

 Test job not archived.
 1\1\GINC-NODE107\SP\RMP2-FC\STO-3G\C7H7N3\LIAOYT\30-Aug-2024\0\\#p MP2
  IOp(3/125=0333312000)\\title\\0,1\N,0,2.234002,-0.78778,-0.106845\N,0
 ,2.387654,0.38371,-0.468037\N,0,2.611074,1.426139,-0.878938\C,0,1.1770
 48,-0.989589,0.931108\H,0,1.165338,-2.069343,1.092051\H,0,1.493087,-0.
 513219,1.868691\C,0,-0.180468,-0.482897,0.50364\C,0,-0.985628,-1.24790
 7,-0.350309\C,0,-0.623713,0.782693,0.9042\C,0,-2.215181,-0.759438,-0.7
 88717\H,0,-0.641184,-2.227372,-0.673653\C,0,-1.8546,1.274933,0.465594\
 H,0,-0.004236,1.384459,1.565543\C,0,-2.652188,0.504141,-0.380941\H,0,-
 2.833711,-1.363254,-1.447241\H,0,-2.188841,2.257968,0.785807\H,0,-3.61
 1182,0.884653,-0.721904\\Version=ES64L-G16RevA.03\State=1-A\HF=-426.99
 12988\MP2=-427.6234349\RMSD=8.723e-09\PG=C01 [X(C7H7N3)]\\@


 ERWIN WITH HIS PSI CAN DO
 CALCULATIONS QUITE A FEW.
 BUT ONE THING HAS NOT BEEN SEEN
 JUST WHAT DOES PSI REALLY MEAN.
 -- WALTER HUCKEL, TRANS. BY FELIX BLOCH
 Job cpu time:       0 days  0 hours  0 minutes 42.6 seconds.
 Elapsed time:       0 days  0 hours  0 minutes  2.1 seconds.
 File lengths (MBytes):  RWF=      6 Int=      0 D2E=      0 Chk=      3 Scr=      1
 Normal termination of Gaussian 16 at Fri Aug 30 10:37:53 2024.
Fri Aug 30 10:37:53 CST 2024
