 Entering Gaussian System, Link 0=g16
 Initial command:
 /share/apps/gaussian/g16/l1.exe "/tmp/103467.mgr/Gau-48342.inp" -scrdir="/tmp/103467.mgr/"
 Entering Link 1 = /share/apps/gaussian/g16/l1.exe PID=     48347.
  
 Copyright (c) 1988,1990,1992,1993,1995,1998,2003,2009,2016,
            Gaussian, Inc.  All Rights Reserved.
  
 This is part of the Gaussian(R) 16 program.  It is based on
 the Gaussian(R) 09 system (copyright 2009, Gaussian, Inc.),
 the Gaussian(R) 03 system (copyright 2003, Gaussian, Inc.),
 the Gaussian(R) 98 system (copyright 1998, Gaussian, Inc.),
 the Gaussian(R) 94 system (copyright 1995, Gaussian, Inc.),
 the Gaussian 92(TM) system (copyright 1992, Gaussian, Inc.),
 the Gaussian 90(TM) system (copyright 1990, Gaussian, Inc.),
 the Gaussian 88(TM) system (copyright 1988, Gaussian, Inc.),
 the Gaussian 86(TM) system (copyright 1986, Carnegie Mellon
 University), and the Gaussian 82(TM) system (copyright 1983,
 Carnegie Mellon University). Gaussian is a federally registered
 trademark of Gaussian, Inc.
  
 This software contains proprietary and confidential information,
 including trade secrets, belonging to Gaussian, Inc.
  
 This software is provided under written license and may be
 used, copied, transmitted, or stored only in accord with that
 written license.
  
 The following legend is applicable only to US Government
 contracts under FAR:
  
                    RESTRICTED RIGHTS LEGEND
  
 Use, reproduction and disclosure by the US Government is
 subject to restrictions as set forth in subparagraphs (a)
 and (c) of the Commercial Computer Software - Restricted
 Rights clause in FAR 52.227-19.
  
 Gaussian, Inc.
 340 Quinnipiac St., Bldg. 40, Wallingford CT 06492
  
  
 ---------------------------------------------------------------
 Warning -- This program may not be used in any manner that
 competes with the business of Gaussian, Inc. or will provide
 assistance to any competitor of Gaussian, Inc.  The licensee
 of this program is prohibited from giving any competitor of
 Gaussian, Inc. access to this program.  By using this program,
 the user acknowledges that Gaussian, Inc. is engaged in the
 business of creating and licensing software in the field of
 computational chemistry and represents and warrants to the
 licensee that it is not a competitor of Gaussian, Inc. and that
 it will not use this program in any manner prohibited above.
 ---------------------------------------------------------------
  

 Cite this work as:
 Gaussian 16, Revision A.03,
 M. J. Frisch, G. W. Trucks, H. B. Schlegel, G. E. Scuseria, 
 M. A. Robb, J. R. Cheeseman, G. Scalmani, V. Barone, 
 G. A. Petersson, H. Nakatsuji, X. Li, M. Caricato, A. V. Marenich, 
 J. Bloino, B. G. Janesko, R. Gomperts, B. Mennucci, H. P. Hratchian, 
 J. V. Ortiz, A. F. Izmaylov, J. L. Sonnenberg, D. Williams-Young, 
 F. Ding, F. Lipparini, F. Egidi, J. Goings, B. Peng, A. Petrone, 
 T. Henderson, D. Ranasinghe, V. G. Zakrzewski, J. Gao, N. Rega, 
 G. Zheng, W. Liang, M. Hada, M. Ehara, K. Toyota, R. Fukuda, 
 J. Hasegawa, M. Ishida, T. Nakajima, Y. Honda, O. Kitao, H. Nakai, 
 T. Vreven, K. Throssell, J. A. Montgomery, Jr., J. E. Peralta, 
 F. Ogliaro, M. J. Bearpark, J. J. Heyd, E. N. Brothers, K. N. Kudin, 
 V. N. Staroverov, T. A. Keith, R. Kobayashi, J. Normand, 
 K. Raghavachari, A. P. Rendell, J. C. Burant, S. S. Iyengar, 
 J. Tomasi, M. Cossi, J. M. Millam, M. Klene, C. Adamo, R. Cammi, 
 J. W. Ochterski, R. L. Martin, K. Morokuma, O. Farkas, 
 J. B. Foresman, and D. J. Fox, Gaussian, Inc., Wallingford CT, 2016.
 
 ******************************************
 Gaussian 16:  ES64L-G16RevA.03 25-Dec-2016
                26-Dec-2024 
 ******************************************
 %nprocshared=4
 Will use up to    4 processors via shared memory.
 %mem=4GB
 ----------------
 # b3lyp/6-31g(d)
 ----------------
 1/38=1,172=1/1;
 2/12=2,17=6,18=5,40=1/2;
 3/5=1,6=6,7=1,11=2,25=1,30=1,74=-5/1,2,3;
 4//1;
 5/5=2,38=5/2;
 6/7=2,8=2,9=2,10=2,28=1/1;
 99/5=1,9=1/99;
 ----------------------
 tmpdir/M2_conf_0_2.gjf
 ----------------------
 Symbolic Z-matrix:
 Charge =  0 Multiplicity = 1
 C                     0.        0.        0. 
 C                     1.2076    0.        0. 
 C                     2.5802    0.        0.50747 
 H                    -1.0661    0.00078  -0.00209 
 H                     3.10801   0.8861    0.12708 
 H                     3.11671  -0.86985   0.10172 
 H                     2.63301  -0.01399   1.62253 
 
                          Input orientation:                          
 ---------------------------------------------------------------------
 Center     Atomic      Atomic             Coordinates (Angstroms)
 Number     Number       Type             X           Y           Z
 ---------------------------------------------------------------------
      1          6           0        0.000000    0.000000    0.000000
      2          6           0        1.207600    0.000000    0.000000
      3          6           0        2.580200    0.000000    0.507470
      4          1           0       -1.066100    0.000780   -0.002090
      5          1           0        3.108010    0.886100    0.127080
      6          1           0        3.116710   -0.869850    0.101720
      7          1           0        2.633010   -0.013990    1.622530
 ---------------------------------------------------------------------
                    Distance matrix (angstroms):
                    1          2          3          4          5
     1  C    0.000000
     2  C    1.207600   0.000000
     3  C    2.629631   1.463406   0.000000
     4  H    1.066102   2.273701   3.681733   0.000000
     5  H    3.234354   2.100686   1.099297   4.268919   0.000000
     6  H    3.237417   2.100402   1.099598   4.273719   1.756155
     7  H    3.092821   2.159767   1.116398   4.040176   1.808911
                    6          7
     6  H    0.000000
     7  H    1.810891   0.000000
 Stoichiometry    C3H4
 Framework group  C1[X(C3H4)]
 Deg. of freedom    15
 Full point group                 C1      NOp   1
 Largest Abelian subgroup         C1      NOp   1
 Largest concise Abelian subgroup C1      NOp   1
                         Standard orientation:                         
 ---------------------------------------------------------------------
 Center     Atomic      Atomic             Coordinates (Angstroms)
 Number     Number       Type             X           Y           Z
 ---------------------------------------------------------------------
      1          6           0        1.404339    0.040577   -0.000140
      2          6           0        0.217994   -0.184994    0.000105
      3          6           0       -1.225239    0.057153   -0.000254
      4          1           0        2.452066    0.237664    0.000426
      5          1           0       -1.672737   -0.414005    0.886430
      6          1           0       -1.676485   -0.442778   -0.869485
      7          1           0       -1.485404    1.142704   -0.015634
 ---------------------------------------------------------------------
 Rotational constants (GHZ):         134.4567295           8.7735258           8.6755500
 Standard basis: 6-31G(d) (6D, 7F)
 There are    53 symmetry adapted cartesian basis functions of A   symmetry.
 There are    53 symmetry adapted basis functions of A   symmetry.
    53 basis functions,   100 primitive gaussians,    53 cartesian basis functions
    11 alpha electrons       11 beta electrons
       nuclear repulsion energy        58.6415595451 Hartrees.
 NAtoms=    7 NActive=    7 NUniq=    7 SFac= 1.00D+00 NAtFMM=   60 NAOKFM=F Big=F
 Integral buffers will be    131072 words long.
 Raffenetti 2 integral format.
 Two-electron integral symmetry is turned on.
 One-electron integrals computed using PRISM.
 NBasis=    53 RedAO= T EigKep=  8.58D-04  NBF=    53
 NBsUse=    53 1.00D-06 EigRej= -1.00D+00 NBFU=    53
 ExpMin= 1.61D-01 ExpMax= 3.05D+03 ExpMxC= 4.57D+02 IAcc=3 IRadAn=         5 AccDes= 0.00D+00
 Harris functional with IExCor=  402 and IRadAn=       5 diagonalized for initial guess.
 HarFok:  IExCor=  402 AccDes= 0.00D+00 IRadAn=         5 IDoV= 1 UseB2=F ITyADJ=14
 ICtDFT=  3500011 ScaDFX=  1.000000  1.000000  1.000000  1.000000
 FoFCou: FMM=F IPFlag=           0 FMFlag=      100000 FMFlg1=           0
         NFxFlg=           0 DoJE=T BraDBF=F KetDBF=T FulRan=T
         wScrn=  0.000000 ICntrl=       500 IOpCl=  0 I1Cent=   200000004 NGrid=           0
         NMat0=    1 NMatS0=      1 NMatT0=    0 NMatD0=    1 NMtDS0=    0 NMtDT0=    0
 Petite list used in FoFCou.
 Keep R1 ints in memory in canonical form, NReq=4527186.
 Requested convergence on RMS density matrix=1.00D-08 within 128 cycles.
 Requested convergence on MAX density matrix=1.00D-06.
 Requested convergence on             energy=1.00D-06.
 No special actions if energy rises.
 Integral accuracy reduced to 1.0D-05 until final iterations.
 Initial convergence to 1.0D-05 achieved.  Increase integral accuracy.
 SCF Done:  E(RB3LYP) =  -116.646703818     A.U. after   12 cycles
            NFock= 12  Conv=0.53D-08     -V/T= 2.0104

 **********************************************************************

            Population analysis using the SCF density.

 **********************************************************************

 Orbital symmetries:
       Occupied  (A) (A) (A) (A) (A) (A) (A) (A) (A) (A) (A)
       Virtual   (A) (A) (A) (A) (A) (A) (A) (A) (A) (A) (A) (A)
                 (A) (A) (A) (A) (A) (A) (A) (A) (A) (A) (A) (A)
                 (A) (A) (A) (A) (A) (A) (A) (A) (A) (A) (A) (A)
                 (A) (A) (A) (A) (A) (A)
 The electronic state is 1-A.
 Alpha  occ. eigenvalues --  -10.20782 -10.18324 -10.17389  -0.77322  -0.69176
 Alpha  occ. eigenvalues --   -0.52487  -0.44511  -0.42629  -0.42452  -0.26055
 Alpha  occ. eigenvalues --   -0.25937
 Alpha virt. eigenvalues --    0.03905   0.06533   0.11555   0.13195   0.17587
 Alpha virt. eigenvalues --    0.17755   0.25565   0.43571   0.46013   0.52595
 Alpha virt. eigenvalues --    0.53382   0.62561   0.63368   0.70649   0.70880
 Alpha virt. eigenvalues --    0.73808   0.80520   0.83709   0.85878   0.88973
 Alpha virt. eigenvalues --    0.95248   1.17238   1.26519   1.40736   1.45504
 Alpha virt. eigenvalues --    1.53621   1.55913   1.68710   1.81843   1.85363
 Alpha virt. eigenvalues --    1.97488   2.03629   2.14791   2.17614   2.25974
 Alpha virt. eigenvalues --    2.55400   2.67392   2.76696   3.30032   4.09780
 Alpha virt. eigenvalues --    4.24692   4.57495
          Condensed to atoms (all electrons):
               1          2          3          4          5          6
     1  C    5.093443   0.932956  -0.081556   0.353616  -0.000960  -0.000870
     2  C    0.932956   4.694658   0.376485  -0.026121  -0.033985  -0.034118
     3  C   -0.081556   0.376485   5.137807   0.002535   0.366571   0.366462
     4  H    0.353616  -0.026121   0.002535   0.491555  -0.000066  -0.000066
     5  H   -0.000960  -0.033985   0.366571  -0.000066   0.551767  -0.032238
     6  H   -0.000870  -0.034118   0.366462  -0.000066  -0.032238   0.552017
     7  H   -0.001370  -0.022399   0.366699   0.000085  -0.028451  -0.028274
               7
     1  C   -0.001370
     2  C   -0.022399
     3  C    0.366699
     4  H    0.000085
     5  H   -0.028451
     6  H   -0.028274
     7  H    0.528880
 Mulliken charges:
               1
     1  C   -0.295258
     2  C    0.112524
     3  C   -0.535003
     4  H    0.178461
     5  H    0.177361
     6  H    0.177087
     7  H    0.184829
 Sum of Mulliken charges =   0.00000
 Mulliken charges with hydrogens summed into heavy atoms:
               1
     1  C   -0.116797
     2  C    0.112524
     3  C    0.004273
 Electronic spatial extent (au):  <R**2>=            176.0075
 Charge=              0.0000 electrons
 Dipole moment (field-independent basis, Debye):
    X=             -0.5766    Y=              0.3338    Z=              0.0018  Tot=              0.6663
 Quadrupole moment (field-independent basis, Debye-Ang):
   XX=            -13.9860   YY=            -18.8438   ZZ=            -19.1769
   XY=              0.6753   XZ=             -0.0015   YZ=             -0.0006
 Traceless Quadrupole moment (field-independent basis, Debye-Ang):
   XX=              3.3496   YY=             -1.5082   ZZ=             -1.8413
   XY=              0.6753   XZ=             -0.0015   YZ=             -0.0006
 Octapole moment (field-independent basis, Debye-Ang**2):
  XXX=              9.0924  YYY=              1.4623  ZZZ=              0.0335  XYY=             -2.2010
  XXY=              1.7692  XXZ=              0.0095  XZZ=             -2.2879  YZZ=             -0.4064
  YYZ=             -0.0299  XYZ=             -0.0022
 Hexadecapole moment (field-independent basis, Debye-Ang**3):
 XXXX=           -155.6294 YYYY=            -27.2317 ZZZZ=            -26.0586 XXXY=              4.9197
 XXXZ=             -0.0018 YYYX=             -0.7279 YYYZ=             -0.0104 ZZZX=             -0.0547
 ZZZY=              0.0010 XXYY=            -35.2878 XXZZ=            -35.5920 YYZZ=             -9.0722
 XXYZ=              0.0091 YYXZ=              0.0501 ZZXY=              1.1954
 N-N= 5.864155954512D+01 E-N=-3.869929124152D+02  KE= 1.154512970209D+02
 1\1\GINC-NODE86\SP\RB3LYP\6-31G(d)\C3H4\YANZ\26-Dec-2024\0\\# b3lyp/6-
 31g(d)\\tmpdir/M2_conf_0_2.gjf\\0,1\C,0,0.,0.,0.\C,0,1.2076,0.,0.\C,0,
 2.5802,0.,0.50747\H,0,-1.0661,0.00078,-0.00209\H,0,3.10801,0.8861,0.12
 708\H,0,3.11671,-0.86985,0.10172\H,0,2.63301,-0.01399,1.62253\\Version
 =ES64L-G16RevA.03\State=1-A\HF=-116.6467038\RMSD=5.264e-09\Dipole=0.19
 83249,0.0009018,0.1713913\Quadrupole=2.5485668,-1.36898,-1.1795869,0.0
 006384,0.1957233,-0.0000462\PG=C01 [X(C3H4)]\\@


 BRING ME INTO THE COMPANY OF THOSE WHO SEEK TRUTH,
 AND DELIVER ME FROM THOSE WHO HAVE FOUND IT.
 Job cpu time:       0 days  0 hours  0 minutes 10.3 seconds.
 Elapsed time:       0 days  0 hours  0 minutes  2.7 seconds.
 File lengths (MBytes):  RWF=      6 Int=      0 D2E=      0 Chk=      1 Scr=      1
 Normal termination of Gaussian 16 at Thu Dec 26 10:40:56 2024.
