 Entering Gaussian System, Link 0=g16
 Initial command:
 /share/apps/gaussian/g16/l1.exe "/tmp/103467.mgr/Gau-48344.inp" -scrdir="/tmp/103467.mgr/"
 Entering Link 1 = /share/apps/gaussian/g16/l1.exe PID=     48351.
  
 Copyright (c) 1988,1990,1992,1993,1995,1998,2003,2009,2016,
            Gaussian, Inc.  All Rights Reserved.
  
 This is part of the Gaussian(R) 16 program.  It is based on
 the Gaussian(R) 09 system (copyright 2009, Gaussian, Inc.),
 the Gaussian(R) 03 system (copyright 2003, Gaussian, Inc.),
 the Gaussian(R) 98 system (copyright 1998, Gaussian, Inc.),
 the Gaussian(R) 94 system (copyright 1995, Gaussian, Inc.),
 the Gaussian 92(TM) system (copyright 1992, Gaussian, Inc.),
 the Gaussian 90(TM) system (copyright 1990, Gaussian, Inc.),
 the Gaussian 88(TM) system (copyright 1988, Gaussian, Inc.),
 the Gaussian 86(TM) system (copyright 1986, Carnegie Mellon
 University), and the Gaussian 82(TM) system (copyright 1983,
 Carnegie Mellon University). Gaussian is a federally registered
 trademark of Gaussian, Inc.
  
 This software contains proprietary and confidential information,
 including trade secrets, belonging to Gaussian, Inc.
  
 This software is provided under written license and may be
 used, copied, transmitted, or stored only in accord with that
 written license.
  
 The following legend is applicable only to US Government
 contracts under FAR:
  
                    RESTRICTED RIGHTS LEGEND
  
 Use, reproduction and disclosure by the US Government is
 subject to restrictions as set forth in subparagraphs (a)
 and (c) of the Commercial Computer Software - Restricted
 Rights clause in FAR 52.227-19.
  
 Gaussian, Inc.
 340 Quinnipiac St., Bldg. 40, Wallingford CT 06492
  
  
 ---------------------------------------------------------------
 Warning -- This program may not be used in any manner that
 competes with the business of Gaussian, Inc. or will provide
 assistance to any competitor of Gaussian, Inc.  The licensee
 of this program is prohibited from giving any competitor of
 Gaussian, Inc. access to this program.  By using this program,
 the user acknowledges that Gaussian, Inc. is engaged in the
 business of creating and licensing software in the field of
 computational chemistry and represents and warrants to the
 licensee that it is not a competitor of Gaussian, Inc. and that
 it will not use this program in any manner prohibited above.
 ---------------------------------------------------------------
  

 Cite this work as:
 Gaussian 16, Revision A.03,
 M. J. Frisch, G. W. Trucks, H. B. Schlegel, G. E. Scuseria, 
 M. A. Robb, J. R. Cheeseman, G. Scalmani, V. Barone, 
 G. A. Petersson, H. Nakatsuji, X. Li, M. Caricato, A. V. Marenich, 
 J. Bloino, B. G. Janesko, R. Gomperts, B. Mennucci, H. P. Hratchian, 
 J. V. Ortiz, A. F. Izmaylov, J. L. Sonnenberg, D. Williams-Young, 
 F. Ding, F. Lipparini, F. Egidi, J. Goings, B. Peng, A. Petrone, 
 T. Henderson, D. Ranasinghe, V. G. Zakrzewski, J. Gao, N. Rega, 
 G. Zheng, W. Liang, M. Hada, M. Ehara, K. Toyota, R. Fukuda, 
 J. Hasegawa, M. Ishida, T. Nakajima, Y. Honda, O. Kitao, H. Nakai, 
 T. Vreven, K. Throssell, J. A. Montgomery, Jr., J. E. Peralta, 
 F. Ogliaro, M. J. Bearpark, J. J. Heyd, E. N. Brothers, K. N. Kudin, 
 V. N. Staroverov, T. A. Keith, R. Kobayashi, J. Normand, 
 K. Raghavachari, A. P. Rendell, J. C. Burant, S. S. Iyengar, 
 J. Tomasi, M. Cossi, J. M. Millam, M. Klene, C. Adamo, R. Cammi, 
 J. W. Ochterski, R. L. Martin, K. Morokuma, O. Farkas, 
 J. B. Foresman, and D. J. Fox, Gaussian, Inc., Wallingford CT, 2016.
 
 ******************************************
 Gaussian 16:  ES64L-G16RevA.03 25-Dec-2016
                26-Dec-2024 
 ******************************************
 %nprocshared=4
 Will use up to    4 processors via shared memory.
 %mem=4GB
 ----------------
 # b3lyp/6-31g(d)
 ----------------
 1/38=1,172=1/1;
 2/12=2,17=6,18=5,40=1/2;
 3/5=1,6=6,7=1,11=2,25=1,30=1,74=-5/1,2,3;
 4//1;
 5/5=2,38=5/2;
 6/7=2,8=2,9=2,10=2,28=1/1;
 99/5=1,9=1/99;
 -----------------------
 tmpdir/M2_conf_0_10.gjf
 -----------------------
 Symbolic Z-matrix:
 Charge =  0 Multiplicity = 1
 C                     0.        0.        0. 
 C                     1.4634    0.        0. 
 C                     2.02034   0.        1.43812 
 N                    -1.13399   0.00022  -0.01965 
 H                     1.82655   0.87867  -0.55183 
 H                     1.82593  -0.87748  -0.55472 
 H                     3.12618   0.00644   1.45589 
 H                     1.654    -0.88079   1.97797 
 H                     1.65021   0.88327   1.96945 
 
                          Input orientation:                          
 ---------------------------------------------------------------------
 Center     Atomic      Atomic             Coordinates (Angstroms)
 Number     Number       Type             X           Y           Z
 ---------------------------------------------------------------------
      1          6           0        0.000000    0.000000    0.000000
      2          6           0        1.463400    0.000000    0.000000
      3          6           0        2.020340    0.000000    1.438120
      4          7           0       -1.133990    0.000220   -0.019650
      5          1           0        1.826550    0.878670   -0.551830
      6          1           0        1.825930   -0.877480   -0.554720
      7          1           0        3.126180    0.006440    1.455890
      8          1           0        1.654000   -0.880790    1.977970
      9          1           0        1.650210    0.883270    1.969450
 ---------------------------------------------------------------------
                    Distance matrix (angstroms):
                    1          2          3          4          5
     1  C    0.000000
     2  C    1.463400   0.000000
     3  C    2.479912   1.542197   0.000000
     4  N    1.134160   2.597464   3.474894   0.000000
     5  H    2.100681   1.099298   2.183922   3.133638   0.000000
     6  H    2.100406   1.099597   2.186133   3.133334   1.756152
     7  H    3.448573   2.210089   1.106002   4.508470   2.545734
     8  H    2.724678   2.173588   1.096099   3.541123   3.086318
     9  H    2.717001   2.166517   1.095205   3.533846   2.527443
                    6          7          8          9
     6  H    0.000000
     7  H    2.552355   0.000000
     8  H    2.538521   1.796402   0.000000
     9  H    3.082621   1.791944   1.764085   0.000000
 Stoichiometry    C3H5N
 Framework group  C1[X(C3H5N)]
 Deg. of freedom    21
 Full point group                 C1      NOp   1
 Largest Abelian subgroup         C1      NOp   1
 Largest concise Abelian subgroup C1      NOp   1
                         Standard orientation:                         
 ---------------------------------------------------------------------
 Center     Atomic      Atomic             Coordinates (Angstroms)
 Number     Number       Type             X           Y           Z
 ---------------------------------------------------------------------
      1          6           0       -0.873317    0.096027   -0.000196
      2          6           0        0.476242    0.661917   -0.000652
      3          6           0        1.545970   -0.448962   -0.000666
      4          7           0       -1.926689   -0.324360    0.000375
      5          1           0        0.597966    1.311443    0.877843
      6          1           0        0.595848    1.313477   -0.878307
      7          1           0        2.572657   -0.037725    0.005432
      8          1           0        1.416671   -1.088674   -0.881282
      9          1           0        1.410312   -1.081889    0.882778
 ---------------------------------------------------------------------
 Rotational constants (GHZ):          27.7677257           4.7533161           4.2728409
 Standard basis: 6-31G(d) (6D, 7F)
 There are    70 symmetry adapted cartesian basis functions of A   symmetry.
 There are    70 symmetry adapted basis functions of A   symmetry.
    70 basis functions,   132 primitive gaussians,    70 cartesian basis functions
    15 alpha electrons       15 beta electrons
       nuclear repulsion energy       103.2380417545 Hartrees.
 NAtoms=    9 NActive=    9 NUniq=    9 SFac= 1.00D+00 NAtFMM=   60 NAOKFM=F Big=F
 Integral buffers will be    131072 words long.
 Raffenetti 2 integral format.
 Two-electron integral symmetry is turned on.
 One-electron integrals computed using PRISM.
 NBasis=    70 RedAO= T EigKep=  1.39D-03  NBF=    70
 NBsUse=    70 1.00D-06 EigRej= -1.00D+00 NBFU=    70
 ExpMin= 1.61D-01 ExpMax= 4.17D+03 ExpMxC= 6.27D+02 IAcc=3 IRadAn=         5 AccDes= 0.00D+00
 Harris functional with IExCor=  402 and IRadAn=       5 diagonalized for initial guess.
 HarFok:  IExCor=  402 AccDes= 0.00D+00 IRadAn=         5 IDoV= 1 UseB2=F ITyADJ=14
 ICtDFT=  3500011 ScaDFX=  1.000000  1.000000  1.000000  1.000000
 FoFCou: FMM=F IPFlag=           0 FMFlag=      100000 FMFlg1=           0
         NFxFlg=           0 DoJE=T BraDBF=F KetDBF=T FulRan=T
         wScrn=  0.000000 ICntrl=       500 IOpCl=  0 I1Cent=   200000004 NGrid=           0
         NMat0=    1 NMatS0=      1 NMatT0=    0 NMatD0=    1 NMtDS0=    0 NMtDT0=    0
 Petite list used in FoFCou.
 Keep R1 ints in memory in canonical form, NReq=6658320.
 Requested convergence on RMS density matrix=1.00D-08 within 128 cycles.
 Requested convergence on MAX density matrix=1.00D-06.
 Requested convergence on             energy=1.00D-06.
 No special actions if energy rises.
 Integral accuracy reduced to 1.0D-05 until final iterations.
 Initial convergence to 1.0D-05 achieved.  Increase integral accuracy.
 SCF Done:  E(RB3LYP) =  -172.066410495     A.U. after   13 cycles
            NFock= 13  Conv=0.44D-08     -V/T= 2.0092

 **********************************************************************

            Population analysis using the SCF density.

 **********************************************************************

 Orbital symmetries:
       Occupied  (A) (A) (A) (A) (A) (A) (A) (A) (A) (A) (A) (A)
                 (A) (A) (A)
       Virtual   (A) (A) (A) (A) (A) (A) (A) (A) (A) (A) (A) (A)
                 (A) (A) (A) (A) (A) (A) (A) (A) (A) (A) (A) (A)
                 (A) (A) (A) (A) (A) (A) (A) (A) (A) (A) (A) (A)
                 (A) (A) (A) (A) (A) (A) (A) (A) (A) (A) (A) (A)
                 (A) (A) (A) (A) (A) (A) (A)
 The electronic state is 1-A.
 Alpha  occ. eigenvalues --  -14.32484 -10.24093 -10.22025 -10.20710  -0.91048
 Alpha  occ. eigenvalues --   -0.80579  -0.67130  -0.51998  -0.48398  -0.42904
 Alpha  occ. eigenvalues --   -0.39893  -0.38827  -0.35307  -0.32817  -0.32720
 Alpha virt. eigenvalues --    0.03821   0.04631   0.09182   0.13180   0.13476
 Alpha virt. eigenvalues --    0.15157   0.18934   0.18976   0.23024   0.30791
 Alpha virt. eigenvalues --    0.51711   0.52329   0.52665   0.56961   0.58862
 Alpha virt. eigenvalues --    0.61212   0.68590   0.71713   0.73835   0.80285
 Alpha virt. eigenvalues --    0.81774   0.84972   0.86289   0.88285   0.89735
 Alpha virt. eigenvalues --    0.91220   0.95576   1.06034   1.27098   1.38159
 Alpha virt. eigenvalues --    1.40993   1.45857   1.51704   1.54565   1.66288
 Alpha virt. eigenvalues --    1.70522   1.82532   1.87901   1.96301   1.98411
 Alpha virt. eigenvalues --    1.99815   2.01718   2.20796   2.23462   2.28774
 Alpha virt. eigenvalues --    2.29507   2.50285   2.78611   2.79251   2.85447
 Alpha virt. eigenvalues --    3.25091   4.04936   4.10183   4.27534   4.63782
          Condensed to atoms (all electrons):
               1          2          3          4          5          6
     1  C    4.548796   0.306644  -0.037211   0.904842  -0.032321  -0.032332
     2  C    0.306644   5.123774   0.352562  -0.095287   0.373855   0.373696
     3  C   -0.037211   0.352562   5.062930  -0.000994  -0.033306  -0.033228
     4  N    0.904842  -0.095287  -0.000994   6.647285  -0.000765  -0.000758
     5  H   -0.032321   0.373855  -0.033306  -0.000765   0.532549  -0.032491
     6  H   -0.032332   0.373696  -0.033228  -0.000758  -0.032491   0.532588
     7  H    0.004168  -0.027893   0.371455  -0.000013  -0.002415  -0.002403
     8  H   -0.004249  -0.033356   0.381610   0.000154   0.004392  -0.003945
     9  H   -0.004399  -0.033866   0.381534   0.000156  -0.004020   0.004445
               7          8          9
     1  C    0.004168  -0.004249  -0.004399
     2  C   -0.027893  -0.033356  -0.033866
     3  C    0.371455   0.381610   0.381534
     4  N   -0.000013   0.000154   0.000156
     5  H   -0.002415   0.004392  -0.004020
     6  H   -0.002403  -0.003945   0.004445
     7  H    0.549502  -0.026262  -0.026625
     8  H   -0.026262   0.538874  -0.029559
     9  H   -0.026625  -0.029559   0.540069
 Mulliken charges:
               1
     1  C    0.346062
     2  C   -0.340130
     3  C   -0.445352
     4  N   -0.454621
     5  H    0.194522
     6  H    0.194428
     7  H    0.160486
     8  H    0.172340
     9  H    0.172266
 Sum of Mulliken charges =  -0.00000
 Mulliken charges with hydrogens summed into heavy atoms:
               1
     1  C    0.346062
     2  C    0.048820
     3  C    0.059739
     4  N   -0.454621
 Electronic spatial extent (au):  <R**2>=            311.5962
 Charge=             -0.0000 electrons
 Dipole moment (field-independent basis, Debye):
    X=              3.6164    Y=              1.2545    Z=              0.0021  Tot=              3.8278
 Quadrupole moment (field-independent basis, Debye-Ang):
   XX=            -30.4441   YY=            -23.5076   ZZ=            -23.5552
   XY=             -1.2567   XZ=              0.0092   YZ=              0.0074
 Traceless Quadrupole moment (field-independent basis, Debye-Ang):
   XX=             -4.6084   YY=              2.3280   ZZ=              2.2804
   XY=             -1.2567   XZ=              0.0092   YZ=              0.0074
 Octapole moment (field-independent basis, Debye-Ang**2):
  XXX=             18.2639  YYY=              1.5555  ZZZ=              0.0058  XYY=              1.5154
  XXY=              3.8122  XXZ=              0.0169  XZZ=              0.6211  YZZ=              0.5442
  YYZ=             -0.0152  XYZ=              0.0154
 Hexadecapole moment (field-independent basis, Debye-Ang**3):
 XXXX=           -335.0561 YYYY=            -70.9996 ZZZZ=            -35.3718 XXXY=             -5.6046
 XXXZ=              0.0759 YYYX=              0.2106 YYYZ=              0.0220 ZZZX=              0.0063
 ZZZY=              0.0068 XXYY=            -64.6992 XXZZ=            -57.5364 YYZZ=            -15.5595
 XXYZ=              0.0308 YYXZ=             -0.0204 ZZXY=             -0.1285
 N-N= 1.032380417545D+02 E-N=-6.053469083195D+02  KE= 1.704997158116D+02
 1\1\GINC-NODE86\SP\RB3LYP\6-31G(d)\C3H5N1\YANZ\26-Dec-2024\0\\# b3lyp/
 6-31g(d)\\tmpdir/M2_conf_0_10.gjf\\0,1\C,0,0.,0.,0.\C,0,1.4634,0.,0.\C
 ,0,2.02034,0.,1.43812\N,0,-1.13399,0.00022,-0.01965\H,0,1.82655,0.8786
 7,-0.55183\H,0,1.82593,-0.87748,-0.55472\H,0,3.12618,0.00644,1.45589\H
 ,0,1.654,-0.88079,1.97797\H,0,1.65021,0.88327,1.96945\\Version=ES64L-G
 16RevA.03\State=1-A\HF=-172.0664105\RMSD=4.422e-09\Dipole=1.5029662,0.
 0012933,0.0950237\Quadrupole=-3.321479,1.6954287,1.6260502,0.0069907,-
 1.1842112,-0.0028156\PG=C01 [X(C3H5N1)]\\@


 THE SOLUTION TO A PROBLEM CHANGES THE PROBLEM.

                                 -- JOHN PEERS
           PAUL DICKSON'S "THE OFFICIAL RULES"
 Job cpu time:       0 days  0 hours  0 minutes 17.8 seconds.
 Elapsed time:       0 days  0 hours  0 minutes  4.6 seconds.
 File lengths (MBytes):  RWF=      6 Int=      0 D2E=      0 Chk=      1 Scr=      1
 Normal termination of Gaussian 16 at Thu Dec 26 10:40:58 2024.
