 Entering Gaussian System, Link 0=g16
 Initial command:
 /share/apps/gaussian/g16/l1.exe "/tmp/103467.mgr/Gau-49352.inp" -scrdir="/tmp/103467.mgr/"
 Entering Link 1 = /share/apps/gaussian/g16/l1.exe PID=     49353.
  
 Copyright (c) 1988,1990,1992,1993,1995,1998,2003,2009,2016,
            Gaussian, Inc.  All Rights Reserved.
  
 This is part of the Gaussian(R) 16 program.  It is based on
 the Gaussian(R) 09 system (copyright 2009, Gaussian, Inc.),
 the Gaussian(R) 03 system (copyright 2003, Gaussian, Inc.),
 the Gaussian(R) 98 system (copyright 1998, Gaussian, Inc.),
 the Gaussian(R) 94 system (copyright 1995, Gaussian, Inc.),
 the Gaussian 92(TM) system (copyright 1992, Gaussian, Inc.),
 the Gaussian 90(TM) system (copyright 1990, Gaussian, Inc.),
 the Gaussian 88(TM) system (copyright 1988, Gaussian, Inc.),
 the Gaussian 86(TM) system (copyright 1986, Carnegie Mellon
 University), and the Gaussian 82(TM) system (copyright 1983,
 Carnegie Mellon University). Gaussian is a federally registered
 trademark of Gaussian, Inc.
  
 This software contains proprietary and confidential information,
 including trade secrets, belonging to Gaussian, Inc.
  
 This software is provided under written license and may be
 used, copied, transmitted, or stored only in accord with that
 written license.
  
 The following legend is applicable only to US Government
 contracts under FAR:
  
                    RESTRICTED RIGHTS LEGEND
  
 Use, reproduction and disclosure by the US Government is
 subject to restrictions as set forth in subparagraphs (a)
 and (c) of the Commercial Computer Software - Restricted
 Rights clause in FAR 52.227-19.
  
 Gaussian, Inc.
 340 Quinnipiac St., Bldg. 40, Wallingford CT 06492
  
  
 ---------------------------------------------------------------
 Warning -- This program may not be used in any manner that
 competes with the business of Gaussian, Inc. or will provide
 assistance to any competitor of Gaussian, Inc.  The licensee
 of this program is prohibited from giving any competitor of
 Gaussian, Inc. access to this program.  By using this program,
 the user acknowledges that Gaussian, Inc. is engaged in the
 business of creating and licensing software in the field of
 computational chemistry and represents and warrants to the
 licensee that it is not a competitor of Gaussian, Inc. and that
 it will not use this program in any manner prohibited above.
 ---------------------------------------------------------------
  

 Cite this work as:
 Gaussian 16, Revision A.03,
 M. J. Frisch, G. W. Trucks, H. B. Schlegel, G. E. Scuseria, 
 M. A. Robb, J. R. Cheeseman, G. Scalmani, V. Barone, 
 G. A. Petersson, H. Nakatsuji, X. Li, M. Caricato, A. V. Marenich, 
 J. Bloino, B. G. Janesko, R. Gomperts, B. Mennucci, H. P. Hratchian, 
 J. V. Ortiz, A. F. Izmaylov, J. L. Sonnenberg, D. Williams-Young, 
 F. Ding, F. Lipparini, F. Egidi, J. Goings, B. Peng, A. Petrone, 
 T. Henderson, D. Ranasinghe, V. G. Zakrzewski, J. Gao, N. Rega, 
 G. Zheng, W. Liang, M. Hada, M. Ehara, K. Toyota, R. Fukuda, 
 J. Hasegawa, M. Ishida, T. Nakajima, Y. Honda, O. Kitao, H. Nakai, 
 T. Vreven, K. Throssell, J. A. Montgomery, Jr., J. E. Peralta, 
 F. Ogliaro, M. J. Bearpark, J. J. Heyd, E. N. Brothers, K. N. Kudin, 
 V. N. Staroverov, T. A. Keith, R. Kobayashi, J. Normand, 
 K. Raghavachari, A. P. Rendell, J. C. Burant, S. S. Iyengar, 
 J. Tomasi, M. Cossi, J. M. Millam, M. Klene, C. Adamo, R. Cammi, 
 J. W. Ochterski, R. L. Martin, K. Morokuma, O. Farkas, 
 J. B. Foresman, and D. J. Fox, Gaussian, Inc., Wallingford CT, 2016.
 
 ******************************************
 Gaussian 16:  ES64L-G16RevA.03 25-Dec-2016
                26-Dec-2024 
 ******************************************
 %nprocshared=4
 Will use up to    4 processors via shared memory.
 %mem=4GB
 ----------------
 # b3lyp/6-31g(d)
 ----------------
 1/38=1,172=1/1;
 2/12=2,17=6,18=5,40=1/2;
 3/5=1,6=6,7=1,11=2,25=1,30=1,74=-5/1,2,3;
 4//1;
 5/5=2,38=5/2;
 6/7=2,8=2,9=2,10=2,28=1/1;
 99/5=1,9=1/99;
 -----------------------
 tmpdir/M2_conf_0_27.gjf
 -----------------------
 Symbolic Z-matrix:
 Charge =  0 Multiplicity = 1
 N                     0.        0.        0. 
 C                     1.4665    0.        0. 
 C                     1.84645   0.        1.4798 
 H                    -0.34685  -1.07462   0.28413 
 H                    -0.31017   0.08329  -0.96949 
 H                     1.76727   0.91745  -0.52543 
 H                     1.87157  -0.8571   -0.56344 
 H                     2.9528    0.00433   1.62919 
 H                     1.40254   0.87503   1.96836 
 H                     1.42042  -0.88889   1.95713 
 
                          Input orientation:                          
 ---------------------------------------------------------------------
 Center     Atomic      Atomic             Coordinates (Angstroms)
 Number     Number       Type             X           Y           Z
 ---------------------------------------------------------------------
      1          7           0        0.000000    0.000000    0.000000
      2          6           0        1.466500    0.000000    0.000000
      3          6           0        1.846450    0.000000    1.479800
      4          1           0       -0.346850   -1.074620    0.284130
      5          1           0       -0.310170    0.083290   -0.969490
      6          1           0        1.767270    0.917450   -0.525430
      7          1           0        1.871570   -0.857100   -0.563440
      8          1           0        2.952800    0.004330    1.629190
      9          1           0        1.402540    0.875030    1.968360
     10          1           0        1.420420   -0.888890    1.957130
 ---------------------------------------------------------------------
                    Distance matrix (angstroms):
                    1          2          3          4          5
     1  N    0.000000
     2  C    1.466500   0.000000
     3  C    2.366260   1.527799   0.000000
     4  H    1.164407   2.126917   2.719375   0.000000
     5  H    1.021300   2.025686   3.264501   1.706946   0.000000
     6  H    2.059377   1.099206   2.206566   3.015499   2.282273
     7  H    2.134212   1.102800   2.215870   2.384759   2.410228
     8  H    3.372433   2.205304   1.116399   3.723038   4.172091
     9  H    2.570455   2.155043   1.096095   3.114182   3.491589
    10  H    2.576446   2.150025   1.095204   2.440629   3.536266
                    6          7          8          9         10
     6  H    0.000000
     7  H    1.778019   0.000000
     8  H    2.623291   2.592054   0.000000
     9  H    2.520678   3.103268   1.810100   0.000000
    10  H    3.089704   2.560824   1.803767   1.764046   0.000000
 Stoichiometry    C2H7N
 Framework group  C1[X(C2H7N)]
 Deg. of freedom    24
 Full point group                 C1      NOp   1
 Largest Abelian subgroup         C1      NOp   1
 Largest concise Abelian subgroup C1      NOp   1
                         Standard orientation:                         
 ---------------------------------------------------------------------
 Center     Atomic      Atomic             Coordinates (Angstroms)
 Number     Number       Type             X           Y           Z
 ---------------------------------------------------------------------
      1          7           0        1.143382   -0.351216   -0.143828
      2          6           0        0.050626    0.603927    0.066434
      3          6           0       -1.217640   -0.242448   -0.030111
      4          1           0        1.255142   -0.971438    0.835293
      5          1           0        2.016632    0.177680   -0.171348
      6          1           0        0.140053    1.345547   -0.739951
      7          1           0        0.157755    1.137247    1.025735
      8          1           0       -2.141656    0.368442    0.109006
      9          1           0       -1.246686   -0.742641   -1.004989
     10          1           0       -1.182837   -1.025198    0.735110
 ---------------------------------------------------------------------
 Rotational constants (GHZ):          29.9174163           9.4160236           8.1290771
 Standard basis: 6-31G(d) (6D, 7F)
 There are    59 symmetry adapted cartesian basis functions of A   symmetry.
 There are    59 symmetry adapted basis functions of A   symmetry.
    59 basis functions,   112 primitive gaussians,    59 cartesian basis functions
    13 alpha electrons       13 beta electrons
       nuclear repulsion energy        82.6697038336 Hartrees.
 NAtoms=   10 NActive=   10 NUniq=   10 SFac= 1.00D+00 NAtFMM=   60 NAOKFM=F Big=F
 Integral buffers will be    131072 words long.
 Raffenetti 2 integral format.
 Two-electron integral symmetry is turned on.
 One-electron integrals computed using PRISM.
 NBasis=    59 RedAO= T EigKep=  5.90D-03  NBF=    59
 NBsUse=    59 1.00D-06 EigRej= -1.00D+00 NBFU=    59
 ExpMin= 1.61D-01 ExpMax= 4.17D+03 ExpMxC= 6.27D+02 IAcc=3 IRadAn=         5 AccDes= 0.00D+00
 Harris functional with IExCor=  402 and IRadAn=       5 diagonalized for initial guess.
 HarFok:  IExCor=  402 AccDes= 0.00D+00 IRadAn=         5 IDoV= 1 UseB2=F ITyADJ=14
 ICtDFT=  3500011 ScaDFX=  1.000000  1.000000  1.000000  1.000000
 FoFCou: FMM=F IPFlag=           0 FMFlag=      100000 FMFlg1=           0
         NFxFlg=           0 DoJE=T BraDBF=F KetDBF=T FulRan=T
         wScrn=  0.000000 ICntrl=       500 IOpCl=  0 I1Cent=   200000004 NGrid=           0
         NMat0=    1 NMatS0=      1 NMatT0=    0 NMatD0=    1 NMtDS0=    0 NMtDT0=    0
 Petite list used in FoFCou.
 Keep R1 ints in memory in canonical form, NReq=5087508.
 Requested convergence on RMS density matrix=1.00D-08 within 128 cycles.
 Requested convergence on MAX density matrix=1.00D-06.
 Requested convergence on             energy=1.00D-06.
 No special actions if energy rises.
 Integral accuracy reduced to 1.0D-05 until final iterations.
 Initial convergence to 1.0D-05 achieved.  Increase integral accuracy.
 SCF Done:  E(RB3LYP) =  -135.155131888     A.U. after   12 cycles
            NFock= 12  Conv=0.26D-08     -V/T= 2.0110

 **********************************************************************

            Population analysis using the SCF density.

 **********************************************************************

 Orbital symmetries:
       Occupied  (A) (A) (A) (A) (A) (A) (A) (A) (A) (A) (A) (A)
                 (A)
       Virtual   (A) (A) (A) (A) (A) (A) (A) (A) (A) (A) (A) (A)
                 (A) (A) (A) (A) (A) (A) (A) (A) (A) (A) (A) (A)
                 (A) (A) (A) (A) (A) (A) (A) (A) (A) (A) (A) (A)
                 (A) (A) (A) (A) (A) (A) (A) (A) (A) (A)
 The electronic state is 1-A.
 Alpha  occ. eigenvalues --  -14.31989 -10.20439 -10.17025  -0.86831  -0.71492
 Alpha  occ. eigenvalues --   -0.59359  -0.47431  -0.45754  -0.39940  -0.36457
 Alpha  occ. eigenvalues --   -0.35198  -0.33924  -0.23502
 Alpha virt. eigenvalues --    0.06234   0.11949   0.13185   0.16162   0.16477
 Alpha virt. eigenvalues --    0.18716   0.20298   0.23685   0.24378   0.53205
 Alpha virt. eigenvalues --    0.55299   0.57345   0.58223   0.67450   0.68311
 Alpha virt. eigenvalues --    0.72613   0.81417   0.83310   0.87031   0.87822
 Alpha virt. eigenvalues --    0.89515   0.90139   0.95143   0.96152   1.00341
 Alpha virt. eigenvalues --    1.08096   1.35943   1.45338   1.51016   1.56484
 Alpha virt. eigenvalues --    1.79422   1.84679   1.91852   1.94766   2.04018
 Alpha virt. eigenvalues --    2.16050   2.19623   2.31706   2.34143   2.35838
 Alpha virt. eigenvalues --    2.44084   2.55813   2.74062   3.75895   4.18567
 Alpha virt. eigenvalues --    4.41692
          Condensed to atoms (all electrons):
               1          2          3          4          5          6
     1  N    6.981994   0.292161  -0.082333   0.283583   0.284805  -0.043488
     2  C    0.292161   4.874284   0.379423  -0.035788  -0.035372   0.381153
     3  C   -0.082333   0.379423   5.083373  -0.004451   0.008374  -0.029189
     4  H    0.283583  -0.035788  -0.004451   0.538475  -0.029012   0.006779
     5  H    0.284805  -0.035372   0.008374  -0.029012   0.487148  -0.004671
     6  H   -0.043488   0.381153  -0.029189   0.006779  -0.004671   0.596673
     7  H   -0.042858   0.373305  -0.045949  -0.009646  -0.003328  -0.046876
     8  H    0.005096  -0.028215   0.354934  -0.000248  -0.000331  -0.001698
     9  H    0.004928  -0.032239   0.374905  -0.000758  -0.000096  -0.005687
    10  H   -0.004852  -0.036447   0.378749   0.006283   0.000014   0.004957
               7          8          9         10
     1  N   -0.042858   0.005096   0.004928  -0.004852
     2  C    0.373305  -0.028215  -0.032239  -0.036447
     3  C   -0.045949   0.354934   0.374905   0.378749
     4  H   -0.009646  -0.000248  -0.000758   0.006283
     5  H   -0.003328  -0.000331  -0.000096   0.000014
     6  H   -0.046876  -0.001698  -0.005687   0.004957
     7  H    0.654380   0.001443   0.005465  -0.005076
     8  H    0.001443   0.593668  -0.025131  -0.028932
     9  H    0.005465  -0.025131   0.547633  -0.032511
    10  H   -0.005076  -0.028932  -0.032511   0.580030
 Mulliken charges:
               1
     1  N   -0.679036
     2  C   -0.132264
     3  C   -0.417836
     4  H    0.244785
     5  H    0.292469
     6  H    0.142048
     7  H    0.119142
     8  H    0.129415
     9  H    0.163493
    10  H    0.137784
 Sum of Mulliken charges =  -0.00000
 Mulliken charges with hydrogens summed into heavy atoms:
               1
     1  N   -0.141782
     2  C    0.128925
     3  C    0.012856
 Electronic spatial extent (au):  <R**2>=            204.5761
 Charge=             -0.0000 electrons
 Dipole moment (field-independent basis, Debye):
    X=              0.4012    Y=              0.8480    Z=              1.1717  Tot=              1.5010
 Quadrupole moment (field-independent basis, Debye-Ang):
   XX=            -19.2706   YY=            -21.0015   ZZ=            -20.7780
   XY=              1.0607   XZ=              1.5684   YZ=             -1.7421
 Traceless Quadrupole moment (field-independent basis, Debye-Ang):
   XX=              1.0794   YY=             -0.6515   ZZ=             -0.4279
   XY=              1.0607   XZ=              1.5684   YZ=             -1.7421
 Octapole moment (field-independent basis, Debye-Ang**2):
  XXX=              8.7887  YYY=              0.0252  ZZZ=              0.8491  XYY=              0.7404
  XXY=              1.8803  XXZ=              1.4190  XZZ=              0.8093  YZZ=             -0.3120
  YYZ=              1.1774  XYZ=             -2.1201
 Hexadecapole moment (field-independent basis, Debye-Ang**3):
 XXXX=           -154.6395 YYYY=            -65.3743 ZZZZ=            -38.2816 XXXY=              0.3705
 XXXZ=              1.1206 YYYX=              0.2114 YYYZ=             -2.7963 ZZZX=              2.2922
 ZZZY=             -1.5362 XXYY=            -38.6222 XXZZ=            -35.0226 YYZZ=            -15.9120
 XXYZ=             -2.3922 YYXZ=              1.6142 ZZXY=              0.5409
 N-N= 8.266970383360D+01 E-N=-4.785238457672D+02  KE= 1.336886815393D+02
 1\1\GINC-NODE86\SP\RB3LYP\6-31G(d)\C2H7N1\YANZ\26-Dec-2024\0\\# b3lyp/
 6-31g(d)\\tmpdir/M2_conf_0_27.gjf\\0,1\N,0,0.,0.,0.\C,0,1.4665,0.,0.\C
 ,0,1.84645,0.,1.4798\H,0,-0.34685,-1.07462,0.28413\H,0,-0.31017,0.0832
 9,-0.96949\H,0,1.76727,0.91745,-0.52543\H,0,1.87157,-0.8571,-0.56344\H
 ,0,2.9528,0.00433,1.62919\H,0,1.40254,0.87503,1.96836\H,0,1.42042,-0.8
 8889,1.95713\\Version=ES64L-G16RevA.03\State=1-A\HF=-135.1551319\RMSD=
 2.597e-09\Dipole=0.1657573,-0.4028021,-0.398743\Quadrupole=-1.0229144,
 0.1960176,0.8268968,1.5406368,0.9291141,-0.1673473\PG=C01 [X(C2H7N1)]\
 \@


 I CLAIM NOT TO HAVE CONTROLLED EVENTS,
 BUT CONFESS PLAINLY THAT EVENTS HAVE CONTROLLED ME.

                                         A. LINCOLN
 Job cpu time:       0 days  0 hours  0 minutes 16.2 seconds.
 Elapsed time:       0 days  0 hours  0 minutes  4.1 seconds.
 File lengths (MBytes):  RWF=      6 Int=      0 D2E=      0 Chk=      1 Scr=      1
 Normal termination of Gaussian 16 at Thu Dec 26 10:41:07 2024.
