 Entering Gaussian System, Link 0=g16
 Initial command:
 /share/apps/gaussian/g16/l1.exe "/tmp/103467.mgr/Gau-49253.inp" -scrdir="/tmp/103467.mgr/"
 Entering Link 1 = /share/apps/gaussian/g16/l1.exe PID=     49254.
  
 Copyright (c) 1988,1990,1992,1993,1995,1998,2003,2009,2016,
            Gaussian, Inc.  All Rights Reserved.
  
 This is part of the Gaussian(R) 16 program.  It is based on
 the Gaussian(R) 09 system (copyright 2009, Gaussian, Inc.),
 the Gaussian(R) 03 system (copyright 2003, Gaussian, Inc.),
 the Gaussian(R) 98 system (copyright 1998, Gaussian, Inc.),
 the Gaussian(R) 94 system (copyright 1995, Gaussian, Inc.),
 the Gaussian 92(TM) system (copyright 1992, Gaussian, Inc.),
 the Gaussian 90(TM) system (copyright 1990, Gaussian, Inc.),
 the Gaussian 88(TM) system (copyright 1988, Gaussian, Inc.),
 the Gaussian 86(TM) system (copyright 1986, Carnegie Mellon
 University), and the Gaussian 82(TM) system (copyright 1983,
 Carnegie Mellon University). Gaussian is a federally registered
 trademark of Gaussian, Inc.
  
 This software contains proprietary and confidential information,
 including trade secrets, belonging to Gaussian, Inc.
  
 This software is provided under written license and may be
 used, copied, transmitted, or stored only in accord with that
 written license.
  
 The following legend is applicable only to US Government
 contracts under FAR:
  
                    RESTRICTED RIGHTS LEGEND
  
 Use, reproduction and disclosure by the US Government is
 subject to restrictions as set forth in subparagraphs (a)
 and (c) of the Commercial Computer Software - Restricted
 Rights clause in FAR 52.227-19.
  
 Gaussian, Inc.
 340 Quinnipiac St., Bldg. 40, Wallingford CT 06492
  
  
 ---------------------------------------------------------------
 Warning -- This program may not be used in any manner that
 competes with the business of Gaussian, Inc. or will provide
 assistance to any competitor of Gaussian, Inc.  The licensee
 of this program is prohibited from giving any competitor of
 Gaussian, Inc. access to this program.  By using this program,
 the user acknowledges that Gaussian, Inc. is engaged in the
 business of creating and licensing software in the field of
 computational chemistry and represents and warrants to the
 licensee that it is not a competitor of Gaussian, Inc. and that
 it will not use this program in any manner prohibited above.
 ---------------------------------------------------------------
  

 Cite this work as:
 Gaussian 16, Revision A.03,
 M. J. Frisch, G. W. Trucks, H. B. Schlegel, G. E. Scuseria, 
 M. A. Robb, J. R. Cheeseman, G. Scalmani, V. Barone, 
 G. A. Petersson, H. Nakatsuji, X. Li, M. Caricato, A. V. Marenich, 
 J. Bloino, B. G. Janesko, R. Gomperts, B. Mennucci, H. P. Hratchian, 
 J. V. Ortiz, A. F. Izmaylov, J. L. Sonnenberg, D. Williams-Young, 
 F. Ding, F. Lipparini, F. Egidi, J. Goings, B. Peng, A. Petrone, 
 T. Henderson, D. Ranasinghe, V. G. Zakrzewski, J. Gao, N. Rega, 
 G. Zheng, W. Liang, M. Hada, M. Ehara, K. Toyota, R. Fukuda, 
 J. Hasegawa, M. Ishida, T. Nakajima, Y. Honda, O. Kitao, H. Nakai, 
 T. Vreven, K. Throssell, J. A. Montgomery, Jr., J. E. Peralta, 
 F. Ogliaro, M. J. Bearpark, J. J. Heyd, E. N. Brothers, K. N. Kudin, 
 V. N. Staroverov, T. A. Keith, R. Kobayashi, J. Normand, 
 K. Raghavachari, A. P. Rendell, J. C. Burant, S. S. Iyengar, 
 J. Tomasi, M. Cossi, J. M. Millam, M. Klene, C. Adamo, R. Cammi, 
 J. W. Ochterski, R. L. Martin, K. Morokuma, O. Farkas, 
 J. B. Foresman, and D. J. Fox, Gaussian, Inc., Wallingford CT, 2016.
 
 ******************************************
 Gaussian 16:  ES64L-G16RevA.03 25-Dec-2016
                26-Dec-2024 
 ******************************************
 %nprocshared=4
 Will use up to    4 processors via shared memory.
 %mem=4GB
 ----------------
 # b3lyp/6-31g(d)
 ----------------
 1/38=1,172=1/1;
 2/12=2,17=6,18=5,40=1/2;
 3/5=1,6=6,7=1,11=2,25=1,30=1,74=-5/1,2,3;
 4//1;
 5/5=2,38=5/2;
 6/7=2,8=2,9=2,10=2,28=1/1;
 99/5=1,9=1/99;
 -----------------------
 tmpdir/M2_conf_0_29.gjf
 -----------------------
 Symbolic Z-matrix:
 Charge =  0 Multiplicity = 1
 H                     0.        0.        0. 
 C                     1.0992    0.        0. 
 C                     1.66831   0.        1.41785 
 H                     1.41461  -0.95608  -0.56138 
 H                     1.4343    0.9087   -0.52739 
 H                     1.38291   0.9184    1.9848 
 H                     1.31441  -0.89      1.95085 
 H                     2.7601   -0.06719   1.36363 
 
                          Input orientation:                          
 ---------------------------------------------------------------------
 Center     Atomic      Atomic             Coordinates (Angstroms)
 Number     Number       Type             X           Y           Z
 ---------------------------------------------------------------------
      1          1           0        0.000000    0.000000    0.000000
      2          6           0        1.099200    0.000000    0.000000
      3          6           0        1.668310    0.000000    1.417850
      4          1           0        1.414610   -0.956080   -0.561380
      5          1           0        1.434300    0.908700   -0.527390
      6          1           0        1.382910    0.918400    1.984800
      7          1           0        1.314410   -0.890000    1.950850
      8          1           0        2.760100   -0.067190    1.363630
 ---------------------------------------------------------------------
                    Distance matrix (angstroms):
                    1          2          3          4          5
     1  H    0.000000
     2  C    1.099200   0.000000
     3  C    2.189419   1.527804   0.000000
     4  H    1.797320   1.152701   2.212646   0.000000
     5  H    1.777946   1.102800   2.159735   1.865194   0.000000
     6  H    2.587534   2.205307   1.116398   3.161916   2.512734
     7  H    2.515072   2.155048   1.096100   2.515096   3.064534
     8  H    3.079311   2.150021   1.095198   2.511201   2.507202
                    6          7          8
     6  H    0.000000
     7  H    1.810015   0.000000
     8  H    1.803855   1.764047   0.000000
 Stoichiometry    C2H6
 Framework group  C1[X(C2H6)]
 Deg. of freedom    18
 Full point group                 C1      NOp   1
 Largest Abelian subgroup         C1      NOp   1
 Largest concise Abelian subgroup C1      NOp   1
                         Standard orientation:                         
 ---------------------------------------------------------------------
 Center     Atomic      Atomic             Coordinates (Angstroms)
 Number     Number       Type             X           Y           Z
 ---------------------------------------------------------------------
      1          1           0        1.174448   -0.224196    0.992464
      2          6           0        0.761692   -0.010803   -0.003697
      3          6           0       -0.766048    0.001020    0.003872
      4          1           0        1.171746    1.025020   -0.299748
      5          1           0        1.116826   -0.798217   -0.689283
      6          1           0       -1.192209   -0.992495    0.282546
      7          1           0       -1.119482    0.766096    0.704713
      8          1           0       -1.125193    0.282492   -0.991742
 ---------------------------------------------------------------------
 Rotational constants (GHZ):          77.1327692          20.1016194          19.8779147
 Standard basis: 6-31G(d) (6D, 7F)
 There are    42 symmetry adapted cartesian basis functions of A   symmetry.
 There are    42 symmetry adapted basis functions of A   symmetry.
    42 basis functions,    80 primitive gaussians,    42 cartesian basis functions
     9 alpha electrons        9 beta electrons
       nuclear repulsion energy        41.9071212284 Hartrees.
 NAtoms=    8 NActive=    8 NUniq=    8 SFac= 1.00D+00 NAtFMM=   60 NAOKFM=F Big=F
 Integral buffers will be    131072 words long.
 Raffenetti 2 integral format.
 Two-electron integral symmetry is turned on.
 One-electron integrals computed using PRISM.
 NBasis=    42 RedAO= T EigKep=  8.40D-03  NBF=    42
 NBsUse=    42 1.00D-06 EigRej= -1.00D+00 NBFU=    42
 ExpMin= 1.61D-01 ExpMax= 3.05D+03 ExpMxC= 4.57D+02 IAcc=3 IRadAn=         5 AccDes= 0.00D+00
 Harris functional with IExCor=  402 and IRadAn=       5 diagonalized for initial guess.
 HarFok:  IExCor=  402 AccDes= 0.00D+00 IRadAn=         5 IDoV= 1 UseB2=F ITyADJ=14
 ICtDFT=  3500011 ScaDFX=  1.000000  1.000000  1.000000  1.000000
 FoFCou: FMM=F IPFlag=           0 FMFlag=      100000 FMFlg1=           0
         NFxFlg=           0 DoJE=T BraDBF=F KetDBF=T FulRan=T
         wScrn=  0.000000 ICntrl=       500 IOpCl=  0 I1Cent=   200000004 NGrid=           0
         NMat0=    1 NMatS0=      1 NMatT0=    0 NMatD0=    1 NMtDS0=    0 NMtDT0=    0
 Petite list used in FoFCou.
 Keep R1 ints in memory in canonical form, NReq=3861446.
 Requested convergence on RMS density matrix=1.00D-08 within 128 cycles.
 Requested convergence on MAX density matrix=1.00D-06.
 Requested convergence on             energy=1.00D-06.
 No special actions if energy rises.
 Integral accuracy reduced to 1.0D-05 until final iterations.
 Initial convergence to 1.0D-05 achieved.  Increase integral accuracy.
 SCF Done:  E(RB3LYP) =  -79.8273302105     A.U. after   10 cycles
            NFock= 10  Conv=0.10D-07     -V/T= 2.0120

 **********************************************************************

            Population analysis using the SCF density.

 **********************************************************************

 Orbital symmetries:
       Occupied  (A) (A) (A) (A) (A) (A) (A) (A) (A)
       Virtual   (A) (A) (A) (A) (A) (A) (A) (A) (A) (A) (A) (A)
                 (A) (A) (A) (A) (A) (A) (A) (A) (A) (A) (A) (A)
                 (A) (A) (A) (A) (A) (A) (A) (A) (A)
 The electronic state is 1-A.
 Alpha  occ. eigenvalues --  -10.17848 -10.17438  -0.74679  -0.60522  -0.43346
 Alpha  occ. eigenvalues --   -0.42769  -0.35892  -0.34068  -0.33532
 Alpha virt. eigenvalues --    0.09954   0.14806   0.16033   0.16423   0.18459
 Alpha virt. eigenvalues --    0.18686   0.23992   0.51080   0.54681   0.55861
 Alpha virt. eigenvalues --    0.62475   0.64547   0.66779   0.85822   0.87704
 Alpha virt. eigenvalues --    0.88280   0.91752   0.92187   0.96679   1.06380
 Alpha virt. eigenvalues --    1.43159   1.52158   1.52728   1.93424   1.97837
 Alpha virt. eigenvalues --    2.00992   2.22470   2.28292   2.30247   2.31159
 Alpha virt. eigenvalues --    2.59030   4.13806   4.35998
          Condensed to atoms (all electrons):
               1          2          3          4          5          6
     1  H    0.578615   0.380353  -0.034861  -0.033471  -0.033068  -0.003171
     2  C    0.380353   5.024146   0.371899   0.376254   0.381394  -0.033863
     3  C   -0.034861   0.371899   5.016893  -0.034694  -0.038663   0.380642
     4  H   -0.033471   0.376254  -0.034694   0.589896  -0.025331   0.004308
     5  H   -0.033068   0.381394  -0.038663  -0.025331   0.573610  -0.003535
     6  H   -0.003171  -0.033863   0.380642   0.004308  -0.003535   0.574124
     7  H   -0.004350  -0.037474   0.382225  -0.003201   0.005054  -0.028874
     8  H    0.004949  -0.037716   0.382920  -0.004366  -0.003922  -0.030173
               7          8
     1  H   -0.004350   0.004949
     2  C   -0.037474  -0.037716
     3  C    0.382225   0.382920
     4  H   -0.003201  -0.004366
     5  H    0.005054  -0.003922
     6  H   -0.028874  -0.030173
     7  H    0.574955  -0.033078
     8  H   -0.033078   0.575382
 Mulliken charges:
               1
     1  H    0.145004
     2  C   -0.424994
     3  C   -0.426361
     4  H    0.130604
     5  H    0.144460
     6  H    0.140541
     7  H    0.144742
     8  H    0.146003
 Sum of Mulliken charges =  -0.00000
 Mulliken charges with hydrogens summed into heavy atoms:
               1
     2  C   -0.004925
     3  C    0.004925
 Electronic spatial extent (au):  <R**2>=            109.9946
 Charge=             -0.0000 electrons
 Dipole moment (field-independent basis, Debye):
    X=             -0.0221    Y=             -0.0089    Z=              0.0150  Tot=              0.0281
 Quadrupole moment (field-independent basis, Debye-Ang):
   XX=            -15.5269   YY=            -14.5931   ZZ=            -14.8316
   XY=              0.0138   XZ=              0.0847   YZ=              0.0404
 Traceless Quadrupole moment (field-independent basis, Debye-Ang):
   XX=             -0.5431   YY=              0.3908   ZZ=              0.1522
   XY=              0.0138   XZ=              0.0847   YZ=              0.0404
 Octapole moment (field-independent basis, Debye-Ang**2):
  XXX=             -0.1498  YYY=             -0.0764  ZZZ=              0.0464  XYY=             -0.0427
  XXY=             -0.0761  XXZ=              0.1620  XZZ=             -0.0617  YZZ=              0.0150
  YYZ=             -0.0366  XYZ=              0.0840
 Hexadecapole moment (field-independent basis, Debye-Ang**3):
 XXXX=            -93.2105 YYYY=            -29.8138 ZZZZ=            -28.8016 XXXY=              0.0437
 XXXZ=              0.3219 YYYX=              0.6975 YYYZ=              0.1213 ZZZX=              1.0920
 ZZZY=              0.0752 XXYY=            -19.1845 XXZZ=            -19.3735 YYZZ=             -9.7639
 XXYZ=             -0.0335 YYXZ=             -0.9293 ZZXY=             -0.8504
 N-N= 4.190712122836D+01 E-N=-2.675496722183D+02  KE= 7.888320797725D+01
 1\1\GINC-NODE86\SP\RB3LYP\6-31G(d)\C2H6\YANZ\26-Dec-2024\0\\# b3lyp/6-
 31g(d)\\tmpdir/M2_conf_0_29.gjf\\0,1\H,0,0.,0.,0.\C,0,1.0992,0.,0.\C,0
 ,1.66831,0.,1.41785\H,0,1.41461,-0.95608,-0.56138\H,0,1.4343,0.9087,-0
 .52739\H,0,1.38291,0.9184,1.9848\H,0,1.31441,-0.89,1.95085\H,0,2.7601,
 -0.06719,1.36363\\Version=ES64L-G16RevA.03\State=1-A\HF=-79.8273302\RM
 SD=9.984e-09\Dipole=-0.0027741,0.0022885,0.010472\Quadrupole=0.0777708
 ,0.2955062,-0.373277,-0.0007957,-0.1356603,0.0186372\PG=C01 [X(C2H6)]\
 \@


 EVERYBODY NEEDS BEAUTY AS WELL AS BREAD, PLACES TO PLAY IN AND PRAY IN,
 WHERE NATURE MAY HEAL AND CHEER AND GIVE STRENGTH TO BODY AND SOUL ALIKE.

                                    -- JOHN MUIR
 Job cpu time:       0 days  0 hours  0 minutes  8.3 seconds.
 Elapsed time:       0 days  0 hours  0 minutes  2.2 seconds.
 File lengths (MBytes):  RWF=      6 Int=      0 D2E=      0 Chk=      1 Scr=      1
 Normal termination of Gaussian 16 at Thu Dec 26 10:41:05 2024.
