 Entering Gaussian System, Link 0=g16
 Initial command:
 /share/apps/gaussian/g16/l1.exe "/tmp/103467.mgr/Gau-48343.inp" -scrdir="/tmp/103467.mgr/"
 Entering Link 1 = /share/apps/gaussian/g16/l1.exe PID=     48348.
  
 Copyright (c) 1988,1990,1992,1993,1995,1998,2003,2009,2016,
            Gaussian, Inc.  All Rights Reserved.
  
 This is part of the Gaussian(R) 16 program.  It is based on
 the Gaussian(R) 09 system (copyright 2009, Gaussian, Inc.),
 the Gaussian(R) 03 system (copyright 2003, Gaussian, Inc.),
 the Gaussian(R) 98 system (copyright 1998, Gaussian, Inc.),
 the Gaussian(R) 94 system (copyright 1995, Gaussian, Inc.),
 the Gaussian 92(TM) system (copyright 1992, Gaussian, Inc.),
 the Gaussian 90(TM) system (copyright 1990, Gaussian, Inc.),
 the Gaussian 88(TM) system (copyright 1988, Gaussian, Inc.),
 the Gaussian 86(TM) system (copyright 1986, Carnegie Mellon
 University), and the Gaussian 82(TM) system (copyright 1983,
 Carnegie Mellon University). Gaussian is a federally registered
 trademark of Gaussian, Inc.
  
 This software contains proprietary and confidential information,
 including trade secrets, belonging to Gaussian, Inc.
  
 This software is provided under written license and may be
 used, copied, transmitted, or stored only in accord with that
 written license.
  
 The following legend is applicable only to US Government
 contracts under FAR:
  
                    RESTRICTED RIGHTS LEGEND
  
 Use, reproduction and disclosure by the US Government is
 subject to restrictions as set forth in subparagraphs (a)
 and (c) of the Commercial Computer Software - Restricted
 Rights clause in FAR 52.227-19.
  
 Gaussian, Inc.
 340 Quinnipiac St., Bldg. 40, Wallingford CT 06492
  
  
 ---------------------------------------------------------------
 Warning -- This program may not be used in any manner that
 competes with the business of Gaussian, Inc. or will provide
 assistance to any competitor of Gaussian, Inc.  The licensee
 of this program is prohibited from giving any competitor of
 Gaussian, Inc. access to this program.  By using this program,
 the user acknowledges that Gaussian, Inc. is engaged in the
 business of creating and licensing software in the field of
 computational chemistry and represents and warrants to the
 licensee that it is not a competitor of Gaussian, Inc. and that
 it will not use this program in any manner prohibited above.
 ---------------------------------------------------------------
  

 Cite this work as:
 Gaussian 16, Revision A.03,
 M. J. Frisch, G. W. Trucks, H. B. Schlegel, G. E. Scuseria, 
 M. A. Robb, J. R. Cheeseman, G. Scalmani, V. Barone, 
 G. A. Petersson, H. Nakatsuji, X. Li, M. Caricato, A. V. Marenich, 
 J. Bloino, B. G. Janesko, R. Gomperts, B. Mennucci, H. P. Hratchian, 
 J. V. Ortiz, A. F. Izmaylov, J. L. Sonnenberg, D. Williams-Young, 
 F. Ding, F. Lipparini, F. Egidi, J. Goings, B. Peng, A. Petrone, 
 T. Henderson, D. Ranasinghe, V. G. Zakrzewski, J. Gao, N. Rega, 
 G. Zheng, W. Liang, M. Hada, M. Ehara, K. Toyota, R. Fukuda, 
 J. Hasegawa, M. Ishida, T. Nakajima, Y. Honda, O. Kitao, H. Nakai, 
 T. Vreven, K. Throssell, J. A. Montgomery, Jr., J. E. Peralta, 
 F. Ogliaro, M. J. Bearpark, J. J. Heyd, E. N. Brothers, K. N. Kudin, 
 V. N. Staroverov, T. A. Keith, R. Kobayashi, J. Normand, 
 K. Raghavachari, A. P. Rendell, J. C. Burant, S. S. Iyengar, 
 J. Tomasi, M. Cossi, J. M. Millam, M. Klene, C. Adamo, R. Cammi, 
 J. W. Ochterski, R. L. Martin, K. Morokuma, O. Farkas, 
 J. B. Foresman, and D. J. Fox, Gaussian, Inc., Wallingford CT, 2016.
 
 ******************************************
 Gaussian 16:  ES64L-G16RevA.03 25-Dec-2016
                26-Dec-2024 
 ******************************************
 %nprocshared=4
 Will use up to    4 processors via shared memory.
 %mem=4GB
 ----------------
 # b3lyp/6-31g(d)
 ----------------
 1/38=1,172=1/1;
 2/12=2,17=6,18=5,40=1/2;
 3/5=1,6=6,7=1,11=2,25=1,30=1,74=-5/1,2,3;
 4//1;
 5/5=2,38=5/2;
 6/7=2,8=2,9=2,10=2,28=1/1;
 99/5=1,9=1/99;
 ----------------------
 tmpdir/M2_conf_0_6.gjf
 ----------------------
 Symbolic Z-matrix:
 Charge =  0 Multiplicity = 1
 C                     0.        0.        0. 
 H                     1.0974    0.        0. 
 H                    -0.34927   0.       -1.00017 
 H                    -0.30301   0.93604   0.49039 
 H                    -0.37468  -0.86866   0.59278 
 
                          Input orientation:                          
 ---------------------------------------------------------------------
 Center     Atomic      Atomic             Coordinates (Angstroms)
 Number     Number       Type             X           Y           Z
 ---------------------------------------------------------------------
      1          6           0        0.000000    0.000000    0.000000
      2          1           0        1.097400    0.000000    0.000000
      3          1           0       -0.349270    0.000000   -1.000170
      4          1           0       -0.303010    0.936040    0.490390
      5          1           0       -0.374680   -0.868660    0.592780
 ---------------------------------------------------------------------
                    Distance matrix (angstroms):
                    1          2          3          4          5
     1  C    0.000000
     2  H    1.097400   0.000000
     3  H    1.059401   1.758748   0.000000
     4  H    1.099304   1.754366   1.760704   0.000000
     5  H    1.116398   1.809137   1.814581   1.809022   0.000000
 Stoichiometry    CH4
 Framework group  C1[X(CH4)]
 Deg. of freedom     9
 Full point group                 C1      NOp   1
 Largest Abelian subgroup         C1      NOp   1
 Largest concise Abelian subgroup C1      NOp   1
                         Standard orientation:                         
 ---------------------------------------------------------------------
 Center     Atomic      Atomic             Coordinates (Angstroms)
 Number     Number       Type             X           Y           Z
 ---------------------------------------------------------------------
      1          6           0        0.003170    0.012330   -0.001352
      2          1           0       -0.368265   -0.416082    0.938215
      3          1           0       -0.412918    0.977573   -0.133664
      4          1           0       -0.357385   -0.651104   -0.800304
      5          1           0        1.119550    0.015631    0.003866
 ---------------------------------------------------------------------
 Rotational constants (GHZ):         162.1225052         155.4433438         154.6858144
 Standard basis: 6-31G(d) (6D, 7F)
 There are    23 symmetry adapted cartesian basis functions of A   symmetry.
 There are    23 symmetry adapted basis functions of A   symmetry.
    23 basis functions,    44 primitive gaussians,    23 cartesian basis functions
     5 alpha electrons        5 beta electrons
       nuclear repulsion energy        13.4022872592 Hartrees.
 NAtoms=    5 NActive=    5 NUniq=    5 SFac= 1.00D+00 NAtFMM=   60 NAOKFM=F Big=F
 Integral buffers will be    131072 words long.
 Raffenetti 2 integral format.
 Two-electron integral symmetry is turned on.
 One-electron integrals computed using PRISM.
 NBasis=    23 RedAO= T EigKep=  1.79D-02  NBF=    23
 NBsUse=    23 1.00D-06 EigRej= -1.00D+00 NBFU=    23
 ExpMin= 1.61D-01 ExpMax= 3.05D+03 ExpMxC= 4.57D+02 IAcc=3 IRadAn=         5 AccDes= 0.00D+00
 Harris functional with IExCor=  402 and IRadAn=       5 diagonalized for initial guess.
 HarFok:  IExCor=  402 AccDes= 0.00D+00 IRadAn=         5 IDoV= 1 UseB2=F ITyADJ=14
 ICtDFT=  3500011 ScaDFX=  1.000000  1.000000  1.000000  1.000000
 FoFCou: FMM=F IPFlag=           0 FMFlag=      100000 FMFlg1=           0
         NFxFlg=           0 DoJE=T BraDBF=F KetDBF=T FulRan=T
         wScrn=  0.000000 ICntrl=       500 IOpCl=  0 I1Cent=   200000004 NGrid=           0
         NMat0=    1 NMatS0=      1 NMatT0=    0 NMatD0=    1 NMtDS0=    0 NMtDT0=    0
 Petite list used in FoFCou.
 Keep R1 ints in memory in canonical form, NReq=3486400.
 Requested convergence on RMS density matrix=1.00D-08 within 128 cycles.
 Requested convergence on MAX density matrix=1.00D-06.
 Requested convergence on             energy=1.00D-06.
 No special actions if energy rises.
 Integral accuracy reduced to 1.0D-05 until final iterations.
 Initial convergence to 1.0D-05 achieved.  Increase integral accuracy.
 SCF Done:  E(RB3LYP) =  -40.5168255591     A.U. after    9 cycles
            NFock=  9  Conv=0.46D-08     -V/T= 2.0110

 **********************************************************************

            Population analysis using the SCF density.

 **********************************************************************

 Orbital symmetries:
       Occupied  (A) (A) (A) (A) (A)
       Virtual   (A) (A) (A) (A) (A) (A) (A) (A) (A) (A) (A) (A)
                 (A) (A) (A) (A) (A) (A)
 The electronic state is 1-A.
 Alpha  occ. eigenvalues --  -10.16689  -0.69078  -0.39774  -0.38723  -0.38224
 Alpha virt. eigenvalues --    0.11736   0.17161   0.17318   0.18478   0.52615
 Alpha virt. eigenvalues --    0.53225   0.54161   0.88434   0.88885   0.91335
 Alpha virt. eigenvalues --    0.95710   1.10132   1.65621   1.65679   2.21317
 Alpha virt. eigenvalues --    2.24478   2.27261   4.17937
          Condensed to atoms (all electrons):
               1          2          3          4          5
     1  C    5.093322   0.382164   0.388346   0.381934   0.382553
     2  H    0.382164   0.546733  -0.028137  -0.029982  -0.025626
     3  H    0.388346  -0.028137   0.525072  -0.027987  -0.023800
     4  H    0.381934  -0.029982  -0.027987   0.547473  -0.025732
     5  H    0.382553  -0.025626  -0.023800  -0.025732   0.539931
 Mulliken charges:
               1
     1  C   -0.628318
     2  H    0.154848
     3  H    0.166505
     4  H    0.154292
     5  H    0.152673
 Sum of Mulliken charges =   0.00000
 Mulliken charges with hydrogens summed into heavy atoms:
               1
     1  C    0.000000
 Electronic spatial extent (au):  <R**2>=             35.4740
 Charge=              0.0000 electrons
 Dipole moment (field-independent basis, Debye):
    X=             -0.0432    Y=             -0.0084    Z=              0.0016  Tot=              0.0440
 Quadrupole moment (field-independent basis, Debye-Ang):
   XX=             -8.1519   YY=             -8.2389   ZZ=             -8.3646
   XY=             -0.0435   XZ=              0.0043   YZ=             -0.0168
 Traceless Quadrupole moment (field-independent basis, Debye-Ang):
   XX=              0.0999   YY=              0.0129   ZZ=             -0.1128
   XY=             -0.0435   XZ=              0.0043   YZ=             -0.0168
 Octapole moment (field-independent basis, Debye-Ang**2):
  XXX=              0.7179  YYY=              0.4755  ZZZ=              0.1901  XYY=             -0.4777
  XXY=              0.0534  XXZ=              0.0030  XZZ=             -0.4067  YZZ=             -0.4569
  YYZ=             -0.1982  XYZ=              0.0130
 Hexadecapole moment (field-independent basis, Debye-Ang**3):
 XXXX=            -15.1215 YYYY=            -14.8460 ZZZZ=            -15.1638 XXXY=             -0.0941
 XXXZ=              0.0145 YYYX=             -0.3598 YYYZ=             -0.0024 ZZZX=             -0.1171
 ZZZY=             -0.0493 XXYY=             -5.2216 XXZZ=             -5.3266 YYZZ=             -4.9378
 XXYZ=             -0.0210 YYXZ=              0.1225 ZZXY=              0.2610
 N-N= 1.340228725919D+01 E-N=-1.198438721171D+02  KE= 4.007516122208D+01
 1\1\GINC-NODE86\SP\RB3LYP\6-31G(d)\C1H4\YANZ\26-Dec-2024\0\\# b3lyp/6-
 31g(d)\\tmpdir/M2_conf_0_6.gjf\\0,1\C,0,0.,0.,0.\H,0,1.0974,0.,0.\H,0,
 -0.34927,0.,-1.00017\H,0,-0.30301,0.93604,0.49039\H,0,-0.37468,-0.8686
 6,0.59278\\Version=ES64L-G16RevA.03\State=1-A\HF=-40.5168256\RMSD=4.59
 0e-09\Dipole=0.0075781,0.0141895,-0.0064347\Quadrupole=-0.0536186,0.00
 35225,0.0500961,0.0422264,0.0089977,-0.0545493\PG=C01 [X(C1H4)]\\@


 THE NUMBERS ARE MEANINGLESS, BUT THE TRENDS ARE IMPORTANT.
     -- LARRY BURGGRAF
 Job cpu time:       0 days  0 hours  0 minutes  5.7 seconds.
 Elapsed time:       0 days  0 hours  0 minutes  1.4 seconds.
 File lengths (MBytes):  RWF=      6 Int=      0 D2E=      0 Chk=      1 Scr=      1
 Normal termination of Gaussian 16 at Thu Dec 26 10:40:54 2024.
