 Entering Gaussian System, Link 0=g16
 Initial command:
 /share/apps/gaussian/g16/l1.exe "/tmp/103467.mgr/Gau-48341.inp" -scrdir="/tmp/103467.mgr/"
 Entering Link 1 = /share/apps/gaussian/g16/l1.exe PID=     48349.
  
 Copyright (c) 1988,1990,1992,1993,1995,1998,2003,2009,2016,
            Gaussian, Inc.  All Rights Reserved.
  
 This is part of the Gaussian(R) 16 program.  It is based on
 the Gaussian(R) 09 system (copyright 2009, Gaussian, Inc.),
 the Gaussian(R) 03 system (copyright 2003, Gaussian, Inc.),
 the Gaussian(R) 98 system (copyright 1998, Gaussian, Inc.),
 the Gaussian(R) 94 system (copyright 1995, Gaussian, Inc.),
 the Gaussian 92(TM) system (copyright 1992, Gaussian, Inc.),
 the Gaussian 90(TM) system (copyright 1990, Gaussian, Inc.),
 the Gaussian 88(TM) system (copyright 1988, Gaussian, Inc.),
 the Gaussian 86(TM) system (copyright 1986, Carnegie Mellon
 University), and the Gaussian 82(TM) system (copyright 1983,
 Carnegie Mellon University). Gaussian is a federally registered
 trademark of Gaussian, Inc.
  
 This software contains proprietary and confidential information,
 including trade secrets, belonging to Gaussian, Inc.
  
 This software is provided under written license and may be
 used, copied, transmitted, or stored only in accord with that
 written license.
  
 The following legend is applicable only to US Government
 contracts under FAR:
  
                    RESTRICTED RIGHTS LEGEND
  
 Use, reproduction and disclosure by the US Government is
 subject to restrictions as set forth in subparagraphs (a)
 and (c) of the Commercial Computer Software - Restricted
 Rights clause in FAR 52.227-19.
  
 Gaussian, Inc.
 340 Quinnipiac St., Bldg. 40, Wallingford CT 06492
  
  
 ---------------------------------------------------------------
 Warning -- This program may not be used in any manner that
 competes with the business of Gaussian, Inc. or will provide
 assistance to any competitor of Gaussian, Inc.  The licensee
 of this program is prohibited from giving any competitor of
 Gaussian, Inc. access to this program.  By using this program,
 the user acknowledges that Gaussian, Inc. is engaged in the
 business of creating and licensing software in the field of
 computational chemistry and represents and warrants to the
 licensee that it is not a competitor of Gaussian, Inc. and that
 it will not use this program in any manner prohibited above.
 ---------------------------------------------------------------
  

 Cite this work as:
 Gaussian 16, Revision A.03,
 M. J. Frisch, G. W. Trucks, H. B. Schlegel, G. E. Scuseria, 
 M. A. Robb, J. R. Cheeseman, G. Scalmani, V. Barone, 
 G. A. Petersson, H. Nakatsuji, X. Li, M. Caricato, A. V. Marenich, 
 J. Bloino, B. G. Janesko, R. Gomperts, B. Mennucci, H. P. Hratchian, 
 J. V. Ortiz, A. F. Izmaylov, J. L. Sonnenberg, D. Williams-Young, 
 F. Ding, F. Lipparini, F. Egidi, J. Goings, B. Peng, A. Petrone, 
 T. Henderson, D. Ranasinghe, V. G. Zakrzewski, J. Gao, N. Rega, 
 G. Zheng, W. Liang, M. Hada, M. Ehara, K. Toyota, R. Fukuda, 
 J. Hasegawa, M. Ishida, T. Nakajima, Y. Honda, O. Kitao, H. Nakai, 
 T. Vreven, K. Throssell, J. A. Montgomery, Jr., J. E. Peralta, 
 F. Ogliaro, M. J. Bearpark, J. J. Heyd, E. N. Brothers, K. N. Kudin, 
 V. N. Staroverov, T. A. Keith, R. Kobayashi, J. Normand, 
 K. Raghavachari, A. P. Rendell, J. C. Burant, S. S. Iyengar, 
 J. Tomasi, M. Cossi, J. M. Millam, M. Klene, C. Adamo, R. Cammi, 
 J. W. Ochterski, R. L. Martin, K. Morokuma, O. Farkas, 
 J. B. Foresman, and D. J. Fox, Gaussian, Inc., Wallingford CT, 2016.
 
 ******************************************
 Gaussian 16:  ES64L-G16RevA.03 25-Dec-2016
                26-Dec-2024 
 ******************************************
 %nprocshared=4
 Will use up to    4 processors via shared memory.
 %mem=4GB
 ----------------
 # b3lyp/6-31g(d)
 ----------------
 1/38=1,172=1/1;
 2/12=2,17=6,18=5,40=1/2;
 3/5=1,6=6,7=1,11=2,25=1,30=1,74=-5/1,2,3;
 4//1;
 5/5=2,38=5/2;
 6/7=2,8=2,9=2,10=2,28=1/1;
 99/5=1,9=1/99;
 ----------------------
 tmpdir/M2_conf_0_8.gjf
 ----------------------
 Symbolic Z-matrix:
 Charge =  0 Multiplicity = 1
 C                     0.        0.        0. 
 C                     1.4634    0.        0. 
 H                     1.80821   0.        1.04382 
 N                    -1.12325  -0.01213  -0.02134 
 H                     1.82593   0.93652  -0.4479 
 H                     1.89961  -0.87026  -0.54655 
 
                          Input orientation:                          
 ---------------------------------------------------------------------
 Center     Atomic      Atomic             Coordinates (Angstroms)
 Number     Number       Type             X           Y           Z
 ---------------------------------------------------------------------
      1          6           0        0.000000    0.000000    0.000000
      2          6           0        1.463400    0.000000    0.000000
      3          1           0        1.808210    0.000000    1.043820
      4          7           0       -1.123250   -0.012130   -0.021340
      5          1           0        1.825930    0.936520   -0.447900
      6          1           0        1.899610   -0.870260   -0.546550
 ---------------------------------------------------------------------
                    Distance matrix (angstroms):
                    1          2          3          4          5
     1  C    0.000000
     2  C    1.463400   0.000000
     3  H    2.087866   1.099297   0.000000
     4  N    1.123518   2.586766   3.119002   0.000000
     5  H    2.100406   1.099596   1.761423   3.127228   0.000000
     6  H    2.159766   1.116400   1.815209   3.185893   1.810971
                    6
     6  H    0.000000
 Stoichiometry    C2H3N
 Framework group  C1[X(C2H3N)]
 Deg. of freedom    12
 Full point group                 C1      NOp   1
 Largest Abelian subgroup         C1      NOp   1
 Largest concise Abelian subgroup C1      NOp   1
                         Standard orientation:                         
 ---------------------------------------------------------------------
 Center     Atomic      Atomic             Coordinates (Angstroms)
 Number     Number       Type             X           Y           Z
 ---------------------------------------------------------------------
      1          6           0       -0.293190   -0.005937   -0.004316
      2          6           0        1.170140    0.007437    0.000842
      3          1           0        1.523339   -0.576315   -0.861097
      4          7           0       -1.416626    0.005827    0.002551
      5          1           0        1.534267   -0.511827    0.899111
      6          1           0        1.597075    1.038353   -0.035026
 ---------------------------------------------------------------------
 Rotational constants (GHZ):         155.4800607           9.3782402           9.3568320
 Standard basis: 6-31G(d) (6D, 7F)
 There are    51 symmetry adapted cartesian basis functions of A   symmetry.
 There are    51 symmetry adapted basis functions of A   symmetry.
    51 basis functions,    96 primitive gaussians,    51 cartesian basis functions
    11 alpha electrons       11 beta electrons
       nuclear repulsion energy        58.9331087489 Hartrees.
 NAtoms=    6 NActive=    6 NUniq=    6 SFac= 1.00D+00 NAtFMM=   60 NAOKFM=F Big=F
 Integral buffers will be    131072 words long.
 Raffenetti 2 integral format.
 Two-electron integral symmetry is turned on.
 One-electron integrals computed using PRISM.
 NBasis=    51 RedAO= T EigKep=  1.46D-03  NBF=    51
 NBsUse=    51 1.00D-06 EigRej= -1.00D+00 NBFU=    51
 ExpMin= 1.61D-01 ExpMax= 4.17D+03 ExpMxC= 6.27D+02 IAcc=3 IRadAn=         5 AccDes= 0.00D+00
 Harris functional with IExCor=  402 and IRadAn=       5 diagonalized for initial guess.
 HarFok:  IExCor=  402 AccDes= 0.00D+00 IRadAn=         5 IDoV= 1 UseB2=F ITyADJ=14
 ICtDFT=  3500011 ScaDFX=  1.000000  1.000000  1.000000  1.000000
 FoFCou: FMM=F IPFlag=           0 FMFlag=      100000 FMFlg1=           0
         NFxFlg=           0 DoJE=T BraDBF=F KetDBF=T FulRan=T
         wScrn=  0.000000 ICntrl=       500 IOpCl=  0 I1Cent=   200000004 NGrid=           0
         NMat0=    1 NMatS0=      1 NMatT0=    0 NMatD0=    1 NMtDS0=    0 NMtDT0=    0
 Petite list used in FoFCou.
 Keep R1 ints in memory in canonical form, NReq=4366138.
 Requested convergence on RMS density matrix=1.00D-08 within 128 cycles.
 Requested convergence on MAX density matrix=1.00D-06.
 Requested convergence on             energy=1.00D-06.
 No special actions if energy rises.
 Integral accuracy reduced to 1.0D-05 until final iterations.
 Initial convergence to 1.0D-05 achieved.  Increase integral accuracy.
 SCF Done:  E(RB3LYP) =  -132.750736920     A.U. after   12 cycles
            NFock= 12  Conv=0.10D-07     -V/T= 2.0086

 **********************************************************************

            Population analysis using the SCF density.

 **********************************************************************

 Orbital symmetries:
       Occupied  (A) (A) (A) (A) (A) (A) (A) (A) (A) (A) (A)
       Virtual   (A) (A) (A) (A) (A) (A) (A) (A) (A) (A) (A) (A)
                 (A) (A) (A) (A) (A) (A) (A) (A) (A) (A) (A) (A)
                 (A) (A) (A) (A) (A) (A) (A) (A) (A) (A) (A) (A)
                 (A) (A) (A) (A)
 The electronic state is 1-A.
 Alpha  occ. eigenvalues --  -14.32415 -10.24230 -10.22300  -0.91560  -0.77386
 Alpha  occ. eigenvalues --   -0.51208  -0.46423  -0.46095  -0.35563  -0.33460
 Alpha  occ. eigenvalues --   -0.33315
 Alpha virt. eigenvalues --    0.04472   0.04913   0.08245   0.16001   0.16335
 Alpha virt. eigenvalues --    0.18830   0.28132   0.52478   0.52975   0.57459
 Alpha virt. eigenvalues --    0.61724   0.64017   0.68715   0.78691   0.80846
 Alpha virt. eigenvalues --    0.80986   0.84786   0.85466   0.88597   1.09139
 Alpha virt. eigenvalues --    1.39035   1.41465   1.42129   1.51207   1.51399
 Alpha virt. eigenvalues --    1.60553   1.89185   1.92227   1.97460   1.98921
 Alpha virt. eigenvalues --    2.16067   2.18248   2.21570   2.78318   2.78691
 Alpha virt. eigenvalues --    2.79245   3.24997   4.02417   4.11579   4.57805
          Condensed to atoms (all electrons):
               1          2          3          4          5          6
     1  C    4.494383   0.312153  -0.025741   0.922387  -0.025477  -0.022208
     2  C    0.312153   5.210993   0.364568  -0.099085   0.366039   0.367194
     3  H   -0.025741   0.364568   0.505427   0.000070  -0.027167  -0.023074
     4  N    0.922387  -0.099085   0.000070   6.618237  -0.000200  -0.000449
     5  H   -0.025477   0.366039  -0.027167  -0.000200   0.503848  -0.023661
     6  H   -0.022208   0.367194  -0.023074  -0.000449  -0.023661   0.496413
 Mulliken charges:
               1
     1  C    0.344504
     2  C   -0.521863
     3  H    0.205917
     4  N   -0.440960
     5  H    0.206618
     6  H    0.205785
 Sum of Mulliken charges =  -0.00000
 Mulliken charges with hydrogens summed into heavy atoms:
               1
     1  C    0.344504
     2  C    0.096457
     4  N   -0.440960
 Electronic spatial extent (au):  <R**2>=            159.3243
 Charge=             -0.0000 electrons
 Dipole moment (field-independent basis, Debye):
    X=              3.7581    Y=             -0.0402    Z=             -0.0038  Tot=              3.7583
 Quadrupole moment (field-independent basis, Debye-Ang):
   XX=            -20.4090   YY=            -17.0538   ZZ=            -17.2309
   XY=              0.0317   XZ=              0.0248   YZ=             -0.0006
 Traceless Quadrupole moment (field-independent basis, Debye-Ang):
   XX=             -2.1778   YY=              1.1775   ZZ=              1.0003
   XY=              0.0317   XZ=              0.0248   YZ=             -0.0006
 Octapole moment (field-independent basis, Debye-Ang**2):
  XXX=             10.6092  YYY=              0.6903  ZZZ=              0.0880  XYY=              1.5918
  XXY=              0.1171  XXZ=              0.0347  XZZ=              1.2474  YZZ=             -0.7887
  YYZ=             -0.0790  XYZ=             -0.0103
 Hexadecapole moment (field-independent basis, Debye-Ang**3):
 XXXX=           -174.2209 YYYY=            -22.4599 ZZZZ=            -22.2480 XXXY=              0.4120
 XXXZ=              0.1390 YYYX=              1.2337 YYYZ=              0.0071 ZZZX=              0.1504
 ZZZY=             -0.0051 XXYY=            -28.7490 XXZZ=            -29.3951 YYZZ=             -7.4038
 XXYZ=             -0.0363 YYXZ=             -0.1287 ZZXY=             -1.2773
 N-N= 5.893310874891D+01 E-N=-4.261596016596D+02  KE= 1.316213111887D+02
 1\1\GINC-NODE86\SP\RB3LYP\6-31G(d)\C2H3N1\YANZ\26-Dec-2024\0\\# b3lyp/
 6-31g(d)\\tmpdir/M2_conf_0_8.gjf\\0,1\C,0,0.,0.,0.\C,0,1.4634,0.,0.\H,
 0,1.80821,0.,1.04382\N,0,-1.12325,-0.01213,-0.02134\H,0,1.82593,0.9365
 2,-0.4479\H,0,1.89961,-0.87026,-0.54655\\Version=ES64L-G16RevA.03\Stat
 e=1-A\HF=-132.7507369\RMSD=9.991e-09\Dipole=1.4783243,0.0204567,0.0220
 379\Quadrupole=-1.6183138,0.8340265,0.7842873,-0.0232569,-0.0481901,0.
 0607347\PG=C01 [X(C2H3N1)]\\@


 BRING ME INTO THE COMPANY OF THOSE WHO SEEK TRUTH,
 AND DELIVER ME FROM THOSE WHO HAVE FOUND IT.
 Job cpu time:       0 days  0 hours  0 minutes  9.7 seconds.
 Elapsed time:       0 days  0 hours  0 minutes  2.6 seconds.
 File lengths (MBytes):  RWF=      6 Int=      0 D2E=      0 Chk=      1 Scr=      1
 Normal termination of Gaussian 16 at Thu Dec 26 10:40:56 2024.
