 Entering Gaussian System, Link 0=g16
 Initial command:
 /share/apps/gaussian/g16/l1.exe "/tmp/103467.mgr/Gau-48656.inp" -scrdir="/tmp/103467.mgr/"
 Entering Link 1 = /share/apps/gaussian/g16/l1.exe PID=     48657.
  
 Copyright (c) 1988,1990,1992,1993,1995,1998,2003,2009,2016,
            Gaussian, Inc.  All Rights Reserved.
  
 This is part of the Gaussian(R) 16 program.  It is based on
 the Gaussian(R) 09 system (copyright 2009, Gaussian, Inc.),
 the Gaussian(R) 03 system (copyright 2003, Gaussian, Inc.),
 the Gaussian(R) 98 system (copyright 1998, Gaussian, Inc.),
 the Gaussian(R) 94 system (copyright 1995, Gaussian, Inc.),
 the Gaussian 92(TM) system (copyright 1992, Gaussian, Inc.),
 the Gaussian 90(TM) system (copyright 1990, Gaussian, Inc.),
 the Gaussian 88(TM) system (copyright 1988, Gaussian, Inc.),
 the Gaussian 86(TM) system (copyright 1986, Carnegie Mellon
 University), and the Gaussian 82(TM) system (copyright 1983,
 Carnegie Mellon University). Gaussian is a federally registered
 trademark of Gaussian, Inc.
  
 This software contains proprietary and confidential information,
 including trade secrets, belonging to Gaussian, Inc.
  
 This software is provided under written license and may be
 used, copied, transmitted, or stored only in accord with that
 written license.
  
 The following legend is applicable only to US Government
 contracts under FAR:
  
                    RESTRICTED RIGHTS LEGEND
  
 Use, reproduction and disclosure by the US Government is
 subject to restrictions as set forth in subparagraphs (a)
 and (c) of the Commercial Computer Software - Restricted
 Rights clause in FAR 52.227-19.
  
 Gaussian, Inc.
 340 Quinnipiac St., Bldg. 40, Wallingford CT 06492
  
  
 ---------------------------------------------------------------
 Warning -- This program may not be used in any manner that
 competes with the business of Gaussian, Inc. or will provide
 assistance to any competitor of Gaussian, Inc.  The licensee
 of this program is prohibited from giving any competitor of
 Gaussian, Inc. access to this program.  By using this program,
 the user acknowledges that Gaussian, Inc. is engaged in the
 business of creating and licensing software in the field of
 computational chemistry and represents and warrants to the
 licensee that it is not a competitor of Gaussian, Inc. and that
 it will not use this program in any manner prohibited above.
 ---------------------------------------------------------------
  

 Cite this work as:
 Gaussian 16, Revision A.03,
 M. J. Frisch, G. W. Trucks, H. B. Schlegel, G. E. Scuseria, 
 M. A. Robb, J. R. Cheeseman, G. Scalmani, V. Barone, 
 G. A. Petersson, H. Nakatsuji, X. Li, M. Caricato, A. V. Marenich, 
 J. Bloino, B. G. Janesko, R. Gomperts, B. Mennucci, H. P. Hratchian, 
 J. V. Ortiz, A. F. Izmaylov, J. L. Sonnenberg, D. Williams-Young, 
 F. Ding, F. Lipparini, F. Egidi, J. Goings, B. Peng, A. Petrone, 
 T. Henderson, D. Ranasinghe, V. G. Zakrzewski, J. Gao, N. Rega, 
 G. Zheng, W. Liang, M. Hada, M. Ehara, K. Toyota, R. Fukuda, 
 J. Hasegawa, M. Ishida, T. Nakajima, Y. Honda, O. Kitao, H. Nakai, 
 T. Vreven, K. Throssell, J. A. Montgomery, Jr., J. E. Peralta, 
 F. Ogliaro, M. J. Bearpark, J. J. Heyd, E. N. Brothers, K. N. Kudin, 
 V. N. Staroverov, T. A. Keith, R. Kobayashi, J. Normand, 
 K. Raghavachari, A. P. Rendell, J. C. Burant, S. S. Iyengar, 
 J. Tomasi, M. Cossi, J. M. Millam, M. Klene, C. Adamo, R. Cammi, 
 J. W. Ochterski, R. L. Martin, K. Morokuma, O. Farkas, 
 J. B. Foresman, and D. J. Fox, Gaussian, Inc., Wallingford CT, 2016.
 
 ******************************************
 Gaussian 16:  ES64L-G16RevA.03 25-Dec-2016
                26-Dec-2024 
 ******************************************
 %nprocshared=4
 Will use up to    4 processors via shared memory.
 %mem=4GB
 ----------------
 # b3lyp/6-31g(d)
 ----------------
 1/38=1,172=1/1;
 2/12=2,17=6,18=5,40=1/2;
 3/5=1,6=6,7=1,11=2,25=1,30=1,74=-5/1,2,3;
 4//1;
 5/5=2,38=5/2;
 6/7=2,8=2,9=2,10=2,28=1/1;
 99/5=1,9=1/99;
 -----------------------
 tmpdir/M2_conf_0_12.gjf
 -----------------------
 Symbolic Z-matrix:
 Charge =  0 Multiplicity = 1
 H                     0.        0.        0. 
 C                     1.0993    0.        0. 
 C                     1.64065   0.        1.44406 
 H                     1.44927  -0.82662  -0.56262 
 H                     1.40239   0.93215  -0.49835 
 H                     1.27247   0.86528   2.02628 
 H                     2.73658   0.01242   1.42955 
 H                     1.33334  -0.92381   1.94565 
 
                          Input orientation:                          
 ---------------------------------------------------------------------
 Center     Atomic      Atomic             Coordinates (Angstroms)
 Number     Number       Type             X           Y           Z
 ---------------------------------------------------------------------
      1          1           0        0.000000    0.000000    0.000000
      2          6           0        1.099300    0.000000    0.000000
      3          6           0        1.640650    0.000000    1.444060
      4          1           0        1.449270   -0.826620   -0.562620
      5          1           0        1.402390    0.932150   -0.498350
      6          1           0        1.272470    0.865280    2.026280
      7          1           0        2.736580    0.012420    1.429550
      8          1           0        1.333340   -0.923810    1.945650
 ---------------------------------------------------------------------
                    Distance matrix (angstroms):
                    1          2          3          4          5
     1  H    0.000000
     2  C    1.099300   0.000000
     3  C    2.185644   1.542196   0.000000
     4  H    1.760746   1.059396   2.178690   0.000000
     5  H    1.756119   1.099600   2.167632   1.760568   0.000000
     6  H    2.544347   2.210092   1.106005   3.097771   2.528855
     7  H    3.087497   2.173581   1.096096   2.515929   2.518485
     8  H    2.533135   2.166507   1.095197   2.512828   3.069608
                    6          7          8
     6  H    0.000000
     7  H    1.796406   0.000000
     8  H    1.791940   1.764077   0.000000
 Stoichiometry    C2H6
 Framework group  C1[X(C2H6)]
 Deg. of freedom    18
 Full point group                 C1      NOp   1
 Largest Abelian subgroup         C1      NOp   1
 Largest concise Abelian subgroup C1      NOp   1
                         Standard orientation:                         
 ---------------------------------------------------------------------
 Center     Atomic      Atomic             Coordinates (Angstroms)
 Number     Number       Type             X           Y           Z
 ---------------------------------------------------------------------
      1          1           0        1.161615    0.582028   -0.840719
      2          6           0        0.770967   -0.010292   -0.001068
      3          6           0       -0.771170    0.003167   -0.000299
      4          1           0        1.166361   -0.991850   -0.051344
      5          1           0        1.135973    0.481252    0.912319
      6          1           0       -1.178126    1.030206    0.052840
      7          1           0       -1.146965   -0.580274    0.848113
      8          1           0       -1.137642   -0.478617   -0.913008
 ---------------------------------------------------------------------
 Rotational constants (GHZ):          79.8518381          19.8565350          19.7899939
 Standard basis: 6-31G(d) (6D, 7F)
 There are    42 symmetry adapted cartesian basis functions of A   symmetry.
 There are    42 symmetry adapted basis functions of A   symmetry.
    42 basis functions,    80 primitive gaussians,    42 cartesian basis functions
     9 alpha electrons        9 beta electrons
       nuclear repulsion energy        42.0938366546 Hartrees.
 NAtoms=    8 NActive=    8 NUniq=    8 SFac= 1.00D+00 NAtFMM=   60 NAOKFM=F Big=F
 Integral buffers will be    131072 words long.
 Raffenetti 2 integral format.
 Two-electron integral symmetry is turned on.
 One-electron integrals computed using PRISM.
 NBasis=    42 RedAO= T EigKep=  8.49D-03  NBF=    42
 NBsUse=    42 1.00D-06 EigRej= -1.00D+00 NBFU=    42
 ExpMin= 1.61D-01 ExpMax= 3.05D+03 ExpMxC= 4.57D+02 IAcc=3 IRadAn=         5 AccDes= 0.00D+00
 Harris functional with IExCor=  402 and IRadAn=       5 diagonalized for initial guess.
 HarFok:  IExCor=  402 AccDes= 0.00D+00 IRadAn=         5 IDoV= 1 UseB2=F ITyADJ=14
 ICtDFT=  3500011 ScaDFX=  1.000000  1.000000  1.000000  1.000000
 FoFCou: FMM=F IPFlag=           0 FMFlag=      100000 FMFlg1=           0
         NFxFlg=           0 DoJE=T BraDBF=F KetDBF=T FulRan=T
         wScrn=  0.000000 ICntrl=       500 IOpCl=  0 I1Cent=   200000004 NGrid=           0
         NMat0=    1 NMatS0=      1 NMatT0=    0 NMatD0=    1 NMtDS0=    0 NMtDT0=    0
 Petite list used in FoFCou.
 Keep R1 ints in memory in canonical form, NReq=3861446.
 Requested convergence on RMS density matrix=1.00D-08 within 128 cycles.
 Requested convergence on MAX density matrix=1.00D-06.
 Requested convergence on             energy=1.00D-06.
 No special actions if energy rises.
 Integral accuracy reduced to 1.0D-05 until final iterations.
 Initial convergence to 1.0D-05 achieved.  Increase integral accuracy.
 SCF Done:  E(RB3LYP) =  -79.8288650518     A.U. after   10 cycles
            NFock= 10  Conv=0.30D-08     -V/T= 2.0106

 **********************************************************************

            Population analysis using the SCF density.

 **********************************************************************

 Orbital symmetries:
       Occupied  (A) (A) (A) (A) (A) (A) (A) (A) (A)
       Virtual   (A) (A) (A) (A) (A) (A) (A) (A) (A) (A) (A) (A)
                 (A) (A) (A) (A) (A) (A) (A) (A) (A) (A) (A) (A)
                 (A) (A) (A) (A) (A) (A) (A) (A) (A)
 The electronic state is 1-A.
 Alpha  occ. eigenvalues --  -10.17338 -10.16939  -0.74665  -0.61197  -0.43500
 Alpha  occ. eigenvalues --   -0.42785  -0.35878  -0.34545  -0.33715
 Alpha virt. eigenvalues --    0.10405   0.15777   0.16573   0.16689   0.18486
 Alpha virt. eigenvalues --    0.19470   0.23702   0.51475   0.54226   0.54625
 Alpha virt. eigenvalues --    0.62389   0.64204   0.66360   0.88259   0.88583
 Alpha virt. eigenvalues --    0.90810   0.91609   0.93187   0.98726   1.06942
 Alpha virt. eigenvalues --    1.43911   1.51207   1.53545   1.92487   1.97349
 Alpha virt. eigenvalues --    2.01036   2.26340   2.28505   2.30142   2.34524
 Alpha virt. eigenvalues --    2.58419   4.14451   4.36707
          Condensed to atoms (all electrons):
               1          2          3          4          5          6
     1  H    0.577574   0.382670  -0.034591  -0.031591  -0.033590  -0.003454
     2  C    0.382670   5.014136   0.373988   0.387632   0.382459  -0.032203
     3  C   -0.034591   0.373988   5.016109  -0.032898  -0.036659   0.382739
     4  H   -0.031591   0.387632  -0.032898   0.556963  -0.031293   0.004322
     5  H   -0.033590   0.382459  -0.036659  -0.031293   0.580121  -0.003571
     6  H   -0.003454  -0.032203   0.382739   0.004322  -0.003571   0.569756
     7  H    0.004734  -0.036154   0.382451  -0.003407  -0.003939  -0.030272
     8  H   -0.003805  -0.037223   0.382126  -0.003458   0.004965  -0.030523
               7          8
     1  H    0.004734  -0.003805
     2  C   -0.036154  -0.037223
     3  C    0.382451   0.382126
     4  H   -0.003407  -0.003458
     5  H   -0.003939   0.004965
     6  H   -0.030272  -0.030523
     7  H    0.575482  -0.033054
     8  H   -0.033054   0.577054
 Mulliken charges:
               1
     1  H    0.142052
     2  C   -0.435306
     3  C   -0.433265
     4  H    0.153730
     5  H    0.141506
     6  H    0.143206
     7  H    0.144157
     8  H    0.143919
 Sum of Mulliken charges =  -0.00000
 Mulliken charges with hydrogens summed into heavy atoms:
               1
     2  C    0.001983
     3  C   -0.001983
 Electronic spatial extent (au):  <R**2>=            109.6671
 Charge=             -0.0000 electrons
 Dipole moment (field-independent basis, Debye):
    X=              0.0178    Y=             -0.0283    Z=             -0.0005  Tot=              0.0334
 Quadrupole moment (field-independent basis, Debye-Ang):
   XX=            -15.3376   YY=            -14.5520   ZZ=            -14.7709
   XY=             -0.0718   XZ=             -0.0319   YZ=              0.0022
 Traceless Quadrupole moment (field-independent basis, Debye-Ang):
   XX=             -0.4507   YY=              0.3349   ZZ=              0.1159
   XY=             -0.0718   XZ=             -0.0319   YZ=              0.0022
 Octapole moment (field-independent basis, Debye-Ang**2):
  XXX=              0.2022  YYY=             -0.0821  ZZZ=             -0.0038  XYY=              0.0334
  XXY=             -0.0467  XXZ=             -0.0276  XZZ=              0.0118  YZZ=             -0.0652
  YYZ=              0.0031  XYZ=              0.0009
 Hexadecapole moment (field-independent basis, Debye-Ang**3):
 XXXX=            -93.0293 YYYY=            -28.5018 ZZZZ=            -28.7008 XXXY=             -0.3708
 XXXZ=             -0.1421 YYYX=             -1.3265 YYYZ=             -0.0146 ZZZX=              0.1659
 ZZZY=              0.0327 XXYY=            -18.9529 XXZZ=            -19.3843 YYZZ=             -9.4695
 XXYZ=             -0.0250 YYXZ=             -0.2155 ZZXY=              1.1338
 N-N= 4.209383665458D+01 E-N=-2.680073192189D+02  KE= 7.899128981426D+01
 1\1\GINC-NODE86\SP\RB3LYP\6-31G(d)\C2H6\YANZ\26-Dec-2024\0\\# b3lyp/6-
 31g(d)\\tmpdir/M2_conf_0_12.gjf\\0,1\H,0,0.,0.,0.\C,0,1.0993,0.,0.\C,0
 ,1.64065,0.,1.44406\H,0,1.44927,-0.82662,-0.56262\H,0,1.40239,0.93215,
 -0.49835\H,0,1.27247,0.86528,2.02628\H,0,2.73658,0.01242,1.42955\H,0,1
 .33334,-0.92381,1.94565\\Version=ES64L-G16RevA.03\State=1-A\HF=-79.828
 8651\RMSD=3.039e-09\Dipole=0.0033867,-0.009148,-0.0088333\Quadrupole=0
 .071304,0.195105,-0.266409,-0.0494912,-0.1663048,0.0842514\PG=C01 [X(C
 2H6)]\\@


 THE SOLUTION TO A PROBLEM CHANGES THE PROBLEM.

                                 -- JOHN PEERS
           PAUL DICKSON'S "THE OFFICIAL RULES"
 Job cpu time:       0 days  0 hours  0 minutes  8.3 seconds.
 Elapsed time:       0 days  0 hours  0 minutes  2.2 seconds.
 File lengths (MBytes):  RWF=      6 Int=      0 D2E=      0 Chk=      1 Scr=      1
 Normal termination of Gaussian 16 at Thu Dec 26 10:40:58 2024.
