 Entering Gaussian System, Link 0=g16
 Initial command:
 /share/apps/gaussian/g16/l1.exe "/tmp/103467.mgr/Gau-49067.inp" -scrdir="/tmp/103467.mgr/"
 Entering Link 1 = /share/apps/gaussian/g16/l1.exe PID=     49068.
  
 Copyright (c) 1988,1990,1992,1993,1995,1998,2003,2009,2016,
            Gaussian, Inc.  All Rights Reserved.
  
 This is part of the Gaussian(R) 16 program.  It is based on
 the Gaussian(R) 09 system (copyright 2009, Gaussian, Inc.),
 the Gaussian(R) 03 system (copyright 2003, Gaussian, Inc.),
 the Gaussian(R) 98 system (copyright 1998, Gaussian, Inc.),
 the Gaussian(R) 94 system (copyright 1995, Gaussian, Inc.),
 the Gaussian 92(TM) system (copyright 1992, Gaussian, Inc.),
 the Gaussian 90(TM) system (copyright 1990, Gaussian, Inc.),
 the Gaussian 88(TM) system (copyright 1988, Gaussian, Inc.),
 the Gaussian 86(TM) system (copyright 1986, Carnegie Mellon
 University), and the Gaussian 82(TM) system (copyright 1983,
 Carnegie Mellon University). Gaussian is a federally registered
 trademark of Gaussian, Inc.
  
 This software contains proprietary and confidential information,
 including trade secrets, belonging to Gaussian, Inc.
  
 This software is provided under written license and may be
 used, copied, transmitted, or stored only in accord with that
 written license.
  
 The following legend is applicable only to US Government
 contracts under FAR:
  
                    RESTRICTED RIGHTS LEGEND
  
 Use, reproduction and disclosure by the US Government is
 subject to restrictions as set forth in subparagraphs (a)
 and (c) of the Commercial Computer Software - Restricted
 Rights clause in FAR 52.227-19.
  
 Gaussian, Inc.
 340 Quinnipiac St., Bldg. 40, Wallingford CT 06492
  
  
 ---------------------------------------------------------------
 Warning -- This program may not be used in any manner that
 competes with the business of Gaussian, Inc. or will provide
 assistance to any competitor of Gaussian, Inc.  The licensee
 of this program is prohibited from giving any competitor of
 Gaussian, Inc. access to this program.  By using this program,
 the user acknowledges that Gaussian, Inc. is engaged in the
 business of creating and licensing software in the field of
 computational chemistry and represents and warrants to the
 licensee that it is not a competitor of Gaussian, Inc. and that
 it will not use this program in any manner prohibited above.
 ---------------------------------------------------------------
  

 Cite this work as:
 Gaussian 16, Revision A.03,
 M. J. Frisch, G. W. Trucks, H. B. Schlegel, G. E. Scuseria, 
 M. A. Robb, J. R. Cheeseman, G. Scalmani, V. Barone, 
 G. A. Petersson, H. Nakatsuji, X. Li, M. Caricato, A. V. Marenich, 
 J. Bloino, B. G. Janesko, R. Gomperts, B. Mennucci, H. P. Hratchian, 
 J. V. Ortiz, A. F. Izmaylov, J. L. Sonnenberg, D. Williams-Young, 
 F. Ding, F. Lipparini, F. Egidi, J. Goings, B. Peng, A. Petrone, 
 T. Henderson, D. Ranasinghe, V. G. Zakrzewski, J. Gao, N. Rega, 
 G. Zheng, W. Liang, M. Hada, M. Ehara, K. Toyota, R. Fukuda, 
 J. Hasegawa, M. Ishida, T. Nakajima, Y. Honda, O. Kitao, H. Nakai, 
 T. Vreven, K. Throssell, J. A. Montgomery, Jr., J. E. Peralta, 
 F. Ogliaro, M. J. Bearpark, J. J. Heyd, E. N. Brothers, K. N. Kudin, 
 V. N. Staroverov, T. A. Keith, R. Kobayashi, J. Normand, 
 K. Raghavachari, A. P. Rendell, J. C. Burant, S. S. Iyengar, 
 J. Tomasi, M. Cossi, J. M. Millam, M. Klene, C. Adamo, R. Cammi, 
 J. W. Ochterski, R. L. Martin, K. Morokuma, O. Farkas, 
 J. B. Foresman, and D. J. Fox, Gaussian, Inc., Wallingford CT, 2016.
 
 ******************************************
 Gaussian 16:  ES64L-G16RevA.03 25-Dec-2016
                26-Dec-2024 
 ******************************************
 %nprocshared=4
 Will use up to    4 processors via shared memory.
 %mem=4GB
 ----------------
 # b3lyp/6-31g(d)
 ----------------
 1/38=1,172=1/1;
 2/12=2,17=6,18=5,40=1/2;
 3/5=1,6=6,7=1,11=2,25=1,30=1,74=-5/1,2,3;
 4//1;
 5/5=2,38=5/2;
 6/7=2,8=2,9=2,10=2,28=1/1;
 99/5=1,9=1/99;
 -----------------------
 tmpdir/M2_conf_0_19.gjf
 -----------------------
 Symbolic Z-matrix:
 Charge =  0 Multiplicity = 1
 H                     0.        0.        0. 
 N                     1.0213    0.        0. 
 C                     1.61357   0.        1.34158 
 H                     1.27332   1.04635  -0.44437 
 H                     1.18429  -0.86911   1.85986 
 H                     1.33072   0.90218   1.90924 
 H                     2.71497  -0.08825   1.29294 
 
                          Input orientation:                          
 ---------------------------------------------------------------------
 Center     Atomic      Atomic             Coordinates (Angstroms)
 Number     Number       Type             X           Y           Z
 ---------------------------------------------------------------------
      1          1           0        0.000000    0.000000    0.000000
      2          7           0        1.021300    0.000000    0.000000
      3          6           0        1.613570    0.000000    1.341580
      4          1           0        1.273320    1.046350   -0.444370
      5          1           0        1.184290   -0.869110    1.859860
      6          1           0        1.330720    0.902180    1.909240
      7          1           0        2.714970   -0.088250    1.292940
 ---------------------------------------------------------------------
                    Distance matrix (angstroms):
                    1          2          3          4          5
     1  H    0.000000
     2  N    1.021300   0.000000
     3  C    2.098439   1.466499   0.000000
     4  H    1.706944   1.164400   2.097674   0.000000
     5  H    2.370016   2.059368   1.099203   2.997731   0.000000
     6  H    2.495985   2.134213   1.102801   2.358720   1.778018
     7  H    3.008412   2.132604   1.106000   2.526642   1.809453
                    6          7
     6  H    0.000000
     7  H    1.810228   0.000000
 Stoichiometry    CH5N
 Framework group  C1[X(CH5N)]
 Deg. of freedom    15
 Full point group                 C1      NOp   1
 Largest Abelian subgroup         C1      NOp   1
 Largest concise Abelian subgroup C1      NOp   1
                         Standard orientation:                         
 ---------------------------------------------------------------------
 Center     Atomic      Atomic             Coordinates (Angstroms)
 Number     Number       Type             X           Y           Z
 ---------------------------------------------------------------------
      1          1           0        1.205349    0.740408    0.421490
      2          7           0        0.742601    0.029220   -0.146956
      3          6           0       -0.714292   -0.004547    0.017181
      4          1           0        1.125894   -0.962151    0.328541
      5          1           0       -1.065165    1.014166   -0.200442
      6          1           0       -0.999536   -0.242678    1.055497
      7          1           0       -1.178997   -0.727008   -0.679479
 ---------------------------------------------------------------------
 Rotational constants (GHZ):          95.6650337          22.6549839          21.7154136
 Standard basis: 6-31G(d) (6D, 7F)
 There are    40 symmetry adapted cartesian basis functions of A   symmetry.
 There are    40 symmetry adapted basis functions of A   symmetry.
    40 basis functions,    76 primitive gaussians,    40 cartesian basis functions
     9 alpha electrons        9 beta electrons
       nuclear repulsion energy        41.3139541129 Hartrees.
 NAtoms=    7 NActive=    7 NUniq=    7 SFac= 1.00D+00 NAtFMM=   60 NAOKFM=F Big=F
 Integral buffers will be    131072 words long.
 Raffenetti 2 integral format.
 Two-electron integral symmetry is turned on.
 One-electron integrals computed using PRISM.
 NBasis=    40 RedAO= T EigKep=  9.12D-03  NBF=    40
 NBsUse=    40 1.00D-06 EigRej= -1.00D+00 NBFU=    40
 ExpMin= 1.61D-01 ExpMax= 4.17D+03 ExpMxC= 6.27D+02 IAcc=3 IRadAn=         5 AccDes= 0.00D+00
 Harris functional with IExCor=  402 and IRadAn=       5 diagonalized for initial guess.
 HarFok:  IExCor=  402 AccDes= 0.00D+00 IRadAn=         5 IDoV= 1 UseB2=F ITyADJ=14
 ICtDFT=  3500011 ScaDFX=  1.000000  1.000000  1.000000  1.000000
 FoFCou: FMM=F IPFlag=           0 FMFlag=      100000 FMFlg1=           0
         NFxFlg=           0 DoJE=T BraDBF=F KetDBF=T FulRan=T
         wScrn=  0.000000 ICntrl=       500 IOpCl=  0 I1Cent=   200000004 NGrid=           0
         NMat0=    1 NMatS0=      1 NMatT0=    0 NMatD0=    1 NMtDS0=    0 NMtDT0=    0
 Petite list used in FoFCou.
 Keep R1 ints in memory in canonical form, NReq=3789243.
 Requested convergence on RMS density matrix=1.00D-08 within 128 cycles.
 Requested convergence on MAX density matrix=1.00D-06.
 Requested convergence on             energy=1.00D-06.
 No special actions if energy rises.
 Integral accuracy reduced to 1.0D-05 until final iterations.
 Initial convergence to 1.0D-05 achieved.  Increase integral accuracy.
 SCF Done:  E(RB3LYP) =  -95.8385984305     A.U. after   11 cycles
            NFock= 11  Conv=0.70D-08     -V/T= 2.0116

 **********************************************************************

            Population analysis using the SCF density.

 **********************************************************************

 Orbital symmetries:
       Occupied  (A) (A) (A) (A) (A) (A) (A) (A) (A)
       Virtual   (A) (A) (A) (A) (A) (A) (A) (A) (A) (A) (A) (A)
                 (A) (A) (A) (A) (A) (A) (A) (A) (A) (A) (A) (A)
                 (A) (A) (A) (A) (A) (A) (A)
 The electronic state is 1-A.
 Alpha  occ. eigenvalues --  -14.32095 -10.20193  -0.85777  -0.64768  -0.46832
 Alpha  occ. eigenvalues --   -0.43289  -0.39949  -0.35260  -0.22867
 Alpha virt. eigenvalues --    0.06310   0.13003   0.13655   0.17577   0.17997
 Alpha virt. eigenvalues --    0.23309   0.54495   0.56646   0.58692   0.72195
 Alpha virt. eigenvalues --    0.75446   0.80161   0.83080   0.87103   0.91851
 Alpha virt. eigenvalues --    0.92260   0.95093   1.06047   1.39940   1.50272
 Alpha virt. eigenvalues --    1.57749   1.86433   2.01073   2.04996   2.16601
 Alpha virt. eigenvalues --    2.29892   2.32366   2.39010   2.65221   3.73786
 Alpha virt. eigenvalues --    4.24143
          Condensed to atoms (all electrons):
               1          2          3          4          5          6
     1  H    0.471084   0.299120  -0.035441  -0.032309  -0.004967  -0.003635
     2  N    0.299120   6.913292   0.304119   0.295462  -0.040415  -0.046798
     3  C   -0.035441   0.304119   4.928232  -0.044545   0.381703   0.373839
     4  H   -0.032309   0.295462  -0.044545   0.540420   0.006561  -0.008733
     5  H   -0.004967  -0.040415   0.381703   0.006561   0.569751  -0.037593
     6  H   -0.003635  -0.046798   0.373839  -0.008733  -0.037593   0.641985
     7  H    0.005459  -0.039508   0.384577  -0.001926  -0.025669  -0.043450
               7
     1  H    0.005459
     2  N   -0.039508
     3  C    0.384577
     4  H   -0.001926
     5  H   -0.025669
     6  H   -0.043450
     7  H    0.563534
 Mulliken charges:
               1
     1  H    0.300688
     2  N   -0.685272
     3  C   -0.292484
     4  H    0.245071
     5  H    0.150628
     6  H    0.124385
     7  H    0.156983
 Sum of Mulliken charges =   0.00000
 Mulliken charges with hydrogens summed into heavy atoms:
               1
     2  N   -0.139513
     3  C    0.139513
 Electronic spatial extent (au):  <R**2>=             96.3522
 Charge=              0.0000 electrons
 Dipole moment (field-independent basis, Debye):
    X=             -0.2969    Y=             -0.0821    Z=              1.5373  Tot=              1.5679
 Quadrupole moment (field-independent basis, Debye-Ang):
   XX=            -13.8962   YY=            -12.5909   ZZ=            -15.1338
   XY=              0.0095   XZ=              2.2504   YZ=              0.2068
 Traceless Quadrupole moment (field-independent basis, Debye-Ang):
   XX=             -0.0226   YY=              1.2828   ZZ=             -1.2602
   XY=              0.0095   XZ=              2.2504   YZ=              0.2068
 Octapole moment (field-independent basis, Debye-Ang**2):
  XXX=              2.6494  YYY=              0.2289  ZZZ=              1.4846  XYY=              1.7187
  XXY=              0.1295  XXZ=              2.1323  XZZ=             -0.4761  YZZ=             -0.2219
  YYZ=              0.5202  XYZ=             -0.0108
 Hexadecapole moment (field-independent basis, Debye-Ang**3):
 XXXX=            -74.7283 YYYY=            -24.2813 ZZZZ=            -24.0531 XXXY=              0.8606
 XXXZ=              4.0645 YYYX=             -0.5691 YYYZ=              0.0863 ZZZX=              1.7613
 ZZZY=              0.3442 XXYY=            -14.5972 XXZZ=            -17.0914 YYZZ=             -8.0472
 XXYZ=              0.5373 YYXZ=              1.7074 ZZXY=              0.5170
 N-N= 4.131395411288D+01 E-N=-3.049942849721D+02  KE= 9.474029507247D+01
 1\1\GINC-NODE86\SP\RB3LYP\6-31G(d)\C1H5N1\YANZ\26-Dec-2024\0\\# b3lyp/
 6-31g(d)\\tmpdir/M2_conf_0_19.gjf\\0,1\H,0,0.,0.,0.\N,0,1.0213,0.,0.\C
 ,0,1.61357,0.,1.34158\H,0,1.27332,1.04635,-0.44437\H,0,1.18429,-0.8691
 1,1.85986\H,0,1.33072,0.90218,1.90924\H,0,2.71497,-0.08825,1.29294\\Ve
 rsion=ES64L-G16RevA.03\State=1-A\HF=-95.8385984\RMSD=7.011e-09\Dipole=
 -0.2612143,0.4602052,0.3169859\Quadrupole=1.1362641,-0.0094123,-1.1268
 518,0.1487191,0.4836212,-1.4765978\PG=C01 [X(C1H5N1)]\\@


 ANYONE WHO IS NOT SHOCKED BY QUANTUM THEORY HAS
 NOT UNDERSTOOD IT. -- NIELS BOHR(1885-1962)
 Job cpu time:       0 days  0 hours  0 minutes  7.8 seconds.
 Elapsed time:       0 days  0 hours  0 minutes  2.1 seconds.
 File lengths (MBytes):  RWF=      6 Int=      0 D2E=      0 Chk=      1 Scr=      1
 Normal termination of Gaussian 16 at Thu Dec 26 10:41:03 2024.
