 Entering Gaussian System, Link 0=g16
 Initial command:
 /share/apps/gaussian/g16/l1.exe "/tmp/103467.mgr/Gau-49467.inp" -scrdir="/tmp/103467.mgr/"
 Entering Link 1 = /share/apps/gaussian/g16/l1.exe PID=     49468.
  
 Copyright (c) 1988,1990,1992,1993,1995,1998,2003,2009,2016,
            Gaussian, Inc.  All Rights Reserved.
  
 This is part of the Gaussian(R) 16 program.  It is based on
 the Gaussian(R) 09 system (copyright 2009, Gaussian, Inc.),
 the Gaussian(R) 03 system (copyright 2003, Gaussian, Inc.),
 the Gaussian(R) 98 system (copyright 1998, Gaussian, Inc.),
 the Gaussian(R) 94 system (copyright 1995, Gaussian, Inc.),
 the Gaussian 92(TM) system (copyright 1992, Gaussian, Inc.),
 the Gaussian 90(TM) system (copyright 1990, Gaussian, Inc.),
 the Gaussian 88(TM) system (copyright 1988, Gaussian, Inc.),
 the Gaussian 86(TM) system (copyright 1986, Carnegie Mellon
 University), and the Gaussian 82(TM) system (copyright 1983,
 Carnegie Mellon University). Gaussian is a federally registered
 trademark of Gaussian, Inc.
  
 This software contains proprietary and confidential information,
 including trade secrets, belonging to Gaussian, Inc.
  
 This software is provided under written license and may be
 used, copied, transmitted, or stored only in accord with that
 written license.
  
 The following legend is applicable only to US Government
 contracts under FAR:
  
                    RESTRICTED RIGHTS LEGEND
  
 Use, reproduction and disclosure by the US Government is
 subject to restrictions as set forth in subparagraphs (a)
 and (c) of the Commercial Computer Software - Restricted
 Rights clause in FAR 52.227-19.
  
 Gaussian, Inc.
 340 Quinnipiac St., Bldg. 40, Wallingford CT 06492
  
  
 ---------------------------------------------------------------
 Warning -- This program may not be used in any manner that
 competes with the business of Gaussian, Inc. or will provide
 assistance to any competitor of Gaussian, Inc.  The licensee
 of this program is prohibited from giving any competitor of
 Gaussian, Inc. access to this program.  By using this program,
 the user acknowledges that Gaussian, Inc. is engaged in the
 business of creating and licensing software in the field of
 computational chemistry and represents and warrants to the
 licensee that it is not a competitor of Gaussian, Inc. and that
 it will not use this program in any manner prohibited above.
 ---------------------------------------------------------------
  

 Cite this work as:
 Gaussian 16, Revision A.03,
 M. J. Frisch, G. W. Trucks, H. B. Schlegel, G. E. Scuseria, 
 M. A. Robb, J. R. Cheeseman, G. Scalmani, V. Barone, 
 G. A. Petersson, H. Nakatsuji, X. Li, M. Caricato, A. V. Marenich, 
 J. Bloino, B. G. Janesko, R. Gomperts, B. Mennucci, H. P. Hratchian, 
 J. V. Ortiz, A. F. Izmaylov, J. L. Sonnenberg, D. Williams-Young, 
 F. Ding, F. Lipparini, F. Egidi, J. Goings, B. Peng, A. Petrone, 
 T. Henderson, D. Ranasinghe, V. G. Zakrzewski, J. Gao, N. Rega, 
 G. Zheng, W. Liang, M. Hada, M. Ehara, K. Toyota, R. Fukuda, 
 J. Hasegawa, M. Ishida, T. Nakajima, Y. Honda, O. Kitao, H. Nakai, 
 T. Vreven, K. Throssell, J. A. Montgomery, Jr., J. E. Peralta, 
 F. Ogliaro, M. J. Bearpark, J. J. Heyd, E. N. Brothers, K. N. Kudin, 
 V. N. Staroverov, T. A. Keith, R. Kobayashi, J. Normand, 
 K. Raghavachari, A. P. Rendell, J. C. Burant, S. S. Iyengar, 
 J. Tomasi, M. Cossi, J. M. Millam, M. Klene, C. Adamo, R. Cammi, 
 J. W. Ochterski, R. L. Martin, K. Morokuma, O. Farkas, 
 J. B. Foresman, and D. J. Fox, Gaussian, Inc., Wallingford CT, 2016.
 
 ******************************************
 Gaussian 16:  ES64L-G16RevA.03 25-Dec-2016
                26-Dec-2024 
 ******************************************
 %nprocshared=4
 Will use up to    4 processors via shared memory.
 %mem=4GB
 ----------------
 # b3lyp/6-31g(d)
 ----------------
 1/38=1,172=1/1;
 2/12=2,17=6,18=5,40=1/2;
 3/5=1,6=6,7=1,11=2,25=1,30=1,74=-5/1,2,3;
 4//1;
 5/5=2,38=5/2;
 6/7=2,8=2,9=2,10=2,28=1/1;
 99/5=1,9=1/99;
 -----------------------
 tmpdir/M2_conf_0_36.gjf
 -----------------------
 Symbolic Z-matrix:
 Charge =  0 Multiplicity = 1
 C                     0.        0.        0. 
 C                     1.5278    0.        0. 
 H                     1.88972   0.        1.03463 
 H                    -0.41722  -0.90907   0.57292 
 H                    -0.38099   0.8872    0.52532 
 H                    -0.37863   0.03506  -1.03517 
 H                     1.94764   0.87755  -0.54772 
 H                     1.88418  -0.92346  -0.4687 
 
                          Input orientation:                          
 ---------------------------------------------------------------------
 Center     Atomic      Atomic             Coordinates (Angstroms)
 Number     Number       Type             X           Y           Z
 ---------------------------------------------------------------------
      1          6           0        0.000000    0.000000    0.000000
      2          6           0        1.527800    0.000000    0.000000
      3          1           0        1.889720    0.000000    1.034630
      4          1           0       -0.417220   -0.909070    0.572920
      5          1           0       -0.380990    0.887200    0.525320
      6          1           0       -0.378630    0.035060   -1.035170
      7          1           0        1.947640    0.877550   -0.547720
      8          1           0        1.884180   -0.923460   -0.468700
 ---------------------------------------------------------------------
                    Distance matrix (angstroms):
                    1          2          3          4          5
     1  C    0.000000
     2  C    1.527800   0.000000
     3  H    2.154414   1.096105   0.000000
     4  H    1.152700   2.222104   2.522213   0.000000
     5  H    1.099199   2.169462   2.490511   1.797266   0.000000
     6  H    1.102800   2.169627   3.070947   1.865161   1.777998
     7  H    2.205310   1.116404   1.810326   3.168660   2.563986
     8  H    2.150021   1.095201   1.764316   2.526187   3.065544
                    6          7          8
     6  H    0.000000
     7  H    2.521692   0.000000
     8  H    2.521896   1.803859   0.000000
 Stoichiometry    C2H6
 Framework group  C1[X(C2H6)]
 Deg. of freedom    18
 Full point group                 C1      NOp   1
 Largest Abelian subgroup         C1      NOp   1
 Largest concise Abelian subgroup C1      NOp   1
                         Standard orientation:                         
 ---------------------------------------------------------------------
 Center     Atomic      Atomic             Coordinates (Angstroms)
 Number     Number       Type             X           Y           Z
 ---------------------------------------------------------------------
      1          6           0        0.761674   -0.010620   -0.005127
      2          6           0       -0.766062    0.001523    0.001772
      3          1           0       -1.118737    0.770724    0.698475
      4          1           0        1.185801    1.021139   -0.295483
      5          1           0        1.145565   -0.220592    1.003227
      6          1           0        1.130984   -0.803908   -0.676298
      7          1           0       -1.192521   -0.990375    0.285722
      8          1           0       -1.124766    0.277596   -0.995514
 ---------------------------------------------------------------------
 Rotational constants (GHZ):          77.1151716          20.1034118          19.8812819
 Standard basis: 6-31G(d) (6D, 7F)
 There are    42 symmetry adapted cartesian basis functions of A   symmetry.
 There are    42 symmetry adapted basis functions of A   symmetry.
    42 basis functions,    80 primitive gaussians,    42 cartesian basis functions
     9 alpha electrons        9 beta electrons
       nuclear repulsion energy        41.9081815826 Hartrees.
 NAtoms=    8 NActive=    8 NUniq=    8 SFac= 1.00D+00 NAtFMM=   60 NAOKFM=F Big=F
 Integral buffers will be    131072 words long.
 Raffenetti 2 integral format.
 Two-electron integral symmetry is turned on.
 One-electron integrals computed using PRISM.
 NBasis=    42 RedAO= T EigKep=  8.38D-03  NBF=    42
 NBsUse=    42 1.00D-06 EigRej= -1.00D+00 NBFU=    42
 ExpMin= 1.61D-01 ExpMax= 3.05D+03 ExpMxC= 4.57D+02 IAcc=3 IRadAn=         5 AccDes= 0.00D+00
 Harris functional with IExCor=  402 and IRadAn=       5 diagonalized for initial guess.
 HarFok:  IExCor=  402 AccDes= 0.00D+00 IRadAn=         5 IDoV= 1 UseB2=F ITyADJ=14
 ICtDFT=  3500011 ScaDFX=  1.000000  1.000000  1.000000  1.000000
 FoFCou: FMM=F IPFlag=           0 FMFlag=      100000 FMFlg1=           0
         NFxFlg=           0 DoJE=T BraDBF=F KetDBF=T FulRan=T
         wScrn=  0.000000 ICntrl=       500 IOpCl=  0 I1Cent=   200000004 NGrid=           0
         NMat0=    1 NMatS0=      1 NMatT0=    0 NMatD0=    1 NMtDS0=    0 NMtDT0=    0
 Petite list used in FoFCou.
 Keep R1 ints in memory in canonical form, NReq=3861446.
 Requested convergence on RMS density matrix=1.00D-08 within 128 cycles.
 Requested convergence on MAX density matrix=1.00D-06.
 Requested convergence on             energy=1.00D-06.
 No special actions if energy rises.
 Integral accuracy reduced to 1.0D-05 until final iterations.
 Initial convergence to 1.0D-05 achieved.  Increase integral accuracy.
 SCF Done:  E(RB3LYP) =  -79.8273247493     A.U. after   11 cycles
            NFock= 11  Conv=0.88D-09     -V/T= 2.0120

 **********************************************************************

            Population analysis using the SCF density.

 **********************************************************************

 Orbital symmetries:
       Occupied  (A) (A) (A) (A) (A) (A) (A) (A) (A)
       Virtual   (A) (A) (A) (A) (A) (A) (A) (A) (A) (A) (A) (A)
                 (A) (A) (A) (A) (A) (A) (A) (A) (A) (A) (A) (A)
                 (A) (A) (A) (A) (A) (A) (A) (A) (A)
 The electronic state is 1-A.
 Alpha  occ. eigenvalues --  -10.17845 -10.17436  -0.74682  -0.60514  -0.43337
 Alpha  occ. eigenvalues --   -0.42777  -0.35854  -0.34112  -0.33522
 Alpha virt. eigenvalues --    0.09962   0.14728   0.16119   0.16412   0.18389
 Alpha virt. eigenvalues --    0.18760   0.23979   0.51074   0.54789   0.55727
 Alpha virt. eigenvalues --    0.62252   0.64798   0.66809   0.85888   0.87782
 Alpha virt. eigenvalues --    0.88105   0.91797   0.92177   0.96699   1.06417
 Alpha virt. eigenvalues --    1.43457   1.51796   1.52876   1.93384   1.97576
 Alpha virt. eigenvalues --    2.01371   2.22343   2.28464   2.30469   2.30754
 Alpha virt. eigenvalues --    2.59060   4.13818   4.36011
          Condensed to atoms (all electrons):
               1          2          3          4          5          6
     1  C    5.024445   0.371827  -0.037280   0.376328   0.380204   0.381516
     2  C    0.371827   5.017004   0.382409  -0.033766  -0.036934  -0.037610
     3  H   -0.037280   0.382409   0.574721  -0.003168  -0.004557   0.004967
     4  H    0.376328  -0.033766  -0.003168   0.588538  -0.033270  -0.025687
     5  H    0.380204  -0.036934  -0.004557  -0.033270   0.581041  -0.032843
     6  H    0.381516  -0.037610   0.004967  -0.025687  -0.032843   0.572215
     7  H   -0.033641   0.380768  -0.028965   0.004230  -0.003323  -0.003490
     8  H   -0.038202   0.382638  -0.032995  -0.004223   0.005132  -0.003789
               7          8
     1  C   -0.033641  -0.038202
     2  C    0.380768   0.382638
     3  H   -0.028965  -0.032995
     4  H    0.004230  -0.004223
     5  H   -0.003323   0.005132
     6  H   -0.003490  -0.003789
     7  H    0.573810  -0.030109
     8  H   -0.030109   0.575895
 Mulliken charges:
               1
     1  C   -0.425197
     2  C   -0.426337
     3  H    0.144870
     4  H    0.131018
     5  H    0.144550
     6  H    0.144721
     7  H    0.140721
     8  H    0.145654
 Sum of Mulliken charges =   0.00000
 Mulliken charges with hydrogens summed into heavy atoms:
               1
     1  C   -0.004908
     2  C    0.004908
 Electronic spatial extent (au):  <R**2>=            109.9862
 Charge=              0.0000 electrons
 Dipole moment (field-independent basis, Debye):
    X=             -0.0219    Y=             -0.0101    Z=              0.0219  Tot=              0.0326
 Quadrupole moment (field-independent basis, Debye-Ang):
   XX=            -15.5317   YY=            -14.5868   ZZ=            -14.8337
   XY=              0.0246   XZ=              0.0416   YZ=              0.0427
 Traceless Quadrupole moment (field-independent basis, Debye-Ang):
   XX=             -0.5476   YY=              0.3972   ZZ=              0.1504
   XY=              0.0246   XZ=              0.0416   YZ=              0.0427
 Octapole moment (field-independent basis, Debye-Ang**2):
  XXX=             -0.1556  YYY=             -0.0823  ZZZ=              0.0692  XYY=             -0.0233
  XXY=             -0.0640  XXZ=              0.1003  XZZ=             -0.0767  YZZ=              0.0143
  YYZ=             -0.0273  XYZ=              0.0927
 Hexadecapole moment (field-independent basis, Debye-Ang**3):
 XXXX=            -93.2233 YYYY=            -29.7954 ZZZZ=            -28.7928 XXXY=              0.0922
 XXXZ=              0.1371 YYYX=              0.6916 YYYZ=              0.1342 ZZZX=              1.0595
 ZZZY=              0.0628 XXYY=            -19.1242 XXZZ=            -19.4259 YYZZ=             -9.7745
 XXYZ=             -0.0086 YYXZ=             -0.9572 ZZXY=             -0.8319
 N-N= 4.190818158265D+01 E-N=-2.675521475500D+02  KE= 7.888326152837D+01
 1\1\GINC-NODE86\SP\RB3LYP\6-31G(d)\C2H6\YANZ\26-Dec-2024\0\\# b3lyp/6-
 31g(d)\\tmpdir/M2_conf_0_36.gjf\\0,1\C,0,0.,0.,0.\C,0,1.5278,0.,0.\H,0
 ,1.88972,0.,1.03463\H,0,-0.41722,-0.90907,0.57292\H,0,-0.38099,0.8872,
 0.52532\H,0,-0.37863,0.03506,-1.03517\H,0,1.94764,0.87755,-0.54772\H,0
 ,1.88418,-0.92346,-0.4687\\Version=ES64L-G16RevA.03\State=1-A\HF=-79.8
 273247\RMSD=8.778e-10\Dipole=0.0086256,0.0090773,0.0027794\Quadrupole=
 -0.4076451,0.1629896,0.2446556,-0.0125686,-0.0283585,-0.0882011\PG=C01
  [X(C2H6)]\\@


 I CLAIM NOT TO HAVE CONTROLLED EVENTS,
 BUT CONFESS PLAINLY THAT EVENTS HAVE CONTROLLED ME.

                                         A. LINCOLN
 Job cpu time:       0 days  0 hours  0 minutes  9.2 seconds.
 Elapsed time:       0 days  0 hours  0 minutes  2.4 seconds.
 File lengths (MBytes):  RWF=      6 Int=      0 D2E=      0 Chk=      1 Scr=      1
 Normal termination of Gaussian 16 at Thu Dec 26 10:41:07 2024.
