 Entering Gaussian System, Link 0=g16
 Initial command:
 /share/apps/gaussian/g16/l1.exe "/tmp/103467.mgr/Gau-49565.inp" -scrdir="/tmp/103467.mgr/"
 Entering Link 1 = /share/apps/gaussian/g16/l1.exe PID=     49566.
  
 Copyright (c) 1988,1990,1992,1993,1995,1998,2003,2009,2016,
            Gaussian, Inc.  All Rights Reserved.
  
 This is part of the Gaussian(R) 16 program.  It is based on
 the Gaussian(R) 09 system (copyright 2009, Gaussian, Inc.),
 the Gaussian(R) 03 system (copyright 2003, Gaussian, Inc.),
 the Gaussian(R) 98 system (copyright 1998, Gaussian, Inc.),
 the Gaussian(R) 94 system (copyright 1995, Gaussian, Inc.),
 the Gaussian 92(TM) system (copyright 1992, Gaussian, Inc.),
 the Gaussian 90(TM) system (copyright 1990, Gaussian, Inc.),
 the Gaussian 88(TM) system (copyright 1988, Gaussian, Inc.),
 the Gaussian 86(TM) system (copyright 1986, Carnegie Mellon
 University), and the Gaussian 82(TM) system (copyright 1983,
 Carnegie Mellon University). Gaussian is a federally registered
 trademark of Gaussian, Inc.
  
 This software contains proprietary and confidential information,
 including trade secrets, belonging to Gaussian, Inc.
  
 This software is provided under written license and may be
 used, copied, transmitted, or stored only in accord with that
 written license.
  
 The following legend is applicable only to US Government
 contracts under FAR:
  
                    RESTRICTED RIGHTS LEGEND
  
 Use, reproduction and disclosure by the US Government is
 subject to restrictions as set forth in subparagraphs (a)
 and (c) of the Commercial Computer Software - Restricted
 Rights clause in FAR 52.227-19.
  
 Gaussian, Inc.
 340 Quinnipiac St., Bldg. 40, Wallingford CT 06492
  
  
 ---------------------------------------------------------------
 Warning -- This program may not be used in any manner that
 competes with the business of Gaussian, Inc. or will provide
 assistance to any competitor of Gaussian, Inc.  The licensee
 of this program is prohibited from giving any competitor of
 Gaussian, Inc. access to this program.  By using this program,
 the user acknowledges that Gaussian, Inc. is engaged in the
 business of creating and licensing software in the field of
 computational chemistry and represents and warrants to the
 licensee that it is not a competitor of Gaussian, Inc. and that
 it will not use this program in any manner prohibited above.
 ---------------------------------------------------------------
  

 Cite this work as:
 Gaussian 16, Revision A.03,
 M. J. Frisch, G. W. Trucks, H. B. Schlegel, G. E. Scuseria, 
 M. A. Robb, J. R. Cheeseman, G. Scalmani, V. Barone, 
 G. A. Petersson, H. Nakatsuji, X. Li, M. Caricato, A. V. Marenich, 
 J. Bloino, B. G. Janesko, R. Gomperts, B. Mennucci, H. P. Hratchian, 
 J. V. Ortiz, A. F. Izmaylov, J. L. Sonnenberg, D. Williams-Young, 
 F. Ding, F. Lipparini, F. Egidi, J. Goings, B. Peng, A. Petrone, 
 T. Henderson, D. Ranasinghe, V. G. Zakrzewski, J. Gao, N. Rega, 
 G. Zheng, W. Liang, M. Hada, M. Ehara, K. Toyota, R. Fukuda, 
 J. Hasegawa, M. Ishida, T. Nakajima, Y. Honda, O. Kitao, H. Nakai, 
 T. Vreven, K. Throssell, J. A. Montgomery, Jr., J. E. Peralta, 
 F. Ogliaro, M. J. Bearpark, J. J. Heyd, E. N. Brothers, K. N. Kudin, 
 V. N. Staroverov, T. A. Keith, R. Kobayashi, J. Normand, 
 K. Raghavachari, A. P. Rendell, J. C. Burant, S. S. Iyengar, 
 J. Tomasi, M. Cossi, J. M. Millam, M. Klene, C. Adamo, R. Cammi, 
 J. W. Ochterski, R. L. Martin, K. Morokuma, O. Farkas, 
 J. B. Foresman, and D. J. Fox, Gaussian, Inc., Wallingford CT, 2016.
 
 ******************************************
 Gaussian 16:  ES64L-G16RevA.03 25-Dec-2016
                26-Dec-2024 
 ******************************************
 %nprocshared=4
 Will use up to    4 processors via shared memory.
 %mem=4GB
 ----------------
 # b3lyp/6-31g(d)
 ----------------
 1/38=1,172=1/1;
 2/12=2,17=6,18=5,40=1/2;
 3/5=1,6=6,7=1,11=2,25=1,30=1,74=-5/1,2,3;
 4//1;
 5/5=2,38=5/2;
 6/7=2,8=2,9=2,10=2,28=1/1;
 99/5=1,9=1/99;
 -----------------------
 tmpdir/M2_conf_0_39.gjf
 -----------------------
 Symbolic Z-matrix:
 Charge =  0 Multiplicity = 1
 C                    -2.58198  -0.0458    0.06552 
 C                    -1.35441   0.7147    0.303 
 C                    -0.09371   0.00656  -0.23322 
 C                    -0.43897  -1.20947  -1.09129 
 N                    -3.50723  -0.63397  -0.12109 
 H                    -1.24209   0.89544   1.38155 
 H                    -1.44664   1.70669  -0.16249 
 H                     0.53956  -0.30823   0.60422 
 H                     0.48997   0.71234  -0.83373 
 H                     0.51332  -1.72959  -1.48024 
 H                    -0.96851  -1.9621   -0.49005 
 H                    -1.1049   -0.91228  -1.9185 
 
                          Input orientation:                          
 ---------------------------------------------------------------------
 Center     Atomic      Atomic             Coordinates (Angstroms)
 Number     Number       Type             X           Y           Z
 ---------------------------------------------------------------------
      1          6           0       -2.581980   -0.045800    0.065520
      2          6           0       -1.354410    0.714700    0.303000
      3          6           0       -0.093710    0.006560   -0.233220
      4          6           0       -0.438970   -1.209470   -1.091290
      5          7           0       -3.507230   -0.633970   -0.121090
      6          1           0       -1.242090    0.895440    1.381550
      7          1           0       -1.446640    1.706690   -0.162490
      8          1           0        0.539560   -0.308230    0.604220
      9          1           0        0.489970    0.712340   -0.833730
     10          1           0        0.513320   -1.729590   -1.480240
     11          1           0       -0.968510   -1.962100   -0.490050
     12          1           0       -1.104900   -0.912280   -1.918500
 ---------------------------------------------------------------------
                    Distance matrix (angstroms):
                    1          2          3          4          5
     1  C    0.000000
     2  C    1.463450   0.000000
     3  C    2.506686   1.542193   0.000000
     4  C    2.699042   2.546469   1.527815   0.000000
     5  N    1.112140   2.575538   3.474906   3.269053   0.000000
     6  H    2.100755   1.099342   2.171720   3.345233   3.118955
     7  H    2.100525   1.099651   2.173905   3.222120   3.118723
     8  H    3.178534   2.173532   1.096097   2.155112   4.124159
     9  H    3.289423   2.166541   1.095180   2.150028   4.277618
    10  H    3.847779   3.555688   2.222107   1.152677   4.383206
    11  H    2.565960   2.818352   2.169530   1.099252   2.888799
    12  H    2.620856   2.764847   2.169549   1.102752   3.013192
                    6          7          8          9         10
     6  H    0.000000
     7  H    1.756140   0.000000
     8  H    2.286338   2.931337   0.000000
     9  H    2.817982   2.278103   1.764008   0.000000
    10  H    4.261700   4.169644   2.523079   2.526172   0.000000
    11  H    3.426845   3.714286   2.491383   3.065601   1.797319
    12  H    3.765236   3.171650   3.071358   2.521850   1.865128
                   11         12
    11  H    0.000000
    12  H    1.777975   0.000000
 Stoichiometry    C4H7N
 Framework group  C1[X(C4H7N)]
 Deg. of freedom    30
 Full point group                 C1      NOp   1
 Largest Abelian subgroup         C1      NOp   1
 Largest concise Abelian subgroup C1      NOp   1
                         Standard orientation:                         
 ---------------------------------------------------------------------
 Center     Atomic      Atomic             Coordinates (Angstroms)
 Number     Number       Type             X           Y           Z
 ---------------------------------------------------------------------
      1          6           0        1.198941    0.114183    0.001588
      2          6           0        0.119539    1.101466    0.044601
      3          6           0       -1.281928    0.467028   -0.063736
      4          6           0       -1.232761   -1.056261    0.042998
      5          7           0        2.009617   -0.646404   -0.032549
      6          1           0        0.257470    1.826093   -0.770534
      7          1           0        0.192474    1.678015    0.978144
      8          1           0       -1.744364    0.749308   -1.016574
      9          1           0       -1.919722    0.859868    0.735211
     10          1           0       -2.286678   -1.514855   -0.044263
     11          1           0       -0.651422   -1.477970   -0.789203
     12          1           0       -0.737826   -1.354127    0.982347
 ---------------------------------------------------------------------
 Rotational constants (GHZ):           9.1620101           3.9061993           2.8908793
 Standard basis: 6-31G(d) (6D, 7F)
 There are    89 symmetry adapted cartesian basis functions of A   symmetry.
 There are    89 symmetry adapted basis functions of A   symmetry.
    89 basis functions,   168 primitive gaussians,    89 cartesian basis functions
    19 alpha electrons       19 beta electrons
       nuclear repulsion energy       160.2456642463 Hartrees.
 NAtoms=   12 NActive=   12 NUniq=   12 SFac= 1.00D+00 NAtFMM=   60 NAOKFM=F Big=F
 Integral buffers will be    131072 words long.
 Raffenetti 2 integral format.
 Two-electron integral symmetry is turned on.
 One-electron integrals computed using PRISM.
 NBasis=    89 RedAO= T EigKep=  1.24D-03  NBF=    89
 NBsUse=    89 1.00D-06 EigRej= -1.00D+00 NBFU=    89
 ExpMin= 1.61D-01 ExpMax= 4.17D+03 ExpMxC= 6.27D+02 IAcc=3 IRadAn=         5 AccDes= 0.00D+00
 Harris functional with IExCor=  402 and IRadAn=       5 diagonalized for initial guess.
 HarFok:  IExCor=  402 AccDes= 0.00D+00 IRadAn=         5 IDoV= 1 UseB2=F ITyADJ=14
 ICtDFT=  3500011 ScaDFX=  1.000000  1.000000  1.000000  1.000000
 FoFCou: FMM=F IPFlag=           0 FMFlag=      100000 FMFlg1=           0
         NFxFlg=           0 DoJE=T BraDBF=F KetDBF=T FulRan=T
         wScrn=  0.000000 ICntrl=       500 IOpCl=  0 I1Cent=   200000004 NGrid=           0
         NMat0=    1 NMatS0=      1 NMatT0=    0 NMatD0=    1 NMtDS0=    0 NMtDT0=    0
 Petite list used in FoFCou.
 Keep R1 ints in memory in canonical form, NReq=11674644.
 Requested convergence on RMS density matrix=1.00D-08 within 128 cycles.
 Requested convergence on MAX density matrix=1.00D-06.
 Requested convergence on             energy=1.00D-06.
 No special actions if energy rises.
 Integral accuracy reduced to 1.0D-05 until final iterations.
 Initial convergence to 1.0D-05 achieved.  Increase integral accuracy.
 SCF Done:  E(RB3LYP) =  -211.366436091     A.U. after   13 cycles
            NFock= 13  Conv=0.43D-08     -V/T= 2.0088

 **********************************************************************

            Population analysis using the SCF density.

 **********************************************************************

 Orbital symmetries:
       Occupied  (A) (A) (A) (A) (A) (A) (A) (A) (A) (A) (A) (A)
                 (A) (A) (A) (A) (A) (A) (A)
       Virtual   (A) (A) (A) (A) (A) (A) (A) (A) (A) (A) (A) (A)
                 (A) (A) (A) (A) (A) (A) (A) (A) (A) (A) (A) (A)
                 (A) (A) (A) (A) (A) (A) (A) (A) (A) (A) (A) (A)
                 (A) (A) (A) (A) (A) (A) (A) (A) (A) (A) (A) (A)
                 (A) (A) (A) (A) (A) (A) (A) (A) (A) (A) (A) (A)
                 (A) (A) (A) (A) (A) (A) (A) (A) (A) (A)
 The electronic state is 1-A.
 Alpha  occ. eigenvalues --  -14.31737 -10.23519 -10.21376 -10.20706 -10.18945
 Alpha  occ. eigenvalues --   -0.91762  -0.81780  -0.72043  -0.61958  -0.50420
 Alpha  occ. eigenvalues --   -0.49299  -0.45445  -0.41989  -0.37248  -0.36509
 Alpha  occ. eigenvalues --   -0.35739  -0.34926  -0.33002  -0.32235
 Alpha virt. eigenvalues --    0.04391   0.05061   0.08920   0.12414   0.12781
 Alpha virt. eigenvalues --    0.14897   0.15142   0.16551   0.17195   0.21315
 Alpha virt. eigenvalues --    0.25935   0.28204   0.32557   0.51337   0.51966
 Alpha virt. eigenvalues --    0.55233   0.57181   0.59118   0.60523   0.63611
 Alpha virt. eigenvalues --    0.64006   0.66227   0.70173   0.79973   0.80460
 Alpha virt. eigenvalues --    0.80999   0.82156   0.83710   0.85385   0.88145
 Alpha virt. eigenvalues --    0.88480   0.90039   0.93729   0.98690   1.00638
 Alpha virt. eigenvalues --    1.06822   1.23811   1.33324   1.37083   1.40650
 Alpha virt. eigenvalues --    1.51752   1.54360   1.59806   1.66589   1.77741
 Alpha virt. eigenvalues --    1.79879   1.84296   1.91817   1.94385   1.95494
 Alpha virt. eigenvalues --    1.98292   2.03414   2.06160   2.13893   2.17851
 Alpha virt. eigenvalues --    2.21532   2.30798   2.34953   2.40258   2.48786
 Alpha virt. eigenvalues --    2.63372   2.81302   2.83087   2.89196   3.31988
 Alpha virt. eigenvalues --    4.08680   4.12112   4.22855   4.40619   4.70938
          Condensed to atoms (all electrons):
               1          2          3          4          5          6
     1  C    4.510665   0.323981  -0.037435  -0.008416   0.919107  -0.029334
     2  C    0.323981   5.190664   0.320244  -0.048795  -0.100978   0.370249
     3  C   -0.037435   0.320244   4.992223   0.384031   0.000185  -0.031542
     4  C   -0.008416  -0.048795   0.384031   5.069370  -0.005980   0.003133
     5  N    0.919107  -0.100978   0.000185  -0.005980   6.639101  -0.000624
     6  H   -0.029334   0.370249  -0.031542   0.003133  -0.000624   0.529961
     7  H   -0.029488   0.370046  -0.031707   0.001692  -0.000633  -0.030209
     8  H   -0.000281  -0.034618   0.383069  -0.035532  -0.000047  -0.009009
     9  H    0.002054  -0.035805   0.383355  -0.036881  -0.000050   0.003060
    10  H    0.000863   0.004833  -0.027717   0.361467   0.000173  -0.000126
    11  H    0.006210  -0.006761  -0.035107   0.380275  -0.000137   0.000127
    12  H    0.002149  -0.003191  -0.039791   0.382709  -0.000760   0.000051
               7          8          9         10         11         12
     1  C   -0.029488  -0.000281   0.002054   0.000863   0.006210   0.002149
     2  C    0.370046  -0.034618  -0.035805   0.004833  -0.006761  -0.003191
     3  C   -0.031707   0.383069   0.383355  -0.027717  -0.035107  -0.039791
     4  C    0.001692  -0.035532  -0.036881   0.361467   0.380275   0.382709
     5  N   -0.000633  -0.000047  -0.000050   0.000173  -0.000137  -0.000760
     6  H   -0.030209  -0.009009   0.003060  -0.000126   0.000127   0.000051
     7  H    0.531201   0.004079  -0.009378  -0.000120   0.000041   0.000598
     8  H    0.004079   0.575155  -0.036146  -0.002098  -0.004515   0.004945
     9  H   -0.009378  -0.036146   0.577293  -0.002966   0.005024  -0.004131
    10  H   -0.000120  -0.002098  -0.002966   0.583542  -0.029695  -0.022957
    11  H    0.000041  -0.004515   0.005024  -0.029695   0.545417  -0.031301
    12  H    0.000598   0.004945  -0.004131  -0.022957  -0.031301   0.548438
 Mulliken charges:
               1
     1  C    0.339925
     2  C   -0.349869
     3  C   -0.259807
     4  C   -0.447071
     5  N   -0.449356
     6  H    0.194265
     7  H    0.193877
     8  H    0.154999
     9  H    0.154570
    10  H    0.134802
    11  H    0.170423
    12  H    0.163243
 Sum of Mulliken charges =  -0.00000
 Mulliken charges with hydrogens summed into heavy atoms:
               1
     1  C    0.339925
     2  C    0.038273
     3  C    0.049762
     4  C    0.021396
     5  N   -0.449356
 Electronic spatial extent (au):  <R**2>=            450.3827
 Charge=             -0.0000 electrons
 Dipole moment (field-independent basis, Debye):
    X=             -2.9080    Y=              2.3347    Z=              0.0712  Tot=              3.7299
 Quadrupole moment (field-independent basis, Debye-Ang):
   XX=            -37.3850   YY=            -30.3651   ZZ=            -29.8215
   XY=              3.1502   XZ=              0.2489   YZ=              0.0837
 Traceless Quadrupole moment (field-independent basis, Debye-Ang):
   XX=             -4.8612   YY=              2.1588   ZZ=              2.7024
   XY=              3.1502   XZ=              0.2489   YZ=              0.0837
 Octapole moment (field-independent basis, Debye-Ang**2):
  XXX=            -17.1177  YYY=              4.9424  ZZZ=              0.1826  XYY=             -1.9288
  XXY=              6.8252  XXZ=              0.0461  XZZ=             -0.0624  YZZ=              1.6588
  YYZ=             -0.2017  XYZ=             -0.4391
 Hexadecapole moment (field-independent basis, Debye-Ang**3):
 XXXX=           -402.1309 YYYY=           -183.8817 ZZZZ=            -48.8777 XXXY=             16.4501
 XXXZ=              1.2208 YYYX=              2.6228 YYYZ=              0.2042 ZZZX=              0.4486
 ZZZY=              0.1730 XXYY=            -97.7531 XXZZ=            -69.5042 YYZZ=            -35.8297
 XXYZ=              0.4881 YYXZ=              0.2092 ZZXY=             -0.9322
 N-N= 1.602456642463D+02 E-N=-8.101941216346D+02  KE= 2.095326608764D+02
 1\1\GINC-NODE86\SP\RB3LYP\6-31G(d)\C4H7N1\YANZ\26-Dec-2024\0\\# b3lyp/
 6-31g(d)\\tmpdir/M2_conf_0_39.gjf\\0,1\C,0,-2.58198,-0.0458,0.06552\C,
 0,-1.35441,0.7147,0.303\C,0,-0.09371,0.00656,-0.23322\C,0,-0.43897,-1.
 20947,-1.09129\N,0,-3.50723,-0.63397,-0.12109\H,0,-1.24209,0.89544,1.3
 8155\H,0,-1.44664,1.70669,-0.16249\H,0,0.53956,-0.30823,0.60422\H,0,0.
 48997,0.71234,-0.83373\H,0,0.51332,-1.72959,-1.48024\H,0,-0.96851,-1.9
 621,-0.49005\H,0,-1.1049,-0.91228,-1.9185\\Version=ES64L-G16RevA.03\St
 ate=1-A\HF=-211.3664361\RMSD=4.275e-09\Dipole=1.2798248,0.6893357,0.20
 08525\Quadrupole=-4.1277867,2.0881146,2.0396722,-1.5779182,0.1957899,0
 .2303736\PG=C01 [X(C4H7N1)]\\@


 IN THE LONG RUN, DIGGING FOR TRUTH HAS ALWAYS PROVED NOT ONLY 
 MORE INTERESTING BUT MORE PROFITABLE THAN DIGGING FOR GOLD.

                             -- GEORGE R. HARRISON
 Job cpu time:       0 days  0 hours  0 minutes 26.7 seconds.
 Elapsed time:       0 days  0 hours  0 minutes  6.9 seconds.
 File lengths (MBytes):  RWF=     10 Int=      0 D2E=      0 Chk=      2 Scr=      1
 Normal termination of Gaussian 16 at Thu Dec 26 10:41:13 2024.
