 Entering Gaussian System, Link 0=g16
 Initial command:
 /share/apps/gaussian/g16/l1.exe "/tmp/103467.mgr/Gau-48605.inp" -scrdir="/tmp/103467.mgr/"
 Entering Link 1 = /share/apps/gaussian/g16/l1.exe PID=     48606.
  
 Copyright (c) 1988,1990,1992,1993,1995,1998,2003,2009,2016,
            Gaussian, Inc.  All Rights Reserved.
  
 This is part of the Gaussian(R) 16 program.  It is based on
 the Gaussian(R) 09 system (copyright 2009, Gaussian, Inc.),
 the Gaussian(R) 03 system (copyright 2003, Gaussian, Inc.),
 the Gaussian(R) 98 system (copyright 1998, Gaussian, Inc.),
 the Gaussian(R) 94 system (copyright 1995, Gaussian, Inc.),
 the Gaussian 92(TM) system (copyright 1992, Gaussian, Inc.),
 the Gaussian 90(TM) system (copyright 1990, Gaussian, Inc.),
 the Gaussian 88(TM) system (copyright 1988, Gaussian, Inc.),
 the Gaussian 86(TM) system (copyright 1986, Carnegie Mellon
 University), and the Gaussian 82(TM) system (copyright 1983,
 Carnegie Mellon University). Gaussian is a federally registered
 trademark of Gaussian, Inc.
  
 This software contains proprietary and confidential information,
 including trade secrets, belonging to Gaussian, Inc.
  
 This software is provided under written license and may be
 used, copied, transmitted, or stored only in accord with that
 written license.
  
 The following legend is applicable only to US Government
 contracts under FAR:
  
                    RESTRICTED RIGHTS LEGEND
  
 Use, reproduction and disclosure by the US Government is
 subject to restrictions as set forth in subparagraphs (a)
 and (c) of the Commercial Computer Software - Restricted
 Rights clause in FAR 52.227-19.
  
 Gaussian, Inc.
 340 Quinnipiac St., Bldg. 40, Wallingford CT 06492
  
  
 ---------------------------------------------------------------
 Warning -- This program may not be used in any manner that
 competes with the business of Gaussian, Inc. or will provide
 assistance to any competitor of Gaussian, Inc.  The licensee
 of this program is prohibited from giving any competitor of
 Gaussian, Inc. access to this program.  By using this program,
 the user acknowledges that Gaussian, Inc. is engaged in the
 business of creating and licensing software in the field of
 computational chemistry and represents and warrants to the
 licensee that it is not a competitor of Gaussian, Inc. and that
 it will not use this program in any manner prohibited above.
 ---------------------------------------------------------------
  

 Cite this work as:
 Gaussian 16, Revision A.03,
 M. J. Frisch, G. W. Trucks, H. B. Schlegel, G. E. Scuseria, 
 M. A. Robb, J. R. Cheeseman, G. Scalmani, V. Barone, 
 G. A. Petersson, H. Nakatsuji, X. Li, M. Caricato, A. V. Marenich, 
 J. Bloino, B. G. Janesko, R. Gomperts, B. Mennucci, H. P. Hratchian, 
 J. V. Ortiz, A. F. Izmaylov, J. L. Sonnenberg, D. Williams-Young, 
 F. Ding, F. Lipparini, F. Egidi, J. Goings, B. Peng, A. Petrone, 
 T. Henderson, D. Ranasinghe, V. G. Zakrzewski, J. Gao, N. Rega, 
 G. Zheng, W. Liang, M. Hada, M. Ehara, K. Toyota, R. Fukuda, 
 J. Hasegawa, M. Ishida, T. Nakajima, Y. Honda, O. Kitao, H. Nakai, 
 T. Vreven, K. Throssell, J. A. Montgomery, Jr., J. E. Peralta, 
 F. Ogliaro, M. J. Bearpark, J. J. Heyd, E. N. Brothers, K. N. Kudin, 
 V. N. Staroverov, T. A. Keith, R. Kobayashi, J. Normand, 
 K. Raghavachari, A. P. Rendell, J. C. Burant, S. S. Iyengar, 
 J. Tomasi, M. Cossi, J. M. Millam, M. Klene, C. Adamo, R. Cammi, 
 J. W. Ochterski, R. L. Martin, K. Morokuma, O. Farkas, 
 J. B. Foresman, and D. J. Fox, Gaussian, Inc., Wallingford CT, 2016.
 
 ******************************************
 Gaussian 16:  ES64L-G16RevA.03 25-Dec-2016
                26-Dec-2024 
 ******************************************
 %nprocshared=4
 Will use up to    4 processors via shared memory.
 %mem=4GB
 ----------------
 # b3lyp/6-31g(d)
 ----------------
 1/38=1,172=1/1;
 2/12=2,17=6,18=5,40=1/2;
 3/5=1,6=6,7=1,11=2,25=1,30=1,74=-5/1,2,3;
 4//1;
 5/5=2,38=5/2;
 6/7=2,8=2,9=2,10=2,28=1/1;
 99/5=1,9=1/99;
 ----------------------
 tmpdir/M2_conf_0_9.gjf
 ----------------------
 Symbolic Z-matrix:
 Charge =  0 Multiplicity = 1
 C                     0.        0.        0. 
 C                     1.4634    0.        0. 
 H                     1.84957   0.        1.02956 
 N                    -1.09787   0.01185   0.01037 
 H                     1.82655  -0.93604  -0.44767 
 H                     1.89961   0.86863  -0.54913 
 
                          Input orientation:                          
 ---------------------------------------------------------------------
 Center     Atomic      Atomic             Coordinates (Angstroms)
 Number     Number       Type             X           Y           Z
 ---------------------------------------------------------------------
      1          6           0        0.000000    0.000000    0.000000
      2          6           0        1.463400    0.000000    0.000000
      3          1           0        1.849570    0.000000    1.029560
      4          7           0       -1.097870    0.011850    0.010370
      5          1           0        1.826550   -0.936040   -0.447670
      6          1           0        1.899610    0.868630   -0.549130
 ---------------------------------------------------------------------
                    Distance matrix (angstroms):
                    1          2          3          4          5
     1  C    0.000000
     2  C    1.463400   0.000000
     3  H    2.116814   1.099600   0.000000
     4  N    1.097983   2.561318   3.118700   0.000000
     5  H    2.100682   1.099299   1.748974   3.108139   0.000000
     6  H    2.159764   1.116396   1.802577   3.167333   1.808996
                    6
     6  H    0.000000
 Stoichiometry    C2H3N
 Framework group  C1[X(C2H3N)]
 Deg. of freedom    12
 Full point group                 C1      NOp   1
 Largest Abelian subgroup         C1      NOp   1
 Largest concise Abelian subgroup C1      NOp   1
                         Standard orientation:                         
 ---------------------------------------------------------------------
 Center     Atomic      Atomic             Coordinates (Angstroms)
 Number     Number       Type             X           Y           Z
 ---------------------------------------------------------------------
      1          6           0       -0.303208    0.000648   -0.005982
      2          6           0        1.160165    0.005961    0.001103
      3          1           0        1.543837   -0.500720    0.898428
      4          7           0       -1.401149    0.001851    0.003570
      5          1           0        1.529584   -0.585910   -0.848412
      6          1           0        1.592877    1.034021   -0.045738
 ---------------------------------------------------------------------
 Rotational constants (GHZ):         157.0343517           9.5208182           9.4966705
 Standard basis: 6-31G(d) (6D, 7F)
 There are    51 symmetry adapted cartesian basis functions of A   symmetry.
 There are    51 symmetry adapted basis functions of A   symmetry.
    51 basis functions,    96 primitive gaussians,    51 cartesian basis functions
    11 alpha electrons       11 beta electrons
       nuclear repulsion energy        59.4762382718 Hartrees.
 NAtoms=    6 NActive=    6 NUniq=    6 SFac= 1.00D+00 NAtFMM=   60 NAOKFM=F Big=F
 Integral buffers will be    131072 words long.
 Raffenetti 2 integral format.
 Two-electron integral symmetry is turned on.
 One-electron integrals computed using PRISM.
 NBasis=    51 RedAO= T EigKep=  1.40D-03  NBF=    51
 NBsUse=    51 1.00D-06 EigRej= -1.00D+00 NBFU=    51
 ExpMin= 1.61D-01 ExpMax= 4.17D+03 ExpMxC= 6.27D+02 IAcc=3 IRadAn=         5 AccDes= 0.00D+00
 Harris functional with IExCor=  402 and IRadAn=       5 diagonalized for initial guess.
 HarFok:  IExCor=  402 AccDes= 0.00D+00 IRadAn=         5 IDoV= 1 UseB2=F ITyADJ=14
 ICtDFT=  3500011 ScaDFX=  1.000000  1.000000  1.000000  1.000000
 FoFCou: FMM=F IPFlag=           0 FMFlag=      100000 FMFlg1=           0
         NFxFlg=           0 DoJE=T BraDBF=F KetDBF=T FulRan=T
         wScrn=  0.000000 ICntrl=       500 IOpCl=  0 I1Cent=   200000004 NGrid=           0
         NMat0=    1 NMatS0=      1 NMatT0=    0 NMatD0=    1 NMtDS0=    0 NMtDT0=    0
 Petite list used in FoFCou.
 Keep R1 ints in memory in canonical form, NReq=4366138.
 Requested convergence on RMS density matrix=1.00D-08 within 128 cycles.
 Requested convergence on MAX density matrix=1.00D-06.
 Requested convergence on             energy=1.00D-06.
 No special actions if energy rises.
 Integral accuracy reduced to 1.0D-05 until final iterations.
 Initial convergence to 1.0D-05 achieved.  Increase integral accuracy.
 SCF Done:  E(RB3LYP) =  -132.744007325     A.U. after   13 cycles
            NFock= 13  Conv=0.32D-08     -V/T= 2.0074

 **********************************************************************

            Population analysis using the SCF density.

 **********************************************************************

 Orbital symmetries:
       Occupied  (A) (A) (A) (A) (A) (A) (A) (A) (A) (A) (A)
       Virtual   (A) (A) (A) (A) (A) (A) (A) (A) (A) (A) (A) (A)
                 (A) (A) (A) (A) (A) (A) (A) (A) (A) (A) (A) (A)
                 (A) (A) (A) (A) (A) (A) (A) (A) (A) (A) (A) (A)
                 (A) (A) (A) (A)
 The electronic state is 1-A.
 Alpha  occ. eigenvalues --  -14.31826 -10.24126 -10.21737  -0.92500  -0.77271
 Alpha  occ. eigenvalues --   -0.51260  -0.46337  -0.45891  -0.35405  -0.34051
 Alpha  occ. eigenvalues --   -0.33894
 Alpha virt. eigenvalues --    0.05225   0.05530   0.08307   0.16484   0.16732
 Alpha virt. eigenvalues --    0.19232   0.27805   0.52257   0.52776   0.57331
 Alpha virt. eigenvalues --    0.61941   0.64077   0.69084   0.78850   0.81009
 Alpha virt. eigenvalues --    0.81155   0.85064   0.85736   0.89397   1.12666
 Alpha virt. eigenvalues --    1.40020   1.42636   1.43232   1.50532   1.50799
 Alpha virt. eigenvalues --    1.60932   1.90352   1.92755   1.99261   2.00224
 Alpha virt. eigenvalues --    2.17382   2.19073   2.21762   2.81263   2.81648
 Alpha virt. eigenvalues --    2.81998   3.31660   4.04006   4.13758   4.60277
          Condensed to atoms (all electrons):
               1          2          3          4          5          6
     1  C    4.458799   0.318476  -0.024285   0.955757  -0.024636  -0.021408
     2  C    0.318476   5.214829   0.366770  -0.104350   0.364916   0.366256
     3  H   -0.024285   0.366770   0.504843  -0.000349  -0.028541  -0.024325
     4  N    0.955757  -0.104350  -0.000349   6.574340   0.000011  -0.000256
     5  H   -0.024636   0.364916  -0.028541   0.000011   0.506781  -0.023449
     6  H   -0.021408   0.366256  -0.024325  -0.000256  -0.023449   0.499235
 Mulliken charges:
               1
     1  C    0.337297
     2  C   -0.526898
     3  H    0.205887
     4  N   -0.425151
     5  H    0.204918
     6  H    0.203947
 Sum of Mulliken charges =  -0.00000
 Mulliken charges with hydrogens summed into heavy atoms:
               1
     1  C    0.337297
     2  C    0.087854
     4  N   -0.425151
 Electronic spatial extent (au):  <R**2>=            157.7307
 Charge=             -0.0000 electrons
 Dipole moment (field-independent basis, Debye):
    X=              3.7281    Y=             -0.0345    Z=             -0.0058  Tot=              3.7283
 Quadrupole moment (field-independent basis, Debye-Ang):
   XX=            -20.3161   YY=            -16.9927   ZZ=            -17.1879
   XY=             -0.0081   XZ=              0.0362   YZ=             -0.0003
 Traceless Quadrupole moment (field-independent basis, Debye-Ang):
   XX=             -2.1506   YY=              1.1729   ZZ=              0.9777
   XY=             -0.0081   XZ=              0.0362   YZ=             -0.0003
 Octapole moment (field-independent basis, Debye-Ang**2):
  XXX=             10.6062  YYY=              0.6525  ZZZ=              0.1115  XYY=              1.4852
  XXY=              0.0552  XXZ=              0.0462  XZZ=              1.1297  YZZ=             -0.7626
  YYZ=             -0.1010  XYZ=             -0.0119
 Hexadecapole moment (field-independent basis, Debye-Ang**3):
 XXXX=           -171.6748 YYYY=            -22.3434 ZZZZ=            -22.1171 XXXY=              0.1795
 XXXZ=              0.2007 YYYX=              1.1724 YYYZ=              0.0105 ZZZX=              0.1956
 ZZZY=             -0.0061 XXYY=            -28.3882 XXZZ=            -29.0049 YYZZ=             -7.3623
 XXYZ=             -0.0427 YYXZ=             -0.1652 ZZXY=             -1.2508
 N-N= 5.947623827181D+01 E-N=-4.273571796081D+02  KE= 1.317693462771D+02
 1\1\GINC-NODE86\SP\RB3LYP\6-31G(d)\C2H3N1\YANZ\26-Dec-2024\0\\# b3lyp/
 6-31g(d)\\tmpdir/M2_conf_0_9.gjf\\0,1\C,0,0.,0.,0.\C,0,1.4634,0.,0.\H,
 0,1.84957,0.,1.02956\N,0,-1.09787,0.01185,0.01037\H,0,1.82655,-0.93604
 ,-0.44767\H,0,1.89961,0.86863,-0.54913\\Version=ES64L-G16RevA.03\State
 =1-A\HF=-132.7440073\RMSD=3.221e-09\Dipole=1.4666546,-0.0210836,0.0011
 677\Quadrupole=-1.5985993,0.8362877,0.7623116,0.0214261,0.0317438,-0.0
 626221\PG=C01 [X(C2H3N1)]\\@


 THE SOLUTION TO A PROBLEM CHANGES THE PROBLEM.

                                 -- JOHN PEERS
           PAUL DICKSON'S "THE OFFICIAL RULES"
 Job cpu time:       0 days  0 hours  0 minutes  9.1 seconds.
 Elapsed time:       0 days  0 hours  0 minutes  2.4 seconds.
 File lengths (MBytes):  RWF=      6 Int=      0 D2E=      0 Chk=      1 Scr=      1
 Normal termination of Gaussian 16 at Thu Dec 26 10:40:58 2024.
