 Entering Gaussian System, Link 0=g16
 Initial command:
 /share/apps/gaussian/g16/l1.exe "/tmp/103467.mgr/Gau-49268.inp" -scrdir="/tmp/103467.mgr/"
 Entering Link 1 = /share/apps/gaussian/g16/l1.exe PID=     49269.
  
 Copyright (c) 1988,1990,1992,1993,1995,1998,2003,2009,2016,
            Gaussian, Inc.  All Rights Reserved.
  
 This is part of the Gaussian(R) 16 program.  It is based on
 the Gaussian(R) 09 system (copyright 2009, Gaussian, Inc.),
 the Gaussian(R) 03 system (copyright 2003, Gaussian, Inc.),
 the Gaussian(R) 98 system (copyright 1998, Gaussian, Inc.),
 the Gaussian(R) 94 system (copyright 1995, Gaussian, Inc.),
 the Gaussian 92(TM) system (copyright 1992, Gaussian, Inc.),
 the Gaussian 90(TM) system (copyright 1990, Gaussian, Inc.),
 the Gaussian 88(TM) system (copyright 1988, Gaussian, Inc.),
 the Gaussian 86(TM) system (copyright 1986, Carnegie Mellon
 University), and the Gaussian 82(TM) system (copyright 1983,
 Carnegie Mellon University). Gaussian is a federally registered
 trademark of Gaussian, Inc.
  
 This software contains proprietary and confidential information,
 including trade secrets, belonging to Gaussian, Inc.
  
 This software is provided under written license and may be
 used, copied, transmitted, or stored only in accord with that
 written license.
  
 The following legend is applicable only to US Government
 contracts under FAR:
  
                    RESTRICTED RIGHTS LEGEND
  
 Use, reproduction and disclosure by the US Government is
 subject to restrictions as set forth in subparagraphs (a)
 and (c) of the Commercial Computer Software - Restricted
 Rights clause in FAR 52.227-19.
  
 Gaussian, Inc.
 340 Quinnipiac St., Bldg. 40, Wallingford CT 06492
  
  
 ---------------------------------------------------------------
 Warning -- This program may not be used in any manner that
 competes with the business of Gaussian, Inc. or will provide
 assistance to any competitor of Gaussian, Inc.  The licensee
 of this program is prohibited from giving any competitor of
 Gaussian, Inc. access to this program.  By using this program,
 the user acknowledges that Gaussian, Inc. is engaged in the
 business of creating and licensing software in the field of
 computational chemistry and represents and warrants to the
 licensee that it is not a competitor of Gaussian, Inc. and that
 it will not use this program in any manner prohibited above.
 ---------------------------------------------------------------
  

 Cite this work as:
 Gaussian 16, Revision A.03,
 M. J. Frisch, G. W. Trucks, H. B. Schlegel, G. E. Scuseria, 
 M. A. Robb, J. R. Cheeseman, G. Scalmani, V. Barone, 
 G. A. Petersson, H. Nakatsuji, X. Li, M. Caricato, A. V. Marenich, 
 J. Bloino, B. G. Janesko, R. Gomperts, B. Mennucci, H. P. Hratchian, 
 J. V. Ortiz, A. F. Izmaylov, J. L. Sonnenberg, D. Williams-Young, 
 F. Ding, F. Lipparini, F. Egidi, J. Goings, B. Peng, A. Petrone, 
 T. Henderson, D. Ranasinghe, V. G. Zakrzewski, J. Gao, N. Rega, 
 G. Zheng, W. Liang, M. Hada, M. Ehara, K. Toyota, R. Fukuda, 
 J. Hasegawa, M. Ishida, T. Nakajima, Y. Honda, O. Kitao, H. Nakai, 
 T. Vreven, K. Throssell, J. A. Montgomery, Jr., J. E. Peralta, 
 F. Ogliaro, M. J. Bearpark, J. J. Heyd, E. N. Brothers, K. N. Kudin, 
 V. N. Staroverov, T. A. Keith, R. Kobayashi, J. Normand, 
 K. Raghavachari, A. P. Rendell, J. C. Burant, S. S. Iyengar, 
 J. Tomasi, M. Cossi, J. M. Millam, M. Klene, C. Adamo, R. Cammi, 
 J. W. Ochterski, R. L. Martin, K. Morokuma, O. Farkas, 
 J. B. Foresman, and D. J. Fox, Gaussian, Inc., Wallingford CT, 2016.
 
 ******************************************
 Gaussian 16:  ES64L-G16RevA.03 25-Dec-2016
                26-Dec-2024 
 ******************************************
 %nprocshared=4
 Will use up to    4 processors via shared memory.
 %mem=4GB
 ----------------
 # b3lyp/6-31g(d)
 ----------------
 1/38=1,172=1/1;
 2/12=2,17=6,18=5,40=1/2;
 3/5=1,6=6,7=1,11=2,25=1,30=1,74=-5/1,2,3;
 4//1;
 5/5=2,38=5/2;
 6/7=2,8=2,9=2,10=2,28=1/1;
 99/5=1,9=1/99;
 -----------------------
 tmpdir/M2_conf_0_25.gjf
 -----------------------
 Symbolic Z-matrix:
 Charge =  0 Multiplicity = 1
 N                     0.        0.        0. 
 C                     1.4665    0.        0. 
 H                     1.76764   0.        1.05715 
 H                    -0.34685   0.2875   -1.07372 
 H                    -0.31017   0.7999    0.55408 
 H                     1.87157   0.91489  -0.46375 
 H                     1.86682  -0.89468  -0.51239 
 
                          Input orientation:                          
 ---------------------------------------------------------------------
 Center     Atomic      Atomic             Coordinates (Angstroms)
 Number     Number       Type             X           Y           Z
 ---------------------------------------------------------------------
      1          7           0        0.000000    0.000000    0.000000
      2          6           0        1.466500    0.000000    0.000000
      3          1           0        1.767640    0.000000    1.057150
      4          1           0       -0.346850    0.287500   -1.073720
      5          1           0       -0.310170    0.799900    0.554080
      6          1           0        1.871570    0.914890   -0.463750
      7          1           0        1.866820   -0.894680   -0.512390
 ---------------------------------------------------------------------
                    Distance matrix (angstroms):
                    1          2          3          4          5
     1  N    0.000000
     2  C    1.466500   0.000000
     3  H    2.059640   1.099205   0.000000
     4  H    1.164404   2.126915   3.015681   0.000000
     5  H    1.021298   2.025685   2.282589   1.706936   0.000000
     6  H    2.134212   1.102801   1.777909   2.384758   2.410226
     7  H    2.132607   1.106007   1.809349   2.571571   2.957743
                    6          7
     6  H    0.000000
     7  H    1.810230   0.000000
 Stoichiometry    CH5N
 Framework group  C1[X(CH5N)]
 Deg. of freedom    15
 Full point group                 C1      NOp   1
 Largest Abelian subgroup         C1      NOp   1
 Largest concise Abelian subgroup C1      NOp   1
                         Standard orientation:                         
 ---------------------------------------------------------------------
 Center     Atomic      Atomic             Coordinates (Angstroms)
 Number     Number       Type             X           Y           Z
 ---------------------------------------------------------------------
      1          7           0        0.745077    0.025405   -0.153288
      2          6           0       -0.711083   -0.010890    0.016725
      3          1           0       -1.068572    0.998328   -0.232136
      4          1           0        1.179014   -0.920143    0.369658
      5          1           0        1.106281    0.784280    0.426963
      6          1           0       -0.991721   -0.217188    1.063078
      7          1           0       -1.174045   -0.757773   -0.654903
 ---------------------------------------------------------------------
 Rotational constants (GHZ):          94.9559633          22.7351067          21.8479276
 Standard basis: 6-31G(d) (6D, 7F)
 There are    40 symmetry adapted cartesian basis functions of A   symmetry.
 There are    40 symmetry adapted basis functions of A   symmetry.
    40 basis functions,    76 primitive gaussians,    40 cartesian basis functions
     9 alpha electrons        9 beta electrons
       nuclear repulsion energy        41.3592018270 Hartrees.
 NAtoms=    7 NActive=    7 NUniq=    7 SFac= 1.00D+00 NAtFMM=   60 NAOKFM=F Big=F
 Integral buffers will be    131072 words long.
 Raffenetti 2 integral format.
 Two-electron integral symmetry is turned on.
 One-electron integrals computed using PRISM.
 NBasis=    40 RedAO= T EigKep=  9.01D-03  NBF=    40
 NBsUse=    40 1.00D-06 EigRej= -1.00D+00 NBFU=    40
 ExpMin= 1.61D-01 ExpMax= 4.17D+03 ExpMxC= 6.27D+02 IAcc=3 IRadAn=         5 AccDes= 0.00D+00
 Harris functional with IExCor=  402 and IRadAn=       5 diagonalized for initial guess.
 HarFok:  IExCor=  402 AccDes= 0.00D+00 IRadAn=         5 IDoV= 1 UseB2=F ITyADJ=14
 ICtDFT=  3500011 ScaDFX=  1.000000  1.000000  1.000000  1.000000
 FoFCou: FMM=F IPFlag=           0 FMFlag=      100000 FMFlg1=           0
         NFxFlg=           0 DoJE=T BraDBF=F KetDBF=T FulRan=T
         wScrn=  0.000000 ICntrl=       500 IOpCl=  0 I1Cent=   200000004 NGrid=           0
         NMat0=    1 NMatS0=      1 NMatT0=    0 NMatD0=    1 NMtDS0=    0 NMtDT0=    0
 Petite list used in FoFCou.
 Keep R1 ints in memory in canonical form, NReq=3789243.
 Requested convergence on RMS density matrix=1.00D-08 within 128 cycles.
 Requested convergence on MAX density matrix=1.00D-06.
 Requested convergence on             energy=1.00D-06.
 No special actions if energy rises.
 Integral accuracy reduced to 1.0D-05 until final iterations.
 Initial convergence to 1.0D-05 achieved.  Increase integral accuracy.
 SCF Done:  E(RB3LYP) =  -95.8396944532     A.U. after   11 cycles
            NFock= 11  Conv=0.64D-08     -V/T= 2.0114

 **********************************************************************

            Population analysis using the SCF density.

 **********************************************************************

 Orbital symmetries:
       Occupied  (A) (A) (A) (A) (A) (A) (A) (A) (A)
       Virtual   (A) (A) (A) (A) (A) (A) (A) (A) (A) (A) (A) (A)
                 (A) (A) (A) (A) (A) (A) (A) (A) (A) (A) (A) (A)
                 (A) (A) (A) (A) (A) (A) (A)
 The electronic state is 1-A.
 Alpha  occ. eigenvalues --  -14.32233 -10.20147  -0.86106  -0.64625  -0.46949
 Alpha  occ. eigenvalues --   -0.43298  -0.39527  -0.35599  -0.23255
 Alpha virt. eigenvalues --    0.06203   0.12583   0.14168   0.17562   0.17947
 Alpha virt. eigenvalues --    0.23185   0.54591   0.56524   0.58910   0.72057
 Alpha virt. eigenvalues --    0.74675   0.79904   0.83270   0.87026   0.91539
 Alpha virt. eigenvalues --    0.91851   0.95482   1.06705   1.40509   1.50741
 Alpha virt. eigenvalues --    1.56707   1.85790   2.02101   2.05344   2.17055
 Alpha virt. eigenvalues --    2.29900   2.33370   2.36182   2.65733   3.73778
 Alpha virt. eigenvalues --    4.24047
          Condensed to atoms (all electrons):
               1          2          3          4          5          6
     1  N    6.911554   0.300923  -0.040059   0.292683   0.297975  -0.045511
     2  C    0.300923   4.940744   0.382416  -0.041302  -0.040831   0.372557
     3  H   -0.040059   0.382416   0.570226   0.006310  -0.006111  -0.038257
     4  H    0.292683  -0.041302   0.006310   0.536454  -0.031444  -0.008828
     5  H    0.297975  -0.040831  -0.006111  -0.031444   0.481261  -0.004321
     6  H   -0.045511   0.372557  -0.038257  -0.008828  -0.004321   0.642267
     7  H   -0.039675   0.383888  -0.025735  -0.001451   0.006159  -0.042257
               7
     1  N   -0.039675
     2  C    0.383888
     3  H   -0.025735
     4  H   -0.001451
     5  H    0.006159
     6  H   -0.042257
     7  H    0.563238
 Mulliken charges:
               1
     1  N   -0.677890
     2  C   -0.298396
     3  H    0.151210
     4  H    0.247578
     5  H    0.297313
     6  H    0.124350
     7  H    0.155834
 Sum of Mulliken charges =  -0.00000
 Mulliken charges with hydrogens summed into heavy atoms:
               1
     1  N   -0.132999
     2  C    0.132999
 Electronic spatial extent (au):  <R**2>=             96.1390
 Charge=             -0.0000 electrons
 Dipole moment (field-independent basis, Debye):
    X=             -0.3566    Y=             -0.0317    Z=              1.5878  Tot=              1.6277
 Quadrupole moment (field-independent basis, Debye-Ang):
   XX=            -14.1295   YY=            -12.5904   ZZ=            -15.0734
   XY=             -0.1216   XZ=              2.2654   YZ=              0.2038
 Traceless Quadrupole moment (field-independent basis, Debye-Ang):
   XX=             -0.1984   YY=              1.3407   ZZ=             -1.1423
   XY=             -0.1216   XZ=              2.2654   YZ=              0.2038
 Octapole moment (field-independent basis, Debye-Ang**2):
  XXX=              2.2288  YYY=              0.4047  ZZZ=              1.5512  XYY=              1.6655
  XXY=             -0.1740  XXZ=              2.1417  XZZ=             -0.4330  YZZ=             -0.1942
  YYZ=              0.5377  XYZ=             -0.0614
 Hexadecapole moment (field-independent basis, Debye-Ang**3):
 XXXX=            -75.1315 YYYY=            -24.2653 ZZZZ=            -24.2002 XXXY=              0.0936
 XXXZ=              3.9525 YYYX=             -0.5144 YYYZ=              0.1545 ZZZX=              1.7328
 ZZZY=              0.3333 XXYY=            -14.5783 XXZZ=            -17.0883 YYZZ=             -7.9990
 XXYZ=              0.3484 YYXZ=              1.7774 ZZXY=              0.3993
 N-N= 4.135920182696D+01 E-N=-3.050870674364D+02  KE= 9.475536440110D+01
 1\1\GINC-NODE86\SP\RB3LYP\6-31G(d)\C1H5N1\YANZ\26-Dec-2024\0\\# b3lyp/
 6-31g(d)\\tmpdir/M2_conf_0_25.gjf\\0,1\N,0,0.,0.,0.\C,0,1.4665,0.,0.\H
 ,0,1.76764,0.,1.05715\H,0,-0.34685,0.2875,-1.07372\H,0,-0.31017,0.7999
 ,0.55408\H,0,1.87157,0.91489,-0.46375\H,0,1.86682,-0.89468,-0.51239\\V
 ersion=ES64L-G16RevA.03\State=1-A\HF=-95.8396945\RMSD=6.414e-09\Dipole
 =0.2120562,0.579272,-0.171906\Quadrupole=-0.5492933,-0.292364,0.841657
 3,-1.6384421,0.5368181,0.4645191\PG=C01 [X(C1H5N1)]\\@


 EVERYBODY NEEDS BEAUTY AS WELL AS BREAD, PLACES TO PLAY IN AND PRAY IN,
 WHERE NATURE MAY HEAL AND CHEER AND GIVE STRENGTH TO BODY AND SOUL ALIKE.

                                    -- JOHN MUIR
 Job cpu time:       0 days  0 hours  0 minutes  7.7 seconds.
 Elapsed time:       0 days  0 hours  0 minutes  2.1 seconds.
 File lengths (MBytes):  RWF=      6 Int=      0 D2E=      0 Chk=      1 Scr=      1
 Normal termination of Gaussian 16 at Thu Dec 26 10:41:05 2024.
