 Entering Gaussian System, Link 0=g16
 Initial command:
 /share/apps/gaussian/g16/l1.exe "/tmp/103467.mgr/Gau-47567.inp" -scrdir="/tmp/103467.mgr/"
 Entering Link 1 = /share/apps/gaussian/g16/l1.exe PID=     47568.
  
 Copyright (c) 1988,1990,1992,1993,1995,1998,2003,2009,2016,
            Gaussian, Inc.  All Rights Reserved.
  
 This is part of the Gaussian(R) 16 program.  It is based on
 the Gaussian(R) 09 system (copyright 2009, Gaussian, Inc.),
 the Gaussian(R) 03 system (copyright 2003, Gaussian, Inc.),
 the Gaussian(R) 98 system (copyright 1998, Gaussian, Inc.),
 the Gaussian(R) 94 system (copyright 1995, Gaussian, Inc.),
 the Gaussian 92(TM) system (copyright 1992, Gaussian, Inc.),
 the Gaussian 90(TM) system (copyright 1990, Gaussian, Inc.),
 the Gaussian 88(TM) system (copyright 1988, Gaussian, Inc.),
 the Gaussian 86(TM) system (copyright 1986, Carnegie Mellon
 University), and the Gaussian 82(TM) system (copyright 1983,
 Carnegie Mellon University). Gaussian is a federally registered
 trademark of Gaussian, Inc.
  
 This software contains proprietary and confidential information,
 including trade secrets, belonging to Gaussian, Inc.
  
 This software is provided under written license and may be
 used, copied, transmitted, or stored only in accord with that
 written license.
  
 The following legend is applicable only to US Government
 contracts under FAR:
  
                    RESTRICTED RIGHTS LEGEND
  
 Use, reproduction and disclosure by the US Government is
 subject to restrictions as set forth in subparagraphs (a)
 and (c) of the Commercial Computer Software - Restricted
 Rights clause in FAR 52.227-19.
  
 Gaussian, Inc.
 340 Quinnipiac St., Bldg. 40, Wallingford CT 06492
  
  
 ---------------------------------------------------------------
 Warning -- This program may not be used in any manner that
 competes with the business of Gaussian, Inc. or will provide
 assistance to any competitor of Gaussian, Inc.  The licensee
 of this program is prohibited from giving any competitor of
 Gaussian, Inc. access to this program.  By using this program,
 the user acknowledges that Gaussian, Inc. is engaged in the
 business of creating and licensing software in the field of
 computational chemistry and represents and warrants to the
 licensee that it is not a competitor of Gaussian, Inc. and that
 it will not use this program in any manner prohibited above.
 ---------------------------------------------------------------
  

 Cite this work as:
 Gaussian 16, Revision A.03,
 M. J. Frisch, G. W. Trucks, H. B. Schlegel, G. E. Scuseria, 
 M. A. Robb, J. R. Cheeseman, G. Scalmani, V. Barone, 
 G. A. Petersson, H. Nakatsuji, X. Li, M. Caricato, A. V. Marenich, 
 J. Bloino, B. G. Janesko, R. Gomperts, B. Mennucci, H. P. Hratchian, 
 J. V. Ortiz, A. F. Izmaylov, J. L. Sonnenberg, D. Williams-Young, 
 F. Ding, F. Lipparini, F. Egidi, J. Goings, B. Peng, A. Petrone, 
 T. Henderson, D. Ranasinghe, V. G. Zakrzewski, J. Gao, N. Rega, 
 G. Zheng, W. Liang, M. Hada, M. Ehara, K. Toyota, R. Fukuda, 
 J. Hasegawa, M. Ishida, T. Nakajima, Y. Honda, O. Kitao, H. Nakai, 
 T. Vreven, K. Throssell, J. A. Montgomery, Jr., J. E. Peralta, 
 F. Ogliaro, M. J. Bearpark, J. J. Heyd, E. N. Brothers, K. N. Kudin, 
 V. N. Staroverov, T. A. Keith, R. Kobayashi, J. Normand, 
 K. Raghavachari, A. P. Rendell, J. C. Burant, S. S. Iyengar, 
 J. Tomasi, M. Cossi, J. M. Millam, M. Klene, C. Adamo, R. Cammi, 
 J. W. Ochterski, R. L. Martin, K. Morokuma, O. Farkas, 
 J. B. Foresman, and D. J. Fox, Gaussian, Inc., Wallingford CT, 2016.
 
 ******************************************
 Gaussian 16:  ES64L-G16RevA.03 25-Dec-2016
                26-Dec-2024 
 ******************************************
 %nprocshared=4
 Will use up to    4 processors via shared memory.
 %mem=4GB
 ----------------
 # b3lyp/6-31g(d)
 ----------------
 1/38=1,172=1/1;
 2/12=2,17=6,18=5,40=1/2;
 3/5=1,6=6,7=1,11=2,25=1,30=1,74=-5/1,2,3;
 4//1;
 5/5=2,38=5/2;
 6/7=2,8=2,9=2,10=2,28=1/1;
 99/5=1,9=1/99;
 --------------------
 tmpdir/M2_ref_13.gjf
 --------------------
 Symbolic Z-matrix:
 Charge =  0 Multiplicity = 1
 H                    -1.44664   1.70669  -0.16249 
 C                    -1.35441   0.7147    0.303 
 C                    -0.09371   0.00656  -0.23322 
 H                    -2.24303   0.16419   0.13109 
 H                    -1.24209   0.89544   1.38155 
 H                     0.82527   0.59086  -0.04027 
 H                    -0.19481  -0.16538  -1.31101 
 H                     0.00093  -0.97452   0.24421 
 
                          Input orientation:                          
 ---------------------------------------------------------------------
 Center     Atomic      Atomic             Coordinates (Angstroms)
 Number     Number       Type             X           Y           Z
 ---------------------------------------------------------------------
      1          1           0       -1.446643    1.706693   -0.162488
      2          6           0       -1.354410    0.714704    0.303001
      3          6           0       -0.093708    0.006563   -0.233217
      4          1           0       -2.243029    0.164187    0.131093
      5          1           0       -1.242090    0.895439    1.381546
      6          1           0        0.825275    0.590857   -0.040265
      7          1           0       -0.194808   -0.165380   -1.311007
      8          1           0        0.000930   -0.974522    0.244205
 ---------------------------------------------------------------------
                    Distance matrix (angstroms):
                    1          2          3          4          5
     1  H    0.000000
     2  C    1.099650   0.000000
     3  C    2.173908   1.542194   0.000000
     4  H    1.760609   1.059370   2.185669   0.000000
     5  H    1.756137   1.099336   2.171714   1.760751   0.000000
     6  H    2.534095   2.210022   1.105965   3.102563   2.527511
     7  H    2.528012   2.173533   1.096092   2.526554   3.077658
     8  H    3.074050   2.166538   1.095178   2.518890   2.517022
                    6          7          8
     6  H    0.000000
     7  H    1.796454   0.000000
     8  H    1.791893   1.764004   0.000000
 Stoichiometry    C2H6
 Framework group  C1[X(C2H6)]
 Deg. of freedom    18
 Full point group                 C1      NOp   1
 Largest Abelian subgroup         C1      NOp   1
 Largest concise Abelian subgroup C1      NOp   1
                         Standard orientation:                         
 ---------------------------------------------------------------------
 Center     Atomic      Atomic             Coordinates (Angstroms)
 Number     Number       Type             X           Y           Z
 ---------------------------------------------------------------------
      1          1           0       -1.145025    0.482760   -0.908358
      2          6           0       -0.771015   -0.010859    0.000314
      3          6           0        0.771123    0.002323   -0.000925
      4          1           0       -1.176497   -0.987780    0.059250
      5          1           0       -1.141645    0.587718    0.844636
      6          1           0        1.178176    1.029158   -0.056406
      7          1           0        1.146511   -0.583110   -0.848138
      8          1           0        1.137830   -0.477534    0.912682
 ---------------------------------------------------------------------
 Rotational constants (GHZ):          79.8476780          19.8581102          19.7914578
 Standard basis: 6-31G(d) (6D, 7F)
 There are    42 symmetry adapted cartesian basis functions of A   symmetry.
 There are    42 symmetry adapted basis functions of A   symmetry.
    42 basis functions,    80 primitive gaussians,    42 cartesian basis functions
     9 alpha electrons        9 beta electrons
       nuclear repulsion energy        42.0945017964 Hartrees.
 NAtoms=    8 NActive=    8 NUniq=    8 SFac= 1.00D+00 NAtFMM=   60 NAOKFM=F Big=F
 Integral buffers will be    131072 words long.
 Raffenetti 2 integral format.
 Two-electron integral symmetry is turned on.
 One-electron integrals computed using PRISM.
 NBasis=    42 RedAO= T EigKep=  8.49D-03  NBF=    42
 NBsUse=    42 1.00D-06 EigRej= -1.00D+00 NBFU=    42
 ExpMin= 1.61D-01 ExpMax= 3.05D+03 ExpMxC= 4.57D+02 IAcc=3 IRadAn=         5 AccDes= 0.00D+00
 Harris functional with IExCor=  402 and IRadAn=       5 diagonalized for initial guess.
 HarFok:  IExCor=  402 AccDes= 0.00D+00 IRadAn=         5 IDoV= 1 UseB2=F ITyADJ=14
 ICtDFT=  3500011 ScaDFX=  1.000000  1.000000  1.000000  1.000000
 FoFCou: FMM=F IPFlag=           0 FMFlag=      100000 FMFlg1=           0
         NFxFlg=           0 DoJE=T BraDBF=F KetDBF=T FulRan=T
         wScrn=  0.000000 ICntrl=       500 IOpCl=  0 I1Cent=   200000004 NGrid=           0
         NMat0=    1 NMatS0=      1 NMatT0=    0 NMatD0=    1 NMtDS0=    0 NMtDT0=    0
 Petite list used in FoFCou.
 Keep R1 ints in memory in canonical form, NReq=3861446.
 Requested convergence on RMS density matrix=1.00D-08 within 128 cycles.
 Requested convergence on MAX density matrix=1.00D-06.
 Requested convergence on             energy=1.00D-06.
 No special actions if energy rises.
 Integral accuracy reduced to 1.0D-05 until final iterations.
 Initial convergence to 1.0D-05 achieved.  Increase integral accuracy.
 SCF Done:  E(RB3LYP) =  -79.8287992960     A.U. after   10 cycles
            NFock= 10  Conv=0.36D-08     -V/T= 2.0106

 **********************************************************************

            Population analysis using the SCF density.

 **********************************************************************

 Orbital symmetries:
       Occupied  (A) (A) (A) (A) (A) (A) (A) (A) (A)
       Virtual   (A) (A) (A) (A) (A) (A) (A) (A) (A) (A) (A) (A)
                 (A) (A) (A) (A) (A) (A) (A) (A) (A) (A) (A) (A)
                 (A) (A) (A) (A) (A) (A) (A) (A) (A)
 The electronic state is 1-A.
 Alpha  occ. eigenvalues --  -10.17337 -10.16940  -0.74665  -0.61198  -0.43497
 Alpha  occ. eigenvalues --   -0.42791  -0.35923  -0.34494  -0.33716
 Alpha virt. eigenvalues --    0.10401   0.15782   0.16616   0.16645   0.18461
 Alpha virt. eigenvalues --    0.19487   0.23706   0.51483   0.54176   0.54666
 Alpha virt. eigenvalues --    0.62312   0.64294   0.66368   0.88257   0.88539
 Alpha virt. eigenvalues --    0.90862   0.91619   0.93190   0.98706   1.06960
 Alpha virt. eigenvalues --    1.43943   1.51111   1.53623   1.92438   1.97230
 Alpha virt. eigenvalues --    2.01199   2.26222   2.28569   2.29970   2.34737
 Alpha virt. eigenvalues --    2.58408   4.14453   4.36704
          Condensed to atoms (all electrons):
               1          2          3          4          5          6
     1  H    0.579334   0.382490  -0.035991  -0.031524  -0.033459  -0.003539
     2  C    0.382490   5.014281   0.373944   0.387679   0.382586  -0.032065
     3  C   -0.035991   0.373944   5.016214  -0.032219  -0.036038   0.382837
     4  H   -0.031524   0.387679  -0.032219   0.556107  -0.031468   0.004269
     5  H   -0.033459   0.382586  -0.036038  -0.031468   0.579261  -0.003573
     6  H   -0.003539  -0.032065   0.382837   0.004269  -0.003573   0.569595
     7  H   -0.003862  -0.036470   0.382271  -0.003328   0.004858  -0.030226
     8  H    0.004908  -0.037077   0.382226  -0.003432  -0.003923  -0.030617
               7          8
     1  H   -0.003862   0.004908
     2  C   -0.036470  -0.037077
     3  C    0.382271   0.382226
     4  H   -0.003328  -0.003432
     5  H    0.004858  -0.003923
     6  H   -0.030226  -0.030617
     7  H    0.575806  -0.033011
     8  H   -0.033011   0.576905
 Mulliken charges:
               1
     1  H    0.141642
     2  C   -0.435370
     3  C   -0.433245
     4  H    0.153917
     5  H    0.141757
     6  H    0.143318
     7  H    0.143960
     8  H    0.144021
 Sum of Mulliken charges =  -0.00000
 Mulliken charges with hydrogens summed into heavy atoms:
               1
     2  C    0.001946
     3  C   -0.001946
 Electronic spatial extent (au):  <R**2>=            109.6612
 Charge=              0.0000 electrons
 Dipole moment (field-independent basis, Debye):
    X=             -0.0178    Y=             -0.0254    Z=              0.0053  Tot=              0.0314
 Quadrupole moment (field-independent basis, Debye-Ang):
   XX=            -15.3379   YY=            -14.5511   ZZ=            -14.7721
   XY=              0.0899   XZ=             -0.0080   YZ=             -0.0060
 Traceless Quadrupole moment (field-independent basis, Debye-Ang):
   XX=             -0.4508   YY=              0.3359   ZZ=              0.1149
   XY=              0.0899   XZ=             -0.0080   YZ=             -0.0060
 Octapole moment (field-independent basis, Debye-Ang**2):
  XXX=             -0.2037  YYY=             -0.0709  ZZZ=              0.0182  XYY=             -0.0370
  XXY=             -0.0733  XXZ=             -0.0046  XZZ=             -0.0075  YZZ=             -0.0619
  YYZ=              0.0021  XYZ=              0.0129
 Hexadecapole moment (field-independent basis, Debye-Ang**3):
 XXXX=            -93.0132 YYYY=            -28.5128 ZZZZ=            -28.7079 XXXY=              0.4519
 XXXZ=             -0.0403 YYYX=              1.3418 YYYZ=              0.0066 ZZZX=              0.1984
 ZZZY=             -0.0269 XXYY=            -18.9373 XXZZ=            -19.3988 YYZZ=             -9.4627
 XXYZ=             -0.0149 YYXZ=             -0.2152 ZZXY=             -1.1255
 N-N= 4.209450179641D+01 E-N=-2.680086194860D+02  KE= 7.899139133138D+01
 1\1\GINC-NODE86\SP\RB3LYP\6-31G(d)\C2H6\YANZ\26-Dec-2024\0\\# b3lyp/6-
 31g(d)\\tmpdir/M2_ref_13.gjf\\0,1\H,0,-1.446643,1.706693,-0.162488\C,0
 ,-1.35441,0.714704,0.303001\C,0,-0.093708,0.006563,-0.233217\H,0,-2.24
 302929,0.16418725,0.13109255\H,0,-1.24209,0.895439,1.381546\H,0,0.8252
 7469,0.590857,-0.04026519\H,0,-0.194808,-0.16538,-1.311007\H,0,0.00093
 ,-0.974522,0.244205\\Version=ES64L-G16RevA.03\State=1-A\HF=-79.8287993
 \RMSD=3.578e-09\Dipole=-0.0112887,-0.0050309,0.0005071\Quadrupole=-0.0
 760947,0.0361324,0.0399623,0.2532782,0.155527,-0.053318\PG=C01 [X(C2H6
 )]\\@


 THE 2ND LAW OF THERMODYNAMICS HAS THE SAME
 DEGREE OF TRUTH AS THE STATEMENT THAT IF YOU THROW
 A TUMBLERFULL OF WATER INTO THE SEA, YOU CANNOT GET
 THE SAME TUMBLERFULL OF WATER OUT AGAIN.
          - J.C. MAXWELL, LETTER TO LORD RAYLEIGH, DECEMBER 6,1870
 Job cpu time:       0 days  0 hours  0 minutes  8.8 seconds.
 Elapsed time:       0 days  0 hours  0 minutes  2.3 seconds.
 File lengths (MBytes):  RWF=      6 Int=      0 D2E=      0 Chk=      1 Scr=      1
 Normal termination of Gaussian 16 at Thu Dec 26 10:40:40 2024.
