 Entering Gaussian System, Link 0=g16
 Initial command:
 /share/apps/gaussian/g16/l1.exe "/tmp/103467.mgr/Gau-47013.inp" -scrdir="/tmp/103467.mgr/"
 Entering Link 1 = /share/apps/gaussian/g16/l1.exe PID=     47019.
  
 Copyright (c) 1988,1990,1992,1993,1995,1998,2003,2009,2016,
            Gaussian, Inc.  All Rights Reserved.
  
 This is part of the Gaussian(R) 16 program.  It is based on
 the Gaussian(R) 09 system (copyright 2009, Gaussian, Inc.),
 the Gaussian(R) 03 system (copyright 2003, Gaussian, Inc.),
 the Gaussian(R) 98 system (copyright 1998, Gaussian, Inc.),
 the Gaussian(R) 94 system (copyright 1995, Gaussian, Inc.),
 the Gaussian 92(TM) system (copyright 1992, Gaussian, Inc.),
 the Gaussian 90(TM) system (copyright 1990, Gaussian, Inc.),
 the Gaussian 88(TM) system (copyright 1988, Gaussian, Inc.),
 the Gaussian 86(TM) system (copyright 1986, Carnegie Mellon
 University), and the Gaussian 82(TM) system (copyright 1983,
 Carnegie Mellon University). Gaussian is a federally registered
 trademark of Gaussian, Inc.
  
 This software contains proprietary and confidential information,
 including trade secrets, belonging to Gaussian, Inc.
  
 This software is provided under written license and may be
 used, copied, transmitted, or stored only in accord with that
 written license.
  
 The following legend is applicable only to US Government
 contracts under FAR:
  
                    RESTRICTED RIGHTS LEGEND
  
 Use, reproduction and disclosure by the US Government is
 subject to restrictions as set forth in subparagraphs (a)
 and (c) of the Commercial Computer Software - Restricted
 Rights clause in FAR 52.227-19.
  
 Gaussian, Inc.
 340 Quinnipiac St., Bldg. 40, Wallingford CT 06492
  
  
 ---------------------------------------------------------------
 Warning -- This program may not be used in any manner that
 competes with the business of Gaussian, Inc. or will provide
 assistance to any competitor of Gaussian, Inc.  The licensee
 of this program is prohibited from giving any competitor of
 Gaussian, Inc. access to this program.  By using this program,
 the user acknowledges that Gaussian, Inc. is engaged in the
 business of creating and licensing software in the field of
 computational chemistry and represents and warrants to the
 licensee that it is not a competitor of Gaussian, Inc. and that
 it will not use this program in any manner prohibited above.
 ---------------------------------------------------------------
  

 Cite this work as:
 Gaussian 16, Revision A.03,
 M. J. Frisch, G. W. Trucks, H. B. Schlegel, G. E. Scuseria, 
 M. A. Robb, J. R. Cheeseman, G. Scalmani, V. Barone, 
 G. A. Petersson, H. Nakatsuji, X. Li, M. Caricato, A. V. Marenich, 
 J. Bloino, B. G. Janesko, R. Gomperts, B. Mennucci, H. P. Hratchian, 
 J. V. Ortiz, A. F. Izmaylov, J. L. Sonnenberg, D. Williams-Young, 
 F. Ding, F. Lipparini, F. Egidi, J. Goings, B. Peng, A. Petrone, 
 T. Henderson, D. Ranasinghe, V. G. Zakrzewski, J. Gao, N. Rega, 
 G. Zheng, W. Liang, M. Hada, M. Ehara, K. Toyota, R. Fukuda, 
 J. Hasegawa, M. Ishida, T. Nakajima, Y. Honda, O. Kitao, H. Nakai, 
 T. Vreven, K. Throssell, J. A. Montgomery, Jr., J. E. Peralta, 
 F. Ogliaro, M. J. Bearpark, J. J. Heyd, E. N. Brothers, K. N. Kudin, 
 V. N. Staroverov, T. A. Keith, R. Kobayashi, J. Normand, 
 K. Raghavachari, A. P. Rendell, J. C. Burant, S. S. Iyengar, 
 J. Tomasi, M. Cossi, J. M. Millam, M. Klene, C. Adamo, R. Cammi, 
 J. W. Ochterski, R. L. Martin, K. Morokuma, O. Farkas, 
 J. B. Foresman, and D. J. Fox, Gaussian, Inc., Wallingford CT, 2016.
 
 ******************************************
 Gaussian 16:  ES64L-G16RevA.03 25-Dec-2016
                26-Dec-2024 
 ******************************************
 %nprocshared=4
 Will use up to    4 processors via shared memory.
 %mem=4GB
 ----------------
 # b3lyp/6-31g(d)
 ----------------
 1/38=1,172=1/1;
 2/12=2,17=6,18=5,40=1/2;
 3/5=1,6=6,7=1,11=2,25=1,30=1,74=-5/1,2,3;
 4//1;
 5/5=2,38=5/2;
 6/7=2,8=2,9=2,10=2,28=1/1;
 99/5=1,9=1/99;
 --------------------
 tmpdir/M2_ref_10.gjf
 --------------------
 Symbolic Z-matrix:
 Charge =  0 Multiplicity = 1
 C                    -2.58198  -0.0458    0.06552 
 C                    -1.35441   0.7147    0.303 
 C                    -0.09371   0.00656  -0.23322 
 N                    -3.50723  -0.63397  -0.12109 
 H                    -1.24209   0.89544   1.38155 
 H                    -1.44664   1.70669  -0.16249 
 H                     0.82527   0.59086  -0.04027 
 H                    -0.19481  -0.16538  -1.31101 
 H                     0.00093  -0.97452   0.24421 
 
                          Input orientation:                          
 ---------------------------------------------------------------------
 Center     Atomic      Atomic             Coordinates (Angstroms)
 Number     Number       Type             X           Y           Z
 ---------------------------------------------------------------------
      1          6           0       -2.581978   -0.045798    0.065521
      2          6           0       -1.354410    0.714704    0.303001
      3          6           0       -0.093708    0.006563   -0.233217
      4          7           0       -3.507232   -0.633974   -0.121094
      5          1           0       -1.242090    0.895439    1.381546
      6          1           0       -1.446643    1.706693   -0.162488
      7          1           0        0.825275    0.590857   -0.040265
      8          1           0       -0.194808   -0.165380   -1.311007
      9          1           0        0.000930   -0.974522    0.244205
 ---------------------------------------------------------------------
                    Distance matrix (angstroms):
                    1          2          3          4          5
     1  C    0.000000
     2  C    1.463449   0.000000
     3  C    2.506686   1.542194   0.000000
     4  N    1.112147   2.575545   3.474910   0.000000
     5  H    2.100750   1.099336   2.171714   3.118958   0.000000
     6  H    2.100523   1.099650   2.173908   3.118728   1.756137
     7  H    3.467837   2.210022   1.105965   4.503039   2.527511
     8  H    2.758208   2.173533   1.096092   3.550721   3.077658
     9  H    2.750613   2.166538   1.095178   3.543531   2.517022
                    6          7          8          9
     6  H    0.000000
     7  H    2.534095   0.000000
     8  H    2.528012   1.796454   0.000000
     9  H    3.074050   1.791893   1.764004   0.000000
 Stoichiometry    C3H5N
 Framework group  C1[X(C3H5N)]
 Deg. of freedom    21
 Full point group                 C1      NOp   1
 Largest Abelian subgroup         C1      NOp   1
 Largest concise Abelian subgroup C1      NOp   1
                         Standard orientation:                         
 ---------------------------------------------------------------------
 Center     Atomic      Atomic             Coordinates (Angstroms)
 Number     Number       Type             X           Y           Z
 ---------------------------------------------------------------------
      1          6           0       -0.891259    0.101365   -0.000183
      2          6           0        0.465393    0.650162   -0.000657
      3          6           0        1.556283   -0.439940   -0.000665
      4          7           0       -1.916849   -0.328792    0.000372
      5          1           0        0.595300    1.298199    0.877815
      6          1           0        0.593261    1.300230   -0.878319
      7          1           0        2.574817   -0.008997    0.005424
      8          1           0        1.439190   -1.082046   -0.881236
      9          1           0        1.432875   -1.075373    0.882744
 ---------------------------------------------------------------------
 Rotational constants (GHZ):          28.2762638           4.7428359           4.2761687
 Standard basis: 6-31G(d) (6D, 7F)
 There are    70 symmetry adapted cartesian basis functions of A   symmetry.
 There are    70 symmetry adapted basis functions of A   symmetry.
    70 basis functions,   132 primitive gaussians,    70 cartesian basis functions
    15 alpha electrons       15 beta electrons
       nuclear repulsion energy       103.6110109468 Hartrees.
 NAtoms=    9 NActive=    9 NUniq=    9 SFac= 1.00D+00 NAtFMM=   60 NAOKFM=F Big=F
 Integral buffers will be    131072 words long.
 Raffenetti 2 integral format.
 Two-electron integral symmetry is turned on.
 One-electron integrals computed using PRISM.
 NBasis=    70 RedAO= T EigKep=  1.34D-03  NBF=    70
 NBsUse=    70 1.00D-06 EigRej= -1.00D+00 NBFU=    70
 ExpMin= 1.61D-01 ExpMax= 4.17D+03 ExpMxC= 6.27D+02 IAcc=3 IRadAn=         5 AccDes= 0.00D+00
 Harris functional with IExCor=  402 and IRadAn=       5 diagonalized for initial guess.
 HarFok:  IExCor=  402 AccDes= 0.00D+00 IRadAn=         5 IDoV= 1 UseB2=F ITyADJ=14
 ICtDFT=  3500011 ScaDFX=  1.000000  1.000000  1.000000  1.000000
 FoFCou: FMM=F IPFlag=           0 FMFlag=      100000 FMFlg1=           0
         NFxFlg=           0 DoJE=T BraDBF=F KetDBF=T FulRan=T
         wScrn=  0.000000 ICntrl=       500 IOpCl=  0 I1Cent=   200000004 NGrid=           0
         NMat0=    1 NMatS0=      1 NMatT0=    0 NMatD0=    1 NMtDS0=    0 NMtDT0=    0
 Petite list used in FoFCou.
 Keep R1 ints in memory in canonical form, NReq=6658320.
 Requested convergence on RMS density matrix=1.00D-08 within 128 cycles.
 Requested convergence on MAX density matrix=1.00D-06.
 Requested convergence on             energy=1.00D-06.
 No special actions if energy rises.
 Integral accuracy reduced to 1.0D-05 until final iterations.
 Initial convergence to 1.0D-05 achieved.  Increase integral accuracy.
 SCF Done:  E(RB3LYP) =  -172.062165988     A.U. after   13 cycles
            NFock= 13  Conv=0.26D-08     -V/T= 2.0085

 **********************************************************************

            Population analysis using the SCF density.

 **********************************************************************

 Orbital symmetries:
       Occupied  (A) (A) (A) (A) (A) (A) (A) (A) (A) (A) (A) (A)
                 (A) (A) (A)
       Virtual   (A) (A) (A) (A) (A) (A) (A) (A) (A) (A) (A) (A)
                 (A) (A) (A) (A) (A) (A) (A) (A) (A) (A) (A) (A)
                 (A) (A) (A) (A) (A) (A) (A) (A) (A) (A) (A) (A)
                 (A) (A) (A) (A) (A) (A) (A) (A) (A) (A) (A) (A)
                 (A) (A) (A) (A) (A) (A) (A)
 The electronic state is 1-A.
 Alpha  occ. eigenvalues --  -14.31978 -10.24008 -10.21544 -10.20688  -0.91843
 Alpha  occ. eigenvalues --   -0.80513  -0.67124  -0.51827  -0.48374  -0.42982
 Alpha  occ. eigenvalues --   -0.39779  -0.38858  -0.35189  -0.33286  -0.33140
 Alpha virt. eigenvalues --    0.04336   0.05308   0.09153   0.13331   0.13619
 Alpha virt. eigenvalues --    0.15168   0.19008   0.19402   0.23389   0.30624
 Alpha virt. eigenvalues --    0.51771   0.52108   0.52518   0.56738   0.58791
 Alpha virt. eigenvalues --    0.61249   0.68926   0.71665   0.73741   0.80421
 Alpha virt. eigenvalues --    0.81865   0.85233   0.86366   0.88466   0.90085
 Alpha virt. eigenvalues --    0.91480   0.95541   1.08616   1.27512   1.38626
 Alpha virt. eigenvalues --    1.42258   1.46663   1.51039   1.53823   1.66545
 Alpha virt. eigenvalues --    1.70044   1.83626   1.88504   1.97427   1.99359
 Alpha virt. eigenvalues --    2.00255   2.02919   2.21883   2.24191   2.28852
 Alpha virt. eigenvalues --    2.29080   2.50345   2.80912   2.81720   2.88001
 Alpha virt. eigenvalues --    3.30225   4.06809   4.11237   4.28105   4.65378
          Condensed to atoms (all electrons):
               1          2          3          4          5          6
     1  C    4.518338   0.309823  -0.035493   0.935752  -0.031573  -0.031585
     2  C    0.309823   5.127529   0.355377  -0.099967   0.372911   0.372761
     3  C   -0.035493   0.355377   5.058297  -0.001268  -0.034567  -0.034499
     4  N    0.935752  -0.099967  -0.001268   6.608432  -0.000621  -0.000614
     5  H   -0.031573   0.372911  -0.034567  -0.000621   0.535234  -0.032208
     6  H   -0.031585   0.372761  -0.034499  -0.000614  -0.032208   0.535269
     7  H    0.004069  -0.027481   0.372443  -0.000006  -0.002531  -0.002519
     8  H   -0.004102  -0.033708   0.381535   0.000164   0.004501  -0.004023
     9  H   -0.004247  -0.034217   0.381458   0.000165  -0.004100   0.004554
               7          8          9
     1  C    0.004069  -0.004102  -0.004247
     2  C   -0.027481  -0.033708  -0.034217
     3  C    0.372443   0.381535   0.381458
     4  N   -0.000006   0.000164   0.000165
     5  H   -0.002531   0.004501  -0.004100
     6  H   -0.002519  -0.004023   0.004554
     7  H    0.548611  -0.026498  -0.026872
     8  H   -0.026498   0.540195  -0.029460
     9  H   -0.026872  -0.029460   0.541388
 Mulliken charges:
               1
     1  C    0.339018
     2  C   -0.343028
     3  C   -0.443281
     4  N   -0.442037
     5  H    0.192955
     6  H    0.192863
     7  H    0.160784
     8  H    0.171395
     9  H    0.171331
 Sum of Mulliken charges =  -0.00000
 Mulliken charges with hydrogens summed into heavy atoms:
               1
     1  C    0.339018
     2  C    0.042790
     3  C    0.060229
     4  N   -0.442037
 Electronic spatial extent (au):  <R**2>=            311.4012
 Charge=             -0.0000 electrons
 Dipole moment (field-independent basis, Debye):
    X=              3.5917    Y=              1.2538    Z=              0.0022  Tot=              3.8043
 Quadrupole moment (field-independent basis, Debye-Ang):
   XX=            -30.3341   YY=            -23.5297   ZZ=            -23.4961
   XY=             -1.2991   XZ=              0.0093   YZ=              0.0074
 Traceless Quadrupole moment (field-independent basis, Debye-Ang):
   XX=             -4.5474   YY=              2.2569   ZZ=              2.2906
   XY=             -1.2991   XZ=              0.0093   YZ=              0.0074
 Octapole moment (field-independent basis, Debye-Ang**2):
  XXX=             18.1601  YYY=              1.4048  ZZZ=              0.0059  XYY=              1.4186
  XXY=              3.9538  XXZ=              0.0170  XZZ=              0.5241  YZZ=              0.5064
  YYZ=             -0.0149  XYZ=              0.0154
 Hexadecapole moment (field-independent basis, Debye-Ang**3):
 XXXX=           -335.2417 YYYY=            -70.1823 ZZZZ=            -35.2876 XXXY=             -5.6825
 XXXZ=              0.0767 YYYX=              0.1571 YYYZ=              0.0215 ZZZX=              0.0064
 ZZZY=              0.0066 XXYY=            -64.5954 XXZZ=            -57.5071 YYZZ=            -15.4422
 XXYZ=              0.0317 YYXZ=             -0.0203 ZZXY=             -0.1426
 N-N= 1.036110109468D+02 E-N=-6.061868815885D+02  KE= 1.706198765518D+02
 1\1\GINC-NODE86\SP\RB3LYP\6-31G(d)\C3H5N1\YANZ\26-Dec-2024\0\\# b3lyp/
 6-31g(d)\\tmpdir/M2_ref_10.gjf\\0,1\C,0,-2.581978,-0.045798,0.065521\C
 ,0,-1.35441,0.714704,0.303001\C,0,-0.093708,0.006563,-0.233217\N,0,-3.
 5072316,-0.63397435,-0.12109425\H,0,-1.24209,0.895439,1.381546\H,0,-1.
 446643,1.706693,-0.162488\H,0,0.82527469,0.590857,-0.04026519\H,0,-0.1
 94808,-0.16538,-1.311007\H,0,0.00093,-0.974522,0.244205\\Version=ES64L
 -G16RevA.03\State=1-A\HF=-172.062166\RMSD=2.637e-09\Dipole=1.2927731,0
 .7240257,0.2113324\Quadrupole=-2.8135548,1.0978351,1.7157197,-1.827200
 3,-0.360238,-0.0710378\PG=C01 [X(C3H5N1)]\\@


 ERROR IS A HARDY PLANT... IT FLOURISHETH IN EVERY SOIL.
            MARTIN FARQUHAR TUPPER
 Job cpu time:       0 days  0 hours  0 minutes 19.6 seconds.
 Elapsed time:       0 days  0 hours  0 minutes  5.2 seconds.
 File lengths (MBytes):  RWF=      6 Int=      0 D2E=      0 Chk=      1 Scr=      1
 Normal termination of Gaussian 16 at Thu Dec 26 10:40:36 2024.
