 Entering Gaussian System, Link 0=g16
 Initial command:
 /share/apps/gaussian/g16/l1.exe "/tmp/103467.mgr/Gau-47621.inp" -scrdir="/tmp/103467.mgr/"
 Entering Link 1 = /share/apps/gaussian/g16/l1.exe PID=     47622.
  
 Copyright (c) 1988,1990,1992,1993,1995,1998,2003,2009,2016,
            Gaussian, Inc.  All Rights Reserved.
  
 This is part of the Gaussian(R) 16 program.  It is based on
 the Gaussian(R) 09 system (copyright 2009, Gaussian, Inc.),
 the Gaussian(R) 03 system (copyright 2003, Gaussian, Inc.),
 the Gaussian(R) 98 system (copyright 1998, Gaussian, Inc.),
 the Gaussian(R) 94 system (copyright 1995, Gaussian, Inc.),
 the Gaussian 92(TM) system (copyright 1992, Gaussian, Inc.),
 the Gaussian 90(TM) system (copyright 1990, Gaussian, Inc.),
 the Gaussian 88(TM) system (copyright 1988, Gaussian, Inc.),
 the Gaussian 86(TM) system (copyright 1986, Carnegie Mellon
 University), and the Gaussian 82(TM) system (copyright 1983,
 Carnegie Mellon University). Gaussian is a federally registered
 trademark of Gaussian, Inc.
  
 This software contains proprietary and confidential information,
 including trade secrets, belonging to Gaussian, Inc.
  
 This software is provided under written license and may be
 used, copied, transmitted, or stored only in accord with that
 written license.
  
 The following legend is applicable only to US Government
 contracts under FAR:
  
                    RESTRICTED RIGHTS LEGEND
  
 Use, reproduction and disclosure by the US Government is
 subject to restrictions as set forth in subparagraphs (a)
 and (c) of the Commercial Computer Software - Restricted
 Rights clause in FAR 52.227-19.
  
 Gaussian, Inc.
 340 Quinnipiac St., Bldg. 40, Wallingford CT 06492
  
  
 ---------------------------------------------------------------
 Warning -- This program may not be used in any manner that
 competes with the business of Gaussian, Inc. or will provide
 assistance to any competitor of Gaussian, Inc.  The licensee
 of this program is prohibited from giving any competitor of
 Gaussian, Inc. access to this program.  By using this program,
 the user acknowledges that Gaussian, Inc. is engaged in the
 business of creating and licensing software in the field of
 computational chemistry and represents and warrants to the
 licensee that it is not a competitor of Gaussian, Inc. and that
 it will not use this program in any manner prohibited above.
 ---------------------------------------------------------------
  

 Cite this work as:
 Gaussian 16, Revision A.03,
 M. J. Frisch, G. W. Trucks, H. B. Schlegel, G. E. Scuseria, 
 M. A. Robb, J. R. Cheeseman, G. Scalmani, V. Barone, 
 G. A. Petersson, H. Nakatsuji, X. Li, M. Caricato, A. V. Marenich, 
 J. Bloino, B. G. Janesko, R. Gomperts, B. Mennucci, H. P. Hratchian, 
 J. V. Ortiz, A. F. Izmaylov, J. L. Sonnenberg, D. Williams-Young, 
 F. Ding, F. Lipparini, F. Egidi, J. Goings, B. Peng, A. Petrone, 
 T. Henderson, D. Ranasinghe, V. G. Zakrzewski, J. Gao, N. Rega, 
 G. Zheng, W. Liang, M. Hada, M. Ehara, K. Toyota, R. Fukuda, 
 J. Hasegawa, M. Ishida, T. Nakajima, Y. Honda, O. Kitao, H. Nakai, 
 T. Vreven, K. Throssell, J. A. Montgomery, Jr., J. E. Peralta, 
 F. Ogliaro, M. J. Bearpark, J. J. Heyd, E. N. Brothers, K. N. Kudin, 
 V. N. Staroverov, T. A. Keith, R. Kobayashi, J. Normand, 
 K. Raghavachari, A. P. Rendell, J. C. Burant, S. S. Iyengar, 
 J. Tomasi, M. Cossi, J. M. Millam, M. Klene, C. Adamo, R. Cammi, 
 J. W. Ochterski, R. L. Martin, K. Morokuma, O. Farkas, 
 J. B. Foresman, and D. J. Fox, Gaussian, Inc., Wallingford CT, 2016.
 
 ******************************************
 Gaussian 16:  ES64L-G16RevA.03 25-Dec-2016
                26-Dec-2024 
 ******************************************
 %nprocshared=4
 Will use up to    4 processors via shared memory.
 %mem=4GB
 ----------------
 # b3lyp/6-31g(d)
 ----------------
 1/38=1,172=1/1;
 2/12=2,17=6,18=5,40=1/2;
 3/5=1,6=6,7=1,11=2,25=1,30=1,74=-5/1,2,3;
 4//1;
 5/5=2,38=5/2;
 6/7=2,8=2,9=2,10=2,28=1/1;
 99/5=1,9=1/99;
 --------------------
 tmpdir/M2_ref_21.gjf
 --------------------
 Symbolic Z-matrix:
 Charge =  0 Multiplicity = 1
 N                     2.3613    0.12633  -0.48885 
 O                     2.65858  -0.96764   0.41397 
 H                     2.63969  -1.73452  -0.17952 
 H                     3.16244   0.74581  -0.35677 
 H                     1.53123   0.60764  -0.12322 
 
                          Input orientation:                          
 ---------------------------------------------------------------------
 Center     Atomic      Atomic             Coordinates (Angstroms)
 Number     Number       Type             X           Y           Z
 ---------------------------------------------------------------------
      1          7           0        2.361301    0.126334   -0.488845
      2          8           0        2.658583   -0.967636    0.413970
      3          1           0        2.639689   -1.734523   -0.179515
      4          1           0        3.162444    0.745811   -0.356766
      5          1           0        1.531230    0.607638   -0.123222
 ---------------------------------------------------------------------
                    Distance matrix (angstroms):
                    1          2          3          4          5
     1  N    0.000000
     2  O    1.449214   0.000000
     3  H    1.906823   0.969895   0.000000
     4  H    1.021287   1.945202   2.541013   0.000000
     5  H    1.026817   2.010221   2.591828   1.653631   0.000000
 Stoichiometry    H3NO
 Framework group  C1[X(H3NO)]
 Deg. of freedom     9
 Full point group                 C1      NOp   1
 Largest Abelian subgroup         C1      NOp   1
 Largest concise Abelian subgroup C1      NOp   1
                         Standard orientation:                         
 ---------------------------------------------------------------------
 Center     Atomic      Atomic             Coordinates (Angstroms)
 Number     Number       Type             X           Y           Z
 ---------------------------------------------------------------------
      1          7           0        0.691008   -0.012869    0.147955
      2          8           0       -0.729101    0.010729   -0.140067
      3          1           0       -1.119225   -0.089035    0.742286
      4          1           0        1.012811    0.868904   -0.254469
      5          1           0        1.102164   -0.775620   -0.402967
 ---------------------------------------------------------------------
 Rotational constants (GHZ):         190.6790946          25.1635670          25.0262055
 Standard basis: 6-31G(d) (6D, 7F)
 There are    36 symmetry adapted cartesian basis functions of A   symmetry.
 There are    36 symmetry adapted basis functions of A   symmetry.
    36 basis functions,    68 primitive gaussians,    36 cartesian basis functions
     9 alpha electrons        9 beta electrons
       nuclear repulsion energy        39.0049646172 Hartrees.
 NAtoms=    5 NActive=    5 NUniq=    5 SFac= 1.00D+00 NAtFMM=   60 NAOKFM=F Big=F
 Integral buffers will be    131072 words long.
 Raffenetti 2 integral format.
 Two-electron integral symmetry is turned on.
 One-electron integrals computed using PRISM.
 NBasis=    36 RedAO= T EigKep=  1.10D-02  NBF=    36
 NBsUse=    36 1.00D-06 EigRej= -1.00D+00 NBFU=    36
 ExpMin= 1.61D-01 ExpMax= 5.48D+03 ExpMxC= 8.25D+02 IAcc=3 IRadAn=         5 AccDes= 0.00D+00
 Harris functional with IExCor=  402 and IRadAn=       5 diagonalized for initial guess.
 HarFok:  IExCor=  402 AccDes= 0.00D+00 IRadAn=         5 IDoV= 1 UseB2=F ITyADJ=14
 ICtDFT=  3500011 ScaDFX=  1.000000  1.000000  1.000000  1.000000
 FoFCou: FMM=F IPFlag=           0 FMFlag=      100000 FMFlg1=           0
         NFxFlg=           0 DoJE=T BraDBF=F KetDBF=T FulRan=T
         wScrn=  0.000000 ICntrl=       500 IOpCl=  0 I1Cent=   200000004 NGrid=           0
         NMat0=    1 NMatS0=      1 NMatT0=    0 NMatD0=    1 NMtDS0=    0 NMtDT0=    0
 Petite list used in FoFCou.
 Keep R1 ints in memory in canonical form, NReq=3673432.
 Requested convergence on RMS density matrix=1.00D-08 within 128 cycles.
 Requested convergence on MAX density matrix=1.00D-06.
 Requested convergence on             energy=1.00D-06.
 No special actions if energy rises.
 Integral accuracy reduced to 1.0D-05 until final iterations.
 Initial convergence to 1.0D-05 achieved.  Increase integral accuracy.
 SCF Done:  E(RB3LYP) =  -131.704097155     A.U. after   12 cycles
            NFock= 12  Conv=0.11D-08     -V/T= 2.0086

 **********************************************************************

            Population analysis using the SCF density.

 **********************************************************************

 Orbital symmetries:
       Occupied  (A) (A) (A) (A) (A) (A) (A) (A) (A)
       Virtual   (A) (A) (A) (A) (A) (A) (A) (A) (A) (A) (A) (A)
                 (A) (A) (A) (A) (A) (A) (A) (A) (A) (A) (A) (A)
                 (A) (A) (A)
 The electronic state is 1-A.
 Alpha  occ. eigenvalues --  -19.16400 -14.36516  -1.03989  -0.79662  -0.49789
 Alpha  occ. eigenvalues --   -0.48554  -0.42296  -0.28131  -0.24875
 Alpha virt. eigenvalues --    0.07927   0.08402   0.15322   0.15817   0.64127
 Alpha virt. eigenvalues --    0.71956   0.72603   0.81783   0.83013   0.88657
 Alpha virt. eigenvalues --    0.95400   0.95542   1.03439   1.20661   1.32409
 Alpha virt. eigenvalues --    1.48721   1.50754   1.75686   1.91132   2.11521
 Alpha virt. eigenvalues --    2.29198   2.31155   2.41290   2.45437   2.79054
 Alpha virt. eigenvalues --    3.56002   3.74888
          Condensed to atoms (all electrons):
               1          2          3          4          5
     1  N    6.779821   0.148825  -0.040261   0.310874   0.303554
     2  O    0.148825   8.235232   0.234320  -0.040017  -0.035193
     3  H   -0.040261   0.234320   0.387132   0.003893   0.003360
     4  H    0.310874  -0.040017   0.003893   0.447048  -0.040034
     5  H    0.303554  -0.035193   0.003360  -0.040034   0.452123
 Mulliken charges:
               1
     1  N   -0.502813
     2  O   -0.543168
     3  H    0.411555
     4  H    0.318235
     5  H    0.316190
 Sum of Mulliken charges =   0.00000
 Mulliken charges with hydrogens summed into heavy atoms:
               1
     1  N    0.131612
     2  O   -0.131612
 Electronic spatial extent (au):  <R**2>=             73.9980
 Charge=              0.0000 electrons
 Dipole moment (field-independent basis, Debye):
    X=              0.6275    Y=             -0.0096    Z=              0.0271  Tot=              0.6282
 Quadrupole moment (field-independent basis, Debye-Ang):
   XX=            -10.6753   YY=            -11.2806   ZZ=            -12.5229
   XY=              0.3073   XZ=             -3.7762   YZ=              0.0361
 Traceless Quadrupole moment (field-independent basis, Debye-Ang):
   XX=              0.8177   YY=              0.2124   ZZ=             -1.0300
   XY=              0.3073   XZ=             -3.7762   YZ=              0.0361
 Octapole moment (field-independent basis, Debye-Ang**2):
  XXX=             -1.7305  YYY=              0.3092  ZZZ=             -0.3516  XYY=              1.5007
  XXY=             -0.2563  XXZ=              0.2856  XZZ=             -2.3646  YZZ=             -0.1105
  YYZ=             -0.7096  XYZ=              0.4008
 Hexadecapole moment (field-independent basis, Debye-Ang**3):
 XXXX=            -48.7610 YYYY=            -12.9253 ZZZZ=            -14.1927 XXXY=              0.2253
 XXXZ=             -5.5474 YYYX=              0.3998 YYYZ=              0.0438 ZZZX=             -3.3876
 ZZZY=              0.0161 XXYY=             -9.9219 XXZZ=            -10.8365 YYZZ=             -4.6097
 XXYZ=              0.0959 YYXZ=             -1.3866 ZZXY=              0.0736
 N-N= 3.900496461719D+01 E-N=-3.877558704452D+02  KE= 1.305761961734D+02
 1\1\GINC-NODE86\SP\RB3LYP\6-31G(d)\H3N1O1\YANZ\26-Dec-2024\0\\# b3lyp/
 6-31g(d)\\tmpdir/M2_ref_21.gjf\\0,1\N,0,2.361301,0.126334,-0.488845\O,
 0,2.658583,-0.967636,0.41397\H,0,2.639689,-1.734523,-0.179515\H,0,3.16
 2444,0.745811,-0.356766\H,0,1.53122974,0.60763832,-0.12322171\\Version
 =ES64L-G16RevA.03\State=1-A\HF=-131.7040972\RMSD=1.100e-09\Dipole=-0.0
 51505,0.2086046,-0.122111\Quadrupole=0.0922502,2.6305746,-2.7228248,-0
 .1622852,-0.5555274,0.9589541\PG=C01 [X(H3N1O1)]\\@


 THE 2ND LAW OF THERMODYNAMICS HAS THE SAME
 DEGREE OF TRUTH AS THE STATEMENT THAT IF YOU THROW
 A TUMBLERFULL OF WATER INTO THE SEA, YOU CANNOT GET
 THE SAME TUMBLERFULL OF WATER OUT AGAIN.
          - J.C. MAXWELL, LETTER TO LORD RAYLEIGH, DECEMBER 6,1870
 Job cpu time:       0 days  0 hours  0 minutes  6.4 seconds.
 Elapsed time:       0 days  0 hours  0 minutes  1.7 seconds.
 File lengths (MBytes):  RWF=      6 Int=      0 D2E=      0 Chk=      1 Scr=      1
 Normal termination of Gaussian 16 at Thu Dec 26 10:40:40 2024.
