 Entering Gaussian System, Link 0=g16
 Initial command:
 /share/apps/gaussian/g16/l1.exe "/tmp/103467.mgr/Gau-47014.inp" -scrdir="/tmp/103467.mgr/"
 Entering Link 1 = /share/apps/gaussian/g16/l1.exe PID=     47018.
  
 Copyright (c) 1988,1990,1992,1993,1995,1998,2003,2009,2016,
            Gaussian, Inc.  All Rights Reserved.
  
 This is part of the Gaussian(R) 16 program.  It is based on
 the Gaussian(R) 09 system (copyright 2009, Gaussian, Inc.),
 the Gaussian(R) 03 system (copyright 2003, Gaussian, Inc.),
 the Gaussian(R) 98 system (copyright 1998, Gaussian, Inc.),
 the Gaussian(R) 94 system (copyright 1995, Gaussian, Inc.),
 the Gaussian 92(TM) system (copyright 1992, Gaussian, Inc.),
 the Gaussian 90(TM) system (copyright 1990, Gaussian, Inc.),
 the Gaussian 88(TM) system (copyright 1988, Gaussian, Inc.),
 the Gaussian 86(TM) system (copyright 1986, Carnegie Mellon
 University), and the Gaussian 82(TM) system (copyright 1983,
 Carnegie Mellon University). Gaussian is a federally registered
 trademark of Gaussian, Inc.
  
 This software contains proprietary and confidential information,
 including trade secrets, belonging to Gaussian, Inc.
  
 This software is provided under written license and may be
 used, copied, transmitted, or stored only in accord with that
 written license.
  
 The following legend is applicable only to US Government
 contracts under FAR:
  
                    RESTRICTED RIGHTS LEGEND
  
 Use, reproduction and disclosure by the US Government is
 subject to restrictions as set forth in subparagraphs (a)
 and (c) of the Commercial Computer Software - Restricted
 Rights clause in FAR 52.227-19.
  
 Gaussian, Inc.
 340 Quinnipiac St., Bldg. 40, Wallingford CT 06492
  
  
 ---------------------------------------------------------------
 Warning -- This program may not be used in any manner that
 competes with the business of Gaussian, Inc. or will provide
 assistance to any competitor of Gaussian, Inc.  The licensee
 of this program is prohibited from giving any competitor of
 Gaussian, Inc. access to this program.  By using this program,
 the user acknowledges that Gaussian, Inc. is engaged in the
 business of creating and licensing software in the field of
 computational chemistry and represents and warrants to the
 licensee that it is not a competitor of Gaussian, Inc. and that
 it will not use this program in any manner prohibited above.
 ---------------------------------------------------------------
  

 Cite this work as:
 Gaussian 16, Revision A.03,
 M. J. Frisch, G. W. Trucks, H. B. Schlegel, G. E. Scuseria, 
 M. A. Robb, J. R. Cheeseman, G. Scalmani, V. Barone, 
 G. A. Petersson, H. Nakatsuji, X. Li, M. Caricato, A. V. Marenich, 
 J. Bloino, B. G. Janesko, R. Gomperts, B. Mennucci, H. P. Hratchian, 
 J. V. Ortiz, A. F. Izmaylov, J. L. Sonnenberg, D. Williams-Young, 
 F. Ding, F. Lipparini, F. Egidi, J. Goings, B. Peng, A. Petrone, 
 T. Henderson, D. Ranasinghe, V. G. Zakrzewski, J. Gao, N. Rega, 
 G. Zheng, W. Liang, M. Hada, M. Ehara, K. Toyota, R. Fukuda, 
 J. Hasegawa, M. Ishida, T. Nakajima, Y. Honda, O. Kitao, H. Nakai, 
 T. Vreven, K. Throssell, J. A. Montgomery, Jr., J. E. Peralta, 
 F. Ogliaro, M. J. Bearpark, J. J. Heyd, E. N. Brothers, K. N. Kudin, 
 V. N. Staroverov, T. A. Keith, R. Kobayashi, J. Normand, 
 K. Raghavachari, A. P. Rendell, J. C. Burant, S. S. Iyengar, 
 J. Tomasi, M. Cossi, J. M. Millam, M. Klene, C. Adamo, R. Cammi, 
 J. W. Ochterski, R. L. Martin, K. Morokuma, O. Farkas, 
 J. B. Foresman, and D. J. Fox, Gaussian, Inc., Wallingford CT, 2016.
 
 ******************************************
 Gaussian 16:  ES64L-G16RevA.03 25-Dec-2016
                26-Dec-2024 
 ******************************************
 %nprocshared=4
 Will use up to    4 processors via shared memory.
 %mem=4GB
 ----------------
 # b3lyp/6-31g(d)
 ----------------
 1/38=1,172=1/1;
 2/12=2,17=6,18=5,40=1/2;
 3/5=1,6=6,7=1,11=2,25=1,30=1,74=-5/1,2,3;
 4//1;
 5/5=2,38=5/2;
 6/7=2,8=2,9=2,10=2,28=1/1;
 99/5=1,9=1/99;
 -------------------
 tmpdir/M2_ref_6.gjf
 -------------------
 Symbolic Z-matrix:
 Charge =  0 Multiplicity = 1
 C                    -1.35441   0.7147    0.303 
 H                    -1.44664   1.70669  -0.16249 
 H                    -2.24303   0.16419   0.13109 
 H                    -1.24209   0.89544   1.38155 
 H                    -0.44181   0.20209  -0.08516 
 
                          Input orientation:                          
 ---------------------------------------------------------------------
 Center     Atomic      Atomic             Coordinates (Angstroms)
 Number     Number       Type             X           Y           Z
 ---------------------------------------------------------------------
      1          6           0       -1.354410    0.714704    0.303001
      2          1           0       -1.446643    1.706693   -0.162488
      3          1           0       -2.243029    0.164187    0.131093
      4          1           0       -1.242090    0.895439    1.381546
      5          1           0       -0.441805    0.202091   -0.085160
 ---------------------------------------------------------------------
                    Distance matrix (angstroms):
                    1          2          3          4          5
     1  C    0.000000
     2  H    1.099650   0.000000
     3  H    1.059370   1.760609   0.000000
     4  H    1.099336   1.756137   1.760751   0.000000
     5  H    1.116373   1.810941   1.814555   1.808981   0.000000
 Stoichiometry    CH4
 Framework group  C1[X(CH4)]
 Deg. of freedom     9
 Full point group                 C1      NOp   1
 Largest Abelian subgroup         C1      NOp   1
 Largest concise Abelian subgroup C1      NOp   1
                         Standard orientation:                         
 ---------------------------------------------------------------------
 Center     Atomic      Atomic             Coordinates (Angstroms)
 Number     Number       Type             X           Y           Z
 ---------------------------------------------------------------------
      1          6           0       -0.003320    0.012513   -0.000056
      2          1           0        0.380434   -0.528840   -0.876925
      3          1           0        0.406603    0.989253    0.014397
      4          1           0        0.352452   -0.543686    0.878925
      5          1           0       -1.119570    0.008193   -0.016058
 ---------------------------------------------------------------------
 Rotational constants (GHZ):         161.8929950         155.2591139         154.6128149
 Standard basis: 6-31G(d) (6D, 7F)
 There are    23 symmetry adapted cartesian basis functions of A   symmetry.
 There are    23 symmetry adapted basis functions of A   symmetry.
    23 basis functions,    44 primitive gaussians,    23 cartesian basis functions
     5 alpha electrons        5 beta electrons
       nuclear repulsion energy        13.3955208274 Hartrees.
 NAtoms=    5 NActive=    5 NUniq=    5 SFac= 1.00D+00 NAtFMM=   60 NAOKFM=F Big=F
 Integral buffers will be    131072 words long.
 Raffenetti 2 integral format.
 Two-electron integral symmetry is turned on.
 One-electron integrals computed using PRISM.
 NBasis=    23 RedAO= T EigKep=  1.79D-02  NBF=    23
 NBsUse=    23 1.00D-06 EigRej= -1.00D+00 NBFU=    23
 ExpMin= 1.61D-01 ExpMax= 3.05D+03 ExpMxC= 4.57D+02 IAcc=3 IRadAn=         5 AccDes= 0.00D+00
 Harris functional with IExCor=  402 and IRadAn=       5 diagonalized for initial guess.
 HarFok:  IExCor=  402 AccDes= 0.00D+00 IRadAn=         5 IDoV= 1 UseB2=F ITyADJ=14
 ICtDFT=  3500011 ScaDFX=  1.000000  1.000000  1.000000  1.000000
 FoFCou: FMM=F IPFlag=           0 FMFlag=      100000 FMFlg1=           0
         NFxFlg=           0 DoJE=T BraDBF=F KetDBF=T FulRan=T
         wScrn=  0.000000 ICntrl=       500 IOpCl=  0 I1Cent=   200000004 NGrid=           0
         NMat0=    1 NMatS0=      1 NMatT0=    0 NMatD0=    1 NMtDS0=    0 NMtDT0=    0
 Petite list used in FoFCou.
 Keep R1 ints in memory in canonical form, NReq=3486400.
 Requested convergence on RMS density matrix=1.00D-08 within 128 cycles.
 Requested convergence on MAX density matrix=1.00D-06.
 Requested convergence on             energy=1.00D-06.
 No special actions if energy rises.
 Integral accuracy reduced to 1.0D-05 until final iterations.
 Initial convergence to 1.0D-05 achieved.  Increase integral accuracy.
 SCF Done:  E(RB3LYP) =  -40.5168143213     A.U. after    9 cycles
            NFock=  9  Conv=0.52D-08     -V/T= 2.0111

 **********************************************************************

            Population analysis using the SCF density.

 **********************************************************************

 Orbital symmetries:
       Occupied  (A) (A) (A) (A) (A)
       Virtual   (A) (A) (A) (A) (A) (A) (A) (A) (A) (A) (A) (A)
                 (A) (A) (A) (A) (A) (A)
 The electronic state is 1-A.
 Alpha  occ. eigenvalues --  -10.16712  -0.69061  -0.39776  -0.38715  -0.38204
 Alpha virt. eigenvalues --    0.11723   0.17152   0.17278   0.18474   0.52623
 Alpha virt. eigenvalues --    0.53260   0.54165   0.88425   0.88803   0.91285
 Alpha virt. eigenvalues --    0.95642   1.10117   1.65631   1.65691   2.21288
 Alpha virt. eigenvalues --    2.24323   2.27221   4.17897
          Condensed to atoms (all electrons):
               1          2          3          4          5
     1  C    5.093491   0.381889   0.388299   0.381878   0.382511
     2  H    0.381889   0.547353  -0.028072  -0.029922  -0.025573
     3  H    0.388299  -0.028072   0.525013  -0.028014  -0.023831
     4  H    0.381878  -0.029922  -0.028014   0.547446  -0.025765
     5  H    0.382511  -0.025573  -0.023831  -0.025765   0.539894
 Mulliken charges:
               1
     1  C   -0.628068
     2  H    0.154325
     3  H    0.166604
     4  H    0.154376
     5  H    0.152763
 Sum of Mulliken charges =   0.00000
 Mulliken charges with hydrogens summed into heavy atoms:
               1
     1  C    0.000000
 Electronic spatial extent (au):  <R**2>=             35.4947
 Charge=              0.0000 electrons
 Dipole moment (field-independent basis, Debye):
    X=              0.0426    Y=             -0.0075    Z=              0.0013  Tot=              0.0433
 Quadrupole moment (field-independent basis, Debye-Ang):
   XX=             -8.1542   YY=             -8.2376   ZZ=             -8.3682
   XY=              0.0441   XZ=              0.0006   YZ=              0.0014
 Traceless Quadrupole moment (field-independent basis, Debye-Ang):
   XX=              0.0991   YY=              0.0158   ZZ=             -0.1149
   XY=              0.0441   XZ=              0.0006   YZ=              0.0014
 Octapole moment (field-independent basis, Debye-Ang**2):
  XXX=             -0.7215  YYY=              0.5287  ZZZ=              0.0072  XYY=              0.4766
  XXY=              0.0432  XXZ=             -0.0221  XZZ=              0.4076  YZZ=             -0.4944
  YYZ=              0.0204  XYZ=              0.0095
 Hexadecapole moment (field-independent basis, Debye-Ang**3):
 XXXX=            -15.1296 YYYY=            -14.8439 ZZZZ=            -15.1999 XXXY=              0.1013
 XXXZ=              0.0153 YYYX=              0.3821 YYYZ=              0.0052 ZZZX=             -0.0169
 ZZZY=             -0.0102 XXYY=             -5.2242 XXZZ=             -5.3309 YYZZ=             -4.9404
 XXYZ=              0.0116 YYXZ=              0.0045 ZZXY=             -0.2879
 N-N= 1.339552082743D+01 E-N=-1.198283675889D+02  KE= 4.007236634267D+01
 1\1\GINC-NODE86\SP\RB3LYP\6-31G(d)\C1H4\YANZ\26-Dec-2024\0\\# b3lyp/6-
 31g(d)\\tmpdir/M2_ref_6.gjf\\0,1\C,0,-1.35441,0.714704,0.303001\H,0,-1
 .446643,1.706693,-0.162488\H,0,-2.24302929,0.16418725,0.13109255\H,0,-
 1.24209,0.895439,1.381546\H,0,-0.44180547,0.20209064,-0.0851597\\Versi
 on=ES64L-G16RevA.03\State=1-A\HF=-40.5168143\RMSD=5.238e-09\Dipole=-0.
 011966,0.0098522,0.0070705\Quadrupole=0.0823942,-0.0179,-0.0644942,-0.
 0074932,-0.023758,0.0354437\PG=C01 [X(C1H4)]\\@


 ... SUBJECTS WHICH DISCLOSE THEIR FULL POWER, MEANING AND BEAUTY AS SOON
 AS THEY ARE PRESENTED TO THE MIND HAVE VERY LITTLE OF THOSE QUALITIES
 TO DISCLOSE.
                           -- CHARLES DUTTON (1882)
 Job cpu time:       0 days  0 hours  0 minutes  6.5 seconds.
 Elapsed time:       0 days  0 hours  0 minutes  1.9 seconds.
 File lengths (MBytes):  RWF=      6 Int=      0 D2E=      0 Chk=      1 Scr=      1
 Normal termination of Gaussian 16 at Thu Dec 26 10:40:34 2024.
