 Entering Gaussian System, Link 0=g16
 Initial command:
 /share/apps/gaussian/g16/l1.exe "/tmp/103467.mgr/Gau-48236.inp" -scrdir="/tmp/103467.mgr/"
 Entering Link 1 = /share/apps/gaussian/g16/l1.exe PID=     48237.
  
 Copyright (c) 1988,1990,1992,1993,1995,1998,2003,2009,2016,
            Gaussian, Inc.  All Rights Reserved.
  
 This is part of the Gaussian(R) 16 program.  It is based on
 the Gaussian(R) 09 system (copyright 2009, Gaussian, Inc.),
 the Gaussian(R) 03 system (copyright 2003, Gaussian, Inc.),
 the Gaussian(R) 98 system (copyright 1998, Gaussian, Inc.),
 the Gaussian(R) 94 system (copyright 1995, Gaussian, Inc.),
 the Gaussian 92(TM) system (copyright 1992, Gaussian, Inc.),
 the Gaussian 90(TM) system (copyright 1990, Gaussian, Inc.),
 the Gaussian 88(TM) system (copyright 1988, Gaussian, Inc.),
 the Gaussian 86(TM) system (copyright 1986, Carnegie Mellon
 University), and the Gaussian 82(TM) system (copyright 1983,
 Carnegie Mellon University). Gaussian is a federally registered
 trademark of Gaussian, Inc.
  
 This software contains proprietary and confidential information,
 including trade secrets, belonging to Gaussian, Inc.
  
 This software is provided under written license and may be
 used, copied, transmitted, or stored only in accord with that
 written license.
  
 The following legend is applicable only to US Government
 contracts under FAR:
  
                    RESTRICTED RIGHTS LEGEND
  
 Use, reproduction and disclosure by the US Government is
 subject to restrictions as set forth in subparagraphs (a)
 and (c) of the Commercial Computer Software - Restricted
 Rights clause in FAR 52.227-19.
  
 Gaussian, Inc.
 340 Quinnipiac St., Bldg. 40, Wallingford CT 06492
  
  
 ---------------------------------------------------------------
 Warning -- This program may not be used in any manner that
 competes with the business of Gaussian, Inc. or will provide
 assistance to any competitor of Gaussian, Inc.  The licensee
 of this program is prohibited from giving any competitor of
 Gaussian, Inc. access to this program.  By using this program,
 the user acknowledges that Gaussian, Inc. is engaged in the
 business of creating and licensing software in the field of
 computational chemistry and represents and warrants to the
 licensee that it is not a competitor of Gaussian, Inc. and that
 it will not use this program in any manner prohibited above.
 ---------------------------------------------------------------
  

 Cite this work as:
 Gaussian 16, Revision A.03,
 M. J. Frisch, G. W. Trucks, H. B. Schlegel, G. E. Scuseria, 
 M. A. Robb, J. R. Cheeseman, G. Scalmani, V. Barone, 
 G. A. Petersson, H. Nakatsuji, X. Li, M. Caricato, A. V. Marenich, 
 J. Bloino, B. G. Janesko, R. Gomperts, B. Mennucci, H. P. Hratchian, 
 J. V. Ortiz, A. F. Izmaylov, J. L. Sonnenberg, D. Williams-Young, 
 F. Ding, F. Lipparini, F. Egidi, J. Goings, B. Peng, A. Petrone, 
 T. Henderson, D. Ranasinghe, V. G. Zakrzewski, J. Gao, N. Rega, 
 G. Zheng, W. Liang, M. Hada, M. Ehara, K. Toyota, R. Fukuda, 
 J. Hasegawa, M. Ishida, T. Nakajima, Y. Honda, O. Kitao, H. Nakai, 
 T. Vreven, K. Throssell, J. A. Montgomery, Jr., J. E. Peralta, 
 F. Ogliaro, M. J. Bearpark, J. J. Heyd, E. N. Brothers, K. N. Kudin, 
 V. N. Staroverov, T. A. Keith, R. Kobayashi, J. Normand, 
 K. Raghavachari, A. P. Rendell, J. C. Burant, S. S. Iyengar, 
 J. Tomasi, M. Cossi, J. M. Millam, M. Klene, C. Adamo, R. Cammi, 
 J. W. Ochterski, R. L. Martin, K. Morokuma, O. Farkas, 
 J. B. Foresman, and D. J. Fox, Gaussian, Inc., Wallingford CT, 2016.
 
 ******************************************
 Gaussian 16:  ES64L-G16RevA.03 25-Dec-2016
                26-Dec-2024 
 ******************************************
 %nprocshared=4
 Will use up to    4 processors via shared memory.
 %mem=4GB
 ----------------
 # b3lyp/6-31g(d)
 ----------------
 1/38=1,172=1/1;
 2/12=2,17=6,18=5,40=1/2;
 3/5=1,6=6,7=1,11=2,25=1,30=1,74=-5/1,2,3;
 4//1;
 5/5=2,38=5/2;
 6/7=2,8=2,9=2,10=2,28=1/1;
 99/5=1,9=1/99;
 --------------------
 tmpdir/M2_ref_39.gjf
 --------------------
 Symbolic Z-matrix:
 Charge =  0 Multiplicity = 1
 C                    -2.58198  -0.0458    0.06552 
 C                    -1.35441   0.7147    0.303 
 C                    -0.09371   0.00656  -0.23322 
 C                     1.1758    0.81373   0.03333 
 N                    -3.50723  -0.63397  -0.12109 
 H                    -1.24209   0.89544   1.38155 
 H                    -1.44664   1.70669  -0.16249 
 H                    -0.19481  -0.16538  -1.31101 
 H                     0.00093  -0.97452   0.24421 
 H                     2.10762   0.27343  -0.3771 
 H                     1.1315    1.77818  -0.49221 
 H                     1.27141   1.02376   1.11168 
 
                          Input orientation:                          
 ---------------------------------------------------------------------
 Center     Atomic      Atomic             Coordinates (Angstroms)
 Number     Number       Type             X           Y           Z
 ---------------------------------------------------------------------
      1          6           0       -2.581978   -0.045798    0.065521
      2          6           0       -1.354410    0.714704    0.303001
      3          6           0       -0.093708    0.006563   -0.233217
      4          6           0        1.175805    0.813726    0.033333
      5          7           0       -3.507232   -0.633974   -0.121094
      6          1           0       -1.242090    0.895439    1.381546
      7          1           0       -1.446643    1.706693   -0.162488
      8          1           0       -0.194808   -0.165380   -1.311007
      9          1           0        0.000930   -0.974522    0.244205
     10          1           0        2.107618    0.273428   -0.377105
     11          1           0        1.131503    1.778183   -0.492214
     12          1           0        1.271413    1.023758    1.111676
 ---------------------------------------------------------------------
                    Distance matrix (angstroms):
                    1          2          3          4          5
     1  C    0.000000
     2  C    1.463449   0.000000
     3  C    2.506686   1.542194   0.000000
     4  C    3.854964   2.546471   1.527817   0.000000
     5  N    1.112147   2.575545   3.474910   4.904133   0.000000
     6  H    2.100750   1.099336   2.171714   2.769580   3.118958
     7  H    2.100523   1.099650   2.173908   2.777223   3.118728
     8  H    2.758208   2.173533   1.096092   2.155105   3.550721
     9  H    2.750613   2.166538   1.095178   2.150030   3.543531
    10  H    4.721243   3.555686   2.222106   1.152673   5.693457
    11  H    4.174676   2.818354   2.169530   1.099245   5.241573
    12  H    4.133644   2.764854   2.169557   1.102759   5.206078
                    6          7          8          9         10
     6  H    0.000000
     7  H    1.756137   0.000000
     8  H    3.077658   2.528012   0.000000
     9  H    2.517022   3.074050   1.764004   0.000000
    10  H    3.834096   3.838369   2.523072   2.526171   0.000000
    11  H    3.150263   2.600128   2.491377   3.065598   1.797314
    12  H    2.531204   3.078591   3.071359   2.521856   1.865128
                   11         12
    11  H    0.000000
    12  H    1.777975   0.000000
 Stoichiometry    C4H7N
 Framework group  C1[X(C4H7N)]
 Deg. of freedom    30
 Full point group                 C1      NOp   1
 Largest Abelian subgroup         C1      NOp   1
 Largest concise Abelian subgroup C1      NOp   1
                         Standard orientation:                         
 ---------------------------------------------------------------------
 Center     Atomic      Atomic             Coordinates (Angstroms)
 Number     Number       Type             X           Y           Z
 ---------------------------------------------------------------------
      1          6           0        1.551175    0.108832    0.001558
      2          6           0        0.175601    0.608295    0.005700
      3          6           0       -0.875238   -0.520430   -0.003269
      4          6           0       -2.302840    0.023773   -0.007672
      5          7           0        2.591621   -0.284018   -0.001889
      6          1           0        0.022538    1.258053   -0.867757
      7          1           0        0.024212    1.246460    0.888341
      8          1           0       -0.735194   -1.164741    0.872326
      9          1           0       -0.728832   -1.144087   -0.891545
     10          1           0       -3.075432   -0.831652   -0.009846
     11          1           0       -2.494026    0.599378    0.909097
     12          1           0       -2.446808    0.701889   -0.865292
 ---------------------------------------------------------------------
 Rotational constants (GHZ):          23.9838566           2.2715092           2.1584869
 Standard basis: 6-31G(d) (6D, 7F)
 There are    89 symmetry adapted cartesian basis functions of A   symmetry.
 There are    89 symmetry adapted basis functions of A   symmetry.
    89 basis functions,   168 primitive gaussians,    89 cartesian basis functions
    19 alpha electrons       19 beta electrons
       nuclear repulsion energy       154.6270728289 Hartrees.
 NAtoms=   12 NActive=   12 NUniq=   12 SFac= 1.00D+00 NAtFMM=   60 NAOKFM=F Big=F
 Integral buffers will be    131072 words long.
 Raffenetti 2 integral format.
 Two-electron integral symmetry is turned on.
 One-electron integrals computed using PRISM.
 NBasis=    89 RedAO= T EigKep=  1.18D-03  NBF=    89
 NBsUse=    89 1.00D-06 EigRej= -1.00D+00 NBFU=    89
 ExpMin= 1.61D-01 ExpMax= 4.17D+03 ExpMxC= 6.27D+02 IAcc=3 IRadAn=         5 AccDes= 0.00D+00
 Harris functional with IExCor=  402 and IRadAn=       5 diagonalized for initial guess.
 HarFok:  IExCor=  402 AccDes= 0.00D+00 IRadAn=         5 IDoV= 1 UseB2=F ITyADJ=14
 ICtDFT=  3500011 ScaDFX=  1.000000  1.000000  1.000000  1.000000
 FoFCou: FMM=F IPFlag=           0 FMFlag=      100000 FMFlg1=           0
         NFxFlg=           0 DoJE=T BraDBF=F KetDBF=T FulRan=T
         wScrn=  0.000000 ICntrl=       500 IOpCl=  0 I1Cent=   200000004 NGrid=           0
         NMat0=    1 NMatS0=      1 NMatT0=    0 NMatD0=    1 NMtDS0=    0 NMtDT0=    0
 Petite list used in FoFCou.
 Keep R1 ints in memory in canonical form, NReq=11674644.
 Requested convergence on RMS density matrix=1.00D-08 within 128 cycles.
 Requested convergence on MAX density matrix=1.00D-06.
 Requested convergence on             energy=1.00D-06.
 No special actions if energy rises.
 Integral accuracy reduced to 1.0D-05 until final iterations.
 Initial convergence to 1.0D-05 achieved.  Increase integral accuracy.
 SCF Done:  E(RB3LYP) =  -211.374349342     A.U. after   13 cycles
            NFock= 13  Conv=0.36D-08     -V/T= 2.0090

 **********************************************************************

            Population analysis using the SCF density.

 **********************************************************************

 Orbital symmetries:
       Occupied  (A) (A) (A) (A) (A) (A) (A) (A) (A) (A) (A) (A)
                 (A) (A) (A) (A) (A) (A) (A)
       Virtual   (A) (A) (A) (A) (A) (A) (A) (A) (A) (A) (A) (A)
                 (A) (A) (A) (A) (A) (A) (A) (A) (A) (A) (A) (A)
                 (A) (A) (A) (A) (A) (A) (A) (A) (A) (A) (A) (A)
                 (A) (A) (A) (A) (A) (A) (A) (A) (A) (A) (A) (A)
                 (A) (A) (A) (A) (A) (A) (A) (A) (A) (A) (A) (A)
                 (A) (A) (A) (A) (A) (A) (A) (A) (A) (A)
 The electronic state is 1-A.
 Alpha  occ. eigenvalues --  -14.31814 -10.23688 -10.21388 -10.20946 -10.20007
 Alpha  occ. eigenvalues --   -0.91694  -0.81899  -0.72790  -0.61738  -0.51744
 Alpha  occ. eigenvalues --   -0.49524  -0.44117  -0.42448  -0.38905  -0.36925
 Alpha  occ. eigenvalues --   -0.35846  -0.34983  -0.33029  -0.32777
 Alpha virt. eigenvalues --    0.04692   0.05525   0.07888   0.11802   0.12255
 Alpha virt. eigenvalues --    0.13253   0.14933   0.17157   0.19690   0.20912
 Alpha virt. eigenvalues --    0.22721   0.24407   0.33090   0.49612   0.52883
 Alpha virt. eigenvalues --    0.53450   0.54040   0.55519   0.60116   0.63724
 Alpha virt. eigenvalues --    0.65025   0.66644   0.71413   0.76579   0.78159
 Alpha virt. eigenvalues --    0.81725   0.82037   0.84654   0.86100   0.89085
 Alpha virt. eigenvalues --    0.89244   0.90746   0.94782   0.95080   1.00395
 Alpha virt. eigenvalues --    1.08300   1.27044   1.37352   1.40260   1.41892
 Alpha virt. eigenvalues --    1.51080   1.51176   1.54661   1.58942   1.74796
 Alpha virt. eigenvalues --    1.77752   1.84690   1.91817   1.92203   1.94312
 Alpha virt. eigenvalues --    1.97682   2.02835   2.03255   2.08286   2.18690
 Alpha virt. eigenvalues --    2.21460   2.29883   2.33463   2.35352   2.53419
 Alpha virt. eigenvalues --    2.60999   2.81261   2.84116   2.90025   3.33950
 Alpha virt. eigenvalues --    4.07603   4.12513   4.23297   4.38409   4.67724
          Condensed to atoms (all electrons):
               1          2          3          4          5          6
     1  C    4.516854   0.299857  -0.030807   0.003155   0.939195  -0.029069
     2  C    0.299857   5.176038   0.363234  -0.046263  -0.104473   0.366207
     3  C   -0.030807   0.363234   4.963679   0.363085  -0.001209  -0.034599
     4  C    0.003155  -0.046263   0.363085   5.076804  -0.000042  -0.003150
     5  N    0.939195  -0.104473  -0.001209  -0.000042   6.614390  -0.000528
     6  H   -0.029069   0.366207  -0.034599  -0.003150  -0.000528   0.540807
     7  H   -0.029313   0.366270  -0.034680  -0.002571  -0.000551  -0.033091
     8  H   -0.002566  -0.037511   0.382406  -0.036537   0.000171   0.004972
     9  H   -0.002743  -0.038649   0.383285  -0.037729   0.000170  -0.004677
    10  H   -0.000087   0.003849  -0.025774   0.370314   0.000000  -0.000050
    11  H    0.000005  -0.004668  -0.036462   0.375926  -0.000000  -0.000402
    12  H    0.000030  -0.004767  -0.037668   0.376884  -0.000000   0.005400
               7          8          9         10         11         12
     1  C   -0.029313  -0.002566  -0.002743  -0.000087   0.000005   0.000030
     2  C    0.366270  -0.037511  -0.038649   0.003849  -0.004668  -0.004767
     3  C   -0.034680   0.382406   0.383285  -0.025774  -0.036462  -0.037668
     4  C   -0.002571  -0.036537  -0.037729   0.370314   0.375926   0.376884
     5  N   -0.000551   0.000171   0.000170   0.000000  -0.000000  -0.000000
     6  H   -0.033091   0.004972  -0.004677  -0.000050  -0.000402   0.005400
     7  H    0.540607  -0.004637   0.005050  -0.000078   0.004776  -0.000456
     8  H   -0.004637   0.569303  -0.034240  -0.002204  -0.004891   0.005053
     9  H    0.005050  -0.034240   0.570532  -0.003248   0.005176  -0.004186
    10  H   -0.000078  -0.002204  -0.003248   0.563790  -0.030464  -0.023177
    11  H    0.004776  -0.004891   0.005176  -0.030464   0.573787  -0.032885
    12  H   -0.000456   0.005053  -0.004186  -0.023177  -0.032885   0.566674
 Mulliken charges:
               1
     1  C    0.335488
     2  C   -0.339125
     3  C   -0.254490
     4  C   -0.439876
     5  N   -0.447122
     6  H    0.188180
     7  H    0.188675
     8  H    0.160683
     9  H    0.161259
    10  H    0.147129
    11  H    0.150101
    12  H    0.149099
 Sum of Mulliken charges =  -0.00000
 Mulliken charges with hydrogens summed into heavy atoms:
               1
     1  C    0.335488
     2  C    0.037730
     3  C    0.067452
     4  C    0.006453
     5  N   -0.447122
 Electronic spatial extent (au):  <R**2>=            566.0600
 Charge=              0.0000 electrons
 Dipole moment (field-independent basis, Debye):
    X=             -3.7658    Y=              1.0943    Z=              0.0328  Tot=              3.9217
 Quadrupole moment (field-independent basis, Debye-Ang):
   XX=            -41.9259   YY=            -30.0334   ZZ=            -29.9603
   XY=              2.2681   XZ=             -0.0962   YZ=             -0.0787
 Traceless Quadrupole moment (field-independent basis, Debye-Ang):
   XX=             -7.9527   YY=              3.9398   ZZ=              4.0129
   XY=              2.2681   XZ=             -0.0962   YZ=             -0.0787
 Octapole moment (field-independent basis, Debye-Ang**2):
  XXX=            -33.8768  YYY=              0.8683  ZZZ=              0.1007  XYY=             -1.1616
  XXY=              3.9745  XXZ=              0.4661  XZZ=             -0.1044  YZZ=              0.9736
  YYZ=             -0.0473  XYZ=              0.1679
 Hexadecapole moment (field-independent basis, Debye-Ang**3):
 XXXX=           -729.7997 YYYY=            -85.0073 ZZZZ=            -49.0403 XXXY=             20.3000
 XXXZ=             -1.3927 YYYX=              1.7165 YYYZ=             -0.2069 ZZZX=             -0.2877
 ZZZY=             -0.0153 XXYY=           -118.5504 XXZZ=           -112.7066 YYZZ=            -20.1261
 XXYZ=             -0.4015 YYXZ=              0.1253 ZZXY=             -0.8572
 N-N= 1.546270728289D+02 E-N=-7.988219952329D+02  KE= 2.094892419210D+02
 1\1\GINC-NODE86\SP\RB3LYP\6-31G(d)\C4H7N1\YANZ\26-Dec-2024\0\\# b3lyp/
 6-31g(d)\\tmpdir/M2_ref_39.gjf\\0,1\C,0,-2.581978,-0.045798,0.065521\C
 ,0,-1.35441,0.714704,0.303001\C,0,-0.093708,0.006563,-0.233217\C,0,1.1
 75805,0.813726,0.033333\N,0,-3.5072316,-0.63397435,-0.12109425\H,0,-1.
 24209,0.895439,1.381546\H,0,-1.446643,1.706693,-0.162488\H,0,-0.194808
 ,-0.16538,-1.311007\H,0,0.00093,-0.974522,0.244205\H,0,2.1076179,0.273
 42833,-0.37710465\H,0,1.131503,1.778183,-0.492214\H,0,1.271413,1.02375
 8,1.111676\\Version=ES64L-G16RevA.03\State=1-A\HF=-211.3743493\RMSD=3.
 570e-09\Dipole=1.3440244,0.7317897,0.1965787\Quadrupole=-4.7129523,1.6
 929796,3.0199726,-3.3471348,-0.8532183,-0.2053347\PG=C01 [X(C4H7N1)]\\
 @


 Once you get people laughing, they're
 listening and you can tell them almost anything.
                                 -- Herb Gardner
 Job cpu time:       0 days  0 hours  0 minutes 26.5 seconds.
 Elapsed time:       0 days  0 hours  0 minutes  6.8 seconds.
 File lengths (MBytes):  RWF=     10 Int=      0 D2E=      0 Chk=      2 Scr=      1
 Normal termination of Gaussian 16 at Thu Dec 26 10:40:53 2024.
