 Entering Gaussian System, Link 0=g16
 Initial command:
 /share/apps/gaussian/g16/l1.exe "/tmp/55603.mgr/Gau-315335.inp" -scrdir="/tmp/55603.mgr/"
 Entering Link 1 = /share/apps/gaussian/g16/l1.exe PID=    315336.
  
 Copyright (c) 1988,1990,1992,1993,1995,1998,2003,2009,2016,
            Gaussian, Inc.  All Rights Reserved.
  
 This is part of the Gaussian(R) 16 program.  It is based on
 the Gaussian(R) 09 system (copyright 2009, Gaussian, Inc.),
 the Gaussian(R) 03 system (copyright 2003, Gaussian, Inc.),
 the Gaussian(R) 98 system (copyright 1998, Gaussian, Inc.),
 the Gaussian(R) 94 system (copyright 1995, Gaussian, Inc.),
 the Gaussian 92(TM) system (copyright 1992, Gaussian, Inc.),
 the Gaussian 90(TM) system (copyright 1990, Gaussian, Inc.),
 the Gaussian 88(TM) system (copyright 1988, Gaussian, Inc.),
 the Gaussian 86(TM) system (copyright 1986, Carnegie Mellon
 University), and the Gaussian 82(TM) system (copyright 1983,
 Carnegie Mellon University). Gaussian is a federally registered
 trademark of Gaussian, Inc.
  
 This software contains proprietary and confidential information,
 including trade secrets, belonging to Gaussian, Inc.
  
 This software is provided under written license and may be
 used, copied, transmitted, or stored only in accord with that
 written license.
  
 The following legend is applicable only to US Government
 contracts under FAR:
  
                    RESTRICTED RIGHTS LEGEND
  
 Use, reproduction and disclosure by the US Government is
 subject to restrictions as set forth in subparagraphs (a)
 and (c) of the Commercial Computer Software - Restricted
 Rights clause in FAR 52.227-19.
  
 Gaussian, Inc.
 340 Quinnipiac St., Bldg. 40, Wallingford CT 06492
  
  
 ---------------------------------------------------------------
 Warning -- This program may not be used in any manner that
 competes with the business of Gaussian, Inc. or will provide
 assistance to any competitor of Gaussian, Inc.  The licensee
 of this program is prohibited from giving any competitor of
 Gaussian, Inc. access to this program.  By using this program,
 the user acknowledges that Gaussian, Inc. is engaged in the
 business of creating and licensing software in the field of
 computational chemistry and represents and warrants to the
 licensee that it is not a competitor of Gaussian, Inc. and that
 it will not use this program in any manner prohibited above.
 ---------------------------------------------------------------
  

 Cite this work as:
 Gaussian 16, Revision A.03,
 M. J. Frisch, G. W. Trucks, H. B. Schlegel, G. E. Scuseria, 
 M. A. Robb, J. R. Cheeseman, G. Scalmani, V. Barone, 
 G. A. Petersson, H. Nakatsuji, X. Li, M. Caricato, A. V. Marenich, 
 J. Bloino, B. G. Janesko, R. Gomperts, B. Mennucci, H. P. Hratchian, 
 J. V. Ortiz, A. F. Izmaylov, J. L. Sonnenberg, D. Williams-Young, 
 F. Ding, F. Lipparini, F. Egidi, J. Goings, B. Peng, A. Petrone, 
 T. Henderson, D. Ranasinghe, V. G. Zakrzewski, J. Gao, N. Rega, 
 G. Zheng, W. Liang, M. Hada, M. Ehara, K. Toyota, R. Fukuda, 
 J. Hasegawa, M. Ishida, T. Nakajima, Y. Honda, O. Kitao, H. Nakai, 
 T. Vreven, K. Throssell, J. A. Montgomery, Jr., J. E. Peralta, 
 F. Ogliaro, M. J. Bearpark, J. J. Heyd, E. N. Brothers, K. N. Kudin, 
 V. N. Staroverov, T. A. Keith, R. Kobayashi, J. Normand, 
 K. Raghavachari, A. P. Rendell, J. C. Burant, S. S. Iyengar, 
 J. Tomasi, M. Cossi, J. M. Millam, M. Klene, C. Adamo, R. Cammi, 
 J. W. Ochterski, R. L. Martin, K. Morokuma, O. Farkas, 
 J. B. Foresman, and D. J. Fox, Gaussian, Inc., Wallingford CT, 2016.
 
 ******************************************
 Gaussian 16:  ES64L-G16RevA.03 25-Dec-2016
                 5-Jun-2019 
 ******************************************
 %nprocshared=8
 Will use up to    8 processors via shared memory.
 %mem=8GB
 -----------------
 # M062X/def2TZVPP
 -----------------
 1/38=1,172=1/1;
 2/12=2,17=6,18=5,40=1/2;
 3/5=44,7=202,11=2,25=1,30=1,74=-55/1,2,3;
 4//1;
 5/5=2,38=5/2;
 6/7=2,8=2,9=2,10=2,28=1/1;
 99/5=1,9=1/99;
 ----------------------
 tmpdir/M1_conf_0_7.gjf
 ----------------------
 Symbolic Z-matrix:
 Charge =  0 Multiplicity = 1
 N                    -0.17561   0.07641   0.15457 
 H                     0.0592    0.13708  -0.83061 
 H                     0.37916  -0.63754   0.60831 
 H                    -1.20726   0.01452   0.2816 
 
                          Input orientation:                          
 ---------------------------------------------------------------------
 Center     Atomic      Atomic             Coordinates (Angstroms)
 Number     Number       Type             X           Y           Z
 ---------------------------------------------------------------------
      1          7           0       -0.175609    0.076410    0.154575
      2          1           0        0.059204    0.137080   -0.830614
      3          1           0        0.379161   -0.637540    0.608306
      4          1           0       -1.207261    0.014523    0.281600
 ---------------------------------------------------------------------
                    Distance matrix (angstroms):
                    1          2          3          4
     1  N    0.000000
     2  H    1.014601   0.000000
     3  H    1.011615   1.665203   0.000000
     4  H    1.041283   1.689962   1.746040   0.000000
 Stoichiometry    H3N
 Framework group  C1[X(H3N)]
 Deg. of freedom     6
 Full point group                 C1      NOp   1
 Largest Abelian subgroup         C1      NOp   1
 Largest concise Abelian subgroup C1      NOp   1
                         Standard orientation:                         
 ---------------------------------------------------------------------
 Center     Atomic      Atomic             Coordinates (Angstroms)
 Number     Number       Type             X           Y           Z
 ---------------------------------------------------------------------
      1          7           0       -0.002297   -0.006864   -0.085345
      2          1           0       -0.142612    0.959490    0.190131
      3          1           0       -0.785257   -0.576612    0.207445
      4          1           0        0.943946   -0.334832    0.199842
 ---------------------------------------------------------------------
 Rotational constants (GHZ):         320.3024072         290.2132628         173.2859721
 Standard basis: def2TZVPP (5D, 7F)
 There are    81 symmetry adapted cartesian basis functions of A   symmetry.
 There are    73 symmetry adapted basis functions of A   symmetry.
    73 basis functions,   102 primitive gaussians,    81 cartesian basis functions
     5 alpha electrons        5 beta electrons
       nuclear repulsion energy        11.8040108919 Hartrees.
 NAtoms=    4 NActive=    4 NUniq=    4 SFac= 1.00D+00 NAtFMM=   60 NAOKFM=F Big=F
 Integral buffers will be    131072 words long.
 Raffenetti 2 integral format.
 Two-electron integral symmetry is turned on.
 One-electron integrals computed using PRISM.
   1 Symmetry operations used in ECPInt.
 ECPInt:  NShTT=     435 NPrTT=    1021 LenC2=     436 LenP2D=    1000.
 LDataN:  DoStor=T MaxTD1= 6 Len=  172
 NBasis=    73 RedAO= T EigKep=  9.55D-04  NBF=    73
 NBsUse=    73 1.00D-06 EigRej= -1.00D+00 NBFU=    73
 ExpMin= 1.03D-01 ExpMax= 1.97D+04 ExpMxC= 6.73D+02 IAcc=3 IRadAn=         5 AccDes= 0.00D+00
 Harris functional with IExCor= 1009 and IRadAn=       5 diagonalized for initial guess.
 HarFok:  IExCor= 1009 AccDes= 0.00D+00 IRadAn=         5 IDoV= 1 UseB2=F ITyADJ=14
 ICtDFT=  3500011 ScaDFX=  1.000000  1.000000  1.000000  1.000000
 FoFCou: FMM=F IPFlag=           0 FMFlag=      100000 FMFlg1=           0
         NFxFlg=           0 DoJE=T BraDBF=F KetDBF=T FulRan=T
         wScrn=  0.000000 ICntrl=       500 IOpCl=  0 I1Cent=   200000004 NGrid=           0
         NMat0=    1 NMatS0=      1 NMatT0=    0 NMatD0=    1 NMtDS0=    0 NMtDT0=    0
 Petite list used in FoFCou.
 Keep R1 ints in memory in canonical form, NReq=10891773.
 Requested convergence on RMS density matrix=1.00D-08 within 128 cycles.
 Requested convergence on MAX density matrix=1.00D-06.
 Requested convergence on             energy=1.00D-06.
 No special actions if energy rises.
 Integral accuracy reduced to 1.0D-05 until final iterations.
 Initial convergence to 1.0D-05 achieved.  Increase integral accuracy.
 SCF Done:  E(RM062X) =  -56.5488960340     A.U. after   12 cycles
            NFock= 12  Conv=0.76D-09     -V/T= 2.0061

 **********************************************************************

            Population analysis using the SCF density.

 **********************************************************************

 Orbital symmetries:
       Occupied  (A) (A) (A) (A) (A)
       Virtual   (A) (A) (A) (A) (A) (A) (A) (A) (A) (A) (A) (A)
                 (A) (A) (A) (A) (A) (A) (A) (A) (A) (A) (A) (A)
                 (A) (A) (A) (A) (A) (A) (A) (A) (A) (A) (A) (A)
                 (A) (A) (A) (A) (A) (A) (A) (A) (A) (A) (A) (A)
                 (A) (A) (A) (A) (A) (A) (A) (A) (A) (A) (A) (A)
                 (A) (A) (A) (A) (A) (A) (A) (A)
 The electronic state is 1-A.
 Alpha  occ. eigenvalues --  -14.71953  -0.94011  -0.53905  -0.52672  -0.32273
 Alpha virt. eigenvalues --    0.05977   0.13719   0.14114   0.33859   0.35083
 Alpha virt. eigenvalues --    0.39490   0.45958   0.49044   0.52644   0.53388
 Alpha virt. eigenvalues --    0.62201   0.64412   0.94383   0.97611   1.02934
 Alpha virt. eigenvalues --    1.04592   1.22075   1.23616   1.24781   1.47597
 Alpha virt. eigenvalues --    1.48851   1.55067   1.58023   1.59459   2.04821
 Alpha virt. eigenvalues --    2.19295   2.19702   2.25192   2.60892   2.85664
 Alpha virt. eigenvalues --    2.88098   3.13151   3.13381   3.16227   3.20159
 Alpha virt. eigenvalues --    3.24955   3.28391   3.34565   3.54865   3.55939
 Alpha virt. eigenvalues --    3.63589   3.66257   3.71476   3.76761   3.89068
 Alpha virt. eigenvalues --    3.90507   4.06881   4.08758   4.14158   4.27209
 Alpha virt. eigenvalues --    4.34052   4.35623   4.48721   4.67470   4.68170
 Alpha virt. eigenvalues --    5.11343   5.20008   5.25167   5.50185   5.57036
 Alpha virt. eigenvalues --    5.61525   5.75523   5.83902   6.12584   6.24284
 Alpha virt. eigenvalues --    6.30997   6.48441  32.59588
          Condensed to atoms (all electrons):
               1          2          3          4
     1  N    6.337601   0.390061   0.396794   0.391049
     2  H    0.390061   0.524388  -0.039012  -0.037785
     3  H    0.396794  -0.039012   0.505502  -0.034954
     4  H    0.391049  -0.037785  -0.034954   0.500202
 Mulliken charges:
               1
     1  N   -0.515505
     2  H    0.162348
     3  H    0.171669
     4  H    0.181488
 Sum of Mulliken charges =  -0.00000
 Mulliken charges with hydrogens summed into heavy atoms:
               1
     1  N   -0.000000
 Electronic spatial extent (au):  <R**2>=             26.9359
 Charge=             -0.0000 electrons
 Dipole moment (field-independent basis, Debye):
    X=              0.0158    Y=              0.0602    Z=              1.2768  Tot=              1.2783
 Quadrupole moment (field-independent basis, Debye-Ang):
   XX=             -5.8378   YY=             -6.1792   ZZ=             -9.4972
   XY=              0.0208   XZ=             -0.0194   YZ=             -0.0149
 Traceless Quadrupole moment (field-independent basis, Debye-Ang):
   XX=              1.3336   YY=              0.9922   ZZ=             -2.3258
   XY=              0.0208   XZ=             -0.0194   YZ=             -0.0149
 Octapole moment (field-independent basis, Debye-Ang**2):
  XXX=              0.5128  YYY=              1.0681  ZZZ=              1.1254  XYY=             -0.4715
  XXY=             -0.9950  XXZ=              0.7499  XZZ=             -0.0197  YZZ=              0.0240
  YYZ=              0.6769  XYZ=              0.0095
 Hexadecapole moment (field-independent basis, Debye-Ang**3):
 XXXX=             -9.9409 YYYY=             -9.9937 ZZZZ=            -11.3250 XXXY=              0.0366
 XXXZ=              0.1081 YYYX=              0.0244 YYYZ=              0.2503 ZZZX=             -0.0346
 ZZZY=             -0.0143 XXYY=             -3.3991 XXZZ=             -3.8468 YYZZ=             -3.7933
 XXYZ=             -0.2796 YYXZ=             -0.1355 ZZXY=              0.0184
 N-N= 1.180401089193D+01 E-N=-1.556415950254D+02  KE= 5.620556514427D+01
 1\1\GINC-NODE97\SP\RM062X\def2TZVPP\H3N1\YANZ\05-Jun-2019\0\\# M062X/d
 ef2TZVPP\\tmpdir/M1_conf_0_7.gjf\\0,1\N,0,-0.17560917,0.07640956,0.154
 57459\H,0,0.05920352,0.13708033,-0.83061422\H,0,0.3791612,-0.63753952,
 0.60830611\H,0,-1.20726061,0.01452321,0.28160047\\Version=ES64L-G16Rev
 A.03\State=1-A\HF=-56.548896\RMSD=7.623e-10\Dipole=-0.1386441,-0.42930
 93,-0.2222945\Quadrupole=0.7684933,-1.1081987,0.3397053,-0.6791362,-0.
 2478389,-0.8772526\PG=C01 [X(H3N1)]\\@


          EVOLUTION
 IN THE BEGINNING GOD MADE MAN.
 HE WORKED THE DIRT WITH HIS HANDS.
 THEN GOD DECIDED TO GIVE MAN SCIENCE,
 MAN SHOULD BE USEFUL (LIKE AN APPLIANCE.)
 BUT SOON MAN'S KNOWLEDGE GREW TOO GREAT,
 TO THE HEADING SCIENCE HE COULDN'T RELATE
 SO GOD SAID "LETS HAVE DIFFERENT FIELDS,
 WE'LL DIVIDE THEM UP, SEE WHAT IT YIELDS."
 ENTER PHYSICS, CHEMISTRY, BIO
 THEY SPRANG UP AROUND THE NILE.
 BUT CHEMISTRY SURPASSED THE REST
 FAR AND AWAY IT WAS THE BEST.
 EXPERIMENT WAS GOD'S DECREE
 EXPERIMENT DID CHEMISTS WITH LOTS OF GLEE
 BUT SOON THEIR TESTS BEGAN TO BOG,
 THEY FOUND THEMSELVES DEEP IN A FOG.
 "GIVE US SOME HELP" THEY CRIED TO GOD.
 GOD LOOKED AROUND, THEN GAVE THE NOD.
 ENTER EINSTEIN, HEISENBERG, BOHR,
 REACTION PATHS WERE CLEAR ONCE MORE.
 WITH THEORISTS GOD SEND DIRECTION
 AND THEN HE STOPPED, HE'D MADE PERFECTION.
          -- THOMAS A. HOLME, 1981
 Job cpu time:       0 days  0 hours  0 minutes 18.3 seconds.
 Elapsed time:       0 days  0 hours  0 minutes  2.5 seconds.
 File lengths (MBytes):  RWF=      6 Int=      0 D2E=      0 Chk=      1 Scr=      1
 Normal termination of Gaussian 16 at Wed Jun  5 22:34:28 2019.
