 Entering Gaussian System, Link 0=g16
 Initial command:
 /share/apps/gaussian/g16/l1.exe "/tmp/55603.mgr/Gau-314840.inp" -scrdir="/tmp/55603.mgr/"
 Entering Link 1 = /share/apps/gaussian/g16/l1.exe PID=    314843.
  
 Copyright (c) 1988,1990,1992,1993,1995,1998,2003,2009,2016,
            Gaussian, Inc.  All Rights Reserved.
  
 This is part of the Gaussian(R) 16 program.  It is based on
 the Gaussian(R) 09 system (copyright 2009, Gaussian, Inc.),
 the Gaussian(R) 03 system (copyright 2003, Gaussian, Inc.),
 the Gaussian(R) 98 system (copyright 1998, Gaussian, Inc.),
 the Gaussian(R) 94 system (copyright 1995, Gaussian, Inc.),
 the Gaussian 92(TM) system (copyright 1992, Gaussian, Inc.),
 the Gaussian 90(TM) system (copyright 1990, Gaussian, Inc.),
 the Gaussian 88(TM) system (copyright 1988, Gaussian, Inc.),
 the Gaussian 86(TM) system (copyright 1986, Carnegie Mellon
 University), and the Gaussian 82(TM) system (copyright 1983,
 Carnegie Mellon University). Gaussian is a federally registered
 trademark of Gaussian, Inc.
  
 This software contains proprietary and confidential information,
 including trade secrets, belonging to Gaussian, Inc.
  
 This software is provided under written license and may be
 used, copied, transmitted, or stored only in accord with that
 written license.
  
 The following legend is applicable only to US Government
 contracts under FAR:
  
                    RESTRICTED RIGHTS LEGEND
  
 Use, reproduction and disclosure by the US Government is
 subject to restrictions as set forth in subparagraphs (a)
 and (c) of the Commercial Computer Software - Restricted
 Rights clause in FAR 52.227-19.
  
 Gaussian, Inc.
 340 Quinnipiac St., Bldg. 40, Wallingford CT 06492
  
  
 ---------------------------------------------------------------
 Warning -- This program may not be used in any manner that
 competes with the business of Gaussian, Inc. or will provide
 assistance to any competitor of Gaussian, Inc.  The licensee
 of this program is prohibited from giving any competitor of
 Gaussian, Inc. access to this program.  By using this program,
 the user acknowledges that Gaussian, Inc. is engaged in the
 business of creating and licensing software in the field of
 computational chemistry and represents and warrants to the
 licensee that it is not a competitor of Gaussian, Inc. and that
 it will not use this program in any manner prohibited above.
 ---------------------------------------------------------------
  

 Cite this work as:
 Gaussian 16, Revision A.03,
 M. J. Frisch, G. W. Trucks, H. B. Schlegel, G. E. Scuseria, 
 M. A. Robb, J. R. Cheeseman, G. Scalmani, V. Barone, 
 G. A. Petersson, H. Nakatsuji, X. Li, M. Caricato, A. V. Marenich, 
 J. Bloino, B. G. Janesko, R. Gomperts, B. Mennucci, H. P. Hratchian, 
 J. V. Ortiz, A. F. Izmaylov, J. L. Sonnenberg, D. Williams-Young, 
 F. Ding, F. Lipparini, F. Egidi, J. Goings, B. Peng, A. Petrone, 
 T. Henderson, D. Ranasinghe, V. G. Zakrzewski, J. Gao, N. Rega, 
 G. Zheng, W. Liang, M. Hada, M. Ehara, K. Toyota, R. Fukuda, 
 J. Hasegawa, M. Ishida, T. Nakajima, Y. Honda, O. Kitao, H. Nakai, 
 T. Vreven, K. Throssell, J. A. Montgomery, Jr., J. E. Peralta, 
 F. Ogliaro, M. J. Bearpark, J. J. Heyd, E. N. Brothers, K. N. Kudin, 
 V. N. Staroverov, T. A. Keith, R. Kobayashi, J. Normand, 
 K. Raghavachari, A. P. Rendell, J. C. Burant, S. S. Iyengar, 
 J. Tomasi, M. Cossi, J. M. Millam, M. Klene, C. Adamo, R. Cammi, 
 J. W. Ochterski, R. L. Martin, K. Morokuma, O. Farkas, 
 J. B. Foresman, and D. J. Fox, Gaussian, Inc., Wallingford CT, 2016.
 
 ******************************************
 Gaussian 16:  ES64L-G16RevA.03 25-Dec-2016
                 5-Jun-2019 
 ******************************************
 %nprocshared=8
 Will use up to    8 processors via shared memory.
 %mem=8GB
 -----------------
 # M062X/def2TZVPP
 -----------------
 1/38=1,172=1/1;
 2/12=2,17=6,18=5,40=1/2;
 3/5=44,7=202,11=2,25=1,30=1,74=-55/1,2,3;
 4//1;
 5/5=2,38=5/2;
 6/7=2,8=2,9=2,10=2,28=1/1;
 99/5=1,9=1/99;
 ----------------------
 tmpdir/M1_conf_0_1.gjf
 ----------------------
 Symbolic Z-matrix:
 Charge =  0 Multiplicity = 1
 C                    -3.44647   1.93918   2.00056 
 H                    -2.56315   2.12011   2.62373 
 H                    -4.23656   2.62058   2.31274 
 H                    -3.78897   0.914     2.17655 
 H                    -3.21789   2.12713   0.88966 
 
                          Input orientation:                          
 ---------------------------------------------------------------------
 Center     Atomic      Atomic             Coordinates (Angstroms)
 Number     Number       Type             X           Y           Z
 ---------------------------------------------------------------------
      1          6           0       -3.446466    1.939182    2.000564
      2          1           0       -2.563146    2.120114    2.623727
      3          1           0       -4.236557    2.620576    2.312743
      4          1           0       -3.788967    0.913998    2.176547
      5          1           0       -3.217893    2.127132    0.889659
 ---------------------------------------------------------------------
                    Distance matrix (angstroms):
                    1          2          3          4          5
     1  C    0.000000
     2  H    1.096049   0.000000
     3  H    1.089036   1.774114   0.000000
     4  H    1.095116   1.776886   1.769547   0.000000
     5  H    1.149643   1.853574   1.818332   1.858467   0.000000
 Stoichiometry    CH4
 Framework group  C1[X(CH4)]
 Deg. of freedom     9
 Full point group                 C1      NOp   1
 Largest Abelian subgroup         C1      NOp   1
 Largest concise Abelian subgroup C1      NOp   1
                         Standard orientation:                         
 ---------------------------------------------------------------------
 Center     Atomic      Atomic             Coordinates (Angstroms)
 Number     Number       Type             X           Y           Z
 ---------------------------------------------------------------------
      1          6           0        0.000615    0.000530   -0.003150
      2          1           0        0.464640    0.978372   -0.175864
      3          1           0        0.134287   -0.266618    1.044114
      4          1           0        0.522695   -0.742301   -0.615452
      5          1           0       -1.125313    0.027364   -0.233898
 ---------------------------------------------------------------------
 Rotational constants (GHZ):         159.9666744         150.6705819         149.5307000
 Standard basis: def2TZVPP (5D, 7F)
 There are    96 symmetry adapted cartesian basis functions of A   symmetry.
 There are    87 symmetry adapted basis functions of A   symmetry.
    87 basis functions,   119 primitive gaussians,    96 cartesian basis functions
     5 alpha electrons        5 beta electrons
       nuclear repulsion energy        13.2297701699 Hartrees.
 NAtoms=    5 NActive=    5 NUniq=    5 SFac= 1.00D+00 NAtFMM=   60 NAOKFM=F Big=F
 Integral buffers will be    131072 words long.
 Raffenetti 2 integral format.
 Two-electron integral symmetry is turned on.
 One-electron integrals computed using PRISM.
   1 Symmetry operations used in ECPInt.
 ECPInt:  NShTT=     630 NPrTT=    1412 LenC2=     631 LenP2D=    1376.
 LDataN:  DoStor=T MaxTD1= 6 Len=  172
 NBasis=    87 RedAO= T EigKep=  5.63D-04  NBF=    87
 NBsUse=    87 1.00D-06 EigRej= -1.00D+00 NBFU=    87
 ExpMin= 9.52D-02 ExpMax= 1.36D+04 ExpMxC= 4.63D+02 IAcc=3 IRadAn=         5 AccDes= 0.00D+00
 Harris functional with IExCor= 1009 and IRadAn=       5 diagonalized for initial guess.
 HarFok:  IExCor= 1009 AccDes= 0.00D+00 IRadAn=         5 IDoV= 1 UseB2=F ITyADJ=14
 ICtDFT=  3500011 ScaDFX=  1.000000  1.000000  1.000000  1.000000
 FoFCou: FMM=F IPFlag=           0 FMFlag=      100000 FMFlg1=           0
         NFxFlg=           0 DoJE=T BraDBF=F KetDBF=T FulRan=T
         wScrn=  0.000000 ICntrl=       500 IOpCl=  0 I1Cent=   200000004 NGrid=           0
         NMat0=    1 NMatS0=      1 NMatT0=    0 NMatD0=    1 NMtDS0=    0 NMtDT0=    0
 Petite list used in FoFCou.
 Keep R1 ints in memory in canonical form, NReq=14703931.
 Requested convergence on RMS density matrix=1.00D-08 within 128 cycles.
 Requested convergence on MAX density matrix=1.00D-06.
 Requested convergence on             energy=1.00D-06.
 No special actions if energy rises.
 Integral accuracy reduced to 1.0D-05 until final iterations.
 Initial convergence to 1.0D-05 achieved.  Increase integral accuracy.
 SCF Done:  E(RM062X) =  -40.4992256242     A.U. after   10 cycles
            NFock= 10  Conv=0.19D-08     -V/T= 2.0087

 **********************************************************************

            Population analysis using the SCF density.

 **********************************************************************

 Orbital symmetries:
       Occupied  (A) (A) (A) (A) (A)
       Virtual   (A) (A) (A) (A) (A) (A) (A) (A) (A) (A) (A) (A)
                 (A) (A) (A) (A) (A) (A) (A) (A) (A) (A) (A) (A)
                 (A) (A) (A) (A) (A) (A) (A) (A) (A) (A) (A) (A)
                 (A) (A) (A) (A) (A) (A) (A) (A) (A) (A) (A) (A)
                 (A) (A) (A) (A) (A) (A) (A) (A) (A) (A) (A) (A)
                 (A) (A) (A) (A) (A) (A) (A) (A) (A) (A) (A) (A)
                 (A) (A) (A) (A) (A) (A) (A) (A) (A) (A)
 The electronic state is 1-A.
 Alpha  occ. eigenvalues --  -10.52404  -0.78000  -0.45567  -0.45353  -0.44751
 Alpha virt. eigenvalues --    0.08476   0.15438   0.16108   0.16237   0.23729
 Alpha virt. eigenvalues --    0.23750   0.24162   0.41663   0.48764   0.50592
 Alpha virt. eigenvalues --    0.50886   0.54538   0.55128   0.55608   0.90337
 Alpha virt. eigenvalues --    0.91078   0.92607   0.97089   0.97853   0.98185
 Alpha virt. eigenvalues --    1.10320   1.12002   1.13534   1.35148   1.41117
 Alpha virt. eigenvalues --    1.41612   1.41910   1.47153   1.47831   1.56342
 Alpha virt. eigenvalues --    1.85847   1.86899   1.92163   2.52019   2.53223
 Alpha virt. eigenvalues --    2.53623   2.65213   2.83038   2.83735   2.84936
 Alpha virt. eigenvalues --    2.85393   2.85886   2.86846   2.90757   2.90947
 Alpha virt. eigenvalues --    3.26585   3.27717   3.30251   3.34095   3.37964
 Alpha virt. eigenvalues --    3.38694   3.44941   3.45585   3.58373   3.75389
 Alpha virt. eigenvalues --    3.76280   3.84696   3.85680   3.85883   3.95967
 Alpha virt. eigenvalues --    3.98874   4.03721   4.10511   4.11077   4.14918
 Alpha virt. eigenvalues --    4.44051   4.47199   4.48736   4.75448   5.02733
 Alpha virt. eigenvalues --    5.04386   5.05046   5.07298   5.14213   5.15455
 Alpha virt. eigenvalues --    5.18885   5.27047   5.27532   5.45786   5.47385
 Alpha virt. eigenvalues --    5.48666  23.74509
          Condensed to atoms (all electrons):
               1          2          3          4          5
     1  C    4.905762   0.399196   0.399444   0.399316   0.392308
     2  H    0.399196   0.538297  -0.021520  -0.022315  -0.020381
     3  H    0.399444  -0.021520   0.537167  -0.021836  -0.022361
     4  H    0.399316  -0.022315  -0.021836   0.537834  -0.019907
     5  H    0.392308  -0.020381  -0.022361  -0.019907   0.557051
 Mulliken charges:
               1
     1  C   -0.496026
     2  H    0.126723
     3  H    0.129105
     4  H    0.126907
     5  H    0.113291
 Sum of Mulliken charges =  -0.00000
 Mulliken charges with hydrogens summed into heavy atoms:
               1
     1  C   -0.000000
 Electronic spatial extent (au):  <R**2>=             36.5026
 Charge=             -0.0000 electrons
 Dipole moment (field-independent basis, Debye):
    X=              0.0449    Y=             -0.0051    Z=              0.0267  Tot=              0.0525
 Quadrupole moment (field-independent basis, Debye-Ang):
   XX=             -8.3862   YY=             -8.5500   ZZ=             -8.5859
   XY=              0.0020   XZ=             -0.0274   YZ=             -0.0008
 Traceless Quadrupole moment (field-independent basis, Debye-Ang):
   XX=              0.1212   YY=             -0.0426   ZZ=             -0.0785
   XY=              0.0020   XZ=             -0.0274   YZ=             -0.0008
 Octapole moment (field-independent basis, Debye-Ang**2):
  XXX=             -0.6859  YYY=              0.3512  ZZZ=              0.7306  XYY=              0.6384
  XXY=              0.0217  XXZ=             -0.3331  XZZ=              0.2999  YZZ=             -0.3953
  YYZ=             -0.2822  XYZ=              0.0976
 Hexadecapole moment (field-independent basis, Debye-Ang**3):
 XXXX=            -17.0835 YYYY=            -16.5491 ZZZZ=            -16.3241 XXXY=             -0.0540
 XXXZ=              0.2107 YYYX=              0.2755 YYYZ=              0.0792 ZZZX=             -0.0215
 ZZZY=             -0.1726 XXYY=             -5.7715 XXZZ=             -5.9598 YYZZ=             -5.6160
 XXYZ=              0.0921 YYXZ=             -0.3266 ZZXY=             -0.2115
 N-N= 1.322977016995D+01 E-N=-1.195825432167D+02  KE= 4.014847370019D+01
 1\1\GINC-NODE97\SP\RM062X\def2TZVPP\C1H4\YANZ\05-Jun-2019\0\\# M062X/d
 ef2TZVPP\\tmpdir/M1_conf_0_1.gjf\\0,1\C,0,-3.44646592,1.93918187,2.000
 56366\H,0,-2.56314553,2.12011352,2.62372711\H,0,-4.23655722,2.62057623
 ,2.31274297\H,0,-3.78896703,0.9139982,2.17654657\H,0,-3.21789342,2.127
 13183,0.88965886\\Version=ES64L-G16RevA.03\State=1-A\HF=-40.4992256\RM
 SD=1.865e-09\Dipole=-0.0085719,0.0018867,0.018676\Quadrupole=-0.039766
 9,-0.0269513,0.0667182,0.0114807,0.0064527,-0.0559423\PG=C01 [X(C1H4)]
 \\@


 THERE IS SOMETHING FASCINATING ABOUT SCIENCE.
 ONE GETS SUCH WHOLESALE CONJECTURE OUT OF SUCH TRIFLING INVESTMENTS.

                                                       -- MARK TWAIN
 Job cpu time:       0 days  0 hours  0 minutes 24.2 seconds.
 Elapsed time:       0 days  0 hours  0 minutes  3.3 seconds.
 File lengths (MBytes):  RWF=      6 Int=      0 D2E=      0 Chk=      2 Scr=      1
 Normal termination of Gaussian 16 at Wed Jun  5 22:34:23 2019.
