 Entering Gaussian System, Link 0=g16
 Initial command:
 /share/apps/gaussian/g16/l1.exe "/tmp/55603.mgr/Gau-315175.inp" -scrdir="/tmp/55603.mgr/"
 Entering Link 1 = /share/apps/gaussian/g16/l1.exe PID=    315176.
  
 Copyright (c) 1988,1990,1992,1993,1995,1998,2003,2009,2016,
            Gaussian, Inc.  All Rights Reserved.
  
 This is part of the Gaussian(R) 16 program.  It is based on
 the Gaussian(R) 09 system (copyright 2009, Gaussian, Inc.),
 the Gaussian(R) 03 system (copyright 2003, Gaussian, Inc.),
 the Gaussian(R) 98 system (copyright 1998, Gaussian, Inc.),
 the Gaussian(R) 94 system (copyright 1995, Gaussian, Inc.),
 the Gaussian 92(TM) system (copyright 1992, Gaussian, Inc.),
 the Gaussian 90(TM) system (copyright 1990, Gaussian, Inc.),
 the Gaussian 88(TM) system (copyright 1988, Gaussian, Inc.),
 the Gaussian 86(TM) system (copyright 1986, Carnegie Mellon
 University), and the Gaussian 82(TM) system (copyright 1983,
 Carnegie Mellon University). Gaussian is a federally registered
 trademark of Gaussian, Inc.
  
 This software contains proprietary and confidential information,
 including trade secrets, belonging to Gaussian, Inc.
  
 This software is provided under written license and may be
 used, copied, transmitted, or stored only in accord with that
 written license.
  
 The following legend is applicable only to US Government
 contracts under FAR:
  
                    RESTRICTED RIGHTS LEGEND
  
 Use, reproduction and disclosure by the US Government is
 subject to restrictions as set forth in subparagraphs (a)
 and (c) of the Commercial Computer Software - Restricted
 Rights clause in FAR 52.227-19.
  
 Gaussian, Inc.
 340 Quinnipiac St., Bldg. 40, Wallingford CT 06492
  
  
 ---------------------------------------------------------------
 Warning -- This program may not be used in any manner that
 competes with the business of Gaussian, Inc. or will provide
 assistance to any competitor of Gaussian, Inc.  The licensee
 of this program is prohibited from giving any competitor of
 Gaussian, Inc. access to this program.  By using this program,
 the user acknowledges that Gaussian, Inc. is engaged in the
 business of creating and licensing software in the field of
 computational chemistry and represents and warrants to the
 licensee that it is not a competitor of Gaussian, Inc. and that
 it will not use this program in any manner prohibited above.
 ---------------------------------------------------------------
  

 Cite this work as:
 Gaussian 16, Revision A.03,
 M. J. Frisch, G. W. Trucks, H. B. Schlegel, G. E. Scuseria, 
 M. A. Robb, J. R. Cheeseman, G. Scalmani, V. Barone, 
 G. A. Petersson, H. Nakatsuji, X. Li, M. Caricato, A. V. Marenich, 
 J. Bloino, B. G. Janesko, R. Gomperts, B. Mennucci, H. P. Hratchian, 
 J. V. Ortiz, A. F. Izmaylov, J. L. Sonnenberg, D. Williams-Young, 
 F. Ding, F. Lipparini, F. Egidi, J. Goings, B. Peng, A. Petrone, 
 T. Henderson, D. Ranasinghe, V. G. Zakrzewski, J. Gao, N. Rega, 
 G. Zheng, W. Liang, M. Hada, M. Ehara, K. Toyota, R. Fukuda, 
 J. Hasegawa, M. Ishida, T. Nakajima, Y. Honda, O. Kitao, H. Nakai, 
 T. Vreven, K. Throssell, J. A. Montgomery, Jr., J. E. Peralta, 
 F. Ogliaro, M. J. Bearpark, J. J. Heyd, E. N. Brothers, K. N. Kudin, 
 V. N. Staroverov, T. A. Keith, R. Kobayashi, J. Normand, 
 K. Raghavachari, A. P. Rendell, J. C. Burant, S. S. Iyengar, 
 J. Tomasi, M. Cossi, J. M. Millam, M. Klene, C. Adamo, R. Cammi, 
 J. W. Ochterski, R. L. Martin, K. Morokuma, O. Farkas, 
 J. B. Foresman, and D. J. Fox, Gaussian, Inc., Wallingford CT, 2016.
 
 ******************************************
 Gaussian 16:  ES64L-G16RevA.03 25-Dec-2016
                 5-Jun-2019 
 ******************************************
 %nprocshared=8
 Will use up to    8 processors via shared memory.
 %mem=8GB
 -----------------
 # M062X/def2TZVPP
 -----------------
 1/38=1,172=1/1;
 2/12=2,17=6,18=5,40=1/2;
 3/5=44,7=202,11=2,25=1,30=1,74=-55/1,2,3;
 4//1;
 5/5=2,38=5/2;
 6/7=2,8=2,9=2,10=2,28=1/1;
 99/5=1,9=1/99;
 ----------------------
 tmpdir/M1_conf_0_5.gjf
 ----------------------
 Symbolic Z-matrix:
 Charge =  0 Multiplicity = 1
 B                    -2.05212   1.55161   0.07892 
 H                    -1.75475   0.39819   0.26856 
 H                    -2.97967   2.064     0.55158 
 H                    -1.82468   1.81838  -1.03764 
 
                          Input orientation:                          
 ---------------------------------------------------------------------
 Center     Atomic      Atomic             Coordinates (Angstroms)
 Number     Number       Type             X           Y           Z
 ---------------------------------------------------------------------
      1          5           0       -2.052118    1.551605    0.078923
      2          1           0       -1.754746    0.398186    0.268557
      3          1           0       -2.979667    2.063998    0.551584
      4          1           0       -1.824678    1.818382   -1.037643
 ---------------------------------------------------------------------
                    Distance matrix (angstroms):
                    1          2          3          4
     1  B    0.000000
     2  H    1.206137   0.000000
     3  H    1.160303   2.086975   0.000000
     4  H    1.170306   1.930804   1.979891   0.000000
 Stoichiometry    BH3
 Framework group  C1[X(BH3)]
 Deg. of freedom     6
 Full point group                 C1      NOp   1
 Largest Abelian subgroup         C1      NOp   1
 Largest concise Abelian subgroup C1      NOp   1
                         Standard orientation:                         
 ---------------------------------------------------------------------
 Center     Atomic      Atomic             Coordinates (Angstroms)
 Number     Number       Type             X           Y           Z
 ---------------------------------------------------------------------
      1          5           0        0.018538   -0.014494   -0.085985
      2          1           0       -0.966917   -0.671998    0.140582
      3          1           0        1.097325   -0.365288    0.157869
      4          1           0       -0.223097    1.109757    0.131477
 ---------------------------------------------------------------------
 Rotational constants (GHZ):         258.1586458         216.5358457         125.0486813
 Standard basis: def2TZVPP (5D, 7F)
 There are    81 symmetry adapted cartesian basis functions of A   symmetry.
 There are    73 symmetry adapted basis functions of A   symmetry.
    73 basis functions,   102 primitive gaussians,    81 cartesian basis functions
     4 alpha electrons        4 beta electrons
       nuclear repulsion energy         7.5297844018 Hartrees.
 NAtoms=    4 NActive=    4 NUniq=    4 SFac= 1.00D+00 NAtFMM=   60 NAOKFM=F Big=F
 Integral buffers will be    131072 words long.
 Raffenetti 2 integral format.
 Two-electron integral symmetry is turned on.
 One-electron integrals computed using PRISM.
   1 Symmetry operations used in ECPInt.
 ECPInt:  NShTT=     435 NPrTT=    1021 LenC2=     436 LenP2D=     994.
 LDataN:  DoStor=T MaxTD1= 6 Len=  172
 NBasis=    73 RedAO= T EigKep=  2.96D-03  NBF=    73
 NBsUse=    73 1.00D-06 EigRej= -1.00D+00 NBFU=    73
 ExpMin= 6.06D-02 ExpMax= 8.56D+03 ExpMxC= 2.92D+02 IAcc=3 IRadAn=         5 AccDes= 0.00D+00
 Harris functional with IExCor= 1009 and IRadAn=       5 diagonalized for initial guess.
 HarFok:  IExCor= 1009 AccDes= 0.00D+00 IRadAn=         5 IDoV= 1 UseB2=F ITyADJ=14
 ICtDFT=  3500011 ScaDFX=  1.000000  1.000000  1.000000  1.000000
 FoFCou: FMM=F IPFlag=           0 FMFlag=      100000 FMFlg1=           0
         NFxFlg=           0 DoJE=T BraDBF=F KetDBF=T FulRan=T
         wScrn=  0.000000 ICntrl=       500 IOpCl=  0 I1Cent=   200000004 NGrid=           0
         NMat0=    1 NMatS0=      1 NMatT0=    0 NMatD0=    1 NMtDS0=    0 NMtDT0=    0
 Petite list used in FoFCou.
 Keep R1 ints in memory in canonical form, NReq=10891773.
 Requested convergence on RMS density matrix=1.00D-08 within 128 cycles.
 Requested convergence on MAX density matrix=1.00D-06.
 Requested convergence on             energy=1.00D-06.
 No special actions if energy rises.
 Integral accuracy reduced to 1.0D-05 until final iterations.
 Initial convergence to 1.0D-05 achieved.  Increase integral accuracy.
 SCF Done:  E(RM062X) =  -26.5817512479     A.U. after   11 cycles
            NFock= 11  Conv=0.90D-08     -V/T= 2.0053

 **********************************************************************

            Population analysis using the SCF density.

 **********************************************************************

 Orbital symmetries:
       Occupied  (A) (A) (A) (A)
       Virtual   (A) (A) (A) (A) (A) (A) (A) (A) (A) (A) (A) (A)
                 (A) (A) (A) (A) (A) (A) (A) (A) (A) (A) (A) (A)
                 (A) (A) (A) (A) (A) (A) (A) (A) (A) (A) (A) (A)
                 (A) (A) (A) (A) (A) (A) (A) (A) (A) (A) (A) (A)
                 (A) (A) (A) (A) (A) (A) (A) (A) (A) (A) (A) (A)
                 (A) (A) (A) (A) (A) (A) (A) (A) (A)
 The electronic state is 1-A.
 Alpha  occ. eigenvalues --   -7.05680  -0.59430  -0.42252  -0.39691
 Alpha virt. eigenvalues --   -0.04797   0.08012   0.11149   0.11392   0.16862
 Alpha virt. eigenvalues --    0.18794   0.19835   0.20527   0.40407   0.41194
 Alpha virt. eigenvalues --    0.43820   0.46171   0.48623   0.64230   0.65705
 Alpha virt. eigenvalues --    0.72511   0.74988   0.76850   0.79281   0.86425
 Alpha virt. eigenvalues --    0.91611   0.94524   0.96128   1.03277   1.24407
 Alpha virt. eigenvalues --    1.28417   1.41592   1.47629   1.48774   1.79826
 Alpha virt. eigenvalues --    1.80815   1.88191   1.91515   1.93710   1.96343
 Alpha virt. eigenvalues --    2.05693   2.08827   2.16292   2.17305   2.24191
 Alpha virt. eigenvalues --    2.29913   2.87628   2.88833   3.09949   3.18319
 Alpha virt. eigenvalues --    3.30685   3.31546   3.56772   3.63517   3.67547
 Alpha virt. eigenvalues --    3.82921   3.84262   3.88098   3.88526   3.94557
 Alpha virt. eigenvalues --    4.01322   4.06316   4.17686   4.19152   4.33430
 Alpha virt. eigenvalues --    4.39678   4.49725   4.54029   4.60002   4.80067
 Alpha virt. eigenvalues --    4.88200   4.98713   5.01252  15.38529
          Condensed to atoms (all electrons):
               1          2          3          4
     1  B    3.881309   0.413821   0.418441   0.417857
     2  H    0.413821   0.592670  -0.013928  -0.025518
     3  H    0.418441  -0.013928   0.562160  -0.018684
     4  H    0.417857  -0.025518  -0.018684   0.579884
 Mulliken charges:
               1
     1  B   -0.131427
     2  H    0.032955
     3  H    0.052011
     4  H    0.046461
 Sum of Mulliken charges =   0.00000
 Mulliken charges with hydrogens summed into heavy atoms:
               1
     1  B    0.000000
 Electronic spatial extent (au):  <R**2>=             33.7751
 Charge=             -0.0000 electrons
 Dipole moment (field-independent basis, Debye):
    X=              0.0900    Y=             -0.0194    Z=             -0.4881  Tot=              0.4967
 Quadrupole moment (field-independent basis, Debye-Ang):
   XX=             -9.1690   YY=             -9.5341   ZZ=             -6.9984
   XY=             -0.0662   XZ=             -0.0509   YZ=              0.0260
 Traceless Quadrupole moment (field-independent basis, Debye-Ang):
   XX=             -0.6018   YY=             -0.9669   ZZ=              1.5688
   XY=             -0.0662   XZ=             -0.0509   YZ=              0.0260
 Octapole moment (field-independent basis, Debye-Ang**2):
  XXX=              0.1601  YYY=              0.1361  ZZZ=             -0.6615  XYY=              0.0489
  XXY=              0.0242  XXZ=              0.2249  XZZ=              0.1019  YZZ=              0.0184
  YYZ=              0.1361  XYZ=             -0.0021
 Hexadecapole moment (field-independent basis, Debye-Ang**3):
 XXXX=            -24.3391 YYYY=            -23.6327 ZZZZ=             -7.7094 XXXY=             -0.0849
 XXXZ=              0.0609 YYYX=             -0.2696 YYYZ=              0.2070 ZZZX=             -0.0412
 ZZZY=              0.0295 XXYY=             -8.0426 XXZZ=             -5.5641 YYZZ=             -5.3569
 XXYZ=             -0.1874 YYXZ=             -0.1136 ZZXY=             -0.0618
 N-N= 7.529784401767D+00 E-N=-7.571853154351D+01  KE= 2.644160516620D+01
 1\1\GINC-NODE97\SP\RM062X\def2TZVPP\B1H3\YANZ\05-Jun-2019\0\\# M062X/d
 ef2TZVPP\\tmpdir/M1_conf_0_5.gjf\\0,1\B,0,-2.05211806,1.55160535,0.078
 92296\H,0,-1.75474609,0.39818605,0.26855651\H,0,-2.97966736,2.06399785
 ,0.55158413\H,0,-1.82467801,1.81838208,-1.03764253\\Version=ES64L-G16R
 evA.03\State=1-A\HF=-26.5817512\RMSD=8.993e-09\Dipole=0.1214772,0.1120
 839,0.104253\Quadrupole=0.4318945,-0.178046,-0.2538484,0.5486101,0.588
 9827,0.5036964\PG=C01 [X(B1H3)]\\@


 Everything starts as somebody's daydream.
                           -- Larry Niven
 Job cpu time:       0 days  0 hours  0 minutes 17.4 seconds.
 Elapsed time:       0 days  0 hours  0 minutes  2.4 seconds.
 File lengths (MBytes):  RWF=      6 Int=      0 D2E=      0 Chk=      1 Scr=      1
 Normal termination of Gaussian 16 at Wed Jun  5 22:34:25 2019.
