 Entering Gaussian System, Link 0=g16
 Initial command:
 /share/apps/gaussian/g16/l1.exe "/tmp/55603.mgr/Gau-315241.inp" -scrdir="/tmp/55603.mgr/"
 Entering Link 1 = /share/apps/gaussian/g16/l1.exe PID=    315242.
  
 Copyright (c) 1988,1990,1992,1993,1995,1998,2003,2009,2016,
            Gaussian, Inc.  All Rights Reserved.
  
 This is part of the Gaussian(R) 16 program.  It is based on
 the Gaussian(R) 09 system (copyright 2009, Gaussian, Inc.),
 the Gaussian(R) 03 system (copyright 2003, Gaussian, Inc.),
 the Gaussian(R) 98 system (copyright 1998, Gaussian, Inc.),
 the Gaussian(R) 94 system (copyright 1995, Gaussian, Inc.),
 the Gaussian 92(TM) system (copyright 1992, Gaussian, Inc.),
 the Gaussian 90(TM) system (copyright 1990, Gaussian, Inc.),
 the Gaussian 88(TM) system (copyright 1988, Gaussian, Inc.),
 the Gaussian 86(TM) system (copyright 1986, Carnegie Mellon
 University), and the Gaussian 82(TM) system (copyright 1983,
 Carnegie Mellon University). Gaussian is a federally registered
 trademark of Gaussian, Inc.
  
 This software contains proprietary and confidential information,
 including trade secrets, belonging to Gaussian, Inc.
  
 This software is provided under written license and may be
 used, copied, transmitted, or stored only in accord with that
 written license.
  
 The following legend is applicable only to US Government
 contracts under FAR:
  
                    RESTRICTED RIGHTS LEGEND
  
 Use, reproduction and disclosure by the US Government is
 subject to restrictions as set forth in subparagraphs (a)
 and (c) of the Commercial Computer Software - Restricted
 Rights clause in FAR 52.227-19.
  
 Gaussian, Inc.
 340 Quinnipiac St., Bldg. 40, Wallingford CT 06492
  
  
 ---------------------------------------------------------------
 Warning -- This program may not be used in any manner that
 competes with the business of Gaussian, Inc. or will provide
 assistance to any competitor of Gaussian, Inc.  The licensee
 of this program is prohibited from giving any competitor of
 Gaussian, Inc. access to this program.  By using this program,
 the user acknowledges that Gaussian, Inc. is engaged in the
 business of creating and licensing software in the field of
 computational chemistry and represents and warrants to the
 licensee that it is not a competitor of Gaussian, Inc. and that
 it will not use this program in any manner prohibited above.
 ---------------------------------------------------------------
  

 Cite this work as:
 Gaussian 16, Revision A.03,
 M. J. Frisch, G. W. Trucks, H. B. Schlegel, G. E. Scuseria, 
 M. A. Robb, J. R. Cheeseman, G. Scalmani, V. Barone, 
 G. A. Petersson, H. Nakatsuji, X. Li, M. Caricato, A. V. Marenich, 
 J. Bloino, B. G. Janesko, R. Gomperts, B. Mennucci, H. P. Hratchian, 
 J. V. Ortiz, A. F. Izmaylov, J. L. Sonnenberg, D. Williams-Young, 
 F. Ding, F. Lipparini, F. Egidi, J. Goings, B. Peng, A. Petrone, 
 T. Henderson, D. Ranasinghe, V. G. Zakrzewski, J. Gao, N. Rega, 
 G. Zheng, W. Liang, M. Hada, M. Ehara, K. Toyota, R. Fukuda, 
 J. Hasegawa, M. Ishida, T. Nakajima, Y. Honda, O. Kitao, H. Nakai, 
 T. Vreven, K. Throssell, J. A. Montgomery, Jr., J. E. Peralta, 
 F. Ogliaro, M. J. Bearpark, J. J. Heyd, E. N. Brothers, K. N. Kudin, 
 V. N. Staroverov, T. A. Keith, R. Kobayashi, J. Normand, 
 K. Raghavachari, A. P. Rendell, J. C. Burant, S. S. Iyengar, 
 J. Tomasi, M. Cossi, J. M. Millam, M. Klene, C. Adamo, R. Cammi, 
 J. W. Ochterski, R. L. Martin, K. Morokuma, O. Farkas, 
 J. B. Foresman, and D. J. Fox, Gaussian, Inc., Wallingford CT, 2016.
 
 ******************************************
 Gaussian 16:  ES64L-G16RevA.03 25-Dec-2016
                 5-Jun-2019 
 ******************************************
 %nprocshared=8
 Will use up to    8 processors via shared memory.
 %mem=8GB
 -----------------
 # M062X/def2TZVPP
 -----------------
 1/38=1,172=1/1;
 2/12=2,17=6,18=5,40=1/2;
 3/5=44,7=202,11=2,25=1,30=1,74=-55/1,2,3;
 4//1;
 5/5=2,38=5/2;
 6/7=2,8=2,9=2,10=2,28=1/1;
 99/5=1,9=1/99;
 ----------------------
 tmpdir/M1_conf_0_6.gjf
 ----------------------
 Symbolic Z-matrix:
 Charge =  0 Multiplicity = 1
 C                    -1.649    -0.01198   0.33599 
 H                    -2.09088  -0.70697  -0.37504 
 H                    -1.83781  -0.35484   1.35187 
 H                    -0.4909    0.0575    0.1934 
 H                    -1.92623   1.06334   0.1592 
 
                          Input orientation:                          
 ---------------------------------------------------------------------
 Center     Atomic      Atomic             Coordinates (Angstroms)
 Number     Number       Type             X           Y           Z
 ---------------------------------------------------------------------
      1          6           0       -1.648999   -0.011976    0.335991
      2          1           0       -2.090878   -0.706973   -0.375041
      3          1           0       -1.837808   -0.354836    1.351870
      4          1           0       -0.490898    0.057496    0.193396
      5          1           0       -1.926235    1.063341    0.159198
 ---------------------------------------------------------------------
                    Distance matrix (angstroms):
                    1          2          3          4          5
     1  C    0.000000
     2  H    1.088046   0.000000
     3  H    1.088674   1.780524   0.000000
     4  H    1.168913   1.862113   1.823800   0.000000
     5  H    1.124465   1.856484   1.855131   1.753022   0.000000
 Stoichiometry    CH4
 Framework group  C1[X(CH4)]
 Deg. of freedom     9
 Full point group                 C1      NOp   1
 Largest Abelian subgroup         C1      NOp   1
 Largest concise Abelian subgroup C1      NOp   1
                         Standard orientation:                         
 ---------------------------------------------------------------------
 Center     Atomic      Atomic             Coordinates (Angstroms)
 Number     Number       Type             X           Y           Z
 ---------------------------------------------------------------------
      1          6           0       -0.022683   -0.008941   -0.012161
      2          1           0       -0.733724   -0.720664    0.402223
      3          1           0       -0.556701    0.834105   -0.447259
      4          1           0        0.687087    0.409207    0.817138
      5          1           0        0.739437   -0.469004   -0.699137
 ---------------------------------------------------------------------
 Rotational constants (GHZ):         160.5662076         147.8395254         144.2867937
 Standard basis: def2TZVPP (5D, 7F)
 There are    96 symmetry adapted cartesian basis functions of A   symmetry.
 There are    87 symmetry adapted basis functions of A   symmetry.
    87 basis functions,   119 primitive gaussians,    96 cartesian basis functions
     5 alpha electrons        5 beta electrons
       nuclear repulsion energy        13.1181507574 Hartrees.
 NAtoms=    5 NActive=    5 NUniq=    5 SFac= 1.00D+00 NAtFMM=   60 NAOKFM=F Big=F
 Integral buffers will be    131072 words long.
 Raffenetti 2 integral format.
 Two-electron integral symmetry is turned on.
 One-electron integrals computed using PRISM.
   1 Symmetry operations used in ECPInt.
 ECPInt:  NShTT=     630 NPrTT=    1412 LenC2=     631 LenP2D=    1374.
 LDataN:  DoStor=T MaxTD1= 6 Len=  172
 NBasis=    87 RedAO= T EigKep=  5.75D-04  NBF=    87
 NBsUse=    87 1.00D-06 EigRej= -1.00D+00 NBFU=    87
 ExpMin= 9.52D-02 ExpMax= 1.36D+04 ExpMxC= 4.63D+02 IAcc=3 IRadAn=         5 AccDes= 0.00D+00
 Harris functional with IExCor= 1009 and IRadAn=       5 diagonalized for initial guess.
 HarFok:  IExCor= 1009 AccDes= 0.00D+00 IRadAn=         5 IDoV= 1 UseB2=F ITyADJ=14
 ICtDFT=  3500011 ScaDFX=  1.000000  1.000000  1.000000  1.000000
 FoFCou: FMM=F IPFlag=           0 FMFlag=      100000 FMFlg1=           0
         NFxFlg=           0 DoJE=T BraDBF=F KetDBF=T FulRan=T
         wScrn=  0.000000 ICntrl=       500 IOpCl=  0 I1Cent=   200000004 NGrid=           0
         NMat0=    1 NMatS0=      1 NMatT0=    0 NMatD0=    1 NMtDS0=    0 NMtDT0=    0
 Petite list used in FoFCou.
 Keep R1 ints in memory in canonical form, NReq=14703931.
 Requested convergence on RMS density matrix=1.00D-08 within 128 cycles.
 Requested convergence on MAX density matrix=1.00D-06.
 Requested convergence on             energy=1.00D-06.
 No special actions if energy rises.
 Integral accuracy reduced to 1.0D-05 until final iterations.
 Initial convergence to 1.0D-05 achieved.  Increase integral accuracy.
 SCF Done:  E(RM062X) =  -40.4951162209     A.U. after   10 cycles
            NFock= 10  Conv=0.17D-08     -V/T= 2.0098

 **********************************************************************

            Population analysis using the SCF density.

 **********************************************************************

 Orbital symmetries:
       Occupied  (A) (A) (A) (A) (A)
       Virtual   (A) (A) (A) (A) (A) (A) (A) (A) (A) (A) (A) (A)
                 (A) (A) (A) (A) (A) (A) (A) (A) (A) (A) (A) (A)
                 (A) (A) (A) (A) (A) (A) (A) (A) (A) (A) (A) (A)
                 (A) (A) (A) (A) (A) (A) (A) (A) (A) (A) (A) (A)
                 (A) (A) (A) (A) (A) (A) (A) (A) (A) (A) (A) (A)
                 (A) (A) (A) (A) (A) (A) (A) (A) (A) (A) (A) (A)
                 (A) (A) (A) (A) (A) (A) (A) (A) (A) (A)
 The electronic state is 1-A.
 Alpha  occ. eigenvalues --  -10.52846  -0.77705  -0.46744  -0.45847  -0.42518
 Alpha virt. eigenvalues --    0.08355   0.14810   0.16056   0.16104   0.23590
 Alpha virt. eigenvalues --    0.24020   0.24223   0.40734   0.47235   0.50819
 Alpha virt. eigenvalues --    0.51124   0.52269   0.55484   0.56901   0.89895
 Alpha virt. eigenvalues --    0.90543   0.91198   0.96692   0.97666   0.99429
 Alpha virt. eigenvalues --    1.07366   1.12379   1.15280   1.34235   1.39522
 Alpha virt. eigenvalues --    1.39710   1.42714   1.44018   1.47454   1.55920
 Alpha virt. eigenvalues --    1.79396   1.85516   2.01857   2.47092   2.52685
 Alpha virt. eigenvalues --    2.56467   2.64484   2.78165   2.82677   2.84268
 Alpha virt. eigenvalues --    2.85190   2.87020   2.88385   2.92882   2.94036
 Alpha virt. eigenvalues --    3.25137   3.26653   3.27848   3.30412   3.36496
 Alpha virt. eigenvalues --    3.40267   3.44741   3.47814   3.56869   3.71381
 Alpha virt. eigenvalues --    3.77586   3.79883   3.82709   3.86836   3.93166
 Alpha virt. eigenvalues --    3.97027   4.01879   4.06405   4.07982   4.12642
 Alpha virt. eigenvalues --    4.43444   4.44664   4.47702   4.76078   4.84125
 Alpha virt. eigenvalues --    4.94634   5.02192   5.04197   5.13050   5.16461
 Alpha virt. eigenvalues --    5.20678   5.27901   5.30449   5.42081   5.44704
 Alpha virt. eigenvalues --    5.52973  23.67604
          Condensed to atoms (all electrons):
               1          2          3          4          5
     1  C    4.899479   0.402875   0.402155   0.383598   0.395251
     2  H    0.402875   0.529085  -0.022208  -0.019899  -0.019040
     3  H    0.402155  -0.022208   0.532629  -0.022826  -0.018789
     4  H    0.383598  -0.019899  -0.022826   0.582672  -0.029092
     5  H    0.395251  -0.019040  -0.018789  -0.029092   0.552083
 Mulliken charges:
               1
     1  C   -0.483359
     2  H    0.129187
     3  H    0.129039
     4  H    0.105547
     5  H    0.119586
 Sum of Mulliken charges =  -0.00000
 Mulliken charges with hydrogens summed into heavy atoms:
               1
     1  C   -0.000000
 Electronic spatial extent (au):  <R**2>=             36.8884
 Charge=             -0.0000 electrons
 Dipole moment (field-independent basis, Debye):
    X=              0.0108    Y=              0.0113    Z=              0.0000  Tot=              0.0156
 Quadrupole moment (field-independent basis, Debye-Ang):
   XX=             -8.2307   YY=             -8.5658   ZZ=             -8.8401
   XY=             -0.0246   XZ=             -0.0770   YZ=             -0.1083
 Traceless Quadrupole moment (field-independent basis, Debye-Ang):
   XX=              0.3148   YY=             -0.0203   ZZ=             -0.2946
   XY=             -0.0246   XZ=             -0.0770   YZ=             -0.1083
 Octapole moment (field-independent basis, Debye-Ang**2):
  XXX=             -0.0331  YYY=              0.1311  ZZZ=             -0.0012  XYY=             -0.4733
  XXY=             -0.1835  XXZ=              0.0136  XZZ=              0.3198  YZZ=              0.0368
  YYZ=             -0.1197  XYZ=              0.6633
 Hexadecapole moment (field-independent basis, Debye-Ang**3):
 XXXX=            -18.1198 YYYY=            -17.2094 ZZZZ=            -17.8439 XXXY=              0.0373
 XXXZ=             -0.3179 YYYX=             -0.1643 YYYZ=             -0.6145 ZZZX=             -0.0274
 ZZZY=              0.0421 XXYY=             -5.3930 XXZZ=             -5.4270 YYZZ=             -5.6305
 XXYZ=              0.0025 YYXZ=             -0.0591 ZZXY=              0.0043
 N-N= 1.311815075739D+01 E-N=-1.193177212370D+02  KE= 4.010151119376D+01
 1\1\GINC-NODE97\SP\RM062X\def2TZVPP\C1H4\YANZ\05-Jun-2019\0\\# M062X/d
 ef2TZVPP\\tmpdir/M1_conf_0_6.gjf\\0,1\C,0,-1.64899912,-0.01197565,0.33
 599115\H,0,-2.09087752,-0.70697336,-0.37504057\H,0,-1.83780775,-0.3548
 356,1.35187007\H,0,-0.49089841,0.0574961,0.19339574\H,0,-1.9262349,1.0
 6334122,0.15919841\\Version=ES64L-G16RevA.03\State=1-A\HF=-40.4951162\
 RMSD=1.673e-09\Dipole=0.0044416,0.0027741,0.0032289\Quadrupole=-0.1432
 565,0.1368844,0.0063721,0.1966766,0.0321299,-0.0470743\PG=C01 [X(C1H4)
 ]\\@


 ERWIN WITH HIS PSI CAN DO
 CALCULATIONS QUITE A FEW.
 BUT ONE THING HAS NOT BEEN SEEN
 JUST WHAT DOES PSI REALLY MEAN.
 -- WALTER HUCKEL, TRANS. BY FELIX BLOCH
 Job cpu time:       0 days  0 hours  0 minutes 23.3 seconds.
 Elapsed time:       0 days  0 hours  0 minutes  3.2 seconds.
 File lengths (MBytes):  RWF=      6 Int=      0 D2E=      0 Chk=      2 Scr=      1
 Normal termination of Gaussian 16 at Wed Jun  5 22:34:27 2019.
