 Entering Gaussian System, Link 0=g16
 Initial command:
 /share/apps/gaussian/g16/l1.exe "/tmp/55603.mgr/Gau-314577.inp" -scrdir="/tmp/55603.mgr/"
 Entering Link 1 = /share/apps/gaussian/g16/l1.exe PID=    314578.
  
 Copyright (c) 1988,1990,1992,1993,1995,1998,2003,2009,2016,
            Gaussian, Inc.  All Rights Reserved.
  
 This is part of the Gaussian(R) 16 program.  It is based on
 the Gaussian(R) 09 system (copyright 2009, Gaussian, Inc.),
 the Gaussian(R) 03 system (copyright 2003, Gaussian, Inc.),
 the Gaussian(R) 98 system (copyright 1998, Gaussian, Inc.),
 the Gaussian(R) 94 system (copyright 1995, Gaussian, Inc.),
 the Gaussian 92(TM) system (copyright 1992, Gaussian, Inc.),
 the Gaussian 90(TM) system (copyright 1990, Gaussian, Inc.),
 the Gaussian 88(TM) system (copyright 1988, Gaussian, Inc.),
 the Gaussian 86(TM) system (copyright 1986, Carnegie Mellon
 University), and the Gaussian 82(TM) system (copyright 1983,
 Carnegie Mellon University). Gaussian is a federally registered
 trademark of Gaussian, Inc.
  
 This software contains proprietary and confidential information,
 including trade secrets, belonging to Gaussian, Inc.
  
 This software is provided under written license and may be
 used, copied, transmitted, or stored only in accord with that
 written license.
  
 The following legend is applicable only to US Government
 contracts under FAR:
  
                    RESTRICTED RIGHTS LEGEND
  
 Use, reproduction and disclosure by the US Government is
 subject to restrictions as set forth in subparagraphs (a)
 and (c) of the Commercial Computer Software - Restricted
 Rights clause in FAR 52.227-19.
  
 Gaussian, Inc.
 340 Quinnipiac St., Bldg. 40, Wallingford CT 06492
  
  
 ---------------------------------------------------------------
 Warning -- This program may not be used in any manner that
 competes with the business of Gaussian, Inc. or will provide
 assistance to any competitor of Gaussian, Inc.  The licensee
 of this program is prohibited from giving any competitor of
 Gaussian, Inc. access to this program.  By using this program,
 the user acknowledges that Gaussian, Inc. is engaged in the
 business of creating and licensing software in the field of
 computational chemistry and represents and warrants to the
 licensee that it is not a competitor of Gaussian, Inc. and that
 it will not use this program in any manner prohibited above.
 ---------------------------------------------------------------
  

 Cite this work as:
 Gaussian 16, Revision A.03,
 M. J. Frisch, G. W. Trucks, H. B. Schlegel, G. E. Scuseria, 
 M. A. Robb, J. R. Cheeseman, G. Scalmani, V. Barone, 
 G. A. Petersson, H. Nakatsuji, X. Li, M. Caricato, A. V. Marenich, 
 J. Bloino, B. G. Janesko, R. Gomperts, B. Mennucci, H. P. Hratchian, 
 J. V. Ortiz, A. F. Izmaylov, J. L. Sonnenberg, D. Williams-Young, 
 F. Ding, F. Lipparini, F. Egidi, J. Goings, B. Peng, A. Petrone, 
 T. Henderson, D. Ranasinghe, V. G. Zakrzewski, J. Gao, N. Rega, 
 G. Zheng, W. Liang, M. Hada, M. Ehara, K. Toyota, R. Fukuda, 
 J. Hasegawa, M. Ishida, T. Nakajima, Y. Honda, O. Kitao, H. Nakai, 
 T. Vreven, K. Throssell, J. A. Montgomery, Jr., J. E. Peralta, 
 F. Ogliaro, M. J. Bearpark, J. J. Heyd, E. N. Brothers, K. N. Kudin, 
 V. N. Staroverov, T. A. Keith, R. Kobayashi, J. Normand, 
 K. Raghavachari, A. P. Rendell, J. C. Burant, S. S. Iyengar, 
 J. Tomasi, M. Cossi, J. M. Millam, M. Klene, C. Adamo, R. Cammi, 
 J. W. Ochterski, R. L. Martin, K. Morokuma, O. Farkas, 
 J. B. Foresman, and D. J. Fox, Gaussian, Inc., Wallingford CT, 2016.
 
 ******************************************
 Gaussian 16:  ES64L-G16RevA.03 25-Dec-2016
                 5-Jun-2019 
 ******************************************
 %nprocshared=8
 Will use up to    8 processors via shared memory.
 %mem=8GB
 -----------------
 # M062X/def2TZVPP
 -----------------
 1/38=1,172=1/1;
 2/12=2,17=6,18=5,40=1/2;
 3/5=44,7=202,11=2,25=1,30=1,74=-55/1,2,3;
 4//1;
 5/5=2,38=5/2;
 6/7=2,8=2,9=2,10=2,28=1/1;
 99/5=1,9=1/99;
 -------------------
 tmpdir/M1_ref_5.gjf
 -------------------
 Symbolic Z-matrix:
 Charge =  0 Multiplicity = 1
 B                    -0.17753  -0.0258   -0.24407 
 H                     0.20989  -1.05159   0.14797 
 H                    -0.97644   0.5815    0.28373 
 H                     0.23575   0.36662  -1.21842 
 
                          Input orientation:                          
 ---------------------------------------------------------------------
 Center     Atomic      Atomic             Coordinates (Angstroms)
 Number     Number       Type             X           Y           Z
 ---------------------------------------------------------------------
      1          5           0       -0.177531   -0.025800   -0.244072
      2          1           0        0.209890   -1.051594    0.147969
      3          1           0       -0.976435    0.581495    0.283732
      4          1           0        0.235749    0.366619   -1.218424
 ---------------------------------------------------------------------
                    Distance matrix (angstroms):
                    1          2          3          4
     1  B    0.000000
     2  H    1.164493   0.000000
     3  H    1.133857   2.023062   0.000000
     4  H    1.128785   1.969525   1.942172   0.000000
 Stoichiometry    BH3
 Framework group  C1[X(BH3)]
 Deg. of freedom     6
 Full point group                 C1      NOp   1
 Largest Abelian subgroup         C1      NOp   1
 Largest concise Abelian subgroup C1      NOp   1
                         Standard orientation:                         
 ---------------------------------------------------------------------
 Center     Atomic      Atomic             Coordinates (Angstroms)
 Number     Number       Type             X           Y           Z
 ---------------------------------------------------------------------
      1          5           0        0.002424   -0.005249   -0.004865
      2          1           0       -1.099564   -0.381414    0.008096
      3          1           0        0.898217   -0.700240    0.008308
      4          1           0        0.189225    1.107898    0.007923
 ---------------------------------------------------------------------
 Rotational constants (GHZ):         269.0384682         244.3635390         128.0799436
 Standard basis: def2TZVPP (5D, 7F)
 There are    81 symmetry adapted cartesian basis functions of A   symmetry.
 There are    73 symmetry adapted basis functions of A   symmetry.
    73 basis functions,   102 primitive gaussians,    81 cartesian basis functions
     4 alpha electrons        4 beta electrons
       nuclear repulsion energy         7.7523968293 Hartrees.
 NAtoms=    4 NActive=    4 NUniq=    4 SFac= 1.00D+00 NAtFMM=   60 NAOKFM=F Big=F
 Integral buffers will be    131072 words long.
 Raffenetti 2 integral format.
 Two-electron integral symmetry is turned on.
 One-electron integrals computed using PRISM.
   1 Symmetry operations used in ECPInt.
 ECPInt:  NShTT=     435 NPrTT=    1021 LenC2=     436 LenP2D=     994.
 LDataN:  DoStor=T MaxTD1= 6 Len=  172
 NBasis=    73 RedAO= T EigKep=  2.47D-03  NBF=    73
 NBsUse=    73 1.00D-06 EigRej= -1.00D+00 NBFU=    73
 ExpMin= 6.06D-02 ExpMax= 8.56D+03 ExpMxC= 2.92D+02 IAcc=3 IRadAn=         5 AccDes= 0.00D+00
 Harris functional with IExCor= 1009 and IRadAn=       5 diagonalized for initial guess.
 HarFok:  IExCor= 1009 AccDes= 0.00D+00 IRadAn=         5 IDoV= 1 UseB2=F ITyADJ=14
 ICtDFT=  3500011 ScaDFX=  1.000000  1.000000  1.000000  1.000000
 FoFCou: FMM=F IPFlag=           0 FMFlag=      100000 FMFlg1=           0
         NFxFlg=           0 DoJE=T BraDBF=F KetDBF=T FulRan=T
         wScrn=  0.000000 ICntrl=       500 IOpCl=  0 I1Cent=   200000004 NGrid=           0
         NMat0=    1 NMatS0=      1 NMatT0=    0 NMatD0=    1 NMtDS0=    0 NMtDT0=    0
 Petite list used in FoFCou.
 Keep R1 ints in memory in canonical form, NReq=10891773.
 Requested convergence on RMS density matrix=1.00D-08 within 128 cycles.
 Requested convergence on MAX density matrix=1.00D-06.
 Requested convergence on             energy=1.00D-06.
 No special actions if energy rises.
 Integral accuracy reduced to 1.0D-05 until final iterations.
 Initial convergence to 1.0D-05 achieved.  Increase integral accuracy.
 SCF Done:  E(RM062X) =  -26.5923907543     A.U. after   10 cycles
            NFock= 10  Conv=0.42D-08     -V/T= 2.0009

 **********************************************************************

            Population analysis using the SCF density.

 **********************************************************************

 Orbital symmetries:
       Occupied  (A) (A) (A) (A)
       Virtual   (A) (A) (A) (A) (A) (A) (A) (A) (A) (A) (A) (A)
                 (A) (A) (A) (A) (A) (A) (A) (A) (A) (A) (A) (A)
                 (A) (A) (A) (A) (A) (A) (A) (A) (A) (A) (A) (A)
                 (A) (A) (A) (A) (A) (A) (A) (A) (A) (A) (A) (A)
                 (A) (A) (A) (A) (A) (A) (A) (A) (A) (A) (A) (A)
                 (A) (A) (A) (A) (A) (A) (A) (A) (A)
 The electronic state is 1-A.
 Alpha  occ. eigenvalues --   -7.04277  -0.59929  -0.42336  -0.41650
 Alpha virt. eigenvalues --   -0.03544   0.07851   0.11109   0.11207   0.18256
 Alpha virt. eigenvalues --    0.18875   0.20366   0.20458   0.41500   0.41754
 Alpha virt. eigenvalues --    0.45210   0.46021   0.47959   0.65197   0.66913
 Alpha virt. eigenvalues --    0.73617   0.74416   0.78606   0.80685   0.83181
 Alpha virt. eigenvalues --    0.93717   0.98808   1.00782   1.01601   1.27971
 Alpha virt. eigenvalues --    1.30485   1.45790   1.51301   1.52375   1.77343
 Alpha virt. eigenvalues --    1.77731   1.89960   1.93696   1.94881   2.01805
 Alpha virt. eigenvalues --    2.05148   2.08196   2.19838   2.20110   2.24815
 Alpha virt. eigenvalues --    2.26958   2.87935   2.91055   3.07981   3.14777
 Alpha virt. eigenvalues --    3.48349   3.49554   3.56806   3.62918   3.77285
 Alpha virt. eigenvalues --    3.79557   3.81550   3.93443   3.95333   3.96911
 Alpha virt. eigenvalues --    4.01186   4.04947   4.24772   4.25398   4.47837
 Alpha virt. eigenvalues --    4.52122   4.57312   4.62040   4.64687   4.88672
 Alpha virt. eigenvalues --    4.93176   5.21183   5.44614  15.70202
          Condensed to atoms (all electrons):
               1          2          3          4
     1  B    3.868130   0.417755   0.420712   0.421536
     2  H    0.417755   0.577663  -0.012864  -0.016062
     3  H    0.420712  -0.012864   0.561975  -0.015996
     4  H    0.421536  -0.016062  -0.015996   0.562071
 Mulliken charges:
               1
     1  B   -0.128134
     2  H    0.033509
     3  H    0.046173
     4  H    0.048452
 Sum of Mulliken charges =  -0.00000
 Mulliken charges with hydrogens summed into heavy atoms:
               1
     1  B   -0.000000
 Electronic spatial extent (au):  <R**2>=             32.7720
 Charge=             -0.0000 electrons
 Dipole moment (field-independent basis, Debye):
    X=              0.0324    Y=             -0.0002    Z=             -0.0289  Tot=              0.0434
 Quadrupole moment (field-independent basis, Debye-Ang):
   XX=             -9.0806   YY=             -9.1806   ZZ=             -7.0118
   XY=             -0.0266   XZ=             -0.0009   YZ=              0.0003
 Traceless Quadrupole moment (field-independent basis, Debye-Ang):
   XX=             -0.6563   YY=             -0.7562   ZZ=              1.4125
   XY=             -0.0266   XZ=             -0.0009   YZ=              0.0003
 Octapole moment (field-independent basis, Debye-Ang**2):
  XXX=              0.1006  YYY=              0.1184  ZZZ=             -0.0377  XYY=              0.0649
  XXY=             -0.0147  XXZ=              0.0112  XZZ=              0.0571  YZZ=              0.0242
  YYZ=              0.0089  XYZ=             -0.0001
 Hexadecapole moment (field-independent basis, Debye-Ang**3):
 XXXX=            -23.1599 YYYY=            -22.3700 ZZZZ=             -7.1013 XXXY=             -0.0768
 XXXZ=             -0.0070 YYYX=             -0.0709 YYYZ=              0.0109 ZZZX=             -0.0006
 ZZZY=              0.0005 XXYY=             -7.6247 XXZZ=             -5.3091 YYZZ=             -5.1187
 XXYZ=             -0.0109 YYXZ=              0.0056 ZZXY=             -0.0243
 N-N= 7.752396829309D+00 E-N=-7.627637291118D+01  KE= 2.656929188410D+01
 1\1\GINC-NODE97\SP\RM062X\def2TZVPP\B1H3\YANZ\05-Jun-2019\0\\# M062X/d
 ef2TZVPP\\tmpdir/M1_ref_5.gjf\\0,1\B,0,-0.17753149,-0.02579991,-0.2440
 7203\H,0,0.2098899,-1.05159398,0.14796895\H,0,-0.97643508,0.58149522,0
 .28373191\H,0,0.23574877,0.36661949,-1.21842394\\Version=ES64L-G16RevA
 .03\State=1-A\HF=-26.5923908\RMSD=4.248e-09\Dipole=0.0014913,0.0162585
 ,0.0049922\Quadrupole=0.2932208,-0.1471869,-0.1460339,0.5130483,0.5821
 675,0.4028598\PG=C01 [X(B1H3)]\\@


 THE LENGTH OF A MEETING IS PROPORTIONAL TO THE
 SQUARE OF THE PARTICIPANTS.
 Job cpu time:       0 days  0 hours  0 minutes 17.6 seconds.
 Elapsed time:       0 days  0 hours  0 minutes  2.4 seconds.
 File lengths (MBytes):  RWF=      6 Int=      0 D2E=      0 Chk=      1 Scr=      1
 Normal termination of Gaussian 16 at Wed Jun  5 22:34:18 2019.
