 Entering Gaussian System, Link 0=g16
 Initial command:
 /share/apps/gaussian/g16/l1.exe "/tmp/55603.mgr/Gau-314497.inp" -scrdir="/tmp/55603.mgr/"
 Entering Link 1 = /share/apps/gaussian/g16/l1.exe PID=    314498.
  
 Copyright (c) 1988,1990,1992,1993,1995,1998,2003,2009,2016,
            Gaussian, Inc.  All Rights Reserved.
  
 This is part of the Gaussian(R) 16 program.  It is based on
 the Gaussian(R) 09 system (copyright 2009, Gaussian, Inc.),
 the Gaussian(R) 03 system (copyright 2003, Gaussian, Inc.),
 the Gaussian(R) 98 system (copyright 1998, Gaussian, Inc.),
 the Gaussian(R) 94 system (copyright 1995, Gaussian, Inc.),
 the Gaussian 92(TM) system (copyright 1992, Gaussian, Inc.),
 the Gaussian 90(TM) system (copyright 1990, Gaussian, Inc.),
 the Gaussian 88(TM) system (copyright 1988, Gaussian, Inc.),
 the Gaussian 86(TM) system (copyright 1986, Carnegie Mellon
 University), and the Gaussian 82(TM) system (copyright 1983,
 Carnegie Mellon University). Gaussian is a federally registered
 trademark of Gaussian, Inc.
  
 This software contains proprietary and confidential information,
 including trade secrets, belonging to Gaussian, Inc.
  
 This software is provided under written license and may be
 used, copied, transmitted, or stored only in accord with that
 written license.
  
 The following legend is applicable only to US Government
 contracts under FAR:
  
                    RESTRICTED RIGHTS LEGEND
  
 Use, reproduction and disclosure by the US Government is
 subject to restrictions as set forth in subparagraphs (a)
 and (c) of the Commercial Computer Software - Restricted
 Rights clause in FAR 52.227-19.
  
 Gaussian, Inc.
 340 Quinnipiac St., Bldg. 40, Wallingford CT 06492
  
  
 ---------------------------------------------------------------
 Warning -- This program may not be used in any manner that
 competes with the business of Gaussian, Inc. or will provide
 assistance to any competitor of Gaussian, Inc.  The licensee
 of this program is prohibited from giving any competitor of
 Gaussian, Inc. access to this program.  By using this program,
 the user acknowledges that Gaussian, Inc. is engaged in the
 business of creating and licensing software in the field of
 computational chemistry and represents and warrants to the
 licensee that it is not a competitor of Gaussian, Inc. and that
 it will not use this program in any manner prohibited above.
 ---------------------------------------------------------------
  

 Cite this work as:
 Gaussian 16, Revision A.03,
 M. J. Frisch, G. W. Trucks, H. B. Schlegel, G. E. Scuseria, 
 M. A. Robb, J. R. Cheeseman, G. Scalmani, V. Barone, 
 G. A. Petersson, H. Nakatsuji, X. Li, M. Caricato, A. V. Marenich, 
 J. Bloino, B. G. Janesko, R. Gomperts, B. Mennucci, H. P. Hratchian, 
 J. V. Ortiz, A. F. Izmaylov, J. L. Sonnenberg, D. Williams-Young, 
 F. Ding, F. Lipparini, F. Egidi, J. Goings, B. Peng, A. Petrone, 
 T. Henderson, D. Ranasinghe, V. G. Zakrzewski, J. Gao, N. Rega, 
 G. Zheng, W. Liang, M. Hada, M. Ehara, K. Toyota, R. Fukuda, 
 J. Hasegawa, M. Ishida, T. Nakajima, Y. Honda, O. Kitao, H. Nakai, 
 T. Vreven, K. Throssell, J. A. Montgomery, Jr., J. E. Peralta, 
 F. Ogliaro, M. J. Bearpark, J. J. Heyd, E. N. Brothers, K. N. Kudin, 
 V. N. Staroverov, T. A. Keith, R. Kobayashi, J. Normand, 
 K. Raghavachari, A. P. Rendell, J. C. Burant, S. S. Iyengar, 
 J. Tomasi, M. Cossi, J. M. Millam, M. Klene, C. Adamo, R. Cammi, 
 J. W. Ochterski, R. L. Martin, K. Morokuma, O. Farkas, 
 J. B. Foresman, and D. J. Fox, Gaussian, Inc., Wallingford CT, 2016.
 
 ******************************************
 Gaussian 16:  ES64L-G16RevA.03 25-Dec-2016
                 5-Jun-2019 
 ******************************************
 %nprocshared=8
 Will use up to    8 processors via shared memory.
 %mem=8GB
 -----------------
 # M062X/def2TZVPP
 -----------------
 1/38=1,172=1/1;
 2/12=2,17=6,18=5,40=1/2;
 3/5=44,7=202,11=2,25=1,30=1,74=-55/1,2,3;
 4//1;
 5/5=2,38=5/2;
 6/7=2,8=2,9=2,10=2,28=1/1;
 99/5=1,9=1/99;
 -------------------
 tmpdir/M1_ref_4.gjf
 -------------------
 Symbolic Z-matrix:
 Charge =  0 Multiplicity = 1
 C                    -0.14513   1.67639  -1.94493 
 H                    -1.2164    1.63431  -2.14262 
 H                     0.04661   2.49397  -1.25008 
 H                     0.38933   1.8573   -2.87406 
 H                     0.23654   0.6664   -1.51092 
 
                          Input orientation:                          
 ---------------------------------------------------------------------
 Center     Atomic      Atomic             Coordinates (Angstroms)
 Number     Number       Type             X           Y           Z
 ---------------------------------------------------------------------
      1          6           0       -0.145127    1.676387   -1.944927
      2          1           0       -1.216399    1.634306   -2.142615
      3          1           0        0.046613    2.493966   -1.250080
      4          1           0        0.389333    1.857303   -2.874064
      5          1           0        0.236540    0.666404   -1.510920
 ---------------------------------------------------------------------
                    Distance matrix (angstroms):
                    1          2          3          4          5
     1  C    0.000000
     2  H    1.090172   0.000000
     3  H    1.089960   1.769416   0.000000
     4  H    1.087049   1.778516   1.777674   0.000000
     5  H    1.163657   1.856584   1.855827   1.816521   0.000000
 Stoichiometry    CH4
 Framework group  C1[X(CH4)]
 Deg. of freedom     9
 Full point group                 C1      NOp   1
 Largest Abelian subgroup         C1      NOp   1
 Largest concise Abelian subgroup C1      NOp   1
                         Standard orientation:                         
 ---------------------------------------------------------------------
 Center     Atomic      Atomic             Coordinates (Angstroms)
 Number     Number       Type             X           Y           Z
 ---------------------------------------------------------------------
      1          6           0       -0.006408   -0.001028    0.000064
      2          1           0       -0.515239   -0.512576   -0.817179
      3          1           0       -0.508239   -0.255775    0.933489
      4          1           0       -0.055814    1.073531   -0.156640
      5          1           0        1.117742   -0.299009    0.039949
 ---------------------------------------------------------------------
 Rotational constants (GHZ):         159.9356169         150.0485333         149.8366037
 Standard basis: def2TZVPP (5D, 7F)
 There are    96 symmetry adapted cartesian basis functions of A   symmetry.
 There are    87 symmetry adapted basis functions of A   symmetry.
    87 basis functions,   119 primitive gaussians,    96 cartesian basis functions
     5 alpha electrons        5 beta electrons
       nuclear repulsion energy        13.2305565635 Hartrees.
 NAtoms=    5 NActive=    5 NUniq=    5 SFac= 1.00D+00 NAtFMM=   60 NAOKFM=F Big=F
 Integral buffers will be    131072 words long.
 Raffenetti 2 integral format.
 Two-electron integral symmetry is turned on.
 One-electron integrals computed using PRISM.
   1 Symmetry operations used in ECPInt.
 ECPInt:  NShTT=     630 NPrTT=    1412 LenC2=     631 LenP2D=    1376.
 LDataN:  DoStor=T MaxTD1= 6 Len=  172
 NBasis=    87 RedAO= T EigKep=  5.56D-04  NBF=    87
 NBsUse=    87 1.00D-06 EigRej= -1.00D+00 NBFU=    87
 ExpMin= 9.52D-02 ExpMax= 1.36D+04 ExpMxC= 4.63D+02 IAcc=3 IRadAn=         5 AccDes= 0.00D+00
 Harris functional with IExCor= 1009 and IRadAn=       5 diagonalized for initial guess.
 HarFok:  IExCor= 1009 AccDes= 0.00D+00 IRadAn=         5 IDoV= 1 UseB2=F ITyADJ=14
 ICtDFT=  3500011 ScaDFX=  1.000000  1.000000  1.000000  1.000000
 FoFCou: FMM=F IPFlag=           0 FMFlag=      100000 FMFlg1=           0
         NFxFlg=           0 DoJE=T BraDBF=F KetDBF=T FulRan=T
         wScrn=  0.000000 ICntrl=       500 IOpCl=  0 I1Cent=   200000004 NGrid=           0
         NMat0=    1 NMatS0=      1 NMatT0=    0 NMatD0=    1 NMtDS0=    0 NMtDT0=    0
 Petite list used in FoFCou.
 Keep R1 ints in memory in canonical form, NReq=14703931.
 Requested convergence on RMS density matrix=1.00D-08 within 128 cycles.
 Requested convergence on MAX density matrix=1.00D-06.
 Requested convergence on             energy=1.00D-06.
 No special actions if energy rises.
 Integral accuracy reduced to 1.0D-05 until final iterations.
 Initial convergence to 1.0D-05 achieved.  Increase integral accuracy.
 SCF Done:  E(RM062X) =  -40.4984429310     A.U. after   10 cycles
            NFock= 10  Conv=0.16D-08     -V/T= 2.0087

 **********************************************************************

            Population analysis using the SCF density.

 **********************************************************************

 Orbital symmetries:
       Occupied  (A) (A) (A) (A) (A)
       Virtual   (A) (A) (A) (A) (A) (A) (A) (A) (A) (A) (A) (A)
                 (A) (A) (A) (A) (A) (A) (A) (A) (A) (A) (A) (A)
                 (A) (A) (A) (A) (A) (A) (A) (A) (A) (A) (A) (A)
                 (A) (A) (A) (A) (A) (A) (A) (A) (A) (A) (A) (A)
                 (A) (A) (A) (A) (A) (A) (A) (A) (A) (A) (A) (A)
                 (A) (A) (A) (A) (A) (A) (A) (A) (A) (A) (A) (A)
                 (A) (A) (A) (A) (A) (A) (A) (A) (A) (A)
 The electronic state is 1-A.
 Alpha  occ. eigenvalues --  -10.52410  -0.78014  -0.45876  -0.45507  -0.44301
 Alpha virt. eigenvalues --    0.08465   0.15260   0.16188   0.16309   0.23695
 Alpha virt. eigenvalues --    0.23718   0.24228   0.41597   0.48202   0.50829
 Alpha virt. eigenvalues --    0.51217   0.54318   0.55266   0.55732   0.90409
 Alpha virt. eigenvalues --    0.91096   0.92472   0.97377   0.97746   0.97966
 Alpha virt. eigenvalues --    1.10311   1.12274   1.13162   1.34927   1.40480
 Alpha virt. eigenvalues --    1.41186   1.42163   1.47802   1.48124   1.56703
 Alpha virt. eigenvalues --    1.84500   1.86265   1.93581   2.51908   2.53436
 Alpha virt. eigenvalues --    2.53613   2.65430   2.82618   2.83718   2.84673
 Alpha virt. eigenvalues --    2.85540   2.85771   2.86324   2.91366   2.91531
 Alpha virt. eigenvalues --    3.26938   3.27780   3.29659   3.32998   3.37788
 Alpha virt. eigenvalues --    3.39110   3.44798   3.45809   3.58826   3.75258
 Alpha virt. eigenvalues --    3.76646   3.84177   3.85869   3.86578   3.96039
 Alpha virt. eigenvalues --    3.98917   4.03007   4.10860   4.10910   4.14933
 Alpha virt. eigenvalues --    4.44316   4.47089   4.48169   4.75835   5.00294
 Alpha virt. eigenvalues --    5.03374   5.04658   5.10004   5.13634   5.16060
 Alpha virt. eigenvalues --    5.19884   5.26494   5.27478   5.47199   5.47525
 Alpha virt. eigenvalues --    5.48922  23.74293
          Condensed to atoms (all electrons):
               1          2          3          4          5
     1  C    4.907291   0.400179   0.400179   0.400172   0.389396
     2  H    0.400179   0.534485  -0.022097  -0.020833  -0.020441
     3  H    0.400179  -0.022097   0.534494  -0.020866  -0.020476
     4  H    0.400172  -0.020833  -0.020866   0.534408  -0.023117
     5  H    0.389396  -0.020441  -0.020476  -0.023117   0.565130
 Mulliken charges:
               1
     1  C   -0.497217
     2  H    0.128707
     3  H    0.128765
     4  H    0.130236
     5  H    0.109509
 Sum of Mulliken charges =   0.00000
 Mulliken charges with hydrogens summed into heavy atoms:
               1
     1  C    0.000000
 Electronic spatial extent (au):  <R**2>=             36.5176
 Charge=              0.0000 electrons
 Dipole moment (field-independent basis, Debye):
    X=             -0.0455    Y=              0.0257    Z=             -0.0031  Tot=              0.0524
 Quadrupole moment (field-independent basis, Debye-Ang):
   XX=             -8.4175   YY=             -8.5561   ZZ=             -8.5512
   XY=              0.0528   XZ=             -0.0072   YZ=              0.0016
 Traceless Quadrupole moment (field-independent basis, Debye-Ang):
   XX=              0.0908   YY=             -0.0478   ZZ=             -0.0430
   XY=              0.0528   XZ=             -0.0072   YZ=              0.0016
 Octapole moment (field-independent basis, Debye-Ang**2):
  XXX=              0.5738  YYY=              0.8804  ZZZ=              0.1804  XYY=             -0.1955
  XXY=             -0.3905  XXZ=              0.0501  XZZ=             -0.6881  YZZ=             -0.3608
  YYZ=             -0.2466  XYZ=             -0.0745
 Hexadecapole moment (field-independent basis, Debye-Ang**3):
 XXXX=            -17.2983 YYYY=            -16.2428 ZZZZ=            -16.4299 XXXY=             -0.2538
 XXXZ=              0.0374 YYYX=              0.1189 YYYZ=             -0.1197 ZZZX=             -0.1811
 ZZZY=              0.0856 XXYY=             -5.9887 XXZZ=             -5.7257 YYZZ=             -5.6596
 XXYZ=              0.0435 YYXZ=              0.1080 ZZXY=              0.3999
 N-N= 1.323055656349D+01 E-N=-1.195837680734D+02  KE= 4.015039979741D+01
 1\1\GINC-NODE97\SP\RM062X\def2TZVPP\C1H4\YANZ\05-Jun-2019\0\\# M062X/d
 ef2TZVPP\\tmpdir/M1_ref_4.gjf\\0,1\C,0,-0.14512688,1.67638702,-1.94492
 662\H,0,-1.21639868,1.63430638,-2.14261544\H,0,0.0466127,2.49396636,-1
 .25007974\H,0,0.38933317,1.85730279,-2.8740643\H,0,0.23653963,0.666403
 83,-1.51092014\\Version=ES64L-G16RevA.03\State=1-A\HF=-40.4984429\RMSD
 =1.597e-09\Dipole=-0.003156,0.01687,-0.0114023\Quadrupole=0.0102108,0.
 0331123,-0.0433231,-0.0563566,-0.003456,0.0161181\PG=C01 [X(C1H4)]\\@


 Children are likely to live up to what you believe of them.
 -- Lady Bird Johnson
 Job cpu time:       0 days  0 hours  0 minutes 23.8 seconds.
 Elapsed time:       0 days  0 hours  0 minutes  3.2 seconds.
 File lengths (MBytes):  RWF=      6 Int=      0 D2E=      0 Chk=      2 Scr=      1
 Normal termination of Gaussian 16 at Wed Jun  5 22:34:17 2019.
