 Entering Gaussian System, Link 0=g16
 Initial command:
 /share/apps/gaussian/g16/l1.exe "/tmp/55603.mgr/Gau-314243.inp" -scrdir="/tmp/55603.mgr/"
 Entering Link 1 = /share/apps/gaussian/g16/l1.exe PID=    314246.
  
 Copyright (c) 1988,1990,1992,1993,1995,1998,2003,2009,2016,
            Gaussian, Inc.  All Rights Reserved.
  
 This is part of the Gaussian(R) 16 program.  It is based on
 the Gaussian(R) 09 system (copyright 2009, Gaussian, Inc.),
 the Gaussian(R) 03 system (copyright 2003, Gaussian, Inc.),
 the Gaussian(R) 98 system (copyright 1998, Gaussian, Inc.),
 the Gaussian(R) 94 system (copyright 1995, Gaussian, Inc.),
 the Gaussian 92(TM) system (copyright 1992, Gaussian, Inc.),
 the Gaussian 90(TM) system (copyright 1990, Gaussian, Inc.),
 the Gaussian 88(TM) system (copyright 1988, Gaussian, Inc.),
 the Gaussian 86(TM) system (copyright 1986, Carnegie Mellon
 University), and the Gaussian 82(TM) system (copyright 1983,
 Carnegie Mellon University). Gaussian is a federally registered
 trademark of Gaussian, Inc.
  
 This software contains proprietary and confidential information,
 including trade secrets, belonging to Gaussian, Inc.
  
 This software is provided under written license and may be
 used, copied, transmitted, or stored only in accord with that
 written license.
  
 The following legend is applicable only to US Government
 contracts under FAR:
  
                    RESTRICTED RIGHTS LEGEND
  
 Use, reproduction and disclosure by the US Government is
 subject to restrictions as set forth in subparagraphs (a)
 and (c) of the Commercial Computer Software - Restricted
 Rights clause in FAR 52.227-19.
  
 Gaussian, Inc.
 340 Quinnipiac St., Bldg. 40, Wallingford CT 06492
  
  
 ---------------------------------------------------------------
 Warning -- This program may not be used in any manner that
 competes with the business of Gaussian, Inc. or will provide
 assistance to any competitor of Gaussian, Inc.  The licensee
 of this program is prohibited from giving any competitor of
 Gaussian, Inc. access to this program.  By using this program,
 the user acknowledges that Gaussian, Inc. is engaged in the
 business of creating and licensing software in the field of
 computational chemistry and represents and warrants to the
 licensee that it is not a competitor of Gaussian, Inc. and that
 it will not use this program in any manner prohibited above.
 ---------------------------------------------------------------
  

 Cite this work as:
 Gaussian 16, Revision A.03,
 M. J. Frisch, G. W. Trucks, H. B. Schlegel, G. E. Scuseria, 
 M. A. Robb, J. R. Cheeseman, G. Scalmani, V. Barone, 
 G. A. Petersson, H. Nakatsuji, X. Li, M. Caricato, A. V. Marenich, 
 J. Bloino, B. G. Janesko, R. Gomperts, B. Mennucci, H. P. Hratchian, 
 J. V. Ortiz, A. F. Izmaylov, J. L. Sonnenberg, D. Williams-Young, 
 F. Ding, F. Lipparini, F. Egidi, J. Goings, B. Peng, A. Petrone, 
 T. Henderson, D. Ranasinghe, V. G. Zakrzewski, J. Gao, N. Rega, 
 G. Zheng, W. Liang, M. Hada, M. Ehara, K. Toyota, R. Fukuda, 
 J. Hasegawa, M. Ishida, T. Nakajima, Y. Honda, O. Kitao, H. Nakai, 
 T. Vreven, K. Throssell, J. A. Montgomery, Jr., J. E. Peralta, 
 F. Ogliaro, M. J. Bearpark, J. J. Heyd, E. N. Brothers, K. N. Kudin, 
 V. N. Staroverov, T. A. Keith, R. Kobayashi, J. Normand, 
 K. Raghavachari, A. P. Rendell, J. C. Burant, S. S. Iyengar, 
 J. Tomasi, M. Cossi, J. M. Millam, M. Klene, C. Adamo, R. Cammi, 
 J. W. Ochterski, R. L. Martin, K. Morokuma, O. Farkas, 
 J. B. Foresman, and D. J. Fox, Gaussian, Inc., Wallingford CT, 2016.
 
 ******************************************
 Gaussian 16:  ES64L-G16RevA.03 25-Dec-2016
                 5-Jun-2019 
 ******************************************
 %nprocshared=8
 Will use up to    8 processors via shared memory.
 %mem=8GB
 -----------------
 # M062X/def2TZVPP
 -----------------
 1/38=1,172=1/1;
 2/12=2,17=6,18=5,40=1/2;
 3/5=44,7=202,11=2,25=1,30=1,74=-55/1,2,3;
 4//1;
 5/5=2,38=5/2;
 6/7=2,8=2,9=2,10=2,28=1/1;
 99/5=1,9=1/99;
 -------------------
 tmpdir/M1_ref_1.gjf
 -------------------
 Symbolic Z-matrix:
 Charge =  0 Multiplicity = 1
 C                    -1.69922   0.2696    1.61255 
 H                    -0.97903   0.36429   2.42682 
 H                    -2.55937   0.89903   1.82787 
 H                    -2.02798  -0.7696    1.55196 
 H                    -1.239     0.62699   0.60951 
 
                          Input orientation:                          
 ---------------------------------------------------------------------
 Center     Atomic      Atomic             Coordinates (Angstroms)
 Number     Number       Type             X           Y           Z
 ---------------------------------------------------------------------
      1          6           0       -1.699221    0.269601    1.612554
      2          1           0       -0.979032    0.364286    2.426820
      3          1           0       -2.559365    0.899031    1.827874
      4          1           0       -2.027979   -0.769596    1.551958
      5          1           0       -1.239002    0.626988    0.609507
 ---------------------------------------------------------------------
                    Distance matrix (angstroms):
                    1          2          3          4          5
     1  C    0.000000
     2  H    1.091177   0.000000
     3  H    1.087379   1.772609   0.000000
     4  H    1.091642   1.775208   1.772799   0.000000
     5  H    1.160013   1.854515   1.817081   1.860415   0.000000
 Stoichiometry    CH4
 Framework group  C1[X(CH4)]
 Deg. of freedom     9
 Full point group                 C1      NOp   1
 Largest Abelian subgroup         C1      NOp   1
 Largest concise Abelian subgroup C1      NOp   1
                         Standard orientation:                         
 ---------------------------------------------------------------------
 Center     Atomic      Atomic             Coordinates (Angstroms)
 Number     Number       Type             X           Y           Z
 ---------------------------------------------------------------------
      1          6           0        0.004667   -0.000145   -0.002901
      2          1           0        0.467143    0.931011   -0.334159
      3          1           0        0.103498   -0.077966    1.077178
      4          1           0        0.528089   -0.838166   -0.467048
      5          1           0       -1.126735   -0.014009   -0.258568
 ---------------------------------------------------------------------
 Rotational constants (GHZ):         160.0749759         150.3791842         149.5480811
 Standard basis: def2TZVPP (5D, 7F)
 There are    96 symmetry adapted cartesian basis functions of A   symmetry.
 There are    87 symmetry adapted basis functions of A   symmetry.
    87 basis functions,   119 primitive gaussians,    96 cartesian basis functions
     5 alpha electrons        5 beta electrons
       nuclear repulsion energy        13.2314267551 Hartrees.
 NAtoms=    5 NActive=    5 NUniq=    5 SFac= 1.00D+00 NAtFMM=   60 NAOKFM=F Big=F
 Integral buffers will be    131072 words long.
 Raffenetti 2 integral format.
 Two-electron integral symmetry is turned on.
 One-electron integrals computed using PRISM.
   1 Symmetry operations used in ECPInt.
 ECPInt:  NShTT=     630 NPrTT=    1412 LenC2=     631 LenP2D=    1376.
 LDataN:  DoStor=T MaxTD1= 6 Len=  172
 NBasis=    87 RedAO= T EigKep=  5.57D-04  NBF=    87
 NBsUse=    87 1.00D-06 EigRej= -1.00D+00 NBFU=    87
 ExpMin= 9.52D-02 ExpMax= 1.36D+04 ExpMxC= 4.63D+02 IAcc=3 IRadAn=         5 AccDes= 0.00D+00
 Harris functional with IExCor= 1009 and IRadAn=       5 diagonalized for initial guess.
 HarFok:  IExCor= 1009 AccDes= 0.00D+00 IRadAn=         5 IDoV= 1 UseB2=F ITyADJ=14
 ICtDFT=  3500011 ScaDFX=  1.000000  1.000000  1.000000  1.000000
 FoFCou: FMM=F IPFlag=           0 FMFlag=      100000 FMFlg1=           0
         NFxFlg=           0 DoJE=T BraDBF=F KetDBF=T FulRan=T
         wScrn=  0.000000 ICntrl=       500 IOpCl=  0 I1Cent=   200000004 NGrid=           0
         NMat0=    1 NMatS0=      1 NMatT0=    0 NMatD0=    1 NMtDS0=    0 NMtDT0=    0
 Petite list used in FoFCou.
 Keep R1 ints in memory in canonical form, NReq=14703931.
 Requested convergence on RMS density matrix=1.00D-08 within 128 cycles.
 Requested convergence on MAX density matrix=1.00D-06.
 Requested convergence on             energy=1.00D-06.
 No special actions if energy rises.
 Integral accuracy reduced to 1.0D-05 until final iterations.
 Initial convergence to 1.0D-05 achieved.  Increase integral accuracy.
 SCF Done:  E(RM062X) =  -40.4986569237     A.U. after   10 cycles
            NFock= 10  Conv=0.15D-08     -V/T= 2.0087

 **********************************************************************

            Population analysis using the SCF density.

 **********************************************************************

 Orbital symmetries:
       Occupied  (A) (A) (A) (A) (A)
       Virtual   (A) (A) (A) (A) (A) (A) (A) (A) (A) (A) (A) (A)
                 (A) (A) (A) (A) (A) (A) (A) (A) (A) (A) (A) (A)
                 (A) (A) (A) (A) (A) (A) (A) (A) (A) (A) (A) (A)
                 (A) (A) (A) (A) (A) (A) (A) (A) (A) (A) (A) (A)
                 (A) (A) (A) (A) (A) (A) (A) (A) (A) (A) (A) (A)
                 (A) (A) (A) (A) (A) (A) (A) (A) (A) (A) (A) (A)
                 (A) (A) (A) (A) (A) (A) (A) (A) (A) (A)
 The electronic state is 1-A.
 Alpha  occ. eigenvalues --  -10.52404  -0.78015  -0.45705  -0.45528  -0.44449
 Alpha virt. eigenvalues --    0.08467   0.15309   0.16176   0.16286   0.23711
 Alpha virt. eigenvalues --    0.23715   0.24213   0.41634   0.48351   0.50817
 Alpha virt. eigenvalues --    0.51066   0.54471   0.55189   0.55666   0.90330
 Alpha virt. eigenvalues --    0.91109   0.92560   0.97266   0.97728   0.98112
 Alpha virt. eigenvalues --    1.10316   1.12206   1.13281   1.35020   1.40761
 Alpha virt. eigenvalues --    1.41163   1.42014   1.47626   1.48118   1.56618
 Alpha virt. eigenvalues --    1.85167   1.86418   1.92980   2.52092   2.53220
 Alpha virt. eigenvalues --    2.53610   2.65372   2.82706   2.83771   2.84821
 Alpha virt. eigenvalues --    2.85611   2.85663   2.86424   2.91186   2.91315
 Alpha virt. eigenvalues --    3.26645   3.27871   3.29940   3.33366   3.37940
 Alpha virt. eigenvalues --    3.38920   3.45002   3.45582   3.58665   3.75346
 Alpha virt. eigenvalues --    3.76409   3.84453   3.85733   3.86374   3.95861
 Alpha virt. eigenvalues --    3.99021   4.03385   4.10656   4.11095   4.14992
 Alpha virt. eigenvalues --    4.44160   4.46975   4.48589   4.75731   5.00407
 Alpha virt. eigenvalues --    5.04043   5.06007   5.07832   5.14164   5.15671
 Alpha virt. eigenvalues --    5.19622   5.27123   5.27511   5.46722   5.47374
 Alpha virt. eigenvalues --    5.49029  23.74356
          Condensed to atoms (all electrons):
               1          2          3          4          5
     1  C    4.906857   0.400007   0.399759   0.400032   0.390258
     2  H    0.400007   0.535329  -0.021206  -0.021915  -0.020531
     3  H    0.399759  -0.021206   0.535697  -0.021317  -0.022862
     4  H    0.400032  -0.021915  -0.021317   0.535192  -0.020118
     5  H    0.390258  -0.020531  -0.022862  -0.020118   0.562708
 Mulliken charges:
               1
     1  C   -0.496914
     2  H    0.128316
     3  H    0.129928
     4  H    0.128126
     5  H    0.110544
 Sum of Mulliken charges =  -0.00000
 Mulliken charges with hydrogens summed into heavy atoms:
               1
     1  C   -0.000000
 Electronic spatial extent (au):  <R**2>=             36.5099
 Charge=             -0.0000 electrons
 Dipole moment (field-independent basis, Debye):
    X=              0.0463    Y=              0.0013    Z=              0.0289  Tot=              0.0546
 Quadrupole moment (field-independent basis, Debye-Ang):
   XX=             -8.4073   YY=             -8.5394   ZZ=             -8.5762
   XY=             -0.0023   XZ=             -0.0420   YZ=             -0.0006
 Traceless Quadrupole moment (field-independent basis, Debye-Ang):
   XX=              0.1003   YY=             -0.0318   ZZ=             -0.0685
   XY=             -0.0023   XZ=             -0.0420   YZ=             -0.0006
 Octapole moment (field-independent basis, Debye-Ang**2):
  XXX=             -0.6318  YYY=              0.1646  ZZZ=              0.8937  XYY=              0.6802
  XXY=             -0.0366  XXZ=             -0.3526  XZZ=              0.2499  YZZ=             -0.1219
  YYZ=             -0.4122  XYZ=              0.0379
 Hexadecapole moment (field-independent basis, Debye-Ang**3):
 XXXX=            -17.2128 YYYY=            -16.4272 ZZZZ=            -16.2068 XXXY=             -0.0168
 XXXZ=              0.2224 YYYX=              0.0755 YYYZ=              0.0033 ZZZX=             -0.0191
 ZZZY=             -0.0601 XXYY=             -5.7499 XXZZ=             -6.0020 YYZZ=             -5.6680
 XXYZ=              0.0550 YYXZ=             -0.4151 ZZXY=             -0.0708
 N-N= 1.323142675507D+01 E-N=-1.195859323485D+02  KE= 4.015028605453D+01
 1\1\GINC-NODE97\SP\RM062X\def2TZVPP\C1H4\YANZ\05-Jun-2019\0\\# M062X/d
 ef2TZVPP\\tmpdir/M1_ref_1.gjf\\0,1\C,0,-1.69922068,0.26960066,1.612553
 71\H,0,-0.97903174,0.36428605,2.42682036\H,0,-2.55936524,0.89903077,1.
 82787369\H,0,-2.02797854,-0.76959552,1.55195751\H,0,-1.23900225,0.6269
 8831,0.60950679\\Version=ES64L-G16RevA.03\State=1-A\HF=-40.4986569\RMS
 D=1.546e-09\Dipole=-0.012511,-0.0007309,0.0174486\Quadrupole=-0.042343
 8,0.0065583,0.0357855,0.0201208,0.0022553,-0.0580537\PG=C01 [X(C1H4)]\
 \@


 THERE'S SMALL CHOICE IN A BOWL OF ROTTEN APPLES.
                     SHAKESPEARE
 Job cpu time:       0 days  0 hours  0 minutes 25.3 seconds.
 Elapsed time:       0 days  0 hours  0 minutes  3.7 seconds.
 File lengths (MBytes):  RWF=      6 Int=      0 D2E=      0 Chk=      2 Scr=      1
 Normal termination of Gaussian 16 at Wed Jun  5 22:34:16 2019.
