 Entering Gaussian System, Link 0=g16
 Initial command:
 /share/apps/gaussian/g16/l1.exe "/tmp/55604.mgr/Gau-83710.inp" -scrdir="/tmp/55604.mgr/"
 Entering Link 1 = /share/apps/gaussian/g16/l1.exe PID=     83711.
  
 Copyright (c) 1988,1990,1992,1993,1995,1998,2003,2009,2016,
            Gaussian, Inc.  All Rights Reserved.
  
 This is part of the Gaussian(R) 16 program.  It is based on
 the Gaussian(R) 09 system (copyright 2009, Gaussian, Inc.),
 the Gaussian(R) 03 system (copyright 2003, Gaussian, Inc.),
 the Gaussian(R) 98 system (copyright 1998, Gaussian, Inc.),
 the Gaussian(R) 94 system (copyright 1995, Gaussian, Inc.),
 the Gaussian 92(TM) system (copyright 1992, Gaussian, Inc.),
 the Gaussian 90(TM) system (copyright 1990, Gaussian, Inc.),
 the Gaussian 88(TM) system (copyright 1988, Gaussian, Inc.),
 the Gaussian 86(TM) system (copyright 1986, Carnegie Mellon
 University), and the Gaussian 82(TM) system (copyright 1983,
 Carnegie Mellon University). Gaussian is a federally registered
 trademark of Gaussian, Inc.
  
 This software contains proprietary and confidential information,
 including trade secrets, belonging to Gaussian, Inc.
  
 This software is provided under written license and may be
 used, copied, transmitted, or stored only in accord with that
 written license.
  
 The following legend is applicable only to US Government
 contracts under FAR:
  
                    RESTRICTED RIGHTS LEGEND
  
 Use, reproduction and disclosure by the US Government is
 subject to restrictions as set forth in subparagraphs (a)
 and (c) of the Commercial Computer Software - Restricted
 Rights clause in FAR 52.227-19.
  
 Gaussian, Inc.
 340 Quinnipiac St., Bldg. 40, Wallingford CT 06492
  
  
 ---------------------------------------------------------------
 Warning -- This program may not be used in any manner that
 competes with the business of Gaussian, Inc. or will provide
 assistance to any competitor of Gaussian, Inc.  The licensee
 of this program is prohibited from giving any competitor of
 Gaussian, Inc. access to this program.  By using this program,
 the user acknowledges that Gaussian, Inc. is engaged in the
 business of creating and licensing software in the field of
 computational chemistry and represents and warrants to the
 licensee that it is not a competitor of Gaussian, Inc. and that
 it will not use this program in any manner prohibited above.
 ---------------------------------------------------------------
  

 Cite this work as:
 Gaussian 16, Revision A.03,
 M. J. Frisch, G. W. Trucks, H. B. Schlegel, G. E. Scuseria, 
 M. A. Robb, J. R. Cheeseman, G. Scalmani, V. Barone, 
 G. A. Petersson, H. Nakatsuji, X. Li, M. Caricato, A. V. Marenich, 
 J. Bloino, B. G. Janesko, R. Gomperts, B. Mennucci, H. P. Hratchian, 
 J. V. Ortiz, A. F. Izmaylov, J. L. Sonnenberg, D. Williams-Young, 
 F. Ding, F. Lipparini, F. Egidi, J. Goings, B. Peng, A. Petrone, 
 T. Henderson, D. Ranasinghe, V. G. Zakrzewski, J. Gao, N. Rega, 
 G. Zheng, W. Liang, M. Hada, M. Ehara, K. Toyota, R. Fukuda, 
 J. Hasegawa, M. Ishida, T. Nakajima, Y. Honda, O. Kitao, H. Nakai, 
 T. Vreven, K. Throssell, J. A. Montgomery, Jr., J. E. Peralta, 
 F. Ogliaro, M. J. Bearpark, J. J. Heyd, E. N. Brothers, K. N. Kudin, 
 V. N. Staroverov, T. A. Keith, R. Kobayashi, J. Normand, 
 K. Raghavachari, A. P. Rendell, J. C. Burant, S. S. Iyengar, 
 J. Tomasi, M. Cossi, J. M. Millam, M. Klene, C. Adamo, R. Cammi, 
 J. W. Ochterski, R. L. Martin, K. Morokuma, O. Farkas, 
 J. B. Foresman, and D. J. Fox, Gaussian, Inc., Wallingford CT, 2016.
 
 ******************************************
 Gaussian 16:  ES64L-G16RevA.03 25-Dec-2016
                22-Sep-2023 
 ******************************************
 %nprocshared=6
 Will use up to    6 processors via shared memory.
 %mem=6GB
 -----------------
 # M062X/def2TZVPP
 -----------------
 1/38=1,172=1/1;
 2/12=2,17=6,18=5,40=1/2;
 3/5=44,7=202,11=2,25=1,30=1,74=-55/1,2,3;
 4//1;
 5/5=2,38=5/2;
 6/7=2,8=2,9=2,10=2,28=1/1;
 99/5=1,9=1/99;
 -----------------------
 tmpdir/M2_conf_0_16.gjf
 -----------------------
 Symbolic Z-matrix:
 Charge =  0 Multiplicity = 1
 N                     0.        0.        0. 
 C                     1.4587    0.        0. 
 H                     1.79204   0.        1.04324 
 H                    -0.35601  -0.36877  -0.87131 
 H                    -0.38004   0.92616   0.13148 
 H                     1.86853  -0.85529  -0.52824 
 H                     1.90209   0.89893  -0.4606 
 
                          Input orientation:                          
 ---------------------------------------------------------------------
 Center     Atomic      Atomic             Coordinates (Angstroms)
 Number     Number       Type             X           Y           Z
 ---------------------------------------------------------------------
      1          7           0        0.000000    0.000000    0.000000
      2          6           0        1.458700    0.000000    0.000000
      3          1           0        1.792040    0.000000    1.043240
      4          1           0       -0.356010   -0.368770   -0.871310
      5          1           0       -0.380040    0.926160    0.131480
      6          1           0        1.868530   -0.855290   -0.528240
      7          1           0        1.902090    0.898930   -0.460600
 ---------------------------------------------------------------------
                    Distance matrix (angstroms):
                    1          2          3          4          5
     1  N    0.000000
     2  C    1.458700   0.000000
     3  H    2.073586   1.095201   0.000000
     4  H    1.010898   2.046545   2.900967   0.000000
     5  H    1.009698   2.063013   2.531207   1.637989   0.000000
     6  H    2.121783   1.085596   1.790788   2.302819   2.943614
     7  H    2.153642   1.103097   1.755483   2.621977   2.357842
                    6          7
     6  H    0.000000
     7  H    1.755844   0.000000
 Stoichiometry    CH5N
 Framework group  C1[X(CH5N)]
 Deg. of freedom    15
 Full point group                 C1      NOp   1
 Largest Abelian subgroup         C1      NOp   1
 Largest concise Abelian subgroup C1      NOp   1
                         Standard orientation:                         
 ---------------------------------------------------------------------
 Center     Atomic      Atomic             Coordinates (Angstroms)
 Number     Number       Type             X           Y           Z
 ---------------------------------------------------------------------
      1          7           0       -0.747345   -0.003239   -0.114527
      2          6           0        0.706052    0.006008    0.009395
      3          1           0        1.110759   -0.655453   -0.764005
      4          1           0       -1.144548    0.833263    0.290947
      5          1           0       -1.162391   -0.803908    0.339516
      6          1           0        1.119692    1.004550   -0.092266
      7          1           0        1.071590   -0.391827    0.971128
 ---------------------------------------------------------------------
 Rotational constants (GHZ):         104.1648300          22.9364760          21.8828980
 Standard basis: def2TZVPP (5D, 7F)
 There are   147 symmetry adapted cartesian basis functions of A   symmetry.
 There are   132 symmetry adapted basis functions of A   symmetry.
   132 basis functions,   187 primitive gaussians,   147 cartesian basis functions
     9 alpha electrons        9 beta electrons
       nuclear repulsion energy        42.0628984059 Hartrees.
 NAtoms=    7 NActive=    7 NUniq=    7 SFac= 1.00D+00 NAtFMM=   60 NAOKFM=F Big=F
 Integral buffers will be    131072 words long.
 Raffenetti 2 integral format.
 Two-electron integral symmetry is turned on.
 One-electron integrals computed using PRISM.
   1 Symmetry operations used in ECPInt.
 ECPInt:  NShTT=    1378 NPrTT=    3299 LenC2=    1378 LenP2D=    3097.
 LDataN:  DoStor=T MaxTD1= 6 Len=  172
 NBasis=   132 RedAO= T EigKep=  5.40D-04  NBF=   132
 NBsUse=   132 1.00D-06 EigRej= -1.00D+00 NBFU=   132
 ExpMin= 9.52D-02 ExpMax= 1.97D+04 ExpMxC= 6.73D+02 IAcc=3 IRadAn=         5 AccDes= 0.00D+00
 Harris functional with IExCor= 1009 and IRadAn=       5 diagonalized for initial guess.
 HarFok:  IExCor= 1009 AccDes= 0.00D+00 IRadAn=         5 IDoV= 1 UseB2=F ITyADJ=14
 ICtDFT=  3500011 ScaDFX=  1.000000  1.000000  1.000000  1.000000
 FoFCou: FMM=F IPFlag=           0 FMFlag=      100000 FMFlg1=           0
         NFxFlg=           0 DoJE=T BraDBF=F KetDBF=T FulRan=T
         wScrn=  0.000000 ICntrl=       500 IOpCl=  0 I1Cent=   200000004 NGrid=           0
         NMat0=    1 NMatS0=      1 NMatT0=    0 NMatD0=    1 NMtDS0=    0 NMtDT0=    0
 Petite list used in FoFCou.
 Keep R1 ints in memory in canonical form, NReq=44362774.
 Requested convergence on RMS density matrix=1.00D-08 within 128 cycles.
 Requested convergence on MAX density matrix=1.00D-06.
 Requested convergence on             energy=1.00D-06.
 No special actions if energy rises.
 Integral accuracy reduced to 1.0D-05 until final iterations.
 Initial convergence to 1.0D-05 achieved.  Increase integral accuracy.
 SCF Done:  E(RM062X) =  -95.8434384194     A.U. after   11 cycles
            NFock= 11  Conv=0.83D-08     -V/T= 2.0052

 **********************************************************************

            Population analysis using the SCF density.

 **********************************************************************

 Orbital symmetries:
       Occupied  (A) (A) (A) (A) (A) (A) (A) (A) (A)
       Virtual   (A) (A) (A) (A) (A) (A) (A) (A) (A) (A) (A) (A)
                 (A) (A) (A) (A) (A) (A) (A) (A) (A) (A) (A) (A)
                 (A) (A) (A) (A) (A) (A) (A) (A) (A) (A) (A) (A)
                 (A) (A) (A) (A) (A) (A) (A) (A) (A) (A) (A) (A)
                 (A) (A) (A) (A) (A) (A) (A) (A) (A) (A) (A) (A)
                 (A) (A) (A) (A) (A) (A) (A) (A) (A) (A) (A) (A)
                 (A) (A) (A) (A) (A) (A) (A) (A) (A) (A) (A) (A)
                 (A) (A) (A) (A) (A) (A) (A) (A) (A) (A) (A) (A)
                 (A) (A) (A) (A) (A) (A) (A) (A) (A) (A) (A) (A)
                 (A) (A) (A) (A) (A) (A) (A) (A) (A) (A) (A) (A)
                 (A) (A) (A)
 The electronic state is 1-A.
 Alpha  occ. eigenvalues --  -14.72067 -10.54984  -0.97796  -0.74689  -0.56488
 Alpha  occ. eigenvalues --   -0.50644  -0.46470  -0.43415  -0.30085
 Alpha virt. eigenvalues --    0.06425   0.11071   0.12119   0.15945   0.17107
 Alpha virt. eigenvalues --    0.19821   0.25740   0.26878   0.32134   0.39407
 Alpha virt. eigenvalues --    0.40982   0.41562   0.45136   0.49028   0.50369
 Alpha virt. eigenvalues --    0.51926   0.55111   0.55797   0.59867   0.61452
 Alpha virt. eigenvalues --    0.64676   0.85713   0.88365   0.91354   0.97330
 Alpha virt. eigenvalues --    0.99489   1.01677   1.02714   1.05193   1.12465
 Alpha virt. eigenvalues --    1.14094   1.20596   1.24316   1.27081   1.33461
 Alpha virt. eigenvalues --    1.37007   1.38401   1.47752   1.48389   1.53552
 Alpha virt. eigenvalues --    1.56007   1.62885   1.64317   1.68848   1.71119
 Alpha virt. eigenvalues --    1.90673   2.03611   2.05800   2.20144   2.39044
 Alpha virt. eigenvalues --    2.43261   2.54545   2.58511   2.61302   2.62397
 Alpha virt. eigenvalues --    2.76687   2.84393   2.85260   2.89501   2.92582
 Alpha virt. eigenvalues --    2.93873   2.96759   3.01510   3.07046   3.13632
 Alpha virt. eigenvalues --    3.26233   3.28017   3.31490   3.33305   3.36278
 Alpha virt. eigenvalues --    3.41640   3.42737   3.44439   3.47389   3.52309
 Alpha virt. eigenvalues --    3.58279   3.61953   3.68850   3.73324   3.75519
 Alpha virt. eigenvalues --    3.84086   3.86072   3.89014   3.91442   3.96062
 Alpha virt. eigenvalues --    3.97083   3.99465   4.08021   4.14050   4.16618
 Alpha virt. eigenvalues --    4.19510   4.20693   4.27587   4.35327   4.42230
 Alpha virt. eigenvalues --    4.52407   4.54486   4.58851   4.74858   4.78250
 Alpha virt. eigenvalues --    4.80283   4.91108   4.97362   5.00610   5.09521
 Alpha virt. eigenvalues --    5.15006   5.16722   5.22715   5.29757   5.32088
 Alpha virt. eigenvalues --    5.35291   5.49839   5.52603   5.60541   5.66623
 Alpha virt. eigenvalues --    5.74531   5.83385   5.93701   6.09285   6.35315
 Alpha virt. eigenvalues --    6.42931  23.57510  32.71755
          Condensed to atoms (all electrons):
               1          2          3          4          5          6
     1  N    6.462218   0.266861  -0.048514   0.389689   0.391124  -0.026647
     2  C    0.266861   4.816361   0.409190  -0.048475  -0.046611   0.409899
     3  H   -0.048514   0.409190   0.585613   0.009194   0.000161  -0.024483
     4  H    0.389689  -0.048475   0.009194   0.567030  -0.043745  -0.012105
     5  H    0.391124  -0.046611   0.000161  -0.043745   0.560267   0.007745
     6  H   -0.026647   0.409899  -0.024483  -0.012105   0.007745   0.559987
     7  H   -0.054345   0.433276  -0.050345  -0.001520  -0.012864  -0.029920
               7
     1  N   -0.054345
     2  C    0.433276
     3  H   -0.050345
     4  H   -0.001520
     5  H   -0.012864
     6  H   -0.029920
     7  H    0.613393
 Mulliken charges:
               1
     1  N   -0.380387
     2  C   -0.240500
     3  H    0.119184
     4  H    0.139932
     5  H    0.143923
     6  H    0.115524
     7  H    0.102325
 Sum of Mulliken charges =  -0.00000
 Mulliken charges with hydrogens summed into heavy atoms:
               1
     1  N   -0.096532
     2  C    0.096532
 Electronic spatial extent (au):  <R**2>=             95.3550
 Charge=             -0.0000 electrons
 Dipole moment (field-independent basis, Debye):
    X=              0.1984    Y=              0.0767    Z=              1.3001  Tot=              1.3174
 Quadrupole moment (field-independent basis, Debye-Ang):
   XX=            -13.9065   YY=            -12.5353   ZZ=            -15.5561
   XY=              0.1304   XZ=             -1.8635   YZ=             -0.0005
 Traceless Quadrupole moment (field-independent basis, Debye-Ang):
   XX=              0.0928   YY=              1.4640   ZZ=             -1.5568
   XY=              0.1304   XZ=             -1.8635   YZ=             -0.0005
 Octapole moment (field-independent basis, Debye-Ang**2):
  XXX=             -3.1239  YYY=              0.6862  ZZZ=              1.2417  XYY=             -2.0739
  XXY=              0.2168  XXZ=              2.1658  XZZ=              0.5493  YZZ=             -0.4884
  YYZ=              0.6443  XYZ=              0.1733
 Hexadecapole moment (field-independent basis, Debye-Ang**3):
 XXXX=            -76.3839 YYYY=            -23.9612 ZZZZ=            -25.2863 XXXY=              0.5140
 XXXZ=             -3.5943 YYYX=              0.7741 YYYZ=              0.0766 ZZZX=             -1.7144
 ZZZY=              0.0140 XXYY=            -14.4515 XXZZ=            -17.9844 YYZZ=             -8.2295
 XXYZ=             -0.0155 YYXZ=             -1.5556 ZZXY=             -0.4303
 N-N= 4.206289840589D+01 E-N=-3.070036032925D+02  KE= 9.534573198356D+01
 1\1\GINC-NODE85\SP\RM062X\def2TZVPP\C1H5N1\YANZ\22-Sep-2023\0\\# M062X
 /def2TZVPP\\tmpdir/M2_conf_0_16.gjf\\0,1\N,0,0.,0.,0.\C,0,1.4587,0.,0.
 \H,0,1.79204,0.,1.04324\H,0,-0.35601,-0.36877,-0.87131\H,0,-0.38004,0.
 92616,0.13148\H,0,1.86853,-0.85529,-0.52824\H,0,1.90209,0.89893,-0.460
 6\\Version=ES64L-G16RevA.03\State=1-A\HF=-95.8434384\RMSD=8.340e-09\Di
 pole=0.1214178,0.2972585,-0.4068551\Quadrupole=-0.1731032,0.276752,-0.
 1036488,-1.0152631,1.0672654,0.9823472\PG=C01 [X(C1H5N1)]\\@


 THE MOLECULE ALSO HAS A BODY.  WHEN THIS BODY IS HIT, THE MOLECULE
 FEELS HURT ALL OVER -- A. KITAIGORODSKI
 Job cpu time:       0 days  0 hours  0 minutes 56.5 seconds.
 Elapsed time:       0 days  0 hours  0 minutes 10.4 seconds.
 File lengths (MBytes):  RWF=     10 Int=      0 D2E=      0 Chk=      2 Scr=      1
 Normal termination of Gaussian 16 at Fri Sep 22 16:49:33 2023.
