 Entering Gaussian System, Link 0=g16
 Initial command:
 /share/apps/gaussian/g16/l1.exe "/tmp/55604.mgr/Gau-84784.inp" -scrdir="/tmp/55604.mgr/"
 Entering Link 1 = /share/apps/gaussian/g16/l1.exe PID=     84785.
  
 Copyright (c) 1988,1990,1992,1993,1995,1998,2003,2009,2016,
            Gaussian, Inc.  All Rights Reserved.
  
 This is part of the Gaussian(R) 16 program.  It is based on
 the Gaussian(R) 09 system (copyright 2009, Gaussian, Inc.),
 the Gaussian(R) 03 system (copyright 2003, Gaussian, Inc.),
 the Gaussian(R) 98 system (copyright 1998, Gaussian, Inc.),
 the Gaussian(R) 94 system (copyright 1995, Gaussian, Inc.),
 the Gaussian 92(TM) system (copyright 1992, Gaussian, Inc.),
 the Gaussian 90(TM) system (copyright 1990, Gaussian, Inc.),
 the Gaussian 88(TM) system (copyright 1988, Gaussian, Inc.),
 the Gaussian 86(TM) system (copyright 1986, Carnegie Mellon
 University), and the Gaussian 82(TM) system (copyright 1983,
 Carnegie Mellon University). Gaussian is a federally registered
 trademark of Gaussian, Inc.
  
 This software contains proprietary and confidential information,
 including trade secrets, belonging to Gaussian, Inc.
  
 This software is provided under written license and may be
 used, copied, transmitted, or stored only in accord with that
 written license.
  
 The following legend is applicable only to US Government
 contracts under FAR:
  
                    RESTRICTED RIGHTS LEGEND
  
 Use, reproduction and disclosure by the US Government is
 subject to restrictions as set forth in subparagraphs (a)
 and (c) of the Commercial Computer Software - Restricted
 Rights clause in FAR 52.227-19.
  
 Gaussian, Inc.
 340 Quinnipiac St., Bldg. 40, Wallingford CT 06492
  
  
 ---------------------------------------------------------------
 Warning -- This program may not be used in any manner that
 competes with the business of Gaussian, Inc. or will provide
 assistance to any competitor of Gaussian, Inc.  The licensee
 of this program is prohibited from giving any competitor of
 Gaussian, Inc. access to this program.  By using this program,
 the user acknowledges that Gaussian, Inc. is engaged in the
 business of creating and licensing software in the field of
 computational chemistry and represents and warrants to the
 licensee that it is not a competitor of Gaussian, Inc. and that
 it will not use this program in any manner prohibited above.
 ---------------------------------------------------------------
  

 Cite this work as:
 Gaussian 16, Revision A.03,
 M. J. Frisch, G. W. Trucks, H. B. Schlegel, G. E. Scuseria, 
 M. A. Robb, J. R. Cheeseman, G. Scalmani, V. Barone, 
 G. A. Petersson, H. Nakatsuji, X. Li, M. Caricato, A. V. Marenich, 
 J. Bloino, B. G. Janesko, R. Gomperts, B. Mennucci, H. P. Hratchian, 
 J. V. Ortiz, A. F. Izmaylov, J. L. Sonnenberg, D. Williams-Young, 
 F. Ding, F. Lipparini, F. Egidi, J. Goings, B. Peng, A. Petrone, 
 T. Henderson, D. Ranasinghe, V. G. Zakrzewski, J. Gao, N. Rega, 
 G. Zheng, W. Liang, M. Hada, M. Ehara, K. Toyota, R. Fukuda, 
 J. Hasegawa, M. Ishida, T. Nakajima, Y. Honda, O. Kitao, H. Nakai, 
 T. Vreven, K. Throssell, J. A. Montgomery, Jr., J. E. Peralta, 
 F. Ogliaro, M. J. Bearpark, J. J. Heyd, E. N. Brothers, K. N. Kudin, 
 V. N. Staroverov, T. A. Keith, R. Kobayashi, J. Normand, 
 K. Raghavachari, A. P. Rendell, J. C. Burant, S. S. Iyengar, 
 J. Tomasi, M. Cossi, J. M. Millam, M. Klene, C. Adamo, R. Cammi, 
 J. W. Ochterski, R. L. Martin, K. Morokuma, O. Farkas, 
 J. B. Foresman, and D. J. Fox, Gaussian, Inc., Wallingford CT, 2016.
 
 ******************************************
 Gaussian 16:  ES64L-G16RevA.03 25-Dec-2016
                22-Sep-2023 
 ******************************************
 %nprocshared=6
 Will use up to    6 processors via shared memory.
 %mem=6GB
 -----------------
 # M062X/def2TZVPP
 -----------------
 1/38=1,172=1/1;
 2/12=2,17=6,18=5,40=1/2;
 3/5=44,7=202,11=2,25=1,30=1,74=-55/1,2,3;
 4//1;
 5/5=2,38=5/2;
 6/7=2,8=2,9=2,10=2,28=1/1;
 99/5=1,9=1/99;
 -----------------------
 tmpdir/M2_conf_0_36.gjf
 -----------------------
 Symbolic Z-matrix:
 Charge =  0 Multiplicity = 1
 O                     0.        0.        0. 
 C                     1.4172    0.        0. 
 H                     1.81393   0.        1.01545 
 H                    -0.44329  -0.66256   0.37318 
 H                     1.8048   -0.87716  -0.51813 
 H                     1.74551   0.89948  -0.51451 
 
                          Input orientation:                          
 ---------------------------------------------------------------------
 Center     Atomic      Atomic             Coordinates (Angstroms)
 Number     Number       Type             X           Y           Z
 ---------------------------------------------------------------------
      1          8           0        0.000000    0.000000    0.000000
      2          6           0        1.417200    0.000000    0.000000
      3          1           0        1.813930    0.000000    1.015450
      4          1           0       -0.443290   -0.662560    0.373180
      5          1           0        1.804800   -0.877160   -0.518130
      6          1           0        1.745510    0.899480   -0.514510
 ---------------------------------------------------------------------
                    Distance matrix (angstroms):
                    1          2          3          4          5
     1  O    0.000000
     2  C    1.417200   0.000000
     3  H    2.078817   1.090199   0.000000
     4  H    0.880202   2.009894   2.438553   0.000000
     5  H    2.072480   1.090001   1.766737   2.427838   0.000000
     6  H    2.029924   1.087002   1.776098   2.831750   1.777633
                    6
     6  H    0.000000
 Stoichiometry    CH4O
 Framework group  C1[X(CH4O)]
 Deg. of freedom    12
 Full point group                 C1      NOp   1
 Largest Abelian subgroup         C1      NOp   1
 Largest concise Abelian subgroup C1      NOp   1
                         Standard orientation:                         
 ---------------------------------------------------------------------
 Center     Atomic      Atomic             Coordinates (Angstroms)
 Number     Number       Type             X           Y           Z
 ---------------------------------------------------------------------
      1          8           0       -0.739268    0.106474    0.000274
      2          6           0        0.672383   -0.018823   -0.000013
      3          1           0        1.023873   -0.548119    0.885895
      4          1           0       -1.248051   -0.611781    0.002241
      5          1           0        1.013005   -0.563241   -0.880744
      6          1           0        1.091016    0.984287   -0.009509
 ---------------------------------------------------------------------
 Rotational constants (GHZ):         136.8825569          24.6319701          23.9929979
 Standard basis: def2TZVPP (5D, 7F)
 There are   132 symmetry adapted cartesian basis functions of A   symmetry.
 There are   118 symmetry adapted basis functions of A   symmetry.
   118 basis functions,   170 primitive gaussians,   132 cartesian basis functions
     9 alpha electrons        9 beta electrons
       nuclear repulsion energy        40.7401815738 Hartrees.
 NAtoms=    6 NActive=    6 NUniq=    6 SFac= 1.00D+00 NAtFMM=   60 NAOKFM=F Big=F
 Integral buffers will be    131072 words long.
 Raffenetti 2 integral format.
 Two-electron integral symmetry is turned on.
 One-electron integrals computed using PRISM.
   1 Symmetry operations used in ECPInt.
 ECPInt:  NShTT=    1081 NPrTT=    2684 LenC2=    1081 LenP2D=    2512.
 LDataN:  DoStor=T MaxTD1= 6 Len=  172
 NBasis=   118 RedAO= T EigKep=  5.81D-04  NBF=   118
 NBsUse=   118 1.00D-06 EigRej= -1.00D+00 NBFU=   118
 ExpMin= 9.52D-02 ExpMax= 2.70D+04 ExpMxC= 9.22D+02 IAcc=3 IRadAn=         5 AccDes= 0.00D+00
 Harris functional with IExCor= 1009 and IRadAn=       5 diagonalized for initial guess.
 HarFok:  IExCor= 1009 AccDes= 0.00D+00 IRadAn=         5 IDoV= 1 UseB2=F ITyADJ=14
 ICtDFT=  3500011 ScaDFX=  1.000000  1.000000  1.000000  1.000000
 FoFCou: FMM=F IPFlag=           0 FMFlag=      100000 FMFlg1=           0
         NFxFlg=           0 DoJE=T BraDBF=F KetDBF=T FulRan=T
         wScrn=  0.000000 ICntrl=       500 IOpCl=  0 I1Cent=   200000004 NGrid=           0
         NMat0=    1 NMatS0=      1 NMatT0=    0 NMatD0=    1 NMtDS0=    0 NMtDT0=    0
 Petite list used in FoFCou.
 Keep R1 ints in memory in canonical form, NReq=30406467.
 Requested convergence on RMS density matrix=1.00D-08 within 128 cycles.
 Requested convergence on MAX density matrix=1.00D-06.
 Requested convergence on             energy=1.00D-06.
 No special actions if energy rises.
 Integral accuracy reduced to 1.0D-05 until final iterations.
 Initial convergence to 1.0D-05 achieved.  Increase integral accuracy.
 SCF Done:  E(RM062X) =  -115.707688469     A.U. after   11 cycles
            NFock= 11  Conv=0.33D-08     -V/T= 2.0032

 **********************************************************************

            Population analysis using the SCF density.

 **********************************************************************

 Orbital symmetries:
       Occupied  (A) (A) (A) (A) (A) (A) (A) (A) (A)
       Virtual   (A) (A) (A) (A) (A) (A) (A) (A) (A) (A) (A) (A)
                 (A) (A) (A) (A) (A) (A) (A) (A) (A) (A) (A) (A)
                 (A) (A) (A) (A) (A) (A) (A) (A) (A) (A) (A) (A)
                 (A) (A) (A) (A) (A) (A) (A) (A) (A) (A) (A) (A)
                 (A) (A) (A) (A) (A) (A) (A) (A) (A) (A) (A) (A)
                 (A) (A) (A) (A) (A) (A) (A) (A) (A) (A) (A) (A)
                 (A) (A) (A) (A) (A) (A) (A) (A) (A) (A) (A) (A)
                 (A) (A) (A) (A) (A) (A) (A) (A) (A) (A) (A) (A)
                 (A) (A) (A) (A) (A) (A) (A) (A) (A) (A) (A) (A)
                 (A)
 The electronic state is 1-A.
 Alpha  occ. eigenvalues --  -19.60801 -10.57915  -1.14996  -0.79093  -0.59606
 Alpha  occ. eigenvalues --   -0.51546  -0.50569  -0.39946  -0.35366
 Alpha virt. eigenvalues --    0.06895   0.10674   0.15515   0.15781   0.17219
 Alpha virt. eigenvalues --    0.24542   0.25536   0.34627   0.39689   0.44214
 Alpha virt. eigenvalues --    0.47117   0.48227   0.52619   0.53339   0.54252
 Alpha virt. eigenvalues --    0.58849   0.67042   0.74177   0.77982   0.78617
 Alpha virt. eigenvalues --    0.90723   0.91587   0.98705   0.99055   1.04396
 Alpha virt. eigenvalues --    1.10121   1.11970   1.20635   1.28985   1.29458
 Alpha virt. eigenvalues --    1.33327   1.40924   1.46954   1.48424   1.54970
 Alpha virt. eigenvalues --    1.68615   1.78744   1.90238   1.91739   1.94343
 Alpha virt. eigenvalues --    2.02904   2.13627   2.13950   2.51635   2.52948
 Alpha virt. eigenvalues --    2.60149   2.61871   2.74929   2.76063   2.83806
 Alpha virt. eigenvalues --    2.86680   2.88539   2.92092   2.92559   3.00163
 Alpha virt. eigenvalues --    3.03012   3.11087   3.20677   3.28758   3.32515
 Alpha virt. eigenvalues --    3.40011   3.40373   3.44917   3.48478   3.54910
 Alpha virt. eigenvalues --    3.61705   3.63887   3.68169   3.73933   3.74896
 Alpha virt. eigenvalues --    3.80915   3.92515   3.94672   3.97474   4.02652
 Alpha virt. eigenvalues --    4.13073   4.14520   4.20915   4.25576   4.32857
 Alpha virt. eigenvalues --    4.41988   4.50045   4.57612   4.69298   4.80396
 Alpha virt. eigenvalues --    4.88652   4.95317   5.06996   5.08367   5.17403
 Alpha virt. eigenvalues --    5.22215   5.23617   5.28878   5.41702   5.49512
 Alpha virt. eigenvalues --    5.61364   5.68316   6.02350   6.08490   6.52509
 Alpha virt. eigenvalues --    6.59227   6.82656   6.90476   6.91078   7.06585
 Alpha virt. eigenvalues --    7.58323   7.64753  23.60945  44.17323
          Condensed to atoms (all electrons):
               1          2          3          4          5          6
     1  O    7.844032   0.267995  -0.046587   0.362783  -0.047343  -0.036250
     2  C    0.267995   4.712696   0.415230  -0.040068   0.416567   0.400196
     3  H   -0.046587   0.415230   0.601445  -0.006023  -0.044584  -0.033527
     4  H    0.362783  -0.040068  -0.006023   0.519332  -0.006148   0.008970
     5  H   -0.047343   0.416567  -0.044584  -0.006148   0.600641  -0.033088
     6  H   -0.036250   0.400196  -0.033527   0.008970  -0.033088   0.565615
 Mulliken charges:
               1
     1  O   -0.344629
     2  C   -0.172614
     3  H    0.114047
     4  H    0.161155
     5  H    0.113957
     6  H    0.128085
 Sum of Mulliken charges =  -0.00000
 Mulliken charges with hydrogens summed into heavy atoms:
               1
     1  O   -0.183474
     2  C    0.183474
 Electronic spatial extent (au):  <R**2>=             83.9987
 Charge=             -0.0000 electrons
 Dipole moment (field-independent basis, Debye):
    X=              0.6841    Y=             -1.3565    Z=              0.0023  Tot=              1.5192
 Quadrupole moment (field-independent basis, Debye-Ang):
   XX=            -12.1920   YY=            -12.5287   ZZ=            -13.7082
   XY=              2.2129   XZ=              0.0006   YZ=             -0.0031
 Traceless Quadrupole moment (field-independent basis, Debye-Ang):
   XX=              0.6177   YY=              0.2809   ZZ=             -0.8986
   XY=              2.2129   XZ=              0.0006   YZ=             -0.0031
 Octapole moment (field-independent basis, Debye-Ang**2):
  XXX=             -5.8371  YYY=             -0.2196  ZZZ=              0.0090  XYY=             -1.4300
  XXY=             -2.4019  XXZ=              0.0178  XZZ=             -0.4853  YZZ=             -0.6828
  YYZ=             -0.0139  XYZ=             -0.0003
 Hexadecapole moment (field-independent basis, Debye-Ang**3):
 XXXX=            -59.8167 YYYY=            -20.1480 ZZZZ=            -20.0189 XXXY=              4.5013
 XXXZ=              0.0066 YYYX=              2.7567 YYYZ=             -0.0034 ZZZX=              0.0140
 ZZZY=              0.0033 XXYY=            -12.6874 XXZZ=            -14.3700 YYZZ=             -6.7378
 XXYZ=             -0.0174 YYXZ=             -0.0179 ZZXY=             -0.1145
 N-N= 4.074018157379D+01 E-N=-3.530845999728D+02  KE= 1.153392297206D+02
 1\1\GINC-NODE85\SP\RM062X\def2TZVPP\C1H4O1\YANZ\22-Sep-2023\0\\# M062X
 /def2TZVPP\\tmpdir/M2_conf_0_36.gjf\\0,1\O,0,0.,0.,0.\C,0,1.4172,0.,0.
 \H,0,1.81393,0.,1.01545\H,0,-0.44329,-0.66256,0.37318\H,0,1.8048,-0.87
 716,-0.51813\H,0,1.74551,0.89948,-0.51451\\Version=ES64L-G16RevA.03\St
 ate=1-A\HF=-115.7076885\RMSD=3.341e-09\Dipole=0.3152561,-0.4425853,0.2
 489342\Quadrupole=0.1674899,0.2199271,-0.387417,1.4326807,-0.801323,-0
 .4992264\PG=C01 [X(C1H4O1)]\\@


 FIREWORKS ENDED
 AND SPECTATORS GONE AWAY....
 AH, HOW VAST AND DARK
                     SHIKI
 Job cpu time:       0 days  0 hours  0 minutes 37.9 seconds.
 Elapsed time:       0 days  0 hours  0 minutes  6.8 seconds.
 File lengths (MBytes):  RWF=     11 Int=      0 D2E=      0 Chk=      2 Scr=      1
 Normal termination of Gaussian 16 at Fri Sep 22 16:50:10 2023.
