 Entering Gaussian System, Link 0=g16
 Initial command:
 /share/apps/gaussian/g16/l1.exe "/tmp/55604.mgr/Gau-84842.inp" -scrdir="/tmp/55604.mgr/"
 Entering Link 1 = /share/apps/gaussian/g16/l1.exe PID=     84843.
  
 Copyright (c) 1988,1990,1992,1993,1995,1998,2003,2009,2016,
            Gaussian, Inc.  All Rights Reserved.
  
 This is part of the Gaussian(R) 16 program.  It is based on
 the Gaussian(R) 09 system (copyright 2009, Gaussian, Inc.),
 the Gaussian(R) 03 system (copyright 2003, Gaussian, Inc.),
 the Gaussian(R) 98 system (copyright 1998, Gaussian, Inc.),
 the Gaussian(R) 94 system (copyright 1995, Gaussian, Inc.),
 the Gaussian 92(TM) system (copyright 1992, Gaussian, Inc.),
 the Gaussian 90(TM) system (copyright 1990, Gaussian, Inc.),
 the Gaussian 88(TM) system (copyright 1988, Gaussian, Inc.),
 the Gaussian 86(TM) system (copyright 1986, Carnegie Mellon
 University), and the Gaussian 82(TM) system (copyright 1983,
 Carnegie Mellon University). Gaussian is a federally registered
 trademark of Gaussian, Inc.
  
 This software contains proprietary and confidential information,
 including trade secrets, belonging to Gaussian, Inc.
  
 This software is provided under written license and may be
 used, copied, transmitted, or stored only in accord with that
 written license.
  
 The following legend is applicable only to US Government
 contracts under FAR:
  
                    RESTRICTED RIGHTS LEGEND
  
 Use, reproduction and disclosure by the US Government is
 subject to restrictions as set forth in subparagraphs (a)
 and (c) of the Commercial Computer Software - Restricted
 Rights clause in FAR 52.227-19.
  
 Gaussian, Inc.
 340 Quinnipiac St., Bldg. 40, Wallingford CT 06492
  
  
 ---------------------------------------------------------------
 Warning -- This program may not be used in any manner that
 competes with the business of Gaussian, Inc. or will provide
 assistance to any competitor of Gaussian, Inc.  The licensee
 of this program is prohibited from giving any competitor of
 Gaussian, Inc. access to this program.  By using this program,
 the user acknowledges that Gaussian, Inc. is engaged in the
 business of creating and licensing software in the field of
 computational chemistry and represents and warrants to the
 licensee that it is not a competitor of Gaussian, Inc. and that
 it will not use this program in any manner prohibited above.
 ---------------------------------------------------------------
  

 Cite this work as:
 Gaussian 16, Revision A.03,
 M. J. Frisch, G. W. Trucks, H. B. Schlegel, G. E. Scuseria, 
 M. A. Robb, J. R. Cheeseman, G. Scalmani, V. Barone, 
 G. A. Petersson, H. Nakatsuji, X. Li, M. Caricato, A. V. Marenich, 
 J. Bloino, B. G. Janesko, R. Gomperts, B. Mennucci, H. P. Hratchian, 
 J. V. Ortiz, A. F. Izmaylov, J. L. Sonnenberg, D. Williams-Young, 
 F. Ding, F. Lipparini, F. Egidi, J. Goings, B. Peng, A. Petrone, 
 T. Henderson, D. Ranasinghe, V. G. Zakrzewski, J. Gao, N. Rega, 
 G. Zheng, W. Liang, M. Hada, M. Ehara, K. Toyota, R. Fukuda, 
 J. Hasegawa, M. Ishida, T. Nakajima, Y. Honda, O. Kitao, H. Nakai, 
 T. Vreven, K. Throssell, J. A. Montgomery, Jr., J. E. Peralta, 
 F. Ogliaro, M. J. Bearpark, J. J. Heyd, E. N. Brothers, K. N. Kudin, 
 V. N. Staroverov, T. A. Keith, R. Kobayashi, J. Normand, 
 K. Raghavachari, A. P. Rendell, J. C. Burant, S. S. Iyengar, 
 J. Tomasi, M. Cossi, J. M. Millam, M. Klene, C. Adamo, R. Cammi, 
 J. W. Ochterski, R. L. Martin, K. Morokuma, O. Farkas, 
 J. B. Foresman, and D. J. Fox, Gaussian, Inc., Wallingford CT, 2016.
 
 ******************************************
 Gaussian 16:  ES64L-G16RevA.03 25-Dec-2016
                22-Sep-2023 
 ******************************************
 %nprocshared=6
 Will use up to    6 processors via shared memory.
 %mem=6GB
 -----------------
 # M062X/def2TZVPP
 -----------------
 1/38=1,172=1/1;
 2/12=2,17=6,18=5,40=1/2;
 3/5=44,7=202,11=2,25=1,30=1,74=-55/1,2,3;
 4//1;
 5/5=2,38=5/2;
 6/7=2,8=2,9=2,10=2,28=1/1;
 99/5=1,9=1/99;
 -----------------------
 tmpdir/M2_conf_0_39.gjf
 -----------------------
 Symbolic Z-matrix:
 Charge =  0 Multiplicity = 1
 H                     0.        0.        0. 
 C                     1.0902    0.        0. 
 H                     1.43209   0.        1.03499 
 H                     1.50496  -0.92267  -0.5752 
 H                     1.45394   0.89171  -0.5041 
 
                          Input orientation:                          
 ---------------------------------------------------------------------
 Center     Atomic      Atomic             Coordinates (Angstroms)
 Number     Number       Type             X           Y           Z
 ---------------------------------------------------------------------
      1          1           0        0.000000    0.000000    0.000000
      2          6           0        1.090200    0.000000    0.000000
      3          1           0        1.432090    0.000000    1.034990
      4          1           0        1.504960   -0.922670   -0.575200
      5          1           0        1.453940    0.891710   -0.504100
 ---------------------------------------------------------------------
                    Distance matrix (angstroms):
                    1          2          3          4          5
     1  H    0.000000
     2  C    1.090200   0.000000
     3  H    1.766943   1.089997   0.000000
     4  H    1.856631   1.163701   1.857240   0.000000
     5  H    1.778540   1.087001   1.778882   1.816489   0.000000
 Stoichiometry    CH4
 Framework group  C1[X(CH4)]
 Deg. of freedom     9
 Full point group                 C1      NOp   1
 Largest Abelian subgroup         C1      NOp   1
 Largest concise Abelian subgroup C1      NOp   1
                         Standard orientation:                         
 ---------------------------------------------------------------------
 Center     Atomic      Atomic             Coordinates (Angstroms)
 Number     Number       Type             X           Y           Z
 ---------------------------------------------------------------------
      1          1           0        0.514170   -0.369135    0.891361
      2          6           0        0.006146   -0.000741   -0.000117
      3          1           0        0.519858   -0.398481   -0.875328
      4          1           0       -1.114763   -0.313403    0.002234
      5          1           0        0.043860    1.085465   -0.017568
 ---------------------------------------------------------------------
 Rotational constants (GHZ):         160.0790265         150.1070178         149.6380304
 Standard basis: def2TZVPP (5D, 7F)
 There are    96 symmetry adapted cartesian basis functions of A   symmetry.
 There are    87 symmetry adapted basis functions of A   symmetry.
    87 basis functions,   119 primitive gaussians,    96 cartesian basis functions
     5 alpha electrons        5 beta electrons
       nuclear repulsion energy        13.2304004493 Hartrees.
 NAtoms=    5 NActive=    5 NUniq=    5 SFac= 1.00D+00 NAtFMM=   60 NAOKFM=F Big=F
 Integral buffers will be    131072 words long.
 Raffenetti 2 integral format.
 Two-electron integral symmetry is turned on.
 One-electron integrals computed using PRISM.
   1 Symmetry operations used in ECPInt.
 ECPInt:  NShTT=     630 NPrTT=    1412 LenC2=     631 LenP2D=    1376.
 LDataN:  DoStor=T MaxTD1= 6 Len=  172
 NBasis=    87 RedAO= T EigKep=  5.56D-04  NBF=    87
 NBsUse=    87 1.00D-06 EigRej= -1.00D+00 NBFU=    87
 ExpMin= 9.52D-02 ExpMax= 1.36D+04 ExpMxC= 4.63D+02 IAcc=3 IRadAn=         5 AccDes= 0.00D+00
 Harris functional with IExCor= 1009 and IRadAn=       5 diagonalized for initial guess.
 HarFok:  IExCor= 1009 AccDes= 0.00D+00 IRadAn=         5 IDoV= 1 UseB2=F ITyADJ=14
 ICtDFT=  3500011 ScaDFX=  1.000000  1.000000  1.000000  1.000000
 FoFCou: FMM=F IPFlag=           0 FMFlag=      100000 FMFlg1=           0
         NFxFlg=           0 DoJE=T BraDBF=F KetDBF=T FulRan=T
         wScrn=  0.000000 ICntrl=       500 IOpCl=  0 I1Cent=   200000004 NGrid=           0
         NMat0=    1 NMatS0=      1 NMatT0=    0 NMatD0=    1 NMtDS0=    0 NMtDT0=    0
 Petite list used in FoFCou.
 Keep R1 ints in memory in canonical form, NReq=12860297.
 Requested convergence on RMS density matrix=1.00D-08 within 128 cycles.
 Requested convergence on MAX density matrix=1.00D-06.
 Requested convergence on             energy=1.00D-06.
 No special actions if energy rises.
 Integral accuracy reduced to 1.0D-05 until final iterations.
 Initial convergence to 1.0D-05 achieved.  Increase integral accuracy.
 SCF Done:  E(RM062X) =  -40.4984171688     A.U. after   10 cycles
            NFock= 10  Conv=0.15D-08     -V/T= 2.0087

 **********************************************************************

            Population analysis using the SCF density.

 **********************************************************************

 Orbital symmetries:
       Occupied  (A) (A) (A) (A) (A)
       Virtual   (A) (A) (A) (A) (A) (A) (A) (A) (A) (A) (A) (A)
                 (A) (A) (A) (A) (A) (A) (A) (A) (A) (A) (A) (A)
                 (A) (A) (A) (A) (A) (A) (A) (A) (A) (A) (A) (A)
                 (A) (A) (A) (A) (A) (A) (A) (A) (A) (A) (A) (A)
                 (A) (A) (A) (A) (A) (A) (A) (A) (A) (A) (A) (A)
                 (A) (A) (A) (A) (A) (A) (A) (A) (A) (A) (A) (A)
                 (A) (A) (A) (A) (A) (A) (A) (A) (A) (A)
 The electronic state is 1-A.
 Alpha  occ. eigenvalues --  -10.52410  -0.78014  -0.45909  -0.45468  -0.44305
 Alpha virt. eigenvalues --    0.08464   0.15258   0.16183   0.16313   0.23694
 Alpha virt. eigenvalues --    0.23720   0.24230   0.41584   0.48197   0.50800
 Alpha virt. eigenvalues --    0.51243   0.54269   0.55292   0.55774   0.90394
 Alpha virt. eigenvalues --    0.91078   0.92484   0.97367   0.97785   0.97953
 Alpha virt. eigenvalues --    1.10245   1.12280   1.13228   1.34915   1.40462
 Alpha virt. eigenvalues --    1.41151   1.42200   1.47809   1.48115   1.56703
 Alpha virt. eigenvalues --    1.84376   1.86258   1.93736   2.51800   2.53520
 Alpha virt. eigenvalues --    2.53614   2.65413   2.82584   2.83676   2.84627
 Alpha virt. eigenvalues --    2.85580   2.85779   2.86374   2.91382   2.91540
 Alpha virt. eigenvalues --    3.26974   3.27722   3.29701   3.32930   3.37796
 Alpha virt. eigenvalues --    3.39199   3.44689   3.45867   3.58788   3.75215
 Alpha virt. eigenvalues --    3.76701   3.84161   3.85859   3.86539   3.96007
 Alpha virt. eigenvalues --    3.98874   4.03094   4.10801   4.10853   4.14983
 Alpha virt. eigenvalues --    4.44270   4.47175   4.48140   4.75830   5.00531
 Alpha virt. eigenvalues --    5.03433   5.04467   5.09866   5.13529   5.16064
 Alpha virt. eigenvalues --    5.19833   5.26448   5.27641   5.47158   5.47617
 Alpha virt. eigenvalues --    5.48867  23.74258
          Condensed to atoms (all electrons):
               1          2          3          4          5
     1  H    0.534774   0.400093  -0.022262  -0.020436  -0.020822
     2  C    0.400093   4.907206   0.400156   0.389432   0.400231
     3  H   -0.022262   0.400156   0.534576  -0.020383  -0.020797
     4  H   -0.020436   0.389432  -0.020383   0.565030  -0.023152
     5  H   -0.020822   0.400231  -0.020797  -0.023152   0.534290
 Mulliken charges:
               1
     1  H    0.128653
     2  C   -0.497119
     3  H    0.128709
     4  H    0.109510
     5  H    0.130248
 Sum of Mulliken charges =   0.00000
 Mulliken charges with hydrogens summed into heavy atoms:
               1
     2  C    0.000000
 Electronic spatial extent (au):  <R**2>=             36.5183
 Charge=             -0.0000 electrons
 Dipole moment (field-independent basis, Debye):
    X=              0.0459    Y=              0.0258    Z=              0.0000  Tot=              0.0527
 Quadrupole moment (field-independent basis, Debye-Ang):
   XX=             -8.4117   YY=             -8.5548   ZZ=             -8.5584
   XY=             -0.0549   XZ=              0.0001   YZ=              0.0003
 Traceless Quadrupole moment (field-independent basis, Debye-Ang):
   XX=              0.0966   YY=             -0.0465   ZZ=             -0.0501
   XY=             -0.0549   XZ=              0.0001   YZ=              0.0003
 Octapole moment (field-independent basis, Debye-Ang**2):
  XXX=             -0.5600  YYY=              0.9399  ZZZ=              0.0263  XYY=              0.1673
  XXY=             -0.4055  XXZ=              0.0009  XZZ=              0.7024  YZZ=             -0.4021
  YYZ=             -0.0281  XYZ=              0.0094
 Hexadecapole moment (field-independent basis, Debye-Ang**3):
 XXXX=            -17.3128 YYYY=            -16.2124 ZZZZ=            -16.4079 XXXY=              0.2656
 XXXZ=             -0.0060 YYYX=             -0.1121 YYYZ=             -0.0139 ZZZX=              0.0194
 ZZZY=              0.0076 XXYY=             -5.9885 XXZZ=             -5.7087 YYZZ=             -5.6969
 XXYZ=              0.0081 YYXZ=             -0.0133 ZZXY=             -0.4287
 N-N= 1.323040044932D+01 E-N=-1.195833743182D+02  KE= 4.015032679356D+01
 1\1\GINC-NODE85\SP\RM062X\def2TZVPP\C1H4\YANZ\22-Sep-2023\0\\# M062X/d
 ef2TZVPP\\tmpdir/M2_conf_0_39.gjf\\0,1\H,0,0.,0.,0.\C,0,1.0902,0.,0.\H
 ,0,1.43209,0.,1.03499\H,0,1.50496,-0.92267,-0.5752\H,0,1.45394,0.89171
 ,-0.5041\\Version=ES64L-G16RevA.03\State=1-A\HF=-40.4984172\RMSD=1.532
 e-09\Dipole=-0.0050016,0.0189619,0.0067129\Quadrupole=-0.0005062,-0.03
 54609,0.0359671,-0.0230028,-0.0518679,0.0322762\PG=C01 [X(C1H4)]\\@


 FIREWORKS ENDED
 AND SPECTATORS GONE AWAY....
 AH, HOW VAST AND DARK
                     SHIKI
 Job cpu time:       0 days  0 hours  0 minutes 22.0 seconds.
 Elapsed time:       0 days  0 hours  0 minutes  3.9 seconds.
 File lengths (MBytes):  RWF=      6 Int=      0 D2E=      0 Chk=      2 Scr=      1
 Normal termination of Gaussian 16 at Fri Sep 22 16:50:10 2023.
