 Entering Gaussian System, Link 0=g16
 Initial command:
 /share/apps/gaussian/g16/l1.exe "/tmp/55604.mgr/Gau-83069.inp" -scrdir="/tmp/55604.mgr/"
 Entering Link 1 = /share/apps/gaussian/g16/l1.exe PID=     83070.
  
 Copyright (c) 1988,1990,1992,1993,1995,1998,2003,2009,2016,
            Gaussian, Inc.  All Rights Reserved.
  
 This is part of the Gaussian(R) 16 program.  It is based on
 the Gaussian(R) 09 system (copyright 2009, Gaussian, Inc.),
 the Gaussian(R) 03 system (copyright 2003, Gaussian, Inc.),
 the Gaussian(R) 98 system (copyright 1998, Gaussian, Inc.),
 the Gaussian(R) 94 system (copyright 1995, Gaussian, Inc.),
 the Gaussian 92(TM) system (copyright 1992, Gaussian, Inc.),
 the Gaussian 90(TM) system (copyright 1990, Gaussian, Inc.),
 the Gaussian 88(TM) system (copyright 1988, Gaussian, Inc.),
 the Gaussian 86(TM) system (copyright 1986, Carnegie Mellon
 University), and the Gaussian 82(TM) system (copyright 1983,
 Carnegie Mellon University). Gaussian is a federally registered
 trademark of Gaussian, Inc.
  
 This software contains proprietary and confidential information,
 including trade secrets, belonging to Gaussian, Inc.
  
 This software is provided under written license and may be
 used, copied, transmitted, or stored only in accord with that
 written license.
  
 The following legend is applicable only to US Government
 contracts under FAR:
  
                    RESTRICTED RIGHTS LEGEND
  
 Use, reproduction and disclosure by the US Government is
 subject to restrictions as set forth in subparagraphs (a)
 and (c) of the Commercial Computer Software - Restricted
 Rights clause in FAR 52.227-19.
  
 Gaussian, Inc.
 340 Quinnipiac St., Bldg. 40, Wallingford CT 06492
  
  
 ---------------------------------------------------------------
 Warning -- This program may not be used in any manner that
 competes with the business of Gaussian, Inc. or will provide
 assistance to any competitor of Gaussian, Inc.  The licensee
 of this program is prohibited from giving any competitor of
 Gaussian, Inc. access to this program.  By using this program,
 the user acknowledges that Gaussian, Inc. is engaged in the
 business of creating and licensing software in the field of
 computational chemistry and represents and warrants to the
 licensee that it is not a competitor of Gaussian, Inc. and that
 it will not use this program in any manner prohibited above.
 ---------------------------------------------------------------
  

 Cite this work as:
 Gaussian 16, Revision A.03,
 M. J. Frisch, G. W. Trucks, H. B. Schlegel, G. E. Scuseria, 
 M. A. Robb, J. R. Cheeseman, G. Scalmani, V. Barone, 
 G. A. Petersson, H. Nakatsuji, X. Li, M. Caricato, A. V. Marenich, 
 J. Bloino, B. G. Janesko, R. Gomperts, B. Mennucci, H. P. Hratchian, 
 J. V. Ortiz, A. F. Izmaylov, J. L. Sonnenberg, D. Williams-Young, 
 F. Ding, F. Lipparini, F. Egidi, J. Goings, B. Peng, A. Petrone, 
 T. Henderson, D. Ranasinghe, V. G. Zakrzewski, J. Gao, N. Rega, 
 G. Zheng, W. Liang, M. Hada, M. Ehara, K. Toyota, R. Fukuda, 
 J. Hasegawa, M. Ishida, T. Nakajima, Y. Honda, O. Kitao, H. Nakai, 
 T. Vreven, K. Throssell, J. A. Montgomery, Jr., J. E. Peralta, 
 F. Ogliaro, M. J. Bearpark, J. J. Heyd, E. N. Brothers, K. N. Kudin, 
 V. N. Staroverov, T. A. Keith, R. Kobayashi, J. Normand, 
 K. Raghavachari, A. P. Rendell, J. C. Burant, S. S. Iyengar, 
 J. Tomasi, M. Cossi, J. M. Millam, M. Klene, C. Adamo, R. Cammi, 
 J. W. Ochterski, R. L. Martin, K. Morokuma, O. Farkas, 
 J. B. Foresman, and D. J. Fox, Gaussian, Inc., Wallingford CT, 2016.
 
 ******************************************
 Gaussian 16:  ES64L-G16RevA.03 25-Dec-2016
                22-Sep-2023 
 ******************************************
 %nprocshared=6
 Will use up to    6 processors via shared memory.
 %mem=6GB
 -----------------
 # M062X/def2TZVPP
 -----------------
 1/38=1,172=1/1;
 2/12=2,17=6,18=5,40=1/2;
 3/5=44,7=202,11=2,25=1,30=1,74=-55/1,2,3;
 4//1;
 5/5=2,38=5/2;
 6/7=2,8=2,9=2,10=2,28=1/1;
 99/5=1,9=1/99;
 ----------------------
 tmpdir/M2_conf_0_4.gjf
 ----------------------
 Symbolic Z-matrix:
 Charge =  0 Multiplicity = 1
 H                     0.        0.        0. 
 N                     1.0109    0.        0. 
 C                     1.52342   0.        1.3657 
 H                     1.32811  -0.80174  -0.52544 
 H                     0.89985   0.58176   2.03745 
 H                     1.60994  -1.00735   1.80681 
 H                     2.54199   0.40236   1.37412 
 
                          Input orientation:                          
 ---------------------------------------------------------------------
 Center     Atomic      Atomic             Coordinates (Angstroms)
 Number     Number       Type             X           Y           Z
 ---------------------------------------------------------------------
      1          1           0        0.000000    0.000000    0.000000
      2          7           0        1.010900    0.000000    0.000000
      3          6           0        1.523420    0.000000    1.365700
      4          1           0        1.328110   -0.801740   -0.525440
      5          1           0        0.899850    0.581760    2.037450
      6          1           0        1.609940   -1.007350    1.806810
      7          1           0        2.541990    0.402360    1.374120
 ---------------------------------------------------------------------
                    Distance matrix (angstroms):
                    1          2          3          4          5
     1  H    0.000000
     2  N    1.010900   0.000000
     3  C    2.045958   1.458703   0.000000
     4  H    1.637910   1.009701   2.063333   0.000000
     5  H    2.302038   2.121787   1.085602   2.943787   0.000000
     6  H    2.621302   2.153640   1.103095   2.358197   1.755760
     7  H    2.917501   2.096267   1.095194   2.555717   1.780117
                    6          7
     6  H    0.000000
     7  H    1.744483   0.000000
 Stoichiometry    CH5N
 Framework group  C1[X(CH5N)]
 Deg. of freedom    15
 Full point group                 C1      NOp   1
 Largest Abelian subgroup         C1      NOp   1
 Largest concise Abelian subgroup C1      NOp   1
                         Standard orientation:                         
 ---------------------------------------------------------------------
 Center     Atomic      Atomic             Coordinates (Angstroms)
 Number     Number       Type             X           Y           Z
 ---------------------------------------------------------------------
      1          1           0       -1.146774    0.828498    0.298577
      2          7           0       -0.748994   -0.003262   -0.115987
      3          6           0        0.704267    0.006277    0.009538
      4          1           0       -1.164046   -0.809040    0.328929
      5          1           0        1.116848    1.006371   -0.080570
      6          1           0        1.069269   -0.401653    0.967236
      7          1           0        1.142058   -0.638999   -0.759492
 ---------------------------------------------------------------------
 Rotational constants (GHZ):         104.7015010          22.8776043          21.8238094
 Standard basis: def2TZVPP (5D, 7F)
 There are   147 symmetry adapted cartesian basis functions of A   symmetry.
 There are   132 symmetry adapted basis functions of A   symmetry.
   132 basis functions,   187 primitive gaussians,   147 cartesian basis functions
     9 alpha electrons        9 beta electrons
       nuclear repulsion energy        42.0444866380 Hartrees.
 NAtoms=    7 NActive=    7 NUniq=    7 SFac= 1.00D+00 NAtFMM=   60 NAOKFM=F Big=F
 Integral buffers will be    131072 words long.
 Raffenetti 2 integral format.
 Two-electron integral symmetry is turned on.
 One-electron integrals computed using PRISM.
   1 Symmetry operations used in ECPInt.
 ECPInt:  NShTT=    1378 NPrTT=    3299 LenC2=    1378 LenP2D=    3097.
 LDataN:  DoStor=T MaxTD1= 6 Len=  172
 NBasis=   132 RedAO= T EigKep=  5.41D-04  NBF=   132
 NBsUse=   132 1.00D-06 EigRej= -1.00D+00 NBFU=   132
 ExpMin= 9.52D-02 ExpMax= 1.97D+04 ExpMxC= 6.73D+02 IAcc=3 IRadAn=         5 AccDes= 0.00D+00
 Harris functional with IExCor= 1009 and IRadAn=       5 diagonalized for initial guess.
 HarFok:  IExCor= 1009 AccDes= 0.00D+00 IRadAn=         5 IDoV= 1 UseB2=F ITyADJ=14
 ICtDFT=  3500011 ScaDFX=  1.000000  1.000000  1.000000  1.000000
 FoFCou: FMM=F IPFlag=           0 FMFlag=      100000 FMFlg1=           0
         NFxFlg=           0 DoJE=T BraDBF=F KetDBF=T FulRan=T
         wScrn=  0.000000 ICntrl=       500 IOpCl=  0 I1Cent=   200000004 NGrid=           0
         NMat0=    1 NMatS0=      1 NMatT0=    0 NMatD0=    1 NMtDS0=    0 NMtDT0=    0
 Petite list used in FoFCou.
 Keep R1 ints in memory in canonical form, NReq=44362774.
 Requested convergence on RMS density matrix=1.00D-08 within 128 cycles.
 Requested convergence on MAX density matrix=1.00D-06.
 Requested convergence on             energy=1.00D-06.
 No special actions if energy rises.
 Integral accuracy reduced to 1.0D-05 until final iterations.
 Initial convergence to 1.0D-05 achieved.  Increase integral accuracy.
 SCF Done:  E(RM062X) =  -95.8435943143     A.U. after   11 cycles
            NFock= 11  Conv=0.80D-08     -V/T= 2.0053

 **********************************************************************

            Population analysis using the SCF density.

 **********************************************************************

 Orbital symmetries:
       Occupied  (A) (A) (A) (A) (A) (A) (A) (A) (A)
       Virtual   (A) (A) (A) (A) (A) (A) (A) (A) (A) (A) (A) (A)
                 (A) (A) (A) (A) (A) (A) (A) (A) (A) (A) (A) (A)
                 (A) (A) (A) (A) (A) (A) (A) (A) (A) (A) (A) (A)
                 (A) (A) (A) (A) (A) (A) (A) (A) (A) (A) (A) (A)
                 (A) (A) (A) (A) (A) (A) (A) (A) (A) (A) (A) (A)
                 (A) (A) (A) (A) (A) (A) (A) (A) (A) (A) (A) (A)
                 (A) (A) (A) (A) (A) (A) (A) (A) (A) (A) (A) (A)
                 (A) (A) (A) (A) (A) (A) (A) (A) (A) (A) (A) (A)
                 (A) (A) (A) (A) (A) (A) (A) (A) (A) (A) (A) (A)
                 (A) (A) (A) (A) (A) (A) (A) (A) (A) (A) (A) (A)
                 (A) (A) (A)
 The electronic state is 1-A.
 Alpha  occ. eigenvalues --  -14.72124 -10.54992  -0.97796  -0.74747  -0.56476
 Alpha  occ. eigenvalues --   -0.50562  -0.46594  -0.43398  -0.30099
 Alpha virt. eigenvalues --    0.06424   0.11003   0.12118   0.16044   0.17122
 Alpha virt. eigenvalues --    0.19825   0.25815   0.26927   0.32160   0.39223
 Alpha virt. eigenvalues --    0.40911   0.41690   0.45150   0.48979   0.50377
 Alpha virt. eigenvalues --    0.51914   0.55124   0.55731   0.60262   0.61352
 Alpha virt. eigenvalues --    0.64291   0.85709   0.88037   0.91536   0.97567
 Alpha virt. eigenvalues --    0.99583   1.01775   1.02794   1.05069   1.12493
 Alpha virt. eigenvalues --    1.13748   1.20666   1.24354   1.26502   1.33515
 Alpha virt. eigenvalues --    1.36838   1.38182   1.47917   1.48470   1.53578
 Alpha virt. eigenvalues --    1.55987   1.62958   1.64383   1.69205   1.72237
 Alpha virt. eigenvalues --    1.91092   2.02825   2.05989   2.19953   2.38931
 Alpha virt. eigenvalues --    2.42964   2.54750   2.58556   2.60979   2.61780
 Alpha virt. eigenvalues --    2.76766   2.84425   2.84878   2.89557   2.92526
 Alpha virt. eigenvalues --    2.93600   2.96883   3.01256   3.07287   3.13281
 Alpha virt. eigenvalues --    3.26171   3.28097   3.31884   3.33587   3.36188
 Alpha virt. eigenvalues --    3.41321   3.42841   3.44133   3.47288   3.52193
 Alpha virt. eigenvalues --    3.57912   3.61622   3.68158   3.72978   3.75314
 Alpha virt. eigenvalues --    3.84320   3.85576   3.89207   3.91443   3.96277
 Alpha virt. eigenvalues --    3.97324   3.99787   4.08790   4.14173   4.16273
 Alpha virt. eigenvalues --    4.19839   4.20996   4.27462   4.35790   4.41997
 Alpha virt. eigenvalues --    4.52540   4.54527   4.58818   4.75184   4.78133
 Alpha virt. eigenvalues --    4.80392   4.90627   4.97019   4.97623   5.09588
 Alpha virt. eigenvalues --    5.14768   5.17716   5.22389   5.31311   5.32356
 Alpha virt. eigenvalues --    5.35263   5.49628   5.53109   5.60471   5.66847
 Alpha virt. eigenvalues --    5.74517   5.82999   5.93441   6.09540   6.35210
 Alpha virt. eigenvalues --    6.42811  23.56681  32.71399
          Condensed to atoms (all electrons):
               1          2          3          4          5          6
     1  H    0.565794   0.390465  -0.048276  -0.043938  -0.012144  -0.001493
     2  N    0.390465   6.456523   0.269047   0.391507  -0.027067  -0.055047
     3  C   -0.048276   0.269047   4.814868  -0.046637   0.410212   0.434431
     4  H   -0.043938   0.391507  -0.046637   0.559887   0.007727  -0.012739
     5  H   -0.012144  -0.027067   0.410212   0.007727   0.561051  -0.029655
     6  H   -0.001493  -0.055047   0.434431  -0.012739  -0.029655   0.613993
     7  H    0.008895  -0.045229   0.406949   0.000193  -0.025465  -0.051681
               7
     1  H    0.008895
     2  N   -0.045229
     3  C    0.406949
     4  H    0.000193
     5  H   -0.025465
     6  H   -0.051681
     7  H    0.587780
 Mulliken charges:
               1
     1  H    0.140697
     2  N   -0.380198
     3  C   -0.240593
     4  H    0.144002
     5  H    0.115342
     6  H    0.102191
     7  H    0.118559
 Sum of Mulliken charges =  -0.00000
 Mulliken charges with hydrogens summed into heavy atoms:
               1
     2  N   -0.095499
     3  C    0.095499
 Electronic spatial extent (au):  <R**2>=             95.5030
 Charge=             -0.0000 electrons
 Dipole moment (field-independent basis, Debye):
    X=              0.1986    Y=              0.0630    Z=              1.3028  Tot=              1.3193
 Quadrupole moment (field-independent basis, Debye-Ang):
   XX=            -13.8480   YY=            -12.5471   ZZ=            -15.5897
   XY=              0.1249   XZ=             -1.8894   YZ=              0.0139
 Traceless Quadrupole moment (field-independent basis, Debye-Ang):
   XX=              0.1470   YY=              1.4478   ZZ=             -1.5948
   XY=              0.1249   XZ=             -1.8894   YZ=              0.0139
 Octapole moment (field-independent basis, Debye-Ang**2):
  XXX=             -3.0672  YYY=              0.6545  ZZZ=              1.2416  XYY=             -2.0934
  XXY=              0.1518  XXZ=              2.1309  XZZ=              0.5403  YZZ=             -0.4662
  YYZ=              0.6731  XYZ=              0.1411
 Hexadecapole moment (field-independent basis, Debye-Ang**3):
 XXXX=            -76.4717 YYYY=            -23.9452 ZZZZ=            -25.2975 XXXY=              0.4511
 XXXZ=             -3.7031 YYYX=              0.8034 YYYZ=              0.0847 ZZZX=             -1.7557
 ZZZY=              0.0140 XXYY=            -14.4622 XXZZ=            -18.0162 YYZZ=             -8.2399
 XXYZ=              0.0487 YYXZ=             -1.5434 ZZXY=             -0.4461
 N-N= 4.204448663799D+01 E-N=-3.069605146978D+02  KE= 9.534192568049D+01
 1\1\GINC-NODE85\SP\RM062X\def2TZVPP\C1H5N1\YANZ\22-Sep-2023\0\\# M062X
 /def2TZVPP\\tmpdir/M2_conf_0_4.gjf\\0,1\H,0,0.,0.,0.\N,0,1.0109,0.,0.\
 C,0,1.52342,0.,1.3657\H,0,1.32811,-0.80174,-0.52544\H,0,0.89985,0.5817
 6,2.03745\H,0,1.60994,-1.00735,1.80681\H,0,2.54199,0.40236,1.37412\\Ve
 rsion=ES64L-G16RevA.03\State=1-A\HF=-95.8435943\RMSD=8.037e-09\Dipole=
 -0.1998508,-0.4327576,0.2054434\Quadrupole=0.946452,-0.4963391,-0.4501
 13,-0.2979225,0.209436,1.5700937\PG=C01 [X(C1H5N1)]\\@


 HOW IS IT THAT THE SKY FEEDS THE STARS?

                           -- LUCRETIUS
 Job cpu time:       0 days  0 hours  0 minutes 55.6 seconds.
 Elapsed time:       0 days  0 hours  0 minutes 10.4 seconds.
 File lengths (MBytes):  RWF=     10 Int=      0 D2E=      0 Chk=      2 Scr=      1
 Normal termination of Gaussian 16 at Fri Sep 22 16:49:05 2023.
