 Entering Gaussian System, Link 0=g16
 Initial command:
 /share/apps/gaussian/g16/l1.exe "/tmp/55604.mgr/Gau-83816.inp" -scrdir="/tmp/55604.mgr/"
 Entering Link 1 = /share/apps/gaussian/g16/l1.exe PID=     83817.
  
 Copyright (c) 1988,1990,1992,1993,1995,1998,2003,2009,2016,
            Gaussian, Inc.  All Rights Reserved.
  
 This is part of the Gaussian(R) 16 program.  It is based on
 the Gaussian(R) 09 system (copyright 2009, Gaussian, Inc.),
 the Gaussian(R) 03 system (copyright 2003, Gaussian, Inc.),
 the Gaussian(R) 98 system (copyright 1998, Gaussian, Inc.),
 the Gaussian(R) 94 system (copyright 1995, Gaussian, Inc.),
 the Gaussian 92(TM) system (copyright 1992, Gaussian, Inc.),
 the Gaussian 90(TM) system (copyright 1990, Gaussian, Inc.),
 the Gaussian 88(TM) system (copyright 1988, Gaussian, Inc.),
 the Gaussian 86(TM) system (copyright 1986, Carnegie Mellon
 University), and the Gaussian 82(TM) system (copyright 1983,
 Carnegie Mellon University). Gaussian is a federally registered
 trademark of Gaussian, Inc.
  
 This software contains proprietary and confidential information,
 including trade secrets, belonging to Gaussian, Inc.
  
 This software is provided under written license and may be
 used, copied, transmitted, or stored only in accord with that
 written license.
  
 The following legend is applicable only to US Government
 contracts under FAR:
  
                    RESTRICTED RIGHTS LEGEND
  
 Use, reproduction and disclosure by the US Government is
 subject to restrictions as set forth in subparagraphs (a)
 and (c) of the Commercial Computer Software - Restricted
 Rights clause in FAR 52.227-19.
  
 Gaussian, Inc.
 340 Quinnipiac St., Bldg. 40, Wallingford CT 06492
  
  
 ---------------------------------------------------------------
 Warning -- This program may not be used in any manner that
 competes with the business of Gaussian, Inc. or will provide
 assistance to any competitor of Gaussian, Inc.  The licensee
 of this program is prohibited from giving any competitor of
 Gaussian, Inc. access to this program.  By using this program,
 the user acknowledges that Gaussian, Inc. is engaged in the
 business of creating and licensing software in the field of
 computational chemistry and represents and warrants to the
 licensee that it is not a competitor of Gaussian, Inc. and that
 it will not use this program in any manner prohibited above.
 ---------------------------------------------------------------
  

 Cite this work as:
 Gaussian 16, Revision A.03,
 M. J. Frisch, G. W. Trucks, H. B. Schlegel, G. E. Scuseria, 
 M. A. Robb, J. R. Cheeseman, G. Scalmani, V. Barone, 
 G. A. Petersson, H. Nakatsuji, X. Li, M. Caricato, A. V. Marenich, 
 J. Bloino, B. G. Janesko, R. Gomperts, B. Mennucci, H. P. Hratchian, 
 J. V. Ortiz, A. F. Izmaylov, J. L. Sonnenberg, D. Williams-Young, 
 F. Ding, F. Lipparini, F. Egidi, J. Goings, B. Peng, A. Petrone, 
 T. Henderson, D. Ranasinghe, V. G. Zakrzewski, J. Gao, N. Rega, 
 G. Zheng, W. Liang, M. Hada, M. Ehara, K. Toyota, R. Fukuda, 
 J. Hasegawa, M. Ishida, T. Nakajima, Y. Honda, O. Kitao, H. Nakai, 
 T. Vreven, K. Throssell, J. A. Montgomery, Jr., J. E. Peralta, 
 F. Ogliaro, M. J. Bearpark, J. J. Heyd, E. N. Brothers, K. N. Kudin, 
 V. N. Staroverov, T. A. Keith, R. Kobayashi, J. Normand, 
 K. Raghavachari, A. P. Rendell, J. C. Burant, S. S. Iyengar, 
 J. Tomasi, M. Cossi, J. M. Millam, M. Klene, C. Adamo, R. Cammi, 
 J. W. Ochterski, R. L. Martin, K. Morokuma, O. Farkas, 
 J. B. Foresman, and D. J. Fox, Gaussian, Inc., Wallingford CT, 2016.
 
 ******************************************
 Gaussian 16:  ES64L-G16RevA.03 25-Dec-2016
                22-Sep-2023 
 ******************************************
 %nprocshared=6
 Will use up to    6 processors via shared memory.
 %mem=6GB
 -----------------
 # M062X/def2TZVPP
 -----------------
 1/38=1,172=1/1;
 2/12=2,17=6,18=5,40=1/2;
 3/5=44,7=202,11=2,25=1,30=1,74=-55/1,2,3;
 4//1;
 5/5=2,38=5/2;
 6/7=2,8=2,9=2,10=2,28=1/1;
 99/5=1,9=1/99;
 -----------------------
 tmpdir/M2_conf_0_20.gjf
 -----------------------
 Symbolic Z-matrix:
 Charge =  0 Multiplicity = 1
 O                     0.        0.        0. 
 C                     1.4001    0.        0. 
 H                    -0.45712   0.       -0.75687 
 H                     1.78937   0.96593  -0.32582 
 H                     1.7336   -0.18932   1.01753 
 H                     1.79822  -0.77884  -0.65306 
 
                          Input orientation:                          
 ---------------------------------------------------------------------
 Center     Atomic      Atomic             Coordinates (Angstroms)
 Number     Number       Type             X           Y           Z
 ---------------------------------------------------------------------
      1          8           0        0.000000    0.000000    0.000000
      2          6           0        1.400100    0.000000    0.000000
      3          1           0       -0.457120    0.000000   -0.756870
      4          1           0        1.789370    0.965930   -0.325820
      5          1           0        1.733600   -0.189320    1.017530
      6          1           0        1.798220   -0.778840   -0.653060
 ---------------------------------------------------------------------
                    Distance matrix (angstroms):
                    1          2          3          4          5
     1  O    0.000000
     2  C    1.400100   0.000000
     3  H    0.884201   2.005522   0.000000
     4  H    2.059375   1.091197   2.483051   0.000000
     5  H    2.019054   1.087397   2.825525   1.772654   0.000000
     6  H    2.065593   1.091595   2.388290   1.775215   1.772733
                    6
     6  H    0.000000
 Stoichiometry    CH4O
 Framework group  C1[X(CH4O)]
 Deg. of freedom    12
 Full point group                 C1      NOp   1
 Largest Abelian subgroup         C1      NOp   1
 Largest concise Abelian subgroup C1      NOp   1
                         Standard orientation:                         
 ---------------------------------------------------------------------
 Center     Atomic      Atomic             Coordinates (Angstroms)
 Number     Number       Type             X           Y           Z
 ---------------------------------------------------------------------
      1          8           0        0.730191    0.107111   -0.000022
      2          6           0       -0.664044   -0.020900    0.000079
      3          1           0        1.254597   -0.604792    0.001702
      4          1           0       -1.022030   -0.378706    0.966791
      5          1           0       -1.089153    0.961435   -0.191578
      6          1           0       -1.000679   -0.709428   -0.777214
 ---------------------------------------------------------------------
 Rotational constants (GHZ):         137.1254182          25.0533024          24.4355562
 Standard basis: def2TZVPP (5D, 7F)
 There are   132 symmetry adapted cartesian basis functions of A   symmetry.
 There are   118 symmetry adapted basis functions of A   symmetry.
   118 basis functions,   170 primitive gaussians,   132 cartesian basis functions
     9 alpha electrons        9 beta electrons
       nuclear repulsion energy        40.9701632806 Hartrees.
 NAtoms=    6 NActive=    6 NUniq=    6 SFac= 1.00D+00 NAtFMM=   60 NAOKFM=F Big=F
 Integral buffers will be    131072 words long.
 Raffenetti 2 integral format.
 Two-electron integral symmetry is turned on.
 One-electron integrals computed using PRISM.
   1 Symmetry operations used in ECPInt.
 ECPInt:  NShTT=    1081 NPrTT=    2684 LenC2=    1081 LenP2D=    2512.
 LDataN:  DoStor=T MaxTD1= 6 Len=  172
 NBasis=   118 RedAO= T EigKep=  5.83D-04  NBF=   118
 NBsUse=   118 1.00D-06 EigRej= -1.00D+00 NBFU=   118
 ExpMin= 9.52D-02 ExpMax= 2.70D+04 ExpMxC= 9.22D+02 IAcc=3 IRadAn=         5 AccDes= 0.00D+00
 Harris functional with IExCor= 1009 and IRadAn=       5 diagonalized for initial guess.
 HarFok:  IExCor= 1009 AccDes= 0.00D+00 IRadAn=         5 IDoV= 1 UseB2=F ITyADJ=14
 ICtDFT=  3500011 ScaDFX=  1.000000  1.000000  1.000000  1.000000
 FoFCou: FMM=F IPFlag=           0 FMFlag=      100000 FMFlg1=           0
         NFxFlg=           0 DoJE=T BraDBF=F KetDBF=T FulRan=T
         wScrn=  0.000000 ICntrl=       500 IOpCl=  0 I1Cent=   200000004 NGrid=           0
         NMat0=    1 NMatS0=      1 NMatT0=    0 NMatD0=    1 NMtDS0=    0 NMtDT0=    0
 Petite list used in FoFCou.
 Keep R1 ints in memory in canonical form, NReq=30406467.
 Requested convergence on RMS density matrix=1.00D-08 within 128 cycles.
 Requested convergence on MAX density matrix=1.00D-06.
 Requested convergence on             energy=1.00D-06.
 No special actions if energy rises.
 Integral accuracy reduced to 1.0D-05 until final iterations.
 Initial convergence to 1.0D-05 achieved.  Increase integral accuracy.
 SCF Done:  E(RM062X) =  -115.708117207     A.U. after   11 cycles
            NFock= 11  Conv=0.44D-08     -V/T= 2.0030

 **********************************************************************

            Population analysis using the SCF density.

 **********************************************************************

 Orbital symmetries:
       Occupied  (A) (A) (A) (A) (A) (A) (A) (A) (A)
       Virtual   (A) (A) (A) (A) (A) (A) (A) (A) (A) (A) (A) (A)
                 (A) (A) (A) (A) (A) (A) (A) (A) (A) (A) (A) (A)
                 (A) (A) (A) (A) (A) (A) (A) (A) (A) (A) (A) (A)
                 (A) (A) (A) (A) (A) (A) (A) (A) (A) (A) (A) (A)
                 (A) (A) (A) (A) (A) (A) (A) (A) (A) (A) (A) (A)
                 (A) (A) (A) (A) (A) (A) (A) (A) (A) (A) (A) (A)
                 (A) (A) (A) (A) (A) (A) (A) (A) (A) (A) (A) (A)
                 (A) (A) (A) (A) (A) (A) (A) (A) (A) (A) (A) (A)
                 (A) (A) (A) (A) (A) (A) (A) (A) (A) (A) (A) (A)
                 (A)
 The electronic state is 1-A.
 Alpha  occ. eigenvalues --  -19.60813 -10.57782  -1.15358  -0.79089  -0.59818
 Alpha  occ. eigenvalues --   -0.51789  -0.50783  -0.39635  -0.35249
 Alpha virt. eigenvalues --    0.06877   0.10747   0.15515   0.15940   0.17342
 Alpha virt. eigenvalues --    0.24499   0.25563   0.35194   0.40077   0.43992
 Alpha virt. eigenvalues --    0.47373   0.48190   0.52475   0.53714   0.54321
 Alpha virt. eigenvalues --    0.58786   0.66834   0.73924   0.77568   0.79468
 Alpha virt. eigenvalues --    0.90996   0.91866   0.98961   0.98969   1.04892
 Alpha virt. eigenvalues --    1.10225   1.12378   1.19919   1.28395   1.30263
 Alpha virt. eigenvalues --    1.33829   1.41014   1.46888   1.48286   1.54747
 Alpha virt. eigenvalues --    1.69734   1.78914   1.88846   1.90971   1.96407
 Alpha virt. eigenvalues --    2.02468   2.13923   2.16160   2.51045   2.53180
 Alpha virt. eigenvalues --    2.60297   2.62019   2.76105   2.76940   2.83782
 Alpha virt. eigenvalues --    2.87019   2.88810   2.91302   2.92935   2.99805
 Alpha virt. eigenvalues --    3.03765   3.12393   3.21041   3.29041   3.32690
 Alpha virt. eigenvalues --    3.39292   3.40861   3.45329   3.49410   3.54299
 Alpha virt. eigenvalues --    3.61760   3.64492   3.67779   3.73805   3.75458
 Alpha virt. eigenvalues --    3.81031   3.92845   3.94900   3.97477   4.02810
 Alpha virt. eigenvalues --    4.13331   4.15271   4.20155   4.26393   4.33184
 Alpha virt. eigenvalues --    4.42328   4.49540   4.57355   4.70258   4.81078
 Alpha virt. eigenvalues --    4.88346   4.95564   5.04947   5.09738   5.17387
 Alpha virt. eigenvalues --    5.20554   5.24279   5.28745   5.41850   5.49510
 Alpha virt. eigenvalues --    5.62477   5.69115   6.05128   6.09899   6.52855
 Alpha virt. eigenvalues --    6.59698   6.83340   6.90504   6.90842   7.05911
 Alpha virt. eigenvalues --    7.57670   7.63936  23.64616  44.18374
          Condensed to atoms (all electrons):
               1          2          3          4          5          6
     1  O    7.848210   0.269961   0.363502  -0.050979  -0.037512  -0.047623
     2  C    0.269961   4.701655  -0.041229   0.416753   0.399508   0.418528
     3  H    0.363502  -0.041229   0.515486  -0.004138   0.009255  -0.008498
     4  H   -0.050979   0.416753  -0.004138   0.610047  -0.037602  -0.044946
     5  H   -0.037512   0.399508   0.009255  -0.037602   0.573219  -0.032043
     6  H   -0.047623   0.418528  -0.008498  -0.044946  -0.032043   0.605507
 Mulliken charges:
               1
     1  O   -0.345559
     2  C   -0.165176
     3  H    0.165622
     4  H    0.110864
     5  H    0.125175
     6  H    0.109074
 Sum of Mulliken charges =  -0.00000
 Mulliken charges with hydrogens summed into heavy atoms:
               1
     1  O   -0.179937
     2  C    0.179937
 Electronic spatial extent (au):  <R**2>=             83.3024
 Charge=             -0.0000 electrons
 Dipole moment (field-independent basis, Debye):
    X=             -0.5950    Y=             -1.3495    Z=             -0.0165  Tot=              1.4749
 Quadrupole moment (field-independent basis, Debye-Ang):
   XX=            -12.1591   YY=            -12.5906   ZZ=            -13.6905
   XY=             -2.2112   XZ=              0.0455   YZ=             -0.0184
 Traceless Quadrupole moment (field-independent basis, Debye-Ang):
   XX=              0.6543   YY=              0.2228   ZZ=             -0.8771
   XY=             -2.2112   XZ=              0.0455   YZ=             -0.0184
 Octapole moment (field-independent basis, Debye-Ang**2):
  XXX=              6.0487  YYY=             -0.2901  ZZZ=              0.2465  XYY=              1.4840
  XXY=             -2.3928  XXZ=             -0.0495  XZZ=              0.5128  YZZ=             -0.5781
  YYZ=             -0.3063  XYZ=              0.0292
 Hexadecapole moment (field-independent basis, Debye-Ang**3):
 XXXX=            -58.8502 YYYY=            -20.2314 ZZZZ=            -20.0903 XXXY=             -4.5094
 XXXZ=              0.1112 YYYX=             -2.6157 YYYZ=             -0.0184 ZZZX=             -0.2386
 ZZZY=             -0.0284 XXYY=            -12.6354 XXZZ=            -14.2408 YYZZ=             -6.7622
 XXYZ=             -0.0651 YYXZ=              0.3527 ZZXY=              0.0035
 N-N= 4.097016328061D+01 E-N=-3.535515090899D+02  KE= 1.153570342076D+02
 1\1\GINC-NODE85\SP\RM062X\def2TZVPP\C1H4O1\YANZ\22-Sep-2023\0\\# M062X
 /def2TZVPP\\tmpdir/M2_conf_0_20.gjf\\0,1\O,0,0.,0.,0.\C,0,1.4001,0.,0.
 \H,0,-0.45712,0.,-0.75687\H,0,1.78937,0.96593,-0.32582\H,0,1.7336,-0.1
 8932,1.01753\H,0,1.79822,-0.77884,-0.65306\\Version=ES64L-G16RevA.03\S
 tate=1-A\HF=-115.7081172\RMSD=4.404e-09\Dipole=0.2816534,-0.0076702,-0
 .5072938\Quadrupole=0.1843818,-0.6521544,0.4677726,-0.0287096,1.645798
 8,-0.0142114\PG=C01 [X(C1H4O1)]\\@


 A CHEMICAL PHYSICIST MAKES PRECISE MEASUREMENTS ON IMPURE COMPOUNDS.
 A THEORETICAL PHYSICAL CHEMIST MAKES IMPRECISE
     MEASUREMENTS ON PURE COMPOUNDS.
 AN EXPERIMENTAL PHYSICAL CHEMIST MAKES IMPRECISE
     MEASUREMENTS ON IMPURE COMPOUNDS.
 Job cpu time:       0 days  0 hours  0 minutes 40.0 seconds.
 Elapsed time:       0 days  0 hours  0 minutes  7.2 seconds.
 File lengths (MBytes):  RWF=     11 Int=      0 D2E=      0 Chk=      2 Scr=      1
 Normal termination of Gaussian 16 at Fri Sep 22 16:49:35 2023.
