 Entering Gaussian System, Link 0=g16
 Initial command:
 /share/apps/gaussian/g16/l1.exe "/tmp/55604.mgr/Gau-83231.inp" -scrdir="/tmp/55604.mgr/"
 Entering Link 1 = /share/apps/gaussian/g16/l1.exe PID=     83232.
  
 Copyright (c) 1988,1990,1992,1993,1995,1998,2003,2009,2016,
            Gaussian, Inc.  All Rights Reserved.
  
 This is part of the Gaussian(R) 16 program.  It is based on
 the Gaussian(R) 09 system (copyright 2009, Gaussian, Inc.),
 the Gaussian(R) 03 system (copyright 2003, Gaussian, Inc.),
 the Gaussian(R) 98 system (copyright 1998, Gaussian, Inc.),
 the Gaussian(R) 94 system (copyright 1995, Gaussian, Inc.),
 the Gaussian 92(TM) system (copyright 1992, Gaussian, Inc.),
 the Gaussian 90(TM) system (copyright 1990, Gaussian, Inc.),
 the Gaussian 88(TM) system (copyright 1988, Gaussian, Inc.),
 the Gaussian 86(TM) system (copyright 1986, Carnegie Mellon
 University), and the Gaussian 82(TM) system (copyright 1983,
 Carnegie Mellon University). Gaussian is a federally registered
 trademark of Gaussian, Inc.
  
 This software contains proprietary and confidential information,
 including trade secrets, belonging to Gaussian, Inc.
  
 This software is provided under written license and may be
 used, copied, transmitted, or stored only in accord with that
 written license.
  
 The following legend is applicable only to US Government
 contracts under FAR:
  
                    RESTRICTED RIGHTS LEGEND
  
 Use, reproduction and disclosure by the US Government is
 subject to restrictions as set forth in subparagraphs (a)
 and (c) of the Commercial Computer Software - Restricted
 Rights clause in FAR 52.227-19.
  
 Gaussian, Inc.
 340 Quinnipiac St., Bldg. 40, Wallingford CT 06492
  
  
 ---------------------------------------------------------------
 Warning -- This program may not be used in any manner that
 competes with the business of Gaussian, Inc. or will provide
 assistance to any competitor of Gaussian, Inc.  The licensee
 of this program is prohibited from giving any competitor of
 Gaussian, Inc. access to this program.  By using this program,
 the user acknowledges that Gaussian, Inc. is engaged in the
 business of creating and licensing software in the field of
 computational chemistry and represents and warrants to the
 licensee that it is not a competitor of Gaussian, Inc. and that
 it will not use this program in any manner prohibited above.
 ---------------------------------------------------------------
  

 Cite this work as:
 Gaussian 16, Revision A.03,
 M. J. Frisch, G. W. Trucks, H. B. Schlegel, G. E. Scuseria, 
 M. A. Robb, J. R. Cheeseman, G. Scalmani, V. Barone, 
 G. A. Petersson, H. Nakatsuji, X. Li, M. Caricato, A. V. Marenich, 
 J. Bloino, B. G. Janesko, R. Gomperts, B. Mennucci, H. P. Hratchian, 
 J. V. Ortiz, A. F. Izmaylov, J. L. Sonnenberg, D. Williams-Young, 
 F. Ding, F. Lipparini, F. Egidi, J. Goings, B. Peng, A. Petrone, 
 T. Henderson, D. Ranasinghe, V. G. Zakrzewski, J. Gao, N. Rega, 
 G. Zheng, W. Liang, M. Hada, M. Ehara, K. Toyota, R. Fukuda, 
 J. Hasegawa, M. Ishida, T. Nakajima, Y. Honda, O. Kitao, H. Nakai, 
 T. Vreven, K. Throssell, J. A. Montgomery, Jr., J. E. Peralta, 
 F. Ogliaro, M. J. Bearpark, J. J. Heyd, E. N. Brothers, K. N. Kudin, 
 V. N. Staroverov, T. A. Keith, R. Kobayashi, J. Normand, 
 K. Raghavachari, A. P. Rendell, J. C. Burant, S. S. Iyengar, 
 J. Tomasi, M. Cossi, J. M. Millam, M. Klene, C. Adamo, R. Cammi, 
 J. W. Ochterski, R. L. Martin, K. Morokuma, O. Farkas, 
 J. B. Foresman, and D. J. Fox, Gaussian, Inc., Wallingford CT, 2016.
 
 ******************************************
 Gaussian 16:  ES64L-G16RevA.03 25-Dec-2016
                22-Sep-2023 
 ******************************************
 %nprocshared=6
 Will use up to    6 processors via shared memory.
 %mem=6GB
 -----------------
 # M062X/def2TZVPP
 -----------------
 1/38=1,172=1/1;
 2/12=2,17=6,18=5,40=1/2;
 3/5=44,7=202,11=2,25=1,30=1,74=-55/1,2,3;
 4//1;
 5/5=2,38=5/2;
 6/7=2,8=2,9=2,10=2,28=1/1;
 99/5=1,9=1/99;
 ----------------------
 tmpdir/M2_conf_0_7.gjf
 ----------------------
 Symbolic Z-matrix:
 Charge =  0 Multiplicity = 1
 B                     0.        0.        0. 
 O                     1.396     0.        0. 
 H                    -0.63985   0.       -0.97296 
 H                    -0.53463  -0.0399    0.99336 
 H                     1.89763   0.03203  -0.82996 
 
                          Input orientation:                          
 ---------------------------------------------------------------------
 Center     Atomic      Atomic             Coordinates (Angstroms)
 Number     Number       Type             X           Y           Z
 ---------------------------------------------------------------------
      1          5           0        0.000000    0.000000    0.000000
      2          8           0        1.396000    0.000000    0.000000
      3          1           0       -0.639850    0.000000   -0.972960
      4          1           0       -0.534630   -0.039900    0.993360
      5          1           0        1.897630    0.032030   -0.829960
 ---------------------------------------------------------------------
                    Distance matrix (angstroms):
                    1          2          3          4          5
     1  B    0.000000
     2  O    1.396000   0.000000
     3  H    1.164500   2.256399   0.000000
     4  H    1.128798   2.171564   1.969537   0.000000
     5  H    2.071439   0.970305   2.541708   3.040651   0.000000
 Stoichiometry    BH3O
 Framework group  C1[X(BH3O)]
 Deg. of freedom     9
 Full point group                 C1      NOp   1
 Largest Abelian subgroup         C1      NOp   1
 Largest concise Abelian subgroup C1      NOp   1
                         Standard orientation:                         
 ---------------------------------------------------------------------
 Center     Atomic      Atomic             Coordinates (Angstroms)
 Number     Number       Type             X           Y           Z
 ---------------------------------------------------------------------
      1          5           0        0.744437    0.026029   -0.006200
      2          8           0       -0.644154   -0.117355    0.002266
      3          1           0        1.281123    1.059304    0.013011
      4          1           0        1.378427   -0.907819    0.006871
      5          1           0       -1.228498    0.657209   -0.007015
 ---------------------------------------------------------------------
 Rotational constants (GHZ):         196.4009269          28.3187053          24.7516686
 Standard basis: def2TZVPP (5D, 7F)
 There are   117 symmetry adapted cartesian basis functions of A   symmetry.
 There are   104 symmetry adapted basis functions of A   symmetry.
   104 basis functions,   153 primitive gaussians,   117 cartesian basis functions
     8 alpha electrons        8 beta electrons
       nuclear repulsion energy        29.8956468331 Hartrees.
 NAtoms=    5 NActive=    5 NUniq=    5 SFac= 1.00D+00 NAtFMM=   60 NAOKFM=F Big=F
 Integral buffers will be    131072 words long.
 Raffenetti 2 integral format.
 Two-electron integral symmetry is turned on.
 One-electron integrals computed using PRISM.
   1 Symmetry operations used in ECPInt.
 ECPInt:  NShTT=     820 NPrTT=    2133 LenC2=     821 LenP2D=    1991.
 LDataN:  DoStor=T MaxTD1= 6 Len=  172
 NBasis=   104 RedAO= T EigKep=  7.20D-04  NBF=   104
 NBsUse=   104 1.00D-06 EigRej= -1.00D+00 NBFU=   104
 ExpMin= 6.06D-02 ExpMax= 2.70D+04 ExpMxC= 9.22D+02 IAcc=3 IRadAn=         5 AccDes= 0.00D+00
 Harris functional with IExCor= 1009 and IRadAn=       5 diagonalized for initial guess.
 HarFok:  IExCor= 1009 AccDes= 0.00D+00 IRadAn=         5 IDoV= 1 UseB2=F ITyADJ=14
 ICtDFT=  3500011 ScaDFX=  1.000000  1.000000  1.000000  1.000000
 FoFCou: FMM=F IPFlag=           0 FMFlag=      100000 FMFlg1=           0
         NFxFlg=           0 DoJE=T BraDBF=F KetDBF=T FulRan=T
         wScrn=  0.000000 ICntrl=       500 IOpCl=  0 I1Cent=   200000004 NGrid=           0
         NMat0=    1 NMatS0=      1 NMatT0=    0 NMatD0=    1 NMtDS0=    0 NMtDT0=    0
 Petite list used in FoFCou.
 Keep R1 ints in memory in canonical form, NReq=20564853.
 Requested convergence on RMS density matrix=1.00D-08 within 128 cycles.
 Requested convergence on MAX density matrix=1.00D-06.
 Requested convergence on             energy=1.00D-06.
 No special actions if energy rises.
 Integral accuracy reduced to 1.0D-05 until final iterations.
 Initial convergence to 1.0D-05 achieved.  Increase integral accuracy.
 SCF Done:  E(RM062X) =  -101.902734234     A.U. after   12 cycles
            NFock= 12  Conv=0.72D-08     -V/T= 2.0048

 **********************************************************************

            Population analysis using the SCF density.

 **********************************************************************

 Orbital symmetries:
       Occupied  (A) (A) (A) (A) (A) (A) (A) (A)
       Virtual   (A) (A) (A) (A) (A) (A) (A) (A) (A) (A) (A) (A)
                 (A) (A) (A) (A) (A) (A) (A) (A) (A) (A) (A) (A)
                 (A) (A) (A) (A) (A) (A) (A) (A) (A) (A) (A) (A)
                 (A) (A) (A) (A) (A) (A) (A) (A) (A) (A) (A) (A)
                 (A) (A) (A) (A) (A) (A) (A) (A) (A) (A) (A) (A)
                 (A) (A) (A) (A) (A) (A) (A) (A) (A) (A) (A) (A)
                 (A) (A) (A) (A) (A) (A) (A) (A) (A) (A) (A) (A)
                 (A) (A) (A) (A) (A) (A) (A) (A) (A) (A) (A) (A)
 The electronic state is 1-A.
 Alpha  occ. eigenvalues --  -19.64794  -7.06235  -1.14048  -0.65473  -0.53545
 Alpha  occ. eigenvalues --   -0.48021  -0.44022  -0.38080
 Alpha virt. eigenvalues --    0.01327   0.05114   0.09260   0.11757   0.14987
 Alpha virt. eigenvalues --    0.17963   0.19162   0.23434   0.35011   0.39641
 Alpha virt. eigenvalues --    0.40267   0.46595   0.51232   0.51373   0.52178
 Alpha virt. eigenvalues --    0.55644   0.57542   0.66077   0.70517   0.72990
 Alpha virt. eigenvalues --    0.76409   0.78655   0.82066   0.84146   0.93674
 Alpha virt. eigenvalues --    0.94018   1.00900   1.06625   1.09597   1.24846
 Alpha virt. eigenvalues --    1.26957   1.34998   1.47152   1.50717   1.58945
 Alpha virt. eigenvalues --    1.65877   1.77615   1.84136   1.85490   1.89058
 Alpha virt. eigenvalues --    1.92480   2.00215   2.03636   2.10831   2.14343
 Alpha virt. eigenvalues --    2.20664   2.24368   2.28711   2.32771   2.40859
 Alpha virt. eigenvalues --    2.44989   2.72137   2.87562   2.87896   3.06171
 Alpha virt. eigenvalues --    3.18988   3.27025   3.28147   3.32017   3.34983
 Alpha virt. eigenvalues --    3.50890   3.52325   3.61492   3.67657   3.77989
 Alpha virt. eigenvalues --    3.80089   3.89352   3.94558   4.02300   4.03630
 Alpha virt. eigenvalues --    4.12049   4.14574   4.20442   4.21865   4.46530
 Alpha virt. eigenvalues --    4.49852   4.58084   4.72963   4.78869   4.87567
 Alpha virt. eigenvalues --    4.97650   5.26878   5.36611   5.60566   5.65963
 Alpha virt. eigenvalues --    5.75168   6.42911   6.54655   6.61326   6.67522
 Alpha virt. eigenvalues --    6.69613   6.86612   7.23953   7.38126  15.88151
 Alpha virt. eigenvalues --   43.70556
          Condensed to atoms (all electrons):
               1          2          3          4          5
     1  B    3.623127   0.457170   0.433492   0.420831  -0.046701
     2  O    0.457170   7.633444  -0.039422  -0.016478   0.335444
     3  H    0.433492  -0.039422   0.664824  -0.043743  -0.010946
     4  H    0.420831  -0.016478  -0.043743   0.610427   0.007167
     5  H   -0.046701   0.335444  -0.010946   0.007167   0.474554
 Mulliken charges:
               1
     1  B    0.112082
     2  O   -0.370157
     3  H   -0.004205
     4  H    0.021797
     5  H    0.240483
 Sum of Mulliken charges =  -0.00000
 Mulliken charges with hydrogens summed into heavy atoms:
               1
     1  B    0.129674
     2  O   -0.129674
 Electronic spatial extent (au):  <R**2>=             77.2100
 Charge=             -0.0000 electrons
 Dipole moment (field-independent basis, Debye):
    X=             -0.4787    Y=              1.3773    Z=             -0.0448  Tot=              1.4588
 Quadrupole moment (field-independent basis, Debye-Ang):
   XX=            -12.3260   YY=            -13.3383   ZZ=            -12.7027
   XY=             -2.1825   XZ=             -0.0011   YZ=             -0.0164
 Traceless Quadrupole moment (field-independent basis, Debye-Ang):
   XX=              0.4630   YY=             -0.5493   ZZ=              0.0863
   XY=             -2.1825   XZ=             -0.0011   YZ=             -0.0164
 Octapole moment (field-independent basis, Debye-Ang**2):
  XXX=            -11.2317  YYY=              0.3562  ZZZ=             -0.0272  XYY=             -4.1620
  XXY=              2.4463  XXZ=             -0.0311  XZZ=             -1.4123  YZZ=              0.0351
  YYZ=              0.0079  XYZ=              0.0121
 Hexadecapole moment (field-independent basis, Debye-Ang**3):
 XXXX=            -67.9083 YYYY=            -27.6672 ZZZZ=            -12.2624 XXXY=             -4.4136
 XXXZ=              0.0312 YYYX=             -2.4873 YYYZ=             -0.0157 ZZZX=             -0.0268
 ZZZY=             -0.0184 XXYY=            -15.9038 XXZZ=            -13.5866 YYZZ=             -6.9391
 XXYZ=             -0.0242 YYXZ=              0.0311 ZZXY=             -0.4643
 N-N= 2.989564683312D+01 E-N=-2.988756460399D+02  KE= 1.014144929231D+02
 1\1\GINC-NODE85\SP\RM062X\def2TZVPP\B1H3O1\YANZ\22-Sep-2023\0\\# M062X
 /def2TZVPP\\tmpdir/M2_conf_0_7.gjf\\0,1\B,0,0.,0.,0.\O,0,1.396,0.,0.\H
 ,0,-0.63985,0.,-0.97296\H,0,-0.53463,-0.0399,0.99336\H,0,1.89763,0.032
 03,-0.82996\\Version=ES64L-G16RevA.03\State=1-A\HF=-101.9027342\RMSD=7
 .226e-09\Dipole=0.1315809,0.0316699,-0.5577688\Quadrupole=0.0047366,0.
 0651339,-0.0698705,0.0370892,-1.6648046,-0.0189551\PG=C01 [X(B1H3O1)]\
 \@


      SCIENCE SANS CONSCIENCE N'EST QUE RUINE DE L'AME.

                                                  -- RABELAIS
 Job cpu time:       0 days  0 hours  0 minutes 34.1 seconds.
 Elapsed time:       0 days  0 hours  0 minutes  6.3 seconds.
 File lengths (MBytes):  RWF=     10 Int=      0 D2E=      0 Chk=      2 Scr=      1
 Normal termination of Gaussian 16 at Fri Sep 22 16:49:07 2023.
