 Entering Gaussian System, Link 0=g16
 Initial command:
 /share/apps/gaussian/g16/l1.exe "/tmp/55604.mgr/Gau-84241.inp" -scrdir="/tmp/55604.mgr/"
 Entering Link 1 = /share/apps/gaussian/g16/l1.exe PID=     84242.
  
 Copyright (c) 1988,1990,1992,1993,1995,1998,2003,2009,2016,
            Gaussian, Inc.  All Rights Reserved.
  
 This is part of the Gaussian(R) 16 program.  It is based on
 the Gaussian(R) 09 system (copyright 2009, Gaussian, Inc.),
 the Gaussian(R) 03 system (copyright 2003, Gaussian, Inc.),
 the Gaussian(R) 98 system (copyright 1998, Gaussian, Inc.),
 the Gaussian(R) 94 system (copyright 1995, Gaussian, Inc.),
 the Gaussian 92(TM) system (copyright 1992, Gaussian, Inc.),
 the Gaussian 90(TM) system (copyright 1990, Gaussian, Inc.),
 the Gaussian 88(TM) system (copyright 1988, Gaussian, Inc.),
 the Gaussian 86(TM) system (copyright 1986, Carnegie Mellon
 University), and the Gaussian 82(TM) system (copyright 1983,
 Carnegie Mellon University). Gaussian is a federally registered
 trademark of Gaussian, Inc.
  
 This software contains proprietary and confidential information,
 including trade secrets, belonging to Gaussian, Inc.
  
 This software is provided under written license and may be
 used, copied, transmitted, or stored only in accord with that
 written license.
  
 The following legend is applicable only to US Government
 contracts under FAR:
  
                    RESTRICTED RIGHTS LEGEND
  
 Use, reproduction and disclosure by the US Government is
 subject to restrictions as set forth in subparagraphs (a)
 and (c) of the Commercial Computer Software - Restricted
 Rights clause in FAR 52.227-19.
  
 Gaussian, Inc.
 340 Quinnipiac St., Bldg. 40, Wallingford CT 06492
  
  
 ---------------------------------------------------------------
 Warning -- This program may not be used in any manner that
 competes with the business of Gaussian, Inc. or will provide
 assistance to any competitor of Gaussian, Inc.  The licensee
 of this program is prohibited from giving any competitor of
 Gaussian, Inc. access to this program.  By using this program,
 the user acknowledges that Gaussian, Inc. is engaged in the
 business of creating and licensing software in the field of
 computational chemistry and represents and warrants to the
 licensee that it is not a competitor of Gaussian, Inc. and that
 it will not use this program in any manner prohibited above.
 ---------------------------------------------------------------
  

 Cite this work as:
 Gaussian 16, Revision A.03,
 M. J. Frisch, G. W. Trucks, H. B. Schlegel, G. E. Scuseria, 
 M. A. Robb, J. R. Cheeseman, G. Scalmani, V. Barone, 
 G. A. Petersson, H. Nakatsuji, X. Li, M. Caricato, A. V. Marenich, 
 J. Bloino, B. G. Janesko, R. Gomperts, B. Mennucci, H. P. Hratchian, 
 J. V. Ortiz, A. F. Izmaylov, J. L. Sonnenberg, D. Williams-Young, 
 F. Ding, F. Lipparini, F. Egidi, J. Goings, B. Peng, A. Petrone, 
 T. Henderson, D. Ranasinghe, V. G. Zakrzewski, J. Gao, N. Rega, 
 G. Zheng, W. Liang, M. Hada, M. Ehara, K. Toyota, R. Fukuda, 
 J. Hasegawa, M. Ishida, T. Nakajima, Y. Honda, O. Kitao, H. Nakai, 
 T. Vreven, K. Throssell, J. A. Montgomery, Jr., J. E. Peralta, 
 F. Ogliaro, M. J. Bearpark, J. J. Heyd, E. N. Brothers, K. N. Kudin, 
 V. N. Staroverov, T. A. Keith, R. Kobayashi, J. Normand, 
 K. Raghavachari, A. P. Rendell, J. C. Burant, S. S. Iyengar, 
 J. Tomasi, M. Cossi, J. M. Millam, M. Klene, C. Adamo, R. Cammi, 
 J. W. Ochterski, R. L. Martin, K. Morokuma, O. Farkas, 
 J. B. Foresman, and D. J. Fox, Gaussian, Inc., Wallingford CT, 2016.
 
 ******************************************
 Gaussian 16:  ES64L-G16RevA.03 25-Dec-2016
                22-Sep-2023 
 ******************************************
 %nprocshared=6
 Will use up to    6 processors via shared memory.
 %mem=6GB
 -----------------
 # M062X/def2TZVPP
 -----------------
 1/38=1,172=1/1;
 2/12=2,17=6,18=5,40=1/2;
 3/5=44,7=202,11=2,25=1,30=1,74=-55/1,2,3;
 4//1;
 5/5=2,38=5/2;
 6/7=2,8=2,9=2,10=2,28=1/1;
 99/5=1,9=1/99;
 -----------------------
 tmpdir/M2_conf_0_26.gjf
 -----------------------
 Symbolic Z-matrix:
 Charge =  0 Multiplicity = 1
 C                     0.        0.        0. 
 H                     1.0951    0.        0. 
 H                    -0.42307   0.       -1.0801 
 H                    -0.3522    0.87038   0.55599 
 H                    -0.35205  -0.90132   0.49612 
 
                          Input orientation:                          
 ---------------------------------------------------------------------
 Center     Atomic      Atomic             Coordinates (Angstroms)
 Number     Number       Type             X           Y           Z
 ---------------------------------------------------------------------
      1          6           0        0.000000    0.000000    0.000000
      2          1           0        1.095100    0.000000    0.000000
      3          1           0       -0.423070    0.000000   -1.080100
      4          1           0       -0.352200    0.870380    0.555990
      5          1           0       -0.352050   -0.901320    0.496120
 ---------------------------------------------------------------------
                    Distance matrix (angstroms):
                    1          2          3          4          5
     1  C    0.000000
     2  H    1.095100   0.000000
     3  H    1.160002   1.863184   0.000000
     4  H    1.091206   1.778022   1.854555   0.000000
     5  H    1.087406   1.775600   1.817111   1.772711   0.000000
 Stoichiometry    CH4
 Framework group  C1[X(CH4)]
 Deg. of freedom     9
 Full point group                 C1      NOp   1
 Largest Abelian subgroup         C1      NOp   1
 Largest concise Abelian subgroup C1      NOp   1
                         Standard orientation:                         
 ---------------------------------------------------------------------
 Center     Atomic      Atomic             Coordinates (Angstroms)
 Number     Number       Type             X           Y           Z
 ---------------------------------------------------------------------
      1          6           0        0.004514   -0.000096   -0.002721
      2          1           0        0.544360   -0.878093   -0.372765
      3          1           0       -1.124719   -0.057529   -0.261834
      4          1           0        0.456583    0.896867   -0.429125
      5          1           0        0.096693    0.039333    1.080053
 ---------------------------------------------------------------------
 Rotational constants (GHZ):         159.7743801         150.2450048         149.2598895
 Standard basis: def2TZVPP (5D, 7F)
 There are    96 symmetry adapted cartesian basis functions of A   symmetry.
 There are    87 symmetry adapted basis functions of A   symmetry.
    87 basis functions,   119 primitive gaussians,    96 cartesian basis functions
     5 alpha electrons        5 beta electrons
       nuclear repulsion energy        13.2207254457 Hartrees.
 NAtoms=    5 NActive=    5 NUniq=    5 SFac= 1.00D+00 NAtFMM=   60 NAOKFM=F Big=F
 Integral buffers will be    131072 words long.
 Raffenetti 2 integral format.
 Two-electron integral symmetry is turned on.
 One-electron integrals computed using PRISM.
   1 Symmetry operations used in ECPInt.
 ECPInt:  NShTT=     630 NPrTT=    1412 LenC2=     631 LenP2D=    1376.
 LDataN:  DoStor=T MaxTD1= 6 Len=  172
 NBasis=    87 RedAO= T EigKep=  5.60D-04  NBF=    87
 NBsUse=    87 1.00D-06 EigRej= -1.00D+00 NBFU=    87
 ExpMin= 9.52D-02 ExpMax= 1.36D+04 ExpMxC= 4.63D+02 IAcc=3 IRadAn=         5 AccDes= 0.00D+00
 Harris functional with IExCor= 1009 and IRadAn=       5 diagonalized for initial guess.
 HarFok:  IExCor= 1009 AccDes= 0.00D+00 IRadAn=         5 IDoV= 1 UseB2=F ITyADJ=14
 ICtDFT=  3500011 ScaDFX=  1.000000  1.000000  1.000000  1.000000
 FoFCou: FMM=F IPFlag=           0 FMFlag=      100000 FMFlg1=           0
         NFxFlg=           0 DoJE=T BraDBF=F KetDBF=T FulRan=T
         wScrn=  0.000000 ICntrl=       500 IOpCl=  0 I1Cent=   200000004 NGrid=           0
         NMat0=    1 NMatS0=      1 NMatT0=    0 NMatD0=    1 NMtDS0=    0 NMtDT0=    0
 Petite list used in FoFCou.
 Keep R1 ints in memory in canonical form, NReq=12860297.
 Requested convergence on RMS density matrix=1.00D-08 within 128 cycles.
 Requested convergence on MAX density matrix=1.00D-06.
 Requested convergence on             energy=1.00D-06.
 No special actions if energy rises.
 Integral accuracy reduced to 1.0D-05 until final iterations.
 Initial convergence to 1.0D-05 achieved.  Increase integral accuracy.
 SCF Done:  E(RM062X) =  -40.4986281659     A.U. after   10 cycles
            NFock= 10  Conv=0.16D-08     -V/T= 2.0088

 **********************************************************************

            Population analysis using the SCF density.

 **********************************************************************

 Orbital symmetries:
       Occupied  (A) (A) (A) (A) (A)
       Virtual   (A) (A) (A) (A) (A) (A) (A) (A) (A) (A) (A) (A)
                 (A) (A) (A) (A) (A) (A) (A) (A) (A) (A) (A) (A)
                 (A) (A) (A) (A) (A) (A) (A) (A) (A) (A) (A) (A)
                 (A) (A) (A) (A) (A) (A) (A) (A) (A) (A) (A) (A)
                 (A) (A) (A) (A) (A) (A) (A) (A) (A) (A) (A) (A)
                 (A) (A) (A) (A) (A) (A) (A) (A) (A) (A) (A) (A)
                 (A) (A) (A) (A) (A) (A) (A) (A) (A) (A)
 The electronic state is 1-A.
 Alpha  occ. eigenvalues --  -10.52441  -0.77983  -0.45691  -0.45487  -0.44451
 Alpha virt. eigenvalues --    0.08458   0.15305   0.16141   0.16278   0.23711
 Alpha virt. eigenvalues --    0.23728   0.24213   0.41634   0.48350   0.50724
 Alpha virt. eigenvalues --    0.51045   0.54442   0.55171   0.55604   0.90277
 Alpha virt. eigenvalues --    0.91089   0.92499   0.97258   0.97712   0.98103
 Alpha virt. eigenvalues --    1.10291   1.12216   1.13250   1.35066   1.40752
 Alpha virt. eigenvalues --    1.41114   1.41966   1.47364   1.48069   1.56520
 Alpha virt. eigenvalues --    1.85329   1.86362   1.92979   2.52105   2.53208
 Alpha virt. eigenvalues --    2.53600   2.65449   2.82666   2.83705   2.84814
 Alpha virt. eigenvalues --    2.85575   2.85673   2.86423   2.91019   2.91314
 Alpha virt. eigenvalues --    3.26566   3.27842   3.29859   3.33361   3.37927
 Alpha virt. eigenvalues --    3.38780   3.44938   3.45523   3.58443   3.75300
 Alpha virt. eigenvalues --    3.76362   3.84332   3.85640   3.86222   3.95695
 Alpha virt. eigenvalues --    3.98955   4.03173   4.10430   4.10927   4.14741
 Alpha virt. eigenvalues --    4.44043   4.46758   4.48439   4.75698   5.00314
 Alpha virt. eigenvalues --    5.03772   5.05808   5.07535   5.13642   5.15462
 Alpha virt. eigenvalues --    5.19407   5.26721   5.27182   5.46506   5.47174
 Alpha virt. eigenvalues --    5.48787  23.73697
          Condensed to atoms (all electrons):
               1          2          3          4          5
     1  C    4.906749   0.399525   0.390282   0.400034   0.399781
     2  H    0.399525   0.536728  -0.020150  -0.021971  -0.021374
     3  H    0.390282  -0.020150   0.562628  -0.020536  -0.022863
     4  H    0.400034  -0.021971  -0.020536   0.535220  -0.021197
     5  H    0.399781  -0.021374  -0.022863  -0.021197   0.535610
 Mulliken charges:
               1
     1  C   -0.496371
     2  H    0.127242
     3  H    0.110639
     4  H    0.128449
     5  H    0.130041
 Sum of Mulliken charges =  -0.00000
 Mulliken charges with hydrogens summed into heavy atoms:
               1
     1  C   -0.000000
 Electronic spatial extent (au):  <R**2>=             36.5429
 Charge=             -0.0000 electrons
 Dipole moment (field-independent basis, Debye):
    X=              0.0451    Y=              0.0066    Z=              0.0295  Tot=              0.0543
 Quadrupole moment (field-independent basis, Debye-Ang):
   XX=             -8.4094   YY=             -8.5420   ZZ=             -8.5791
   XY=             -0.0056   XZ=             -0.0409   YZ=             -0.0047
 Traceless Quadrupole moment (field-independent basis, Debye-Ang):
   XX=              0.1008   YY=             -0.0319   ZZ=             -0.0689
   XY=             -0.0056   XZ=             -0.0409   YZ=             -0.0047
 Octapole moment (field-independent basis, Debye-Ang**2):
  XXX=             -0.6285  YYY=              0.0638  ZZZ=              0.9120  XYY=              0.6838
  XXY=             -0.1009  XXZ=             -0.3521  XZZ=              0.2350  YZZ=              0.0722
  YYZ=             -0.4260  XYZ=             -0.0071
 Hexadecapole moment (field-independent basis, Debye-Ang**3):
 XXXX=            -17.2361 YYYY=            -16.4802 ZZZZ=            -16.2112 XXXY=              0.0173
 XXXZ=              0.2309 YYYX=             -0.0628 YYYZ=             -0.0824 ZZZX=             -0.0161
 ZZZY=              0.0184 XXYY=             -5.7420 XXZZ=             -6.0134 YYZZ=             -5.6782
 XXYZ=              0.0406 YYXZ=             -0.4207 ZZXY=              0.0169
 N-N= 1.322072544570D+01 E-N=-1.195612391804D+02  KE= 4.014562265420D+01
 1\1\GINC-NODE85\SP\RM062X\def2TZVPP\C1H4\YANZ\22-Sep-2023\0\\# M062X/d
 ef2TZVPP\\tmpdir/M2_conf_0_26.gjf\\0,1\C,0,0.,0.,0.\H,0,1.0951,0.,0.\H
 ,0,-0.42307,0.,-1.0801\H,0,-0.3522,0.87038,0.55599\H,0,-0.35205,-0.901
 32,0.49612\\Version=ES64L-G16RevA.03\State=1-A\HF=-40.4986282\RMSD=1.6
 30e-09\Dipole=0.0027508,-0.0057224,0.0204091\Quadrupole=0.0086335,-0.0
 299637,0.0213302,0.0129356,0.0516161,0.042501\PG=C01 [X(C1H4)]\\@


 E PUR SI MUOVE    -- GALILEO GALILEI
 Job cpu time:       0 days  0 hours  0 minutes 22.1 seconds.
 Elapsed time:       0 days  0 hours  0 minutes  4.0 seconds.
 File lengths (MBytes):  RWF=      6 Int=      0 D2E=      0 Chk=      2 Scr=      1
 Normal termination of Gaussian 16 at Fri Sep 22 16:49:53 2023.
