 Entering Gaussian System, Link 0=g16
 Initial command:
 /share/apps/gaussian/g16/l1.exe "/tmp/55604.mgr/Gau-84675.inp" -scrdir="/tmp/55604.mgr/"
 Entering Link 1 = /share/apps/gaussian/g16/l1.exe PID=     84676.
  
 Copyright (c) 1988,1990,1992,1993,1995,1998,2003,2009,2016,
            Gaussian, Inc.  All Rights Reserved.
  
 This is part of the Gaussian(R) 16 program.  It is based on
 the Gaussian(R) 09 system (copyright 2009, Gaussian, Inc.),
 the Gaussian(R) 03 system (copyright 2003, Gaussian, Inc.),
 the Gaussian(R) 98 system (copyright 1998, Gaussian, Inc.),
 the Gaussian(R) 94 system (copyright 1995, Gaussian, Inc.),
 the Gaussian 92(TM) system (copyright 1992, Gaussian, Inc.),
 the Gaussian 90(TM) system (copyright 1990, Gaussian, Inc.),
 the Gaussian 88(TM) system (copyright 1988, Gaussian, Inc.),
 the Gaussian 86(TM) system (copyright 1986, Carnegie Mellon
 University), and the Gaussian 82(TM) system (copyright 1983,
 Carnegie Mellon University). Gaussian is a federally registered
 trademark of Gaussian, Inc.
  
 This software contains proprietary and confidential information,
 including trade secrets, belonging to Gaussian, Inc.
  
 This software is provided under written license and may be
 used, copied, transmitted, or stored only in accord with that
 written license.
  
 The following legend is applicable only to US Government
 contracts under FAR:
  
                    RESTRICTED RIGHTS LEGEND
  
 Use, reproduction and disclosure by the US Government is
 subject to restrictions as set forth in subparagraphs (a)
 and (c) of the Commercial Computer Software - Restricted
 Rights clause in FAR 52.227-19.
  
 Gaussian, Inc.
 340 Quinnipiac St., Bldg. 40, Wallingford CT 06492
  
  
 ---------------------------------------------------------------
 Warning -- This program may not be used in any manner that
 competes with the business of Gaussian, Inc. or will provide
 assistance to any competitor of Gaussian, Inc.  The licensee
 of this program is prohibited from giving any competitor of
 Gaussian, Inc. access to this program.  By using this program,
 the user acknowledges that Gaussian, Inc. is engaged in the
 business of creating and licensing software in the field of
 computational chemistry and represents and warrants to the
 licensee that it is not a competitor of Gaussian, Inc. and that
 it will not use this program in any manner prohibited above.
 ---------------------------------------------------------------
  

 Cite this work as:
 Gaussian 16, Revision A.03,
 M. J. Frisch, G. W. Trucks, H. B. Schlegel, G. E. Scuseria, 
 M. A. Robb, J. R. Cheeseman, G. Scalmani, V. Barone, 
 G. A. Petersson, H. Nakatsuji, X. Li, M. Caricato, A. V. Marenich, 
 J. Bloino, B. G. Janesko, R. Gomperts, B. Mennucci, H. P. Hratchian, 
 J. V. Ortiz, A. F. Izmaylov, J. L. Sonnenberg, D. Williams-Young, 
 F. Ding, F. Lipparini, F. Egidi, J. Goings, B. Peng, A. Petrone, 
 T. Henderson, D. Ranasinghe, V. G. Zakrzewski, J. Gao, N. Rega, 
 G. Zheng, W. Liang, M. Hada, M. Ehara, K. Toyota, R. Fukuda, 
 J. Hasegawa, M. Ishida, T. Nakajima, Y. Honda, O. Kitao, H. Nakai, 
 T. Vreven, K. Throssell, J. A. Montgomery, Jr., J. E. Peralta, 
 F. Ogliaro, M. J. Bearpark, J. J. Heyd, E. N. Brothers, K. N. Kudin, 
 V. N. Staroverov, T. A. Keith, R. Kobayashi, J. Normand, 
 K. Raghavachari, A. P. Rendell, J. C. Burant, S. S. Iyengar, 
 J. Tomasi, M. Cossi, J. M. Millam, M. Klene, C. Adamo, R. Cammi, 
 J. W. Ochterski, R. L. Martin, K. Morokuma, O. Farkas, 
 J. B. Foresman, and D. J. Fox, Gaussian, Inc., Wallingford CT, 2016.
 
 ******************************************
 Gaussian 16:  ES64L-G16RevA.03 25-Dec-2016
                22-Sep-2023 
 ******************************************
 %nprocshared=6
 Will use up to    6 processors via shared memory.
 %mem=6GB
 -----------------
 # M062X/def2TZVPP
 -----------------
 1/38=1,172=1/1;
 2/12=2,17=6,18=5,40=1/2;
 3/5=44,7=202,11=2,25=1,30=1,74=-55/1,2,3;
 4//1;
 5/5=2,38=5/2;
 6/7=2,8=2,9=2,10=2,28=1/1;
 99/5=1,9=1/99;
 -----------------------
 tmpdir/M2_conf_0_35.gjf
 -----------------------
 Symbolic Z-matrix:
 Charge =  0 Multiplicity = 1
 C                     0.        0.        0. 
 H                     1.0893    0.        0. 
 H                    -0.35148   0.       -1.10935 
 H                    -0.36481   0.88419   0.52312 
 H                    -0.36367  -0.88527   0.52167 
 
                          Input orientation:                          
 ---------------------------------------------------------------------
 Center     Atomic      Atomic             Coordinates (Angstroms)
 Number     Number       Type             X           Y           Z
 ---------------------------------------------------------------------
      1          6           0        0.000000    0.000000    0.000000
      2          1           0        1.089300    0.000000    0.000000
      3          1           0       -0.351480    0.000000   -1.109350
      4          1           0       -0.364810    0.884190    0.523120
      5          1           0       -0.363670   -0.885270    0.521670
 ---------------------------------------------------------------------
                    Distance matrix (angstroms):
                    1          2          3          4          5
     1  C    0.000000
     2  H    1.089300   0.000000
     3  H    1.163699   1.818380   0.000000
     4  H    1.090199   1.780416   1.856590   0.000000
     5  H    1.089999   1.779597   1.855823   1.769461   0.000000
 Stoichiometry    CH4
 Framework group  C1[X(CH4)]
 Deg. of freedom     9
 Full point group                 C1      NOp   1
 Largest Abelian subgroup         C1      NOp   1
 Largest concise Abelian subgroup C1      NOp   1
                         Standard orientation:                         
 ---------------------------------------------------------------------
 Center     Atomic      Atomic             Coordinates (Angstroms)
 Number     Number       Type             X           Y           Z
 ---------------------------------------------------------------------
      1          6           0       -0.006406   -0.001238   -0.000004
      2          1           0       -0.057379    1.084395   -0.073324
      3          1           0        1.118171   -0.299984    0.016574
      4          1           0       -0.514738   -0.448843   -0.854276
      5          1           0       -0.507621   -0.328140    0.911049
 ---------------------------------------------------------------------
 Rotational constants (GHZ):         159.6734948         150.0428412         149.6128399
 Standard basis: def2TZVPP (5D, 7F)
 There are    96 symmetry adapted cartesian basis functions of A   symmetry.
 There are    87 symmetry adapted basis functions of A   symmetry.
    87 basis functions,   119 primitive gaussians,    96 cartesian basis functions
     5 alpha electrons        5 beta electrons
       nuclear repulsion energy        13.2232991508 Hartrees.
 NAtoms=    5 NActive=    5 NUniq=    5 SFac= 1.00D+00 NAtFMM=   60 NAOKFM=F Big=F
 Integral buffers will be    131072 words long.
 Raffenetti 2 integral format.
 Two-electron integral symmetry is turned on.
 One-electron integrals computed using PRISM.
   1 Symmetry operations used in ECPInt.
 ECPInt:  NShTT=     630 NPrTT=    1412 LenC2=     631 LenP2D=    1376.
 LDataN:  DoStor=T MaxTD1= 6 Len=  172
 NBasis=    87 RedAO= T EigKep=  5.59D-04  NBF=    87
 NBsUse=    87 1.00D-06 EigRej= -1.00D+00 NBFU=    87
 ExpMin= 9.52D-02 ExpMax= 1.36D+04 ExpMxC= 4.63D+02 IAcc=3 IRadAn=         5 AccDes= 0.00D+00
 Harris functional with IExCor= 1009 and IRadAn=       5 diagonalized for initial guess.
 HarFok:  IExCor= 1009 AccDes= 0.00D+00 IRadAn=         5 IDoV= 1 UseB2=F ITyADJ=14
 ICtDFT=  3500011 ScaDFX=  1.000000  1.000000  1.000000  1.000000
 FoFCou: FMM=F IPFlag=           0 FMFlag=      100000 FMFlg1=           0
         NFxFlg=           0 DoJE=T BraDBF=F KetDBF=T FulRan=T
         wScrn=  0.000000 ICntrl=       500 IOpCl=  0 I1Cent=   200000004 NGrid=           0
         NMat0=    1 NMatS0=      1 NMatT0=    0 NMatD0=    1 NMtDS0=    0 NMtDT0=    0
 Petite list used in FoFCou.
 Keep R1 ints in memory in canonical form, NReq=12860297.
 Requested convergence on RMS density matrix=1.00D-08 within 128 cycles.
 Requested convergence on MAX density matrix=1.00D-06.
 Requested convergence on             energy=1.00D-06.
 No special actions if energy rises.
 Integral accuracy reduced to 1.0D-05 until final iterations.
 Initial convergence to 1.0D-05 achieved.  Increase integral accuracy.
 SCF Done:  E(RM062X) =  -40.4984382798     A.U. after   10 cycles
            NFock= 10  Conv=0.14D-08     -V/T= 2.0087

 **********************************************************************

            Population analysis using the SCF density.

 **********************************************************************

 Orbital symmetries:
       Occupied  (A) (A) (A) (A) (A)
       Virtual   (A) (A) (A) (A) (A) (A) (A) (A) (A) (A) (A) (A)
                 (A) (A) (A) (A) (A) (A) (A) (A) (A) (A) (A) (A)
                 (A) (A) (A) (A) (A) (A) (A) (A) (A) (A) (A) (A)
                 (A) (A) (A) (A) (A) (A) (A) (A) (A) (A) (A) (A)
                 (A) (A) (A) (A) (A) (A) (A) (A) (A) (A) (A) (A)
                 (A) (A) (A) (A) (A) (A) (A) (A) (A) (A) (A) (A)
                 (A) (A) (A) (A) (A) (A) (A) (A) (A) (A)
 The electronic state is 1-A.
 Alpha  occ. eigenvalues --  -10.52435  -0.77992  -0.45850  -0.45509  -0.44291
 Alpha virt. eigenvalues --    0.08459   0.15254   0.16187   0.16284   0.23693
 Alpha virt. eigenvalues --    0.23730   0.24227   0.41597   0.48195   0.50828
 Alpha virt. eigenvalues --    0.51154   0.54295   0.55255   0.55684   0.90405
 Alpha virt. eigenvalues --    0.91058   0.92430   0.97368   0.97741   0.97954
 Alpha virt. eigenvalues --    1.10317   1.12247   1.13149   1.34955   1.40476
 Alpha virt. eigenvalues --    1.41160   1.42136   1.47795   1.47930   1.56623
 Alpha virt. eigenvalues --    1.84448   1.86435   1.93527   2.51903   2.53436
 Alpha virt. eigenvalues --    2.53614   2.65482   2.82585   2.83711   2.84697
 Alpha virt. eigenvalues --    2.85521   2.85709   2.86314   2.91379   2.91424
 Alpha virt. eigenvalues --    3.26932   3.27714   3.29598   3.32992   3.37680
 Alpha virt. eigenvalues --    3.39112   3.44767   3.45769   3.58688   3.75227
 Alpha virt. eigenvalues --    3.76617   3.84133   3.85722   3.86522   3.96015
 Alpha virt. eigenvalues --    3.98775   4.02863   4.10726   4.10791   4.14749
 Alpha virt. eigenvalues --    4.44227   4.47016   4.48007   4.75814   5.00150
 Alpha virt. eigenvalues --    5.03177   5.04593   5.09828   5.13560   5.15803
 Alpha virt. eigenvalues --    5.19585   5.26273   5.27182   5.47080   5.47317
 Alpha virt. eigenvalues --    5.48799  23.73867
          Condensed to atoms (all electrons):
               1          2          3          4          5
     1  C    4.907170   0.399844   0.389417   0.400191   0.400189
     2  H    0.399844   0.535442  -0.023145  -0.020868  -0.020899
     3  H    0.389417  -0.023145   0.565085  -0.020448  -0.020484
     4  H    0.400191  -0.020868  -0.020448   0.534439  -0.022093
     5  H    0.400189  -0.020899  -0.020484  -0.022093   0.534452
 Mulliken charges:
               1
     1  C   -0.496811
     2  H    0.129625
     3  H    0.109574
     4  H    0.128778
     5  H    0.128835
 Sum of Mulliken charges =  -0.00000
 Mulliken charges with hydrogens summed into heavy atoms:
               1
     1  C   -0.000000
 Electronic spatial extent (au):  <R**2>=             36.5398
 Charge=             -0.0000 electrons
 Dipole moment (field-independent basis, Debye):
    X=             -0.0454    Y=              0.0245    Z=             -0.0010  Tot=              0.0516
 Quadrupole moment (field-independent basis, Debye-Ang):
   XX=             -8.4200   YY=             -8.5567   ZZ=             -8.5533
   XY=              0.0533   XZ=             -0.0030   YZ=              0.0010
 Traceless Quadrupole moment (field-independent basis, Debye-Ang):
   XX=              0.0900   YY=             -0.0467   ZZ=             -0.0433
   XY=              0.0533   XZ=             -0.0030   YZ=              0.0010
 Octapole moment (field-independent basis, Debye-Ang**2):
  XXX=              0.5764  YYY=              0.9196  ZZZ=              0.0926  XYY=             -0.1894
  XXY=             -0.3954  XXZ=              0.0198  XZZ=             -0.6960  YZZ=             -0.4040
  YYZ=             -0.1179  XYZ=             -0.0354
 Hexadecapole moment (field-independent basis, Debye-Ang**3):
 XXXX=            -17.2999 YYYY=            -16.2465 ZZZZ=            -16.4138 XXXY=             -0.2540
 XXXZ=              0.0176 YYYX=              0.0985 YYYZ=             -0.0577 ZZZX=             -0.0854
 ZZZY=              0.0403 XXYY=             -6.0027 XXZZ=             -5.7229 YYZZ=             -5.6900
 XXYZ=              0.0232 YYXZ=              0.0527 ZZXY=              0.4233
 N-N= 1.322329915078D+01 E-N=-1.195670310238D+02  KE= 4.014722495592D+01
 1\1\GINC-NODE85\SP\RM062X\def2TZVPP\C1H4\YANZ\22-Sep-2023\0\\# M062X/d
 ef2TZVPP\\tmpdir/M2_conf_0_35.gjf\\0,1\C,0,0.,0.,0.\H,0,1.0893,0.,0.\H
 ,0,-0.35148,0.,-1.10935\H,0,-0.36481,0.88419,0.52312\H,0,-0.36367,-0.8
 8527,0.52167\\Version=ES64L-G16RevA.03\State=1-A\HF=-40.4984383\RMSD=1
 .441e-09\Dipole=0.0104632,-0.0001974,0.0173851\Quadrupole=-0.0383185,-
 0.032066,0.0703845,-0.0006642,-0.0347694,0.000776\PG=C01 [X(C1H4)]\\@


 UNLESS WE CHANGE DIRECTIONS, WE WILL WIND UP WHERE WE ARE HEADED.
     -- CONFUCIUS
 Job cpu time:       0 days  0 hours  0 minutes 30.5 seconds.
 Elapsed time:       0 days  0 hours  0 minutes  5.5 seconds.
 File lengths (MBytes):  RWF=      6 Int=      0 D2E=      0 Chk=      2 Scr=      1
 Normal termination of Gaussian 16 at Fri Sep 22 16:50:06 2023.
