 Entering Gaussian System, Link 0=g16
 Initial command:
 /share/apps/gaussian/g16/l1.exe "/tmp/55604.mgr/Gau-83976.inp" -scrdir="/tmp/55604.mgr/"
 Entering Link 1 = /share/apps/gaussian/g16/l1.exe PID=     83977.
  
 Copyright (c) 1988,1990,1992,1993,1995,1998,2003,2009,2016,
            Gaussian, Inc.  All Rights Reserved.
  
 This is part of the Gaussian(R) 16 program.  It is based on
 the Gaussian(R) 09 system (copyright 2009, Gaussian, Inc.),
 the Gaussian(R) 03 system (copyright 2003, Gaussian, Inc.),
 the Gaussian(R) 98 system (copyright 1998, Gaussian, Inc.),
 the Gaussian(R) 94 system (copyright 1995, Gaussian, Inc.),
 the Gaussian 92(TM) system (copyright 1992, Gaussian, Inc.),
 the Gaussian 90(TM) system (copyright 1990, Gaussian, Inc.),
 the Gaussian 88(TM) system (copyright 1988, Gaussian, Inc.),
 the Gaussian 86(TM) system (copyright 1986, Carnegie Mellon
 University), and the Gaussian 82(TM) system (copyright 1983,
 Carnegie Mellon University). Gaussian is a federally registered
 trademark of Gaussian, Inc.
  
 This software contains proprietary and confidential information,
 including trade secrets, belonging to Gaussian, Inc.
  
 This software is provided under written license and may be
 used, copied, transmitted, or stored only in accord with that
 written license.
  
 The following legend is applicable only to US Government
 contracts under FAR:
  
                    RESTRICTED RIGHTS LEGEND
  
 Use, reproduction and disclosure by the US Government is
 subject to restrictions as set forth in subparagraphs (a)
 and (c) of the Commercial Computer Software - Restricted
 Rights clause in FAR 52.227-19.
  
 Gaussian, Inc.
 340 Quinnipiac St., Bldg. 40, Wallingford CT 06492
  
  
 ---------------------------------------------------------------
 Warning -- This program may not be used in any manner that
 competes with the business of Gaussian, Inc. or will provide
 assistance to any competitor of Gaussian, Inc.  The licensee
 of this program is prohibited from giving any competitor of
 Gaussian, Inc. access to this program.  By using this program,
 the user acknowledges that Gaussian, Inc. is engaged in the
 business of creating and licensing software in the field of
 computational chemistry and represents and warrants to the
 licensee that it is not a competitor of Gaussian, Inc. and that
 it will not use this program in any manner prohibited above.
 ---------------------------------------------------------------
  

 Cite this work as:
 Gaussian 16, Revision A.03,
 M. J. Frisch, G. W. Trucks, H. B. Schlegel, G. E. Scuseria, 
 M. A. Robb, J. R. Cheeseman, G. Scalmani, V. Barone, 
 G. A. Petersson, H. Nakatsuji, X. Li, M. Caricato, A. V. Marenich, 
 J. Bloino, B. G. Janesko, R. Gomperts, B. Mennucci, H. P. Hratchian, 
 J. V. Ortiz, A. F. Izmaylov, J. L. Sonnenberg, D. Williams-Young, 
 F. Ding, F. Lipparini, F. Egidi, J. Goings, B. Peng, A. Petrone, 
 T. Henderson, D. Ranasinghe, V. G. Zakrzewski, J. Gao, N. Rega, 
 G. Zheng, W. Liang, M. Hada, M. Ehara, K. Toyota, R. Fukuda, 
 J. Hasegawa, M. Ishida, T. Nakajima, Y. Honda, O. Kitao, H. Nakai, 
 T. Vreven, K. Throssell, J. A. Montgomery, Jr., J. E. Peralta, 
 F. Ogliaro, M. J. Bearpark, J. J. Heyd, E. N. Brothers, K. N. Kudin, 
 V. N. Staroverov, T. A. Keith, R. Kobayashi, J. Normand, 
 K. Raghavachari, A. P. Rendell, J. C. Burant, S. S. Iyengar, 
 J. Tomasi, M. Cossi, J. M. Millam, M. Klene, C. Adamo, R. Cammi, 
 J. W. Ochterski, R. L. Martin, K. Morokuma, O. Farkas, 
 J. B. Foresman, and D. J. Fox, Gaussian, Inc., Wallingford CT, 2016.
 
 ******************************************
 Gaussian 16:  ES64L-G16RevA.03 25-Dec-2016
                22-Sep-2023 
 ******************************************
 %nprocshared=6
 Will use up to    6 processors via shared memory.
 %mem=6GB
 -----------------
 # M062X/def2TZVPP
 -----------------
 1/38=1,172=1/1;
 2/12=2,17=6,18=5,40=1/2;
 3/5=44,7=202,11=2,25=1,30=1,74=-55/1,2,3;
 4//1;
 5/5=2,38=5/2;
 6/7=2,8=2,9=2,10=2,28=1/1;
 99/5=1,9=1/99;
 -----------------------
 tmpdir/M2_conf_0_21.gjf
 -----------------------
 Symbolic Z-matrix:
 Charge =  0 Multiplicity = 1
 B                     0.        0.        0. 
 O                     1.3642    0.        0. 
 C                     2.04288   0.        1.23911 
 H                    -0.63985   0.03752   0.97224 
 H                    -0.53463   0.00156  -0.99416 
 H                     1.94411  -0.96593   1.73705 
 H                     3.09552   0.18932   1.04281 
 H                     1.66135   0.77884   1.90201 
 
                          Input orientation:                          
 ---------------------------------------------------------------------
 Center     Atomic      Atomic             Coordinates (Angstroms)
 Number     Number       Type             X           Y           Z
 ---------------------------------------------------------------------
      1          5           0        0.000000    0.000000    0.000000
      2          8           0        1.364200    0.000000    0.000000
      3          6           0        2.042880    0.000000    1.239110
      4          1           0       -0.639850    0.037520    0.972240
      5          1           0       -0.534630    0.001560   -0.994160
      6          1           0        1.944110   -0.965930    1.737050
      7          1           0        3.095520    0.189320    1.042810
      8          1           0        1.661350    0.778840    1.902010
 ---------------------------------------------------------------------
                    Distance matrix (angstroms):
                    1          2          3          4          5
     1  B    0.000000
     2  O    1.364200   0.000000
     3  C    2.389300   1.412799   0.000000
     4  H    1.164503   2.227751   2.696232   0.000000
     5  H    1.128798   2.143341   3.410433   1.969541   0.000000
     6  H    2.780275   2.070425   1.091201   2.875534   3.813095
     7  H    3.271932   2.029966   1.087394   3.739119   4.166832
     8  H    2.642786   2.076664   1.091601   2.590280   3.716758
                    6          7          8
     6  H    0.000000
     7  H    1.772658   0.000000
     8  H    1.775215   1.772739   0.000000
 Stoichiometry    CH5BO
 Framework group  C1[X(CH5BO)]
 Deg. of freedom    18
 Full point group                 C1      NOp   1
 Largest Abelian subgroup         C1      NOp   1
 Largest concise Abelian subgroup C1      NOp   1
                         Standard orientation:                         
 ---------------------------------------------------------------------
 Center     Atomic      Atomic             Coordinates (Angstroms)
 Number     Number       Type             X           Y           Z
 ---------------------------------------------------------------------
      1          5           0       -1.279047    0.218431    0.006641
      2          8           0       -0.129097   -0.515426   -0.003851
      3          6           0        1.109626    0.163941    0.001444
      4          1           0       -1.295423    1.382564   -0.017706
      5          1           0       -2.264565   -0.331937    0.000757
      6          1           0        1.296108    0.625885    0.972296
      7          1           0        1.890976   -0.565642   -0.197625
      8          1           0        1.143156    0.936737   -0.768786
 ---------------------------------------------------------------------
 Rotational constants (GHZ):          49.3045053          10.5244560           9.1733241
 Standard basis: def2TZVPP (5D, 7F)
 There are   183 symmetry adapted cartesian basis functions of A   symmetry.
 There are   163 symmetry adapted basis functions of A   symmetry.
   163 basis functions,   238 primitive gaussians,   183 cartesian basis functions
    12 alpha electrons       12 beta electrons
       nuclear repulsion energy        70.5096959257 Hartrees.
 NAtoms=    8 NActive=    8 NUniq=    8 SFac= 1.00D+00 NAtFMM=   60 NAOKFM=F Big=F
 Integral buffers will be    131072 words long.
 Raffenetti 2 integral format.
 Two-electron integral symmetry is turned on.
 One-electron integrals computed using PRISM.
   1 Symmetry operations used in ECPInt.
 ECPInt:  NShTT=    2016 NPrTT=    5131 LenC2=    2015 LenP2D=    4649.
 LDataN:  DoStor=T MaxTD1= 6 Len=  172
 NBasis=   163 RedAO= T EigKep=  3.90D-04  NBF=   163
 NBsUse=   163 1.00D-06 EigRej= -1.00D+00 NBFU=   163
 ExpMin= 6.06D-02 ExpMax= 2.70D+04 ExpMxC= 9.22D+02 IAcc=3 IRadAn=         5 AccDes= 0.00D+00
 Harris functional with IExCor= 1009 and IRadAn=       5 diagonalized for initial guess.
 HarFok:  IExCor= 1009 AccDes= 0.00D+00 IRadAn=         5 IDoV= 1 UseB2=F ITyADJ=14
 ICtDFT=  3500011 ScaDFX=  1.000000  1.000000  1.000000  1.000000
 FoFCou: FMM=F IPFlag=           0 FMFlag=      100000 FMFlg1=           0
         NFxFlg=           0 DoJE=T BraDBF=F KetDBF=T FulRan=T
         wScrn=  0.000000 ICntrl=       500 IOpCl=  0 I1Cent=   200000004 NGrid=           0
         NMat0=    1 NMatS0=      1 NMatT0=    0 NMatD0=    1 NMtDS0=    0 NMtDT0=    0
 Petite list used in FoFCou.
 Keep R1 ints in memory in canonical form, NReq=95387557.
 Requested convergence on RMS density matrix=1.00D-08 within 128 cycles.
 Requested convergence on MAX density matrix=1.00D-06.
 Requested convergence on             energy=1.00D-06.
 No special actions if energy rises.
 Integral accuracy reduced to 1.0D-05 until final iterations.
 Initial convergence to 1.0D-05 achieved.  Increase integral accuracy.
 SCF Done:  E(RM062X) =  -141.195428819     A.U. after   12 cycles
            NFock= 12  Conv=0.76D-08     -V/T= 2.0043

 **********************************************************************

            Population analysis using the SCF density.

 **********************************************************************

 Orbital symmetries:
       Occupied  (A) (A) (A) (A) (A) (A) (A) (A) (A) (A) (A) (A)
       Virtual   (A) (A) (A) (A) (A) (A) (A) (A) (A) (A) (A) (A)
                 (A) (A) (A) (A) (A) (A) (A) (A) (A) (A) (A) (A)
                 (A) (A) (A) (A) (A) (A) (A) (A) (A) (A) (A) (A)
                 (A) (A) (A) (A) (A) (A) (A) (A) (A) (A) (A) (A)
                 (A) (A) (A) (A) (A) (A) (A) (A) (A) (A) (A) (A)
                 (A) (A) (A) (A) (A) (A) (A) (A) (A) (A) (A) (A)
                 (A) (A) (A) (A) (A) (A) (A) (A) (A) (A) (A) (A)
                 (A) (A) (A) (A) (A) (A) (A) (A) (A) (A) (A) (A)
                 (A) (A) (A) (A) (A) (A) (A) (A) (A) (A) (A) (A)
                 (A) (A) (A) (A) (A) (A) (A) (A) (A) (A) (A) (A)
                 (A) (A) (A) (A) (A) (A) (A) (A) (A) (A) (A) (A)
                 (A) (A) (A) (A) (A) (A) (A) (A) (A) (A) (A) (A)
                 (A) (A) (A) (A) (A) (A) (A)
 The electronic state is 1-A.
 Alpha  occ. eigenvalues --  -19.64845 -10.58857  -7.05011  -1.16236  -0.79515
 Alpha  occ. eigenvalues --   -0.61834  -0.54437  -0.53898  -0.50935  -0.42609
 Alpha  occ. eigenvalues --   -0.39177  -0.37440
 Alpha virt. eigenvalues --    0.01170   0.06861   0.09731   0.10563   0.12718
 Alpha virt. eigenvalues --    0.15307   0.16152   0.18322   0.18973   0.20460
 Alpha virt. eigenvalues --    0.23910   0.25564   0.29779   0.36101   0.37257
 Alpha virt. eigenvalues --    0.39924   0.42575   0.45345   0.47255   0.48357
 Alpha virt. eigenvalues --    0.50086   0.54338   0.55382   0.58008   0.61322
 Alpha virt. eigenvalues --    0.62331   0.68451   0.70712   0.74803   0.76342
 Alpha virt. eigenvalues --    0.78494   0.82695   0.86688   0.89885   0.93434
 Alpha virt. eigenvalues --    0.96225   0.97472   0.97974   1.01041   1.04646
 Alpha virt. eigenvalues --    1.08654   1.10231   1.12602   1.16406   1.22827
 Alpha virt. eigenvalues --    1.27150   1.29638   1.33559   1.38474   1.45065
 Alpha virt. eigenvalues --    1.46337   1.47590   1.50683   1.54218   1.59841
 Alpha virt. eigenvalues --    1.65097   1.70166   1.75466   1.82943   1.87086
 Alpha virt. eigenvalues --    1.90987   1.94356   1.99384   2.00846   2.04034
 Alpha virt. eigenvalues --    2.09419   2.13651   2.23449   2.26445   2.27716
 Alpha virt. eigenvalues --    2.30133   2.38393   2.46822   2.49855   2.57743
 Alpha virt. eigenvalues --    2.60192   2.65768   2.71775   2.81361   2.82662
 Alpha virt. eigenvalues --    2.89613   2.90283   2.93802   2.98360   3.02419
 Alpha virt. eigenvalues --    3.04491   3.07570   3.12273   3.21971   3.27593
 Alpha virt. eigenvalues --    3.29263   3.30802   3.34091   3.43388   3.46633
 Alpha virt. eigenvalues --    3.50780   3.55982   3.57688   3.64992   3.67587
 Alpha virt. eigenvalues --    3.71255   3.74737   3.80258   3.83644   3.84462
 Alpha virt. eigenvalues --    3.89262   3.95260   3.97458   4.00778   4.01533
 Alpha virt. eigenvalues --    4.07065   4.10642   4.12876   4.18919   4.22402
 Alpha virt. eigenvalues --    4.23752   4.32992   4.41705   4.45128   4.51256
 Alpha virt. eigenvalues --    4.55423   4.59215   4.70993   4.76243   4.83679
 Alpha virt. eigenvalues --    4.92131   4.94136   4.96362   5.02842   5.05242
 Alpha virt. eigenvalues --    5.16018   5.23266   5.25845   5.31998   5.37793
 Alpha virt. eigenvalues --    5.50047   5.52408   5.56300   5.73155   5.87358
 Alpha virt. eigenvalues --    5.99122   6.25041   6.36025   6.68791   6.72732
 Alpha virt. eigenvalues --    6.89908   7.17784   7.28343  16.03503  23.63906
 Alpha virt. eigenvalues --   43.98921
          Condensed to atoms (all electrons):
               1          2          3          4          5          6
     1  B    3.688696   0.449291  -0.055829   0.427597   0.425561  -0.013400
     2  O    0.449291   7.788087   0.221134  -0.032710  -0.016598  -0.036867
     3  C   -0.055829   0.221134   4.787805  -0.006006   0.004300   0.418853
     4  H    0.427597  -0.032710  -0.006006   0.646439  -0.040927   0.000312
     5  H    0.425561  -0.016598   0.004300  -0.040927   0.605963  -0.000226
     6  H   -0.013400  -0.036867   0.418853   0.000312  -0.000226   0.571767
     7  H    0.007904  -0.035734   0.415228  -0.000100   0.000100  -0.030064
     8  H   -0.017649  -0.040121   0.413851   0.004020  -0.000873  -0.040052
               7          8
     1  B    0.007904  -0.017649
     2  O   -0.035734  -0.040121
     3  C    0.415228   0.413851
     4  H   -0.000100   0.004020
     5  H    0.000100  -0.000873
     6  H   -0.030064  -0.040052
     7  H    0.536239  -0.028347
     8  H   -0.028347   0.589706
 Mulliken charges:
               1
     1  B    0.087829
     2  O   -0.296481
     3  C   -0.199335
     4  H    0.001375
     5  H    0.022700
     6  H    0.129676
     7  H    0.134772
     8  H    0.119464
 Sum of Mulliken charges =  -0.00000
 Mulliken charges with hydrogens summed into heavy atoms:
               1
     1  B    0.111903
     2  O   -0.296481
     3  C    0.184577
 Electronic spatial extent (au):  <R**2>=            175.4407
 Charge=             -0.0000 electrons
 Dipole moment (field-independent basis, Debye):
    X=              1.1894    Y=              0.9300    Z=              0.0375  Tot=              1.5102
 Quadrupole moment (field-independent basis, Debye-Ang):
   XX=            -19.0899   YY=            -21.3893   ZZ=            -18.8247
   XY=             -0.0491   XZ=             -0.0466   YZ=              0.0290
 Traceless Quadrupole moment (field-independent basis, Debye-Ang):
   XX=              0.6781   YY=             -1.6214   ZZ=              0.9433
   XY=             -0.0491   XZ=             -0.0466   YZ=              0.0290
 Octapole moment (field-independent basis, Debye-Ang**2):
  XXX=             10.4585  YYY=             -3.7588  ZZZ=              0.3658  XYY=              3.6752
  XXY=             -1.7395  XXZ=             -0.0795  XZZ=              1.2838  YZZ=             -0.2212
  YYZ=             -0.2766  XYZ=              0.1100
 Hexadecapole moment (field-independent basis, Debye-Ang**3):
 XXXX=           -185.9049 YYYY=            -54.4497 ZZZZ=            -25.5359 XXXY=              0.2710
 XXXZ=             -0.3350 YYYX=              2.6261 YYYZ=             -0.2655 ZZZX=              0.4562
 ZZZY=              0.2030 XXYY=            -38.9775 XXZZ=            -33.1857 YYZZ=            -12.8949
 XXYZ=              0.4785 YYXZ=             -0.3259 ZZXY=              0.9544
 N-N= 7.050969592565D+01 E-N=-4.708009951971D+02  KE= 1.405839212914D+02
 1\1\GINC-NODE85\SP\RM062X\def2TZVPP\C1H5B1O1\YANZ\22-Sep-2023\0\\# M06
 2X/def2TZVPP\\tmpdir/M2_conf_0_21.gjf\\0,1\B,0,0.,0.,0.\O,0,1.3642,0.,
 0.\C,0,2.04288,0.,1.23911\H,0,-0.63985,0.03752,0.97224\H,0,-0.53463,0.
 00156,-0.99416\H,0,1.94411,-0.96593,1.73705\H,0,3.09552,0.18932,1.0428
 1\H,0,1.66135,0.77884,1.90201\\Version=ES64L-G16RevA.03\State=1-A\HF=-
 141.1954288\RMSD=7.635e-09\Dipole=0.1975078,-0.0115074,0.5602651\Quadr
 upole=0.0431557,0.7004336,-0.7435893,0.0523356,0.7594664,-0.0176598\PG
 =C01 [X(C1H5B1O1)]\\@


 I WOULD TAKE COUNSEL OF MYSELF.
 I WOULD STOP AND LOOK WITHIN
 AND LOOKING WITHIN, LOOK BACK, ALSO
 THAT I MAY LOOK AHEAD WITH CLEARER UNDERSTANDING
 OF THE WAY I HAVE BEEN MOVING, AND IN WHAT DIRECTION.
 I NEED TO KNOW IF I AM GOING FORWARD OR RETREATING,
 WHETHER I HAVE BEEN WASTING, OR ENJOYING
 THE PRECIOUS MOMENTS OF LIFE.  THERE HAVE BEEN FRICTIONS,
 ANNOYANCES AND SOMETIMES WRATH,
 BUT WERE THEY BECAUSE I WAS RIGHT AND OTHERS WRONG.....
 HAVE I HAD MY THOUGHTS TOO SHARPLY FOCUSED
 ON THAT WHICH PLEASED ME, SERVED MY SELF-ESTEEM,
 UNDERGIRDED MY SECURITY,
 OF WHICH I DID NOT INQUIRE WHETHER IT SERVED OR HAMPERED OTHERS.....
 HAVE I BEEN TRYING TO STOP THE CLOCK
 TO HOLD THE WORLD
 IN PERPETUATION OF WHAT WAS AN IS ALREADY SLIPPING AWAY.....
 HAVE I BEEN CRITICAL OF OTHERS FOR WHAT REALLY NEEDED CHANGING IN ME...
 LET ME INDEED TAKE COUNSEL OF MYSELF
 AND SET MY DIRECTIONS STRAIGHT.

                          R.T. WESTON AS ADAPTED BY D. OSBORN 1967
 Job cpu time:       0 days  0 hours  1 minutes 39.3 seconds.
 Elapsed time:       0 days  0 hours  0 minutes 18.8 seconds.
 File lengths (MBytes):  RWF=     14 Int=      0 D2E=      0 Chk=      3 Scr=      1
 Normal termination of Gaussian 16 at Fri Sep 22 16:49:54 2023.
