 Entering Gaussian System, Link 0=g16
 Initial command:
 /share/apps/gaussian/g16/l1.exe "/tmp/55604.mgr/Gau-83763.inp" -scrdir="/tmp/55604.mgr/"
 Entering Link 1 = /share/apps/gaussian/g16/l1.exe PID=     83764.
  
 Copyright (c) 1988,1990,1992,1993,1995,1998,2003,2009,2016,
            Gaussian, Inc.  All Rights Reserved.
  
 This is part of the Gaussian(R) 16 program.  It is based on
 the Gaussian(R) 09 system (copyright 2009, Gaussian, Inc.),
 the Gaussian(R) 03 system (copyright 2003, Gaussian, Inc.),
 the Gaussian(R) 98 system (copyright 1998, Gaussian, Inc.),
 the Gaussian(R) 94 system (copyright 1995, Gaussian, Inc.),
 the Gaussian 92(TM) system (copyright 1992, Gaussian, Inc.),
 the Gaussian 90(TM) system (copyright 1990, Gaussian, Inc.),
 the Gaussian 88(TM) system (copyright 1988, Gaussian, Inc.),
 the Gaussian 86(TM) system (copyright 1986, Carnegie Mellon
 University), and the Gaussian 82(TM) system (copyright 1983,
 Carnegie Mellon University). Gaussian is a federally registered
 trademark of Gaussian, Inc.
  
 This software contains proprietary and confidential information,
 including trade secrets, belonging to Gaussian, Inc.
  
 This software is provided under written license and may be
 used, copied, transmitted, or stored only in accord with that
 written license.
  
 The following legend is applicable only to US Government
 contracts under FAR:
  
                    RESTRICTED RIGHTS LEGEND
  
 Use, reproduction and disclosure by the US Government is
 subject to restrictions as set forth in subparagraphs (a)
 and (c) of the Commercial Computer Software - Restricted
 Rights clause in FAR 52.227-19.
  
 Gaussian, Inc.
 340 Quinnipiac St., Bldg. 40, Wallingford CT 06492
  
  
 ---------------------------------------------------------------
 Warning -- This program may not be used in any manner that
 competes with the business of Gaussian, Inc. or will provide
 assistance to any competitor of Gaussian, Inc.  The licensee
 of this program is prohibited from giving any competitor of
 Gaussian, Inc. access to this program.  By using this program,
 the user acknowledges that Gaussian, Inc. is engaged in the
 business of creating and licensing software in the field of
 computational chemistry and represents and warrants to the
 licensee that it is not a competitor of Gaussian, Inc. and that
 it will not use this program in any manner prohibited above.
 ---------------------------------------------------------------
  

 Cite this work as:
 Gaussian 16, Revision A.03,
 M. J. Frisch, G. W. Trucks, H. B. Schlegel, G. E. Scuseria, 
 M. A. Robb, J. R. Cheeseman, G. Scalmani, V. Barone, 
 G. A. Petersson, H. Nakatsuji, X. Li, M. Caricato, A. V. Marenich, 
 J. Bloino, B. G. Janesko, R. Gomperts, B. Mennucci, H. P. Hratchian, 
 J. V. Ortiz, A. F. Izmaylov, J. L. Sonnenberg, D. Williams-Young, 
 F. Ding, F. Lipparini, F. Egidi, J. Goings, B. Peng, A. Petrone, 
 T. Henderson, D. Ranasinghe, V. G. Zakrzewski, J. Gao, N. Rega, 
 G. Zheng, W. Liang, M. Hada, M. Ehara, K. Toyota, R. Fukuda, 
 J. Hasegawa, M. Ishida, T. Nakajima, Y. Honda, O. Kitao, H. Nakai, 
 T. Vreven, K. Throssell, J. A. Montgomery, Jr., J. E. Peralta, 
 F. Ogliaro, M. J. Bearpark, J. J. Heyd, E. N. Brothers, K. N. Kudin, 
 V. N. Staroverov, T. A. Keith, R. Kobayashi, J. Normand, 
 K. Raghavachari, A. P. Rendell, J. C. Burant, S. S. Iyengar, 
 J. Tomasi, M. Cossi, J. M. Millam, M. Klene, C. Adamo, R. Cammi, 
 J. W. Ochterski, R. L. Martin, K. Morokuma, O. Farkas, 
 J. B. Foresman, and D. J. Fox, Gaussian, Inc., Wallingford CT, 2016.
 
 ******************************************
 Gaussian 16:  ES64L-G16RevA.03 25-Dec-2016
                22-Sep-2023 
 ******************************************
 %nprocshared=6
 Will use up to    6 processors via shared memory.
 %mem=6GB
 -----------------
 # M062X/def2TZVPP
 -----------------
 1/38=1,172=1/1;
 2/12=2,17=6,18=5,40=1/2;
 3/5=44,7=202,11=2,25=1,30=1,74=-55/1,2,3;
 4//1;
 5/5=2,38=5/2;
 6/7=2,8=2,9=2,10=2,28=1/1;
 99/5=1,9=1/99;
 -----------------------
 tmpdir/M2_conf_0_19.gjf
 -----------------------
 Symbolic Z-matrix:
 Charge =  0 Multiplicity = 1
 H                     0.        0.        0. 
 C                     1.1031    0.        0. 
 H                     1.47355   0.        1.03065 
 H                     1.56393  -0.9118   -0.5203 
 H                     1.4147    0.93388  -0.4575 
 
                          Input orientation:                          
 ---------------------------------------------------------------------
 Center     Atomic      Atomic             Coordinates (Angstroms)
 Number     Number       Type             X           Y           Z
 ---------------------------------------------------------------------
      1          1           0        0.000000    0.000000    0.000000
      2          6           0        1.103100    0.000000    0.000000
      3          1           0        1.473550    0.000000    1.030650
      4          1           0        1.563930   -0.911800   -0.520300
      5          1           0        1.414700    0.933880   -0.457500
 ---------------------------------------------------------------------
                    Distance matrix (angstroms):
                    1          2          3          4          5
     1  H    0.000000
     2  C    1.103100   0.000000
     3  H    1.798218   1.095204   0.000000
     4  H    1.883605   1.146497   1.801387   0.000000
     5  H    1.755794   1.085602   1.757892   1.852768   0.000000
 Stoichiometry    CH4
 Framework group  C1[X(CH4)]
 Deg. of freedom     9
 Full point group                 C1      NOp   1
 Largest Abelian subgroup         C1      NOp   1
 Largest concise Abelian subgroup C1      NOp   1
                         Standard orientation:                         
 ---------------------------------------------------------------------
 Center     Atomic      Atomic             Coordinates (Angstroms)
 Number     Number       Type             X           Y           Z
 ---------------------------------------------------------------------
      1          1           0        0.699233   -0.734561   -0.444013
      2          6           0        0.000145   -0.006809    0.001500
      3          1           0       -0.099484    0.862348   -0.657373
      4          1           0       -1.055235   -0.423184    0.166605
      5          1           0        0.454618    0.336251    0.925782
 ---------------------------------------------------------------------
 Rotational constants (GHZ):         162.2851884         150.4443236         147.7106785
 Standard basis: def2TZVPP (5D, 7F)
 There are    96 symmetry adapted cartesian basis functions of A   symmetry.
 There are    87 symmetry adapted basis functions of A   symmetry.
    87 basis functions,   119 primitive gaussians,    96 cartesian basis functions
     5 alpha electrons        5 beta electrons
       nuclear repulsion energy        13.2284423179 Hartrees.
 NAtoms=    5 NActive=    5 NUniq=    5 SFac= 1.00D+00 NAtFMM=   60 NAOKFM=F Big=F
 Integral buffers will be    131072 words long.
 Raffenetti 2 integral format.
 Two-electron integral symmetry is turned on.
 One-electron integrals computed using PRISM.
   1 Symmetry operations used in ECPInt.
 ECPInt:  NShTT=     630 NPrTT=    1412 LenC2=     631 LenP2D=    1378.
 LDataN:  DoStor=T MaxTD1= 6 Len=  172
 NBasis=    87 RedAO= T EigKep=  5.57D-04  NBF=    87
 NBsUse=    87 1.00D-06 EigRej= -1.00D+00 NBFU=    87
 ExpMin= 9.52D-02 ExpMax= 1.36D+04 ExpMxC= 4.63D+02 IAcc=3 IRadAn=         5 AccDes= 0.00D+00
 Harris functional with IExCor= 1009 and IRadAn=       5 diagonalized for initial guess.
 HarFok:  IExCor= 1009 AccDes= 0.00D+00 IRadAn=         5 IDoV= 1 UseB2=F ITyADJ=14
 ICtDFT=  3500011 ScaDFX=  1.000000  1.000000  1.000000  1.000000
 FoFCou: FMM=F IPFlag=           0 FMFlag=      100000 FMFlg1=           0
         NFxFlg=           0 DoJE=T BraDBF=F KetDBF=T FulRan=T
         wScrn=  0.000000 ICntrl=       500 IOpCl=  0 I1Cent=   200000004 NGrid=           0
         NMat0=    1 NMatS0=      1 NMatT0=    0 NMatD0=    1 NMtDS0=    0 NMtDT0=    0
 Petite list used in FoFCou.
 Keep R1 ints in memory in canonical form, NReq=12860297.
 Requested convergence on RMS density matrix=1.00D-08 within 128 cycles.
 Requested convergence on MAX density matrix=1.00D-06.
 Requested convergence on             energy=1.00D-06.
 No special actions if energy rises.
 Integral accuracy reduced to 1.0D-05 until final iterations.
 Initial convergence to 1.0D-05 achieved.  Increase integral accuracy.
 SCF Done:  E(RM062X) =  -40.4987000099     A.U. after   10 cycles
            NFock= 10  Conv=0.16D-08     -V/T= 2.0088

 **********************************************************************

            Population analysis using the SCF density.

 **********************************************************************

 Orbital symmetries:
       Occupied  (A) (A) (A) (A) (A)
       Virtual   (A) (A) (A) (A) (A) (A) (A) (A) (A) (A) (A) (A)
                 (A) (A) (A) (A) (A) (A) (A) (A) (A) (A) (A) (A)
                 (A) (A) (A) (A) (A) (A) (A) (A) (A) (A) (A) (A)
                 (A) (A) (A) (A) (A) (A) (A) (A) (A) (A) (A) (A)
                 (A) (A) (A) (A) (A) (A) (A) (A) (A) (A) (A) (A)
                 (A) (A) (A) (A) (A) (A) (A) (A) (A) (A) (A) (A)
                 (A) (A) (A) (A) (A) (A) (A) (A) (A) (A)
 The electronic state is 1-A.
 Alpha  occ. eigenvalues --  -10.52411  -0.78007  -0.46057  -0.45096  -0.44480
 Alpha virt. eigenvalues --    0.08469   0.15428   0.16029   0.16268   0.23693
 Alpha virt. eigenvalues --    0.23798   0.24193   0.41457   0.48708   0.50327
 Alpha virt. eigenvalues --    0.51074   0.53850   0.55497   0.56240   0.89796
 Alpha virt. eigenvalues --    0.91130   0.92660   0.97117   0.97974   0.98456
 Alpha virt. eigenvalues --    1.09097   1.12588   1.14299   1.34907   1.40340
 Alpha virt. eigenvalues --    1.41682   1.42478   1.46560   1.48028   1.56323
 Alpha virt. eigenvalues --    1.83740   1.86977   1.94933   2.50694   2.53040
 Alpha virt. eigenvalues --    2.54600   2.64732   2.81774   2.83168   2.84588
 Alpha virt. eigenvalues --    2.85279   2.86849   2.88225   2.90598   2.91534
 Alpha virt. eigenvalues --    3.26240   3.27910   3.30815   3.32696   3.38014
 Alpha virt. eigenvalues --    3.39925   3.44078   3.46445   3.57748   3.74557
 Alpha virt. eigenvalues --    3.76925   3.83178   3.85134   3.86249   3.94798
 Alpha virt. eigenvalues --    3.99807   4.04571   4.09156   4.10646   4.15608
 Alpha virt. eigenvalues --    4.43823   4.46760   4.49710   4.75370   5.00658
 Alpha virt. eigenvalues --    5.02019   5.05214   5.06839   5.15028   5.16175
 Alpha virt. eigenvalues --    5.20286   5.26801   5.29191   5.44733   5.47466
 Alpha virt. eigenvalues --    5.49685  23.74037
          Condensed to atoms (all electrons):
               1          2          3          4          5
     1  H    0.540723   0.398608  -0.021002  -0.018629  -0.023808
     2  C    0.398608   4.904052   0.398255   0.393054   0.400147
     3  H   -0.021002   0.398255   0.541961  -0.024003  -0.022062
     4  H   -0.018629   0.393054  -0.024003   0.554990  -0.019492
     5  H   -0.023808   0.400147  -0.022062  -0.019492   0.536137
 Mulliken charges:
               1
     1  H    0.124109
     2  C   -0.494116
     3  H    0.126850
     4  H    0.114080
     5  H    0.129077
 Sum of Mulliken charges =  -0.00000
 Mulliken charges with hydrogens summed into heavy atoms:
               1
     2  C   -0.000000
 Electronic spatial extent (au):  <R**2>=             36.5076
 Charge=              0.0000 electrons
 Dipole moment (field-independent basis, Debye):
    X=              0.0374    Y=              0.0470    Z=             -0.0020  Tot=              0.0601
 Quadrupole moment (field-independent basis, Debye-Ang):
   XX=             -8.2919   YY=             -8.5869   ZZ=             -8.6472
   XY=             -0.0337   XZ=              0.0285   YZ=              0.0141
 Traceless Quadrupole moment (field-independent basis, Debye-Ang):
   XX=              0.2168   YY=             -0.0782   ZZ=             -0.1386
   XY=             -0.0337   XZ=              0.0285   YZ=              0.0141
 Octapole moment (field-independent basis, Debye-Ang**2):
  XXX=             -0.3942  YYY=              0.3150  ZZZ=              0.3051  XYY=              0.1992
  XXY=             -0.5289  XXZ=              0.1149  XZZ=              0.4049  YZZ=              0.4076
  YYZ=             -0.4174  XYZ=              0.3741
 Hexadecapole moment (field-independent basis, Debye-Ang**3):
 XXXX=            -17.3114 YYYY=            -17.1008 ZZZZ=            -16.6854 XXXY=              0.2520
 XXXZ=             -0.2458 YYYX=             -0.3951 YYYZ=             -0.2450 ZZZX=              0.4752
 ZZZY=              0.1338 XXYY=             -5.6303 XXZZ=             -5.8012 YYZZ=             -5.3594
 XXYZ=              0.1879 YYXZ=             -0.0950 ZZXY=             -0.0243
 N-N= 1.322844231795D+01 E-N=-1.195781975716D+02  KE= 4.014726070499D+01
 1\1\GINC-NODE85\SP\RM062X\def2TZVPP\C1H4\YANZ\22-Sep-2023\0\\# M062X/d
 ef2TZVPP\\tmpdir/M2_conf_0_19.gjf\\0,1\H,0,0.,0.,0.\C,0,1.1031,0.,0.\H
 ,0,1.47355,0.,1.03065\H,0,1.56393,-0.9118,-0.5203\H,0,1.4147,0.93388,-
 0.4575\\Version=ES64L-G16RevA.03\State=1-A\HF=-40.4987\RMSD=1.589e-09\
 Dipole=0.0025386,0.0190683,0.0137691\Quadrupole=0.0382778,0.0619855,-0
 .1002633,-0.1146982,0.0122423,0.0134459\PG=C01 [X(C1H4)]\\@


 WHAT, THEN, IS TIME?  IF NO ONE ASKS ME, I KNOW WHAT IT IS.
 IF I WISH TO EXPLAIN WHAT IT IS TO HIM WHO ASKS ME, I DO NOT KNOW.
                                   -- ST. AUGUSTINE (FIFTH CENTURY)
 Job cpu time:       0 days  0 hours  0 minutes 21.4 seconds.
 Elapsed time:       0 days  0 hours  0 minutes  3.8 seconds.
 File lengths (MBytes):  RWF=      6 Int=      0 D2E=      0 Chk=      2 Scr=      1
 Normal termination of Gaussian 16 at Fri Sep 22 16:49:28 2023.
