 Entering Gaussian System, Link 0=g16
 Initial command:
 /share/apps/gaussian/g16/l1.exe "/tmp/55604.mgr/Gau-84622.inp" -scrdir="/tmp/55604.mgr/"
 Entering Link 1 = /share/apps/gaussian/g16/l1.exe PID=     84623.
  
 Copyright (c) 1988,1990,1992,1993,1995,1998,2003,2009,2016,
            Gaussian, Inc.  All Rights Reserved.
  
 This is part of the Gaussian(R) 16 program.  It is based on
 the Gaussian(R) 09 system (copyright 2009, Gaussian, Inc.),
 the Gaussian(R) 03 system (copyright 2003, Gaussian, Inc.),
 the Gaussian(R) 98 system (copyright 1998, Gaussian, Inc.),
 the Gaussian(R) 94 system (copyright 1995, Gaussian, Inc.),
 the Gaussian 92(TM) system (copyright 1992, Gaussian, Inc.),
 the Gaussian 90(TM) system (copyright 1990, Gaussian, Inc.),
 the Gaussian 88(TM) system (copyright 1988, Gaussian, Inc.),
 the Gaussian 86(TM) system (copyright 1986, Carnegie Mellon
 University), and the Gaussian 82(TM) system (copyright 1983,
 Carnegie Mellon University). Gaussian is a federally registered
 trademark of Gaussian, Inc.
  
 This software contains proprietary and confidential information,
 including trade secrets, belonging to Gaussian, Inc.
  
 This software is provided under written license and may be
 used, copied, transmitted, or stored only in accord with that
 written license.
  
 The following legend is applicable only to US Government
 contracts under FAR:
  
                    RESTRICTED RIGHTS LEGEND
  
 Use, reproduction and disclosure by the US Government is
 subject to restrictions as set forth in subparagraphs (a)
 and (c) of the Commercial Computer Software - Restricted
 Rights clause in FAR 52.227-19.
  
 Gaussian, Inc.
 340 Quinnipiac St., Bldg. 40, Wallingford CT 06492
  
  
 ---------------------------------------------------------------
 Warning -- This program may not be used in any manner that
 competes with the business of Gaussian, Inc. or will provide
 assistance to any competitor of Gaussian, Inc.  The licensee
 of this program is prohibited from giving any competitor of
 Gaussian, Inc. access to this program.  By using this program,
 the user acknowledges that Gaussian, Inc. is engaged in the
 business of creating and licensing software in the field of
 computational chemistry and represents and warrants to the
 licensee that it is not a competitor of Gaussian, Inc. and that
 it will not use this program in any manner prohibited above.
 ---------------------------------------------------------------
  

 Cite this work as:
 Gaussian 16, Revision A.03,
 M. J. Frisch, G. W. Trucks, H. B. Schlegel, G. E. Scuseria, 
 M. A. Robb, J. R. Cheeseman, G. Scalmani, V. Barone, 
 G. A. Petersson, H. Nakatsuji, X. Li, M. Caricato, A. V. Marenich, 
 J. Bloino, B. G. Janesko, R. Gomperts, B. Mennucci, H. P. Hratchian, 
 J. V. Ortiz, A. F. Izmaylov, J. L. Sonnenberg, D. Williams-Young, 
 F. Ding, F. Lipparini, F. Egidi, J. Goings, B. Peng, A. Petrone, 
 T. Henderson, D. Ranasinghe, V. G. Zakrzewski, J. Gao, N. Rega, 
 G. Zheng, W. Liang, M. Hada, M. Ehara, K. Toyota, R. Fukuda, 
 J. Hasegawa, M. Ishida, T. Nakajima, Y. Honda, O. Kitao, H. Nakai, 
 T. Vreven, K. Throssell, J. A. Montgomery, Jr., J. E. Peralta, 
 F. Ogliaro, M. J. Bearpark, J. J. Heyd, E. N. Brothers, K. N. Kudin, 
 V. N. Staroverov, T. A. Keith, R. Kobayashi, J. Normand, 
 K. Raghavachari, A. P. Rendell, J. C. Burant, S. S. Iyengar, 
 J. Tomasi, M. Cossi, J. M. Millam, M. Klene, C. Adamo, R. Cammi, 
 J. W. Ochterski, R. L. Martin, K. Morokuma, O. Farkas, 
 J. B. Foresman, and D. J. Fox, Gaussian, Inc., Wallingford CT, 2016.
 
 ******************************************
 Gaussian 16:  ES64L-G16RevA.03 25-Dec-2016
                22-Sep-2023 
 ******************************************
 %nprocshared=6
 Will use up to    6 processors via shared memory.
 %mem=6GB
 -----------------
 # M062X/def2TZVPP
 -----------------
 1/38=1,172=1/1;
 2/12=2,17=6,18=5,40=1/2;
 3/5=44,7=202,11=2,25=1,30=1,74=-55/1,2,3;
 4//1;
 5/5=2,38=5/2;
 6/7=2,8=2,9=2,10=2,28=1/1;
 99/5=1,9=1/99;
 -----------------------
 tmpdir/M2_conf_0_32.gjf
 -----------------------
 Symbolic Z-matrix:
 Charge =  0 Multiplicity = 1
 H                     0.        0.        0. 
 C                     1.0874    0.        0. 
 H                     1.42889   0.        1.03681 
 H                     1.44316  -0.9462   -0.56898 
 H                     1.44104   0.90678  -0.49337 
 
                          Input orientation:                          
 ---------------------------------------------------------------------
 Center     Atomic      Atomic             Coordinates (Angstroms)
 Number     Number       Type             X           Y           Z
 ---------------------------------------------------------------------
      1          1           0        0.000000    0.000000    0.000000
      2          6           0        1.087400    0.000000    0.000000
      3          1           0        1.428890    0.000000    1.036810
      4          1           0        1.443160   -0.946200   -0.568980
      5          1           0        1.441040    0.906780   -0.493370
 ---------------------------------------------------------------------
                    Distance matrix (angstroms):
                    1          2          3          4          5
     1  H    0.000000
     2  C    1.087400   0.000000
     3  H    1.765418   1.091600   0.000000
     4  H    1.817070   1.159999   1.863883   0.000000
     5  H    1.772642   1.091204   1.778721   1.854523   0.000000
 Stoichiometry    CH4
 Framework group  C1[X(CH4)]
 Deg. of freedom     9
 Full point group                 C1      NOp   1
 Largest Abelian subgroup         C1      NOp   1
 Largest concise Abelian subgroup C1      NOp   1
                         Standard orientation:                         
 ---------------------------------------------------------------------
 Center     Atomic      Atomic             Coordinates (Angstroms)
 Number     Number       Type             X           Y           Z
 ---------------------------------------------------------------------
      1          1           0        0.126930   -0.285154    1.037839
      2          6           0        0.004254    0.001192   -0.003984
      3          1           0        0.542931   -0.719595   -0.621952
      4          1           0       -1.131371    0.005156   -0.240497
      5          1           0        0.435984    0.992442   -0.151486
 ---------------------------------------------------------------------
 Rotational constants (GHZ):         160.2611703         150.7674288         149.0095420
 Standard basis: def2TZVPP (5D, 7F)
 There are    96 symmetry adapted cartesian basis functions of A   symmetry.
 There are    87 symmetry adapted basis functions of A   symmetry.
    87 basis functions,   119 primitive gaussians,    96 cartesian basis functions
     5 alpha electrons        5 beta electrons
       nuclear repulsion energy        13.2315703840 Hartrees.
 NAtoms=    5 NActive=    5 NUniq=    5 SFac= 1.00D+00 NAtFMM=   60 NAOKFM=F Big=F
 Integral buffers will be    131072 words long.
 Raffenetti 2 integral format.
 Two-electron integral symmetry is turned on.
 One-electron integrals computed using PRISM.
   1 Symmetry operations used in ECPInt.
 ECPInt:  NShTT=     630 NPrTT=    1412 LenC2=     631 LenP2D=    1376.
 LDataN:  DoStor=T MaxTD1= 6 Len=  172
 NBasis=    87 RedAO= T EigKep=  5.56D-04  NBF=    87
 NBsUse=    87 1.00D-06 EigRej= -1.00D+00 NBFU=    87
 ExpMin= 9.52D-02 ExpMax= 1.36D+04 ExpMxC= 4.63D+02 IAcc=3 IRadAn=         5 AccDes= 0.00D+00
 Harris functional with IExCor= 1009 and IRadAn=       5 diagonalized for initial guess.
 HarFok:  IExCor= 1009 AccDes= 0.00D+00 IRadAn=         5 IDoV= 1 UseB2=F ITyADJ=14
 ICtDFT=  3500011 ScaDFX=  1.000000  1.000000  1.000000  1.000000
 FoFCou: FMM=F IPFlag=           0 FMFlag=      100000 FMFlg1=           0
         NFxFlg=           0 DoJE=T BraDBF=F KetDBF=T FulRan=T
         wScrn=  0.000000 ICntrl=       500 IOpCl=  0 I1Cent=   200000004 NGrid=           0
         NMat0=    1 NMatS0=      1 NMatT0=    0 NMatD0=    1 NMtDS0=    0 NMtDT0=    0
 Petite list used in FoFCou.
 Keep R1 ints in memory in canonical form, NReq=12860297.
 Requested convergence on RMS density matrix=1.00D-08 within 128 cycles.
 Requested convergence on MAX density matrix=1.00D-06.
 Requested convergence on             energy=1.00D-06.
 No special actions if energy rises.
 Integral accuracy reduced to 1.0D-05 until final iterations.
 Initial convergence to 1.0D-05 achieved.  Increase integral accuracy.
 SCF Done:  E(RM062X) =  -40.4986027013     A.U. after   10 cycles
            NFock= 10  Conv=0.18D-08     -V/T= 2.0087

 **********************************************************************

            Population analysis using the SCF density.

 **********************************************************************

 Orbital symmetries:
       Occupied  (A) (A) (A) (A) (A)
       Virtual   (A) (A) (A) (A) (A) (A) (A) (A) (A) (A) (A) (A)
                 (A) (A) (A) (A) (A) (A) (A) (A) (A) (A) (A) (A)
                 (A) (A) (A) (A) (A) (A) (A) (A) (A) (A) (A) (A)
                 (A) (A) (A) (A) (A) (A) (A) (A) (A) (A) (A) (A)
                 (A) (A) (A) (A) (A) (A) (A) (A) (A) (A) (A) (A)
                 (A) (A) (A) (A) (A) (A) (A) (A) (A) (A) (A) (A)
                 (A) (A) (A) (A) (A) (A) (A) (A) (A) (A)
 The electronic state is 1-A.
 Alpha  occ. eigenvalues --  -10.52403  -0.78018  -0.45642  -0.45570  -0.44464
 Alpha virt. eigenvalues --    0.08465   0.15309   0.16180   0.16280   0.23707
 Alpha virt. eigenvalues --    0.23717   0.24215   0.41642   0.48349   0.50843
 Alpha virt. eigenvalues --    0.51013   0.54548   0.55089   0.55715   0.90252
 Alpha virt. eigenvalues --    0.91115   0.92606   0.97222   0.97702   0.98211
 Alpha virt. eigenvalues --    1.10253   1.12176   1.13400   1.35040   1.40738
 Alpha virt. eigenvalues --    1.41129   1.41940   1.47606   1.48160   1.56616
 Alpha virt. eigenvalues --    1.85142   1.86692   1.92849   2.52127   2.52963
 Alpha virt. eigenvalues --    2.53772   2.65355   2.82613   2.83787   2.84791
 Alpha virt. eigenvalues --    2.85600   2.85698   2.86487   2.91204   2.91293
 Alpha virt. eigenvalues --    3.26432   3.27970   3.30094   3.33391   3.37870
 Alpha virt. eigenvalues --    3.38973   3.45093   3.45536   3.58584   3.75317
 Alpha virt. eigenvalues --    3.76321   3.84508   3.85633   3.86326   3.95638
 Alpha virt. eigenvalues --    3.99116   4.03641   4.10449   4.11217   4.15044
 Alpha virt. eigenvalues --    4.44046   4.46852   4.48845   4.75737   4.99851
 Alpha virt. eigenvalues --    5.04231   5.06415   5.07065   5.14583   5.15480
 Alpha virt. eigenvalues --    5.19660   5.27307   5.27862   5.46529   5.47223
 Alpha virt. eigenvalues --    5.49327  23.74282
          Condensed to atoms (all electrons):
               1          2          3          4          5
     1  H    0.536449   0.399487  -0.021784  -0.022829  -0.021159
     2  C    0.399487   4.906707   0.399999   0.390381   0.400169
     3  H   -0.021784   0.399999   0.535376  -0.019869  -0.021727
     4  H   -0.022829   0.390381  -0.019869   0.562350  -0.020629
     5  H   -0.021159   0.400169  -0.021727  -0.020629   0.535036
 Mulliken charges:
               1
     1  H    0.129835
     2  C   -0.496744
     3  H    0.128006
     4  H    0.110595
     5  H    0.128309
 Sum of Mulliken charges =  -0.00000
 Mulliken charges with hydrogens summed into heavy atoms:
               1
     2  C   -0.000000
 Electronic spatial extent (au):  <R**2>=             36.5095
 Charge=             -0.0000 electrons
 Dipole moment (field-independent basis, Debye):
    X=              0.0475    Y=             -0.0050    Z=              0.0315  Tot=              0.0572
 Quadrupole moment (field-independent basis, Debye-Ang):
   XX=             -8.4017   YY=             -8.5254   ZZ=             -8.5958
   XY=              0.0012   XZ=             -0.0392   YZ=              0.0001
 Traceless Quadrupole moment (field-independent basis, Debye-Ang):
   XX=              0.1059   YY=             -0.0178   ZZ=             -0.0882
   XY=              0.0012   XZ=             -0.0392   YZ=              0.0001
 Octapole moment (field-independent basis, Debye-Ang**2):
  XXX=             -0.6498  YYY=              0.4181  ZZZ=              0.7193  XYY=              0.6419
  XXY=             -0.0227  XXZ=             -0.3393  XZZ=              0.3092  YZZ=             -0.4101
  YYZ=             -0.2478  XYZ=              0.1086
 Hexadecapole moment (field-independent basis, Debye-Ang**3):
 XXXX=            -17.1920 YYYY=            -16.4418 ZZZZ=            -16.3013 XXXY=             -0.0481
 XXXZ=              0.1914 YYYX=              0.2744 YYYZ=              0.0722 ZZZX=             -0.0739
 ZZZY=             -0.1880 XXYY=             -5.8088 XXZZ=             -5.9661 YYZZ=             -5.6003
 XXYZ=              0.1203 YYXZ=             -0.3161 ZZXY=             -0.2197
 N-N= 1.323157038397D+01 E-N=-1.195861664033D+02  KE= 4.015028252309D+01
 1\1\GINC-NODE85\SP\RM062X\def2TZVPP\C1H4\YANZ\22-Sep-2023\0\\# M062X/d
 ef2TZVPP\\tmpdir/M2_conf_0_32.gjf\\0,1\H,0,0.,0.,0.\C,0,1.0874,0.,0.\H
 ,0,1.42889,0.,1.03681\H,0,1.44316,-0.9462,-0.56898\H,0,1.44104,0.90678
 ,-0.49337\\Version=ES64L-G16RevA.03\State=1-A\HF=-40.4986027\RMSD=1.79
 9e-09\Dipole=-0.0144794,0.0150058,0.0084615\Quadrupole=-0.0664881,0.04
 69442,0.0195439,0.017636,-0.0049542,0.0484522\PG=C01 [X(C1H4)]\\@


 There ain't no surer way to find out whether you
 like people or hate them than to travel with them.
                                     -- Mark Twain
 Job cpu time:       0 days  0 hours  0 minutes 22.6 seconds.
 Elapsed time:       0 days  0 hours  0 minutes  4.0 seconds.
 File lengths (MBytes):  RWF=      6 Int=      0 D2E=      0 Chk=      2 Scr=      1
 Normal termination of Gaussian 16 at Fri Sep 22 16:50:03 2023.
