 Entering Gaussian System, Link 0=g16
 Initial command:
 /share/apps/gaussian/g16/l1.exe "/tmp/55604.mgr/Gau-83598.inp" -scrdir="/tmp/55604.mgr/"
 Entering Link 1 = /share/apps/gaussian/g16/l1.exe PID=     83599.
  
 Copyright (c) 1988,1990,1992,1993,1995,1998,2003,2009,2016,
            Gaussian, Inc.  All Rights Reserved.
  
 This is part of the Gaussian(R) 16 program.  It is based on
 the Gaussian(R) 09 system (copyright 2009, Gaussian, Inc.),
 the Gaussian(R) 03 system (copyright 2003, Gaussian, Inc.),
 the Gaussian(R) 98 system (copyright 1998, Gaussian, Inc.),
 the Gaussian(R) 94 system (copyright 1995, Gaussian, Inc.),
 the Gaussian 92(TM) system (copyright 1992, Gaussian, Inc.),
 the Gaussian 90(TM) system (copyright 1990, Gaussian, Inc.),
 the Gaussian 88(TM) system (copyright 1988, Gaussian, Inc.),
 the Gaussian 86(TM) system (copyright 1986, Carnegie Mellon
 University), and the Gaussian 82(TM) system (copyright 1983,
 Carnegie Mellon University). Gaussian is a federally registered
 trademark of Gaussian, Inc.
  
 This software contains proprietary and confidential information,
 including trade secrets, belonging to Gaussian, Inc.
  
 This software is provided under written license and may be
 used, copied, transmitted, or stored only in accord with that
 written license.
  
 The following legend is applicable only to US Government
 contracts under FAR:
  
                    RESTRICTED RIGHTS LEGEND
  
 Use, reproduction and disclosure by the US Government is
 subject to restrictions as set forth in subparagraphs (a)
 and (c) of the Commercial Computer Software - Restricted
 Rights clause in FAR 52.227-19.
  
 Gaussian, Inc.
 340 Quinnipiac St., Bldg. 40, Wallingford CT 06492
  
  
 ---------------------------------------------------------------
 Warning -- This program may not be used in any manner that
 competes with the business of Gaussian, Inc. or will provide
 assistance to any competitor of Gaussian, Inc.  The licensee
 of this program is prohibited from giving any competitor of
 Gaussian, Inc. access to this program.  By using this program,
 the user acknowledges that Gaussian, Inc. is engaged in the
 business of creating and licensing software in the field of
 computational chemistry and represents and warrants to the
 licensee that it is not a competitor of Gaussian, Inc. and that
 it will not use this program in any manner prohibited above.
 ---------------------------------------------------------------
  

 Cite this work as:
 Gaussian 16, Revision A.03,
 M. J. Frisch, G. W. Trucks, H. B. Schlegel, G. E. Scuseria, 
 M. A. Robb, J. R. Cheeseman, G. Scalmani, V. Barone, 
 G. A. Petersson, H. Nakatsuji, X. Li, M. Caricato, A. V. Marenich, 
 J. Bloino, B. G. Janesko, R. Gomperts, B. Mennucci, H. P. Hratchian, 
 J. V. Ortiz, A. F. Izmaylov, J. L. Sonnenberg, D. Williams-Young, 
 F. Ding, F. Lipparini, F. Egidi, J. Goings, B. Peng, A. Petrone, 
 T. Henderson, D. Ranasinghe, V. G. Zakrzewski, J. Gao, N. Rega, 
 G. Zheng, W. Liang, M. Hada, M. Ehara, K. Toyota, R. Fukuda, 
 J. Hasegawa, M. Ishida, T. Nakajima, Y. Honda, O. Kitao, H. Nakai, 
 T. Vreven, K. Throssell, J. A. Montgomery, Jr., J. E. Peralta, 
 F. Ogliaro, M. J. Bearpark, J. J. Heyd, E. N. Brothers, K. N. Kudin, 
 V. N. Staroverov, T. A. Keith, R. Kobayashi, J. Normand, 
 K. Raghavachari, A. P. Rendell, J. C. Burant, S. S. Iyengar, 
 J. Tomasi, M. Cossi, J. M. Millam, M. Klene, C. Adamo, R. Cammi, 
 J. W. Ochterski, R. L. Martin, K. Morokuma, O. Farkas, 
 J. B. Foresman, and D. J. Fox, Gaussian, Inc., Wallingford CT, 2016.
 
 ******************************************
 Gaussian 16:  ES64L-G16RevA.03 25-Dec-2016
                22-Sep-2023 
 ******************************************
 %nprocshared=6
 Will use up to    6 processors via shared memory.
 %mem=6GB
 -----------------
 # M062X/def2TZVPP
 -----------------
 1/38=1,172=1/1;
 2/12=2,17=6,18=5,40=1/2;
 3/5=44,7=202,11=2,25=1,30=1,74=-55/1,2,3;
 4//1;
 5/5=2,38=5/2;
 6/7=2,8=2,9=2,10=2,28=1/1;
 99/5=1,9=1/99;
 -----------------------
 tmpdir/M2_conf_0_18.gjf
 -----------------------
 Symbolic Z-matrix:
 Charge =  0 Multiplicity = 1
 B                     0.        0.        0. 
 C                     1.5786    0.        0. 
 H                     2.02231   0.        1.00129 
 H                    -0.62303  -0.66651   0.67329 
 H                    -0.53619   0.66993  -0.73341 
 H                     2.01142   0.90279  -0.55866 
 H                     1.89522  -0.97174  -0.41509 
 
                          Input orientation:                          
 ---------------------------------------------------------------------
 Center     Atomic      Atomic             Coordinates (Angstroms)
 Number     Number       Type             X           Y           Z
 ---------------------------------------------------------------------
      1          5           0        0.000000    0.000000    0.000000
      2          6           0        1.578600    0.000000    0.000000
      3          1           0        2.022310    0.000000    1.001290
      4          1           0       -0.623030   -0.666510    0.673290
      5          1           0       -0.536190    0.669930   -0.733410
      6          1           0        2.011420    0.902790   -0.558660
      7          1           0        1.895220   -0.971740   -0.415090
 ---------------------------------------------------------------------
                    Distance matrix (angstroms):
                    1          2          3          4          5
     1  B    0.000000
     2  C    1.578600   0.000000
     3  H    2.256617   1.095199   0.000000
     4  H    1.133897   2.396817   2.747661   0.000000
     5  H    1.128803   2.336457   3.162896   1.942271   0.000000
     6  H    2.274410   1.146501   1.802385   3.304653   2.564192
     7  H    2.169893   1.103099   1.722371   2.760311   2.950960
                    6          7
     6  H    0.000000
     7  H    1.883608   0.000000
 Stoichiometry    CH5B
 Framework group  C1[X(CH5B)]
 Deg. of freedom    15
 Full point group                 C1      NOp   1
 Largest Abelian subgroup         C1      NOp   1
 Largest concise Abelian subgroup C1      NOp   1
                         Standard orientation:                         
 ---------------------------------------------------------------------
 Center     Atomic      Atomic             Coordinates (Angstroms)
 Number     Number       Type             X           Y           Z
 ---------------------------------------------------------------------
      1          5           0        0.889982    0.000494   -0.014166
      2          6           0       -0.688519    0.002519    0.003383
      3          1           0       -1.141263   -0.674754   -0.728589
      4          1           0        1.511266   -0.946659   -0.065418
      5          1           0        1.428367    0.989378    0.066129
      6          1           0       -1.122198    1.045732   -0.191789
      7          1           0       -0.994967   -0.431283    0.970199
 ---------------------------------------------------------------------
 Rotational constants (GHZ):          97.7621193          21.2117516          19.4883650
 Standard basis: def2TZVPP (5D, 7F)
 There are   147 symmetry adapted cartesian basis functions of A   symmetry.
 There are   132 symmetry adapted basis functions of A   symmetry.
   132 basis functions,   187 primitive gaussians,   147 cartesian basis functions
     8 alpha electrons        8 beta electrons
       nuclear repulsion energy        31.7712162485 Hartrees.
 NAtoms=    7 NActive=    7 NUniq=    7 SFac= 1.00D+00 NAtFMM=   60 NAOKFM=F Big=F
 Integral buffers will be    131072 words long.
 Raffenetti 2 integral format.
 Two-electron integral symmetry is turned on.
 One-electron integrals computed using PRISM.
   1 Symmetry operations used in ECPInt.
 ECPInt:  NShTT=    1378 NPrTT=    3299 LenC2=    1379 LenP2D=    3099.
 LDataN:  DoStor=T MaxTD1= 6 Len=  172
 NBasis=   132 RedAO= T EigKep=  4.83D-04  NBF=   132
 NBsUse=   132 1.00D-06 EigRej= -1.00D+00 NBFU=   132
 ExpMin= 6.06D-02 ExpMax= 1.36D+04 ExpMxC= 4.63D+02 IAcc=3 IRadAn=         5 AccDes= 0.00D+00
 Harris functional with IExCor= 1009 and IRadAn=       5 diagonalized for initial guess.
 HarFok:  IExCor= 1009 AccDes= 0.00D+00 IRadAn=         5 IDoV= 1 UseB2=F ITyADJ=14
 ICtDFT=  3500011 ScaDFX=  1.000000  1.000000  1.000000  1.000000
 FoFCou: FMM=F IPFlag=           0 FMFlag=      100000 FMFlg1=           0
         NFxFlg=           0 DoJE=T BraDBF=F KetDBF=T FulRan=T
         wScrn=  0.000000 ICntrl=       500 IOpCl=  0 I1Cent=   200000004 NGrid=           0
         NMat0=    1 NMatS0=      1 NMatT0=    0 NMatD0=    1 NMtDS0=    0 NMtDT0=    0
 Petite list used in FoFCou.
 Keep R1 ints in memory in canonical form, NReq=44362774.
 Requested convergence on RMS density matrix=1.00D-08 within 128 cycles.
 Requested convergence on MAX density matrix=1.00D-06.
 Requested convergence on             energy=1.00D-06.
 No special actions if energy rises.
 Integral accuracy reduced to 1.0D-05 until final iterations.
 Initial convergence to 1.0D-05 achieved.  Increase integral accuracy.
 SCF Done:  E(RM062X) =  -65.9165209817     A.U. after   11 cycles
            NFock= 11  Conv=0.55D-08     -V/T= 2.0056

 **********************************************************************

            Population analysis using the SCF density.

 **********************************************************************

 Orbital symmetries:
       Occupied  (A) (A) (A) (A) (A) (A) (A) (A)
       Virtual   (A) (A) (A) (A) (A) (A) (A) (A) (A) (A) (A) (A)
                 (A) (A) (A) (A) (A) (A) (A) (A) (A) (A) (A) (A)
                 (A) (A) (A) (A) (A) (A) (A) (A) (A) (A) (A) (A)
                 (A) (A) (A) (A) (A) (A) (A) (A) (A) (A) (A) (A)
                 (A) (A) (A) (A) (A) (A) (A) (A) (A) (A) (A) (A)
                 (A) (A) (A) (A) (A) (A) (A) (A) (A) (A) (A) (A)
                 (A) (A) (A) (A) (A) (A) (A) (A) (A) (A) (A) (A)
                 (A) (A) (A) (A) (A) (A) (A) (A) (A) (A) (A) (A)
                 (A) (A) (A) (A) (A) (A) (A) (A) (A) (A) (A) (A)
                 (A) (A) (A) (A) (A) (A) (A) (A) (A) (A) (A) (A)
                 (A) (A) (A) (A)
 The electronic state is 1-A.
 Alpha  occ. eigenvalues --  -10.51584  -7.03446  -0.78434  -0.56583  -0.47870
 Alpha  occ. eigenvalues --   -0.45874  -0.38985  -0.38625
 Alpha virt. eigenvalues --   -0.01368   0.06099   0.09744   0.10515   0.13009
 Alpha virt. eigenvalues --    0.15688   0.17802   0.19847   0.22374   0.23096
 Alpha virt. eigenvalues --    0.24226   0.27116   0.31212   0.36512   0.42691
 Alpha virt. eigenvalues --    0.45066   0.45588   0.46594   0.47555   0.52501
 Alpha virt. eigenvalues --    0.52728   0.60834   0.67462   0.68947   0.72398
 Alpha virt. eigenvalues --    0.76771   0.80807   0.82485   0.83522   0.88629
 Alpha virt. eigenvalues --    0.90175   0.96617   0.98338   1.01263   1.01721
 Alpha virt. eigenvalues --    1.02752   1.14438   1.18588   1.21951   1.26527
 Alpha virt. eigenvalues --    1.27760   1.31916   1.33551   1.38219   1.45920
 Alpha virt. eigenvalues --    1.47138   1.51101   1.54642   1.58853   1.59031
 Alpha virt. eigenvalues --    1.77161   1.85418   1.88184   1.93611   1.96713
 Alpha virt. eigenvalues --    2.00295   2.04584   2.10087   2.15768   2.23875
 Alpha virt. eigenvalues --    2.24571   2.30383   2.40284   2.40921   2.46704
 Alpha virt. eigenvalues --    2.56760   2.59540   2.67973   2.83194   2.91655
 Alpha virt. eigenvalues --    2.96387   2.97825   3.04619   3.08395   3.12387
 Alpha virt. eigenvalues --    3.18887   3.27508   3.28568   3.30957   3.38409
 Alpha virt. eigenvalues --    3.40314   3.41230   3.45226   3.51282   3.61007
 Alpha virt. eigenvalues --    3.62134   3.63548   3.70781   3.72353   3.77651
 Alpha virt. eigenvalues --    3.86207   3.87972   3.89452   3.95447   3.95975
 Alpha virt. eigenvalues --    3.99293   4.02799   4.07373   4.09644   4.12026
 Alpha virt. eigenvalues --    4.17085   4.20347   4.28060   4.39751   4.42378
 Alpha virt. eigenvalues --    4.49594   4.59369   4.62162   4.63663   4.83645
 Alpha virt. eigenvalues --    4.84724   4.94811   4.99266   5.03206   5.07250
 Alpha virt. eigenvalues --    5.11981   5.16991   5.17830   5.26702   5.38860
 Alpha virt. eigenvalues --    5.46658   5.53728  15.60239  23.42442
          Condensed to atoms (all electrons):
               1          2          3          4          5          6
     1  B    3.924649   0.372858  -0.033728   0.431859   0.434892  -0.040700
     2  C    0.372858   4.888193   0.393996  -0.027756  -0.033659   0.407905
     3  H   -0.033728   0.393996   0.553131  -0.002374   0.004117  -0.028088
     4  H    0.431859  -0.027756  -0.002374   0.567633  -0.018813   0.003492
     5  H    0.434892  -0.033659   0.004117  -0.018813   0.568072  -0.007009
     6  H   -0.040700   0.407905  -0.028088   0.003492  -0.007009   0.573022
     7  H   -0.019295   0.372976  -0.013933   0.000746   0.003297  -0.016583
               7
     1  B   -0.019295
     2  C    0.372976
     3  H   -0.013933
     4  H    0.000746
     5  H    0.003297
     6  H   -0.016583
     7  H    0.556896
 Mulliken charges:
               1
     1  B   -0.070536
     2  C   -0.374514
     3  H    0.126879
     4  H    0.045213
     5  H    0.049102
     6  H    0.107960
     7  H    0.115896
 Sum of Mulliken charges =  -0.00000
 Mulliken charges with hydrogens summed into heavy atoms:
               1
     1  B    0.023779
     2  C   -0.023779
 Electronic spatial extent (au):  <R**2>=            104.6137
 Charge=             -0.0000 electrons
 Dipole moment (field-independent basis, Debye):
    X=             -0.3945    Y=             -0.1276    Z=              0.0182  Tot=              0.4150
 Quadrupole moment (field-independent basis, Debye-Ang):
   XX=            -16.3199   YY=            -15.5131   ZZ=            -13.7286
   XY=              0.1250   XZ=             -0.0077   YZ=             -0.3196
 Traceless Quadrupole moment (field-independent basis, Debye-Ang):
   XX=             -1.1327   YY=             -0.3259   ZZ=              1.4586
   XY=              0.1250   XZ=             -0.0077   YZ=             -0.3196
 Octapole moment (field-independent basis, Debye-Ang**2):
  XXX=             -5.5485  YYY=              0.3687  ZZZ=              0.3618  XYY=             -2.9206
  XXY=             -0.3475  XXZ=             -0.2813  XZZ=             -0.7613  YZZ=             -0.6237
  YYZ=             -0.2571  XYZ=              0.0159
 Hexadecapole moment (field-independent basis, Debye-Ang**3):
 XXXX=           -109.6507 YYYY=            -37.3647 ZZZZ=            -21.8559 XXXY=              0.2317
 XXXZ=              0.3142 YYYX=             -0.4701 YYYZ=             -0.3617 ZZZX=             -0.4810
 ZZZY=             -0.5263 XXYY=            -23.8297 XXZZ=            -19.5848 YYZZ=            -10.0046
 XXYZ=             -0.3010 YYXZ=              0.4200 ZZXY=              0.8542
 N-N= 3.177121624854D+01 E-N=-2.152353868230D+02  KE= 6.554674177736D+01
 1\1\GINC-NODE85\SP\RM062X\def2TZVPP\C1H5B1\YANZ\22-Sep-2023\0\\# M062X
 /def2TZVPP\\tmpdir/M2_conf_0_18.gjf\\0,1\B,0,0.,0.,0.\C,0,1.5786,0.,0.
 \H,0,2.02231,0.,1.00129\H,0,-0.62303,-0.66651,0.67329\H,0,-0.53619,0.6
 6993,-0.73341\H,0,2.01142,0.90279,-0.55866\H,0,1.89522,-0.97174,-0.415
 09\\Version=ES64L-G16RevA.03\State=1-A\HF=-65.916521\RMSD=5.483e-09\Di
 pole=0.1552046,-0.0407672,0.0301181\Quadrupole=-0.8420116,0.6014469,0.
 2405646,-0.0879487,0.0444348,0.6804953\PG=C01 [X(C1H5B1)]\\@


 Just remember, when you're over the hill, you begin to pick up speed.
 -- Charles Schulz
 Job cpu time:       0 days  0 hours  0 minutes 51.4 seconds.
 Elapsed time:       0 days  0 hours  0 minutes  9.3 seconds.
 File lengths (MBytes):  RWF=     10 Int=      0 D2E=      0 Chk=      2 Scr=      1
 Normal termination of Gaussian 16 at Fri Sep 22 16:49:24 2023.
