 Entering Gaussian System, Link 0=g16
 Initial command:
 /share/apps/gaussian/g16/l1.exe "/tmp/55604.mgr/Gau-84419.inp" -scrdir="/tmp/55604.mgr/"
 Entering Link 1 = /share/apps/gaussian/g16/l1.exe PID=     84420.
  
 Copyright (c) 1988,1990,1992,1993,1995,1998,2003,2009,2016,
            Gaussian, Inc.  All Rights Reserved.
  
 This is part of the Gaussian(R) 16 program.  It is based on
 the Gaussian(R) 09 system (copyright 2009, Gaussian, Inc.),
 the Gaussian(R) 03 system (copyright 2003, Gaussian, Inc.),
 the Gaussian(R) 98 system (copyright 1998, Gaussian, Inc.),
 the Gaussian(R) 94 system (copyright 1995, Gaussian, Inc.),
 the Gaussian 92(TM) system (copyright 1992, Gaussian, Inc.),
 the Gaussian 90(TM) system (copyright 1990, Gaussian, Inc.),
 the Gaussian 88(TM) system (copyright 1988, Gaussian, Inc.),
 the Gaussian 86(TM) system (copyright 1986, Carnegie Mellon
 University), and the Gaussian 82(TM) system (copyright 1983,
 Carnegie Mellon University). Gaussian is a federally registered
 trademark of Gaussian, Inc.
  
 This software contains proprietary and confidential information,
 including trade secrets, belonging to Gaussian, Inc.
  
 This software is provided under written license and may be
 used, copied, transmitted, or stored only in accord with that
 written license.
  
 The following legend is applicable only to US Government
 contracts under FAR:
  
                    RESTRICTED RIGHTS LEGEND
  
 Use, reproduction and disclosure by the US Government is
 subject to restrictions as set forth in subparagraphs (a)
 and (c) of the Commercial Computer Software - Restricted
 Rights clause in FAR 52.227-19.
  
 Gaussian, Inc.
 340 Quinnipiac St., Bldg. 40, Wallingford CT 06492
  
  
 ---------------------------------------------------------------
 Warning -- This program may not be used in any manner that
 competes with the business of Gaussian, Inc. or will provide
 assistance to any competitor of Gaussian, Inc.  The licensee
 of this program is prohibited from giving any competitor of
 Gaussian, Inc. access to this program.  By using this program,
 the user acknowledges that Gaussian, Inc. is engaged in the
 business of creating and licensing software in the field of
 computational chemistry and represents and warrants to the
 licensee that it is not a competitor of Gaussian, Inc. and that
 it will not use this program in any manner prohibited above.
 ---------------------------------------------------------------
  

 Cite this work as:
 Gaussian 16, Revision A.03,
 M. J. Frisch, G. W. Trucks, H. B. Schlegel, G. E. Scuseria, 
 M. A. Robb, J. R. Cheeseman, G. Scalmani, V. Barone, 
 G. A. Petersson, H. Nakatsuji, X. Li, M. Caricato, A. V. Marenich, 
 J. Bloino, B. G. Janesko, R. Gomperts, B. Mennucci, H. P. Hratchian, 
 J. V. Ortiz, A. F. Izmaylov, J. L. Sonnenberg, D. Williams-Young, 
 F. Ding, F. Lipparini, F. Egidi, J. Goings, B. Peng, A. Petrone, 
 T. Henderson, D. Ranasinghe, V. G. Zakrzewski, J. Gao, N. Rega, 
 G. Zheng, W. Liang, M. Hada, M. Ehara, K. Toyota, R. Fukuda, 
 J. Hasegawa, M. Ishida, T. Nakajima, Y. Honda, O. Kitao, H. Nakai, 
 T. Vreven, K. Throssell, J. A. Montgomery, Jr., J. E. Peralta, 
 F. Ogliaro, M. J. Bearpark, J. J. Heyd, E. N. Brothers, K. N. Kudin, 
 V. N. Staroverov, T. A. Keith, R. Kobayashi, J. Normand, 
 K. Raghavachari, A. P. Rendell, J. C. Burant, S. S. Iyengar, 
 J. Tomasi, M. Cossi, J. M. Millam, M. Klene, C. Adamo, R. Cammi, 
 J. W. Ochterski, R. L. Martin, K. Morokuma, O. Farkas, 
 J. B. Foresman, and D. J. Fox, Gaussian, Inc., Wallingford CT, 2016.
 
 ******************************************
 Gaussian 16:  ES64L-G16RevA.03 25-Dec-2016
                22-Sep-2023 
 ******************************************
 %nprocshared=6
 Will use up to    6 processors via shared memory.
 %mem=6GB
 -----------------
 # M062X/def2TZVPP
 -----------------
 1/38=1,172=1/1;
 2/12=2,17=6,18=5,40=1/2;
 3/5=44,7=202,11=2,25=1,30=1,74=-55/1,2,3;
 4//1;
 5/5=2,38=5/2;
 6/7=2,8=2,9=2,10=2,28=1/1;
 99/5=1,9=1/99;
 -----------------------
 tmpdir/M2_conf_0_22.gjf
 -----------------------
 Symbolic Z-matrix:
 Charge =  0 Multiplicity = 1
 O                     0.        0.        0. 
 C                     1.4075    0.        0. 
 H                    -0.44329   0.       -0.76043 
 H                     1.79606  -0.88751  -0.49988 
 H                     1.7951    0.88191  -0.50999 
 H                     1.73581   0.00669   1.03621 
 
                          Input orientation:                          
 ---------------------------------------------------------------------
 Center     Atomic      Atomic             Coordinates (Angstroms)
 Number     Number       Type             X           Y           Z
 ---------------------------------------------------------------------
      1          8           0        0.000000    0.000000    0.000000
      2          6           0        1.407500    0.000000    0.000000
      3          1           0       -0.443290    0.000000   -0.760430
      4          1           0        1.796060   -0.887510   -0.499880
      5          1           0        1.795100    0.881910   -0.509990
      6          1           0        1.735810    0.006690    1.036210
 ---------------------------------------------------------------------
                    Distance matrix (angstroms):
                    1          2          3          4          5
     1  O    0.000000
     2  C    1.407500   0.000000
     3  H    0.880204   2.000919   0.000000
     4  H    2.064797   1.090199   2.422860   0.000000
     5  H    2.064035   1.089995   2.418858   1.769449   0.000000
     6  H    2.021587   1.086997   2.824259   1.778425   1.777712
                    6
     6  H    0.000000
 Stoichiometry    CH4O
 Framework group  C1[X(CH4O)]
 Deg. of freedom    12
 Full point group                 C1      NOp   1
 Largest Abelian subgroup         C1      NOp   1
 Largest concise Abelian subgroup C1      NOp   1
                         Standard orientation:                         
 ---------------------------------------------------------------------
 Center     Atomic      Atomic             Coordinates (Angstroms)
 Number     Number       Type             X           Y           Z
 ---------------------------------------------------------------------
      1          8           0       -0.733843    0.107009    0.000252
      2          6           0        0.667988   -0.019185    0.000025
      3          1           0       -1.243527   -0.610613   -0.001018
      4          1           0        1.010166   -0.553461    0.886590
      5          1           0        1.008300   -0.560310   -0.882845
      6          1           0        1.087881    0.983426   -0.004890
 ---------------------------------------------------------------------
 Rotational constants (GHZ):         136.6644316          24.9323565          24.2824794
 Standard basis: def2TZVPP (5D, 7F)
 There are   132 symmetry adapted cartesian basis functions of A   symmetry.
 There are   118 symmetry adapted basis functions of A   symmetry.
   118 basis functions,   170 primitive gaussians,   132 cartesian basis functions
     9 alpha electrons        9 beta electrons
       nuclear repulsion energy        40.9034336111 Hartrees.
 NAtoms=    6 NActive=    6 NUniq=    6 SFac= 1.00D+00 NAtFMM=   60 NAOKFM=F Big=F
 Integral buffers will be    131072 words long.
 Raffenetti 2 integral format.
 Two-electron integral symmetry is turned on.
 One-electron integrals computed using PRISM.
   1 Symmetry operations used in ECPInt.
 ECPInt:  NShTT=    1081 NPrTT=    2684 LenC2=    1081 LenP2D=    2512.
 LDataN:  DoStor=T MaxTD1= 6 Len=  172
 NBasis=   118 RedAO= T EigKep=  5.82D-04  NBF=   118
 NBsUse=   118 1.00D-06 EigRej= -1.00D+00 NBFU=   118
 ExpMin= 9.52D-02 ExpMax= 2.70D+04 ExpMxC= 9.22D+02 IAcc=3 IRadAn=         5 AccDes= 0.00D+00
 Harris functional with IExCor= 1009 and IRadAn=       5 diagonalized for initial guess.
 HarFok:  IExCor= 1009 AccDes= 0.00D+00 IRadAn=         5 IDoV= 1 UseB2=F ITyADJ=14
 ICtDFT=  3500011 ScaDFX=  1.000000  1.000000  1.000000  1.000000
 FoFCou: FMM=F IPFlag=           0 FMFlag=      100000 FMFlg1=           0
         NFxFlg=           0 DoJE=T BraDBF=F KetDBF=T FulRan=T
         wScrn=  0.000000 ICntrl=       500 IOpCl=  0 I1Cent=   200000004 NGrid=           0
         NMat0=    1 NMatS0=      1 NMatT0=    0 NMatD0=    1 NMtDS0=    0 NMtDT0=    0
 Petite list used in FoFCou.
 Keep R1 ints in memory in canonical form, NReq=30406467.
 Requested convergence on RMS density matrix=1.00D-08 within 128 cycles.
 Requested convergence on MAX density matrix=1.00D-06.
 Requested convergence on             energy=1.00D-06.
 No special actions if energy rises.
 Integral accuracy reduced to 1.0D-05 until final iterations.
 Initial convergence to 1.0D-05 achieved.  Increase integral accuracy.
 SCF Done:  E(RM062X) =  -115.707785610     A.U. after   11 cycles
            NFock= 11  Conv=0.34D-08     -V/T= 2.0030

 **********************************************************************

            Population analysis using the SCF density.

 **********************************************************************

 Orbital symmetries:
       Occupied  (A) (A) (A) (A) (A) (A) (A) (A) (A)
       Virtual   (A) (A) (A) (A) (A) (A) (A) (A) (A) (A) (A) (A)
                 (A) (A) (A) (A) (A) (A) (A) (A) (A) (A) (A) (A)
                 (A) (A) (A) (A) (A) (A) (A) (A) (A) (A) (A) (A)
                 (A) (A) (A) (A) (A) (A) (A) (A) (A) (A) (A) (A)
                 (A) (A) (A) (A) (A) (A) (A) (A) (A) (A) (A) (A)
                 (A) (A) (A) (A) (A) (A) (A) (A) (A) (A) (A) (A)
                 (A) (A) (A) (A) (A) (A) (A) (A) (A) (A) (A) (A)
                 (A) (A) (A) (A) (A) (A) (A) (A) (A) (A) (A) (A)
                 (A) (A) (A) (A) (A) (A) (A) (A) (A) (A) (A) (A)
                 (A)
 The electronic state is 1-A.
 Alpha  occ. eigenvalues --  -19.60776 -10.57814  -1.15279  -0.79094  -0.59730
 Alpha  occ. eigenvalues --   -0.51708  -0.50712  -0.39860  -0.35289
 Alpha virt. eigenvalues --    0.06882   0.10768   0.15553   0.15799   0.17273
 Alpha virt. eigenvalues --    0.24529   0.25504   0.35001   0.39890   0.44112
 Alpha virt. eigenvalues --    0.47168   0.48207   0.52705   0.53391   0.54329
 Alpha virt. eigenvalues --    0.58872   0.67191   0.74235   0.78017   0.78554
 Alpha virt. eigenvalues --    0.90820   0.91558   0.98752   0.98965   1.04828
 Alpha virt. eigenvalues --    1.10122   1.12204   1.20787   1.29468   1.29609
 Alpha virt. eigenvalues --    1.33234   1.40990   1.46942   1.48487   1.54941
 Alpha virt. eigenvalues --    1.68615   1.78711   1.90351   1.91885   1.94387
 Alpha virt. eigenvalues --    2.02114   2.14295   2.14781   2.51483   2.53189
 Alpha virt. eigenvalues --    2.60279   2.62209   2.75797   2.76593   2.83850
 Alpha virt. eigenvalues --    2.86849   2.88734   2.92091   2.92402   3.00269
 Alpha virt. eigenvalues --    3.03247   3.11667   3.21137   3.28646   3.32535
 Alpha virt. eigenvalues --    3.40010   3.40744   3.45378   3.48720   3.54979
 Alpha virt. eigenvalues --    3.62055   3.64385   3.68469   3.74275   3.75517
 Alpha virt. eigenvalues --    3.81152   3.92723   3.94769   3.97510   4.02426
 Alpha virt. eigenvalues --    4.13346   4.14768   4.21137   4.25860   4.33158
 Alpha virt. eigenvalues --    4.41884   4.50304   4.57635   4.69742   4.81351
 Alpha virt. eigenvalues --    4.88658   4.95139   5.07395   5.09241   5.18144
 Alpha virt. eigenvalues --    5.22262   5.23730   5.28953   5.41636   5.49487
 Alpha virt. eigenvalues --    5.62434   5.69515   6.03642   6.09548   6.52652
 Alpha virt. eigenvalues --    6.59447   6.83529   6.90717   6.91262   7.06974
 Alpha virt. eigenvalues --    7.58900   7.65068  23.63709  44.18309
          Condensed to atoms (all electrons):
               1          2          3          4          5          6
     1  O    7.845008   0.267701   0.363765  -0.048484  -0.048470  -0.036717
     2  C    0.267701   4.708726  -0.041144   0.417222   0.417404   0.399786
     3  H    0.363765  -0.041144   0.519562  -0.006243  -0.006387   0.009239
     4  H   -0.048484   0.417222  -0.006243   0.603787  -0.044938  -0.033595
     5  H   -0.048470   0.417404  -0.006387  -0.044938   0.603548  -0.033414
     6  H   -0.036717   0.399786   0.009239  -0.033595  -0.033414   0.567917
 Mulliken charges:
               1
     1  O   -0.342803
     2  C   -0.169696
     3  H    0.161209
     4  H    0.112250
     5  H    0.112256
     6  H    0.126784
 Sum of Mulliken charges =  -0.00000
 Mulliken charges with hydrogens summed into heavy atoms:
               1
     1  O   -0.181594
     2  C    0.181594
 Electronic spatial extent (au):  <R**2>=             83.4838
 Charge=             -0.0000 electrons
 Dipole moment (field-independent basis, Debye):
    X=              0.6466    Y=             -1.3540    Z=             -0.0034  Tot=              1.5005
 Quadrupole moment (field-independent basis, Debye-Ang):
   XX=            -12.2270   YY=            -12.5286   ZZ=            -13.6984
   XY=              2.2145   XZ=              0.0030   YZ=              0.0002
 Traceless Quadrupole moment (field-independent basis, Debye-Ang):
   XX=              0.5910   YY=              0.2894   ZZ=             -0.8804
   XY=              2.2145   XZ=              0.0030   YZ=              0.0002
 Octapole moment (field-independent basis, Debye-Ang**2):
  XXX=             -5.8843  YYY=             -0.2136  ZZZ=              0.0037  XYY=             -1.4455
  XXY=             -2.3716  XXZ=             -0.0055  XZZ=             -0.5131  YZZ=             -0.6760
  YYZ=             -0.0086  XYZ=             -0.0044
 Hexadecapole moment (field-independent basis, Debye-Ang**3):
 XXXX=            -59.2726 YYYY=            -20.1680 ZZZZ=            -20.0398 XXXY=              4.4790
 XXXZ=              0.0055 YYYX=              2.7483 YYYZ=             -0.0002 ZZZX=              0.0076
 ZZZY=              0.0003 XXYY=            -12.6155 XXZZ=            -14.2885 YYZZ=             -6.7438
 XXYZ=             -0.0013 YYXZ=             -0.0066 ZZXY=             -0.0999
 N-N= 4.090343361114D+01 E-N=-3.534211309529D+02  KE= 1.153595872831D+02
 1\1\GINC-NODE85\SP\RM062X\def2TZVPP\C1H4O1\YANZ\22-Sep-2023\0\\# M062X
 /def2TZVPP\\tmpdir/M2_conf_0_22.gjf\\0,1\O,0,0.,0.,0.\C,0,1.4075,0.,0.
 \H,0,-0.44329,0.,-0.76043\H,0,1.79606,-0.88751,-0.49988\H,0,1.7951,0.8
 8191,-0.50999\H,0,1.73581,0.00669,1.03621\\Version=ES64L-G16RevA.03\St
 ate=1-A\HF=-115.7077856\RMSD=3.400e-09\Dipole=0.3011109,0.0003836,-0.5
 077656\Quadrupole=0.1435346,-0.654551,0.5110164,0.0005307,1.6400151,0.
 0014186\PG=C01 [X(C1H4O1)]\\@


 GOD GAVE US TWO ENDS... ONE TO SIT ON...    
 AND THE OTHER TO THINK WITH...              
 YOUR SUCCESS DEPENDS UPON WHICH END YOU     
 USE THE MOST...                             
                                             
 IT'S A CASE OF HEADS YOU WIN TAILS YOU LOSE.
          SOURCE UNKNOWN(IT'S JUST AS WELL.) 
 Job cpu time:       0 days  0 hours  0 minutes 43.6 seconds.
 Elapsed time:       0 days  0 hours  0 minutes  7.9 seconds.
 File lengths (MBytes):  RWF=     11 Int=      0 D2E=      0 Chk=      2 Scr=      1
 Normal termination of Gaussian 16 at Fri Sep 22 16:50:02 2023.
