 Entering Gaussian System, Link 0=g16
 Initial command:
 /share/apps/gaussian/g16/l1.exe "/tmp/55604.mgr/Gau-83869.inp" -scrdir="/tmp/55604.mgr/"
 Entering Link 1 = /share/apps/gaussian/g16/l1.exe PID=     83870.
  
 Copyright (c) 1988,1990,1992,1993,1995,1998,2003,2009,2016,
            Gaussian, Inc.  All Rights Reserved.
  
 This is part of the Gaussian(R) 16 program.  It is based on
 the Gaussian(R) 09 system (copyright 2009, Gaussian, Inc.),
 the Gaussian(R) 03 system (copyright 2003, Gaussian, Inc.),
 the Gaussian(R) 98 system (copyright 1998, Gaussian, Inc.),
 the Gaussian(R) 94 system (copyright 1995, Gaussian, Inc.),
 the Gaussian 92(TM) system (copyright 1992, Gaussian, Inc.),
 the Gaussian 90(TM) system (copyright 1990, Gaussian, Inc.),
 the Gaussian 88(TM) system (copyright 1988, Gaussian, Inc.),
 the Gaussian 86(TM) system (copyright 1986, Carnegie Mellon
 University), and the Gaussian 82(TM) system (copyright 1983,
 Carnegie Mellon University). Gaussian is a federally registered
 trademark of Gaussian, Inc.
  
 This software contains proprietary and confidential information,
 including trade secrets, belonging to Gaussian, Inc.
  
 This software is provided under written license and may be
 used, copied, transmitted, or stored only in accord with that
 written license.
  
 The following legend is applicable only to US Government
 contracts under FAR:
  
                    RESTRICTED RIGHTS LEGEND
  
 Use, reproduction and disclosure by the US Government is
 subject to restrictions as set forth in subparagraphs (a)
 and (c) of the Commercial Computer Software - Restricted
 Rights clause in FAR 52.227-19.
  
 Gaussian, Inc.
 340 Quinnipiac St., Bldg. 40, Wallingford CT 06492
  
  
 ---------------------------------------------------------------
 Warning -- This program may not be used in any manner that
 competes with the business of Gaussian, Inc. or will provide
 assistance to any competitor of Gaussian, Inc.  The licensee
 of this program is prohibited from giving any competitor of
 Gaussian, Inc. access to this program.  By using this program,
 the user acknowledges that Gaussian, Inc. is engaged in the
 business of creating and licensing software in the field of
 computational chemistry and represents and warrants to the
 licensee that it is not a competitor of Gaussian, Inc. and that
 it will not use this program in any manner prohibited above.
 ---------------------------------------------------------------
  

 Cite this work as:
 Gaussian 16, Revision A.03,
 M. J. Frisch, G. W. Trucks, H. B. Schlegel, G. E. Scuseria, 
 M. A. Robb, J. R. Cheeseman, G. Scalmani, V. Barone, 
 G. A. Petersson, H. Nakatsuji, X. Li, M. Caricato, A. V. Marenich, 
 J. Bloino, B. G. Janesko, R. Gomperts, B. Mennucci, H. P. Hratchian, 
 J. V. Ortiz, A. F. Izmaylov, J. L. Sonnenberg, D. Williams-Young, 
 F. Ding, F. Lipparini, F. Egidi, J. Goings, B. Peng, A. Petrone, 
 T. Henderson, D. Ranasinghe, V. G. Zakrzewski, J. Gao, N. Rega, 
 G. Zheng, W. Liang, M. Hada, M. Ehara, K. Toyota, R. Fukuda, 
 J. Hasegawa, M. Ishida, T. Nakajima, Y. Honda, O. Kitao, H. Nakai, 
 T. Vreven, K. Throssell, J. A. Montgomery, Jr., J. E. Peralta, 
 F. Ogliaro, M. J. Bearpark, J. J. Heyd, E. N. Brothers, K. N. Kudin, 
 V. N. Staroverov, T. A. Keith, R. Kobayashi, J. Normand, 
 K. Raghavachari, A. P. Rendell, J. C. Burant, S. S. Iyengar, 
 J. Tomasi, M. Cossi, J. M. Millam, M. Klene, C. Adamo, R. Cammi, 
 J. W. Ochterski, R. L. Martin, K. Morokuma, O. Farkas, 
 J. B. Foresman, and D. J. Fox, Gaussian, Inc., Wallingford CT, 2016.
 
 ******************************************
 Gaussian 16:  ES64L-G16RevA.03 25-Dec-2016
                22-Sep-2023 
 ******************************************
 %nprocshared=6
 Will use up to    6 processors via shared memory.
 %mem=6GB
 -----------------
 # M062X/def2TZVPP
 -----------------
 1/38=1,172=1/1;
 2/12=2,17=6,18=5,40=1/2;
 3/5=44,7=202,11=2,25=1,30=1,74=-55/1,2,3;
 4//1;
 5/5=2,38=5/2;
 6/7=2,8=2,9=2,10=2,28=1/1;
 99/5=1,9=1/99;
 -----------------------
 tmpdir/M2_conf_0_11.gjf
 -----------------------
 Symbolic Z-matrix:
 Charge =  0 Multiplicity = 1
 O                     0.        0.        0. 
 B                     1.3642    0.        0. 
 O                     1.96636   0.        1.21731 
 H                    -0.50163   0.0013   -0.83057 
 H                     2.00405   0.03905  -0.97218 
 H                     1.43003  -0.01189   2.02954 
 
                          Input orientation:                          
 ---------------------------------------------------------------------
 Center     Atomic      Atomic             Coordinates (Angstroms)
 Number     Number       Type             X           Y           Z
 ---------------------------------------------------------------------
      1          8           0        0.000000    0.000000    0.000000
      2          5           0        1.364200    0.000000    0.000000
      3          8           0        1.966360    0.000000    1.217310
      4          1           0       -0.501630    0.001300   -0.830570
      5          1           0        2.004050    0.039050   -0.972180
      6          1           0        1.430030   -0.011890    2.029540
 ---------------------------------------------------------------------
                    Distance matrix (angstroms):
                    1          2          3          4          5
     1  O    0.000000
     2  B    1.364200   0.000000
     3  O    2.312664   1.358102   0.000000
     4  H    0.970299   2.042344   3.206991   0.000000
     5  H    2.227751   1.164503   2.190163   2.509962   0.000000
     6  H    2.482773   2.030642   0.973401   3.451335   3.056537
                    6
     6  H    0.000000
 Stoichiometry    BH3O2
 Framework group  C1[X(BH3O2)]
 Deg. of freedom    12
 Full point group                 C1      NOp   1
 Largest Abelian subgroup         C1      NOp   1
 Largest concise Abelian subgroup C1      NOp   1
                         Standard orientation:                         
 ---------------------------------------------------------------------
 Center     Atomic      Atomic             Coordinates (Angstroms)
 Number     Number       Type             X           Y           Z
 ---------------------------------------------------------------------
      1          8           0       -1.100156   -0.299302    0.001829
      2          5           0       -0.004617    0.513560   -0.007788
      3          8           0        1.204342   -0.105130    0.001075
      4          1           0       -1.997929    0.068757   -0.002278
      5          1           0       -0.070123    1.675970    0.016279
      6          1           0        1.257647   -1.077070    0.001713
 ---------------------------------------------------------------------
 Rotational constants (GHZ):          59.7764760          10.4780043           8.9155613
 Standard basis: def2TZVPP (5D, 7F)
 There are   153 symmetry adapted cartesian basis functions of A   symmetry.
 There are   135 symmetry adapted basis functions of A   symmetry.
   135 basis functions,   204 primitive gaussians,   153 cartesian basis functions
    12 alpha electrons       12 beta electrons
       nuclear repulsion energy        66.7246150575 Hartrees.
 NAtoms=    6 NActive=    6 NUniq=    6 SFac= 1.00D+00 NAtFMM=   60 NAOKFM=F Big=F
 Integral buffers will be    131072 words long.
 Raffenetti 2 integral format.
 Two-electron integral symmetry is turned on.
 One-electron integrals computed using PRISM.
   1 Symmetry operations used in ECPInt.
 ECPInt:  NShTT=    1326 NPrTT=    3645 LenC2=    1324 LenP2D=    3271.
 LDataN:  DoStor=T MaxTD1= 6 Len=  172
 NBasis=   135 RedAO= T EigKep=  5.33D-04  NBF=   135
 NBsUse=   135 1.00D-06 EigRej= -1.00D+00 NBFU=   135
 ExpMin= 6.06D-02 ExpMax= 2.70D+04 ExpMxC= 9.22D+02 IAcc=3 IRadAn=         5 AccDes= 0.00D+00
 Harris functional with IExCor= 1009 and IRadAn=       5 diagonalized for initial guess.
 HarFok:  IExCor= 1009 AccDes= 0.00D+00 IRadAn=         5 IDoV= 1 UseB2=F ITyADJ=14
 ICtDFT=  3500011 ScaDFX=  1.000000  1.000000  1.000000  1.000000
 FoFCou: FMM=F IPFlag=           0 FMFlag=      100000 FMFlg1=           0
         NFxFlg=           0 DoJE=T BraDBF=F KetDBF=T FulRan=T
         wScrn=  0.000000 ICntrl=       500 IOpCl=  0 I1Cent=   200000004 NGrid=           0
         NMat0=    1 NMatS0=      1 NMatT0=    0 NMatD0=    1 NMtDS0=    0 NMtDT0=    0
 Petite list used in FoFCou.
 Keep R1 ints in memory in canonical form, NReq=48021256.
 Requested convergence on RMS density matrix=1.00D-08 within 128 cycles.
 Requested convergence on MAX density matrix=1.00D-06.
 Requested convergence on             energy=1.00D-06.
 No special actions if energy rises.
 Integral accuracy reduced to 1.0D-05 until final iterations.
 Initial convergence to 1.0D-05 achieved.  Increase integral accuracy.
 SCF Done:  E(RM062X) =  -177.215093792     A.U. after   12 cycles
            NFock= 12  Conv=0.54D-08     -V/T= 2.0045

 **********************************************************************

            Population analysis using the SCF density.

 **********************************************************************

 Orbital symmetries:
       Occupied  (A) (A) (A) (A) (A) (A) (A) (A) (A) (A) (A) (A)
       Virtual   (A) (A) (A) (A) (A) (A) (A) (A) (A) (A) (A) (A)
                 (A) (A) (A) (A) (A) (A) (A) (A) (A) (A) (A) (A)
                 (A) (A) (A) (A) (A) (A) (A) (A) (A) (A) (A) (A)
                 (A) (A) (A) (A) (A) (A) (A) (A) (A) (A) (A) (A)
                 (A) (A) (A) (A) (A) (A) (A) (A) (A) (A) (A) (A)
                 (A) (A) (A) (A) (A) (A) (A) (A) (A) (A) (A) (A)
                 (A) (A) (A) (A) (A) (A) (A) (A) (A) (A) (A) (A)
                 (A) (A) (A) (A) (A) (A) (A) (A) (A) (A) (A) (A)
                 (A) (A) (A) (A) (A) (A) (A) (A) (A) (A) (A) (A)
                 (A) (A) (A) (A) (A) (A) (A) (A) (A) (A) (A) (A)
                 (A) (A) (A)
 The electronic state is 1-A.
 Alpha  occ. eigenvalues --  -19.63753 -19.62935  -7.07952  -1.15953  -1.12168
 Alpha  occ. eigenvalues --   -0.66483  -0.62435  -0.52301  -0.47165  -0.44289
 Alpha  occ. eigenvalues --   -0.41002  -0.40284
 Alpha virt. eigenvalues --    0.05237   0.06417   0.07199   0.11073   0.14745
 Alpha virt. eigenvalues --    0.15758   0.17600   0.23656   0.34508   0.38150
 Alpha virt. eigenvalues --    0.40591   0.44636   0.46104   0.49734   0.50813
 Alpha virt. eigenvalues --    0.51370   0.54918   0.55506   0.56319   0.58244
 Alpha virt. eigenvalues --    0.60295   0.70687   0.72182   0.75407   0.78820
 Alpha virt. eigenvalues --    0.79161   0.85200   0.85921   0.90635   0.94854
 Alpha virt. eigenvalues --    1.02042   1.02481   1.07496   1.17372   1.20246
 Alpha virt. eigenvalues --    1.28201   1.31192   1.37031   1.50084   1.58699
 Alpha virt. eigenvalues --    1.64775   1.66396   1.69830   1.75272   1.78879
 Alpha virt. eigenvalues --    1.85195   1.90714   1.95066   2.01488   2.03755
 Alpha virt. eigenvalues --    2.05324   2.14717   2.20067   2.26299   2.28593
 Alpha virt. eigenvalues --    2.31434   2.35919   2.37218   2.43078   2.49262
 Alpha virt. eigenvalues --    2.53553   2.78249   2.83944   2.89299   2.91130
 Alpha virt. eigenvalues --    2.99813   3.10116   3.22903   3.26730   3.30364
 Alpha virt. eigenvalues --    3.34719   3.34864   3.37735   3.42513   3.48275
 Alpha virt. eigenvalues --    3.53344   3.62634   3.63265   3.68771   3.82254
 Alpha virt. eigenvalues --    3.85940   3.91632   3.97288   4.02854   4.10948
 Alpha virt. eigenvalues --    4.14345   4.19145   4.22167   4.30550   4.44242
 Alpha virt. eigenvalues --    4.52167   4.68821   4.76945   4.85754   4.91800
 Alpha virt. eigenvalues --    5.14115   5.30869   5.43231   5.45951   5.60217
 Alpha virt. eigenvalues --    5.67793   5.77236   5.78893   5.79893   6.38714
 Alpha virt. eigenvalues --    6.49813   6.54566   6.56005   6.58367   6.61308
 Alpha virt. eigenvalues --    6.68290   6.69377   6.76215   6.81582   6.85964
 Alpha virt. eigenvalues --    6.94179   7.23241   7.24196   7.43773   7.46300
 Alpha virt. eigenvalues --   16.18222  43.71496  43.85601
          Condensed to atoms (all electrons):
               1          2          3          4          5          6
     1  O    7.664392   0.464221  -0.049614   0.344289  -0.047592  -0.005420
     2  B    0.464221   3.403924   0.497418  -0.037920   0.428162  -0.038638
     3  O   -0.049614   0.497418   7.616200   0.004044  -0.023329   0.333929
     4  H    0.344289  -0.037920   0.004044   0.453185  -0.006521   0.000016
     5  H   -0.047592   0.428162  -0.023329  -0.006521   0.660965   0.006763
     6  H   -0.005420  -0.038638   0.333929   0.000016   0.006763   0.461717
 Mulliken charges:
               1
     1  O   -0.370277
     2  B    0.282834
     3  O   -0.378649
     4  H    0.242907
     5  H   -0.018449
     6  H    0.241633
 Sum of Mulliken charges =   0.00000
 Mulliken charges with hydrogens summed into heavy atoms:
               1
     1  O   -0.127370
     2  B    0.264385
     3  O   -0.137015
 Electronic spatial extent (au):  <R**2>=            155.3732
 Charge=              0.0000 electrons
 Dipole moment (field-independent basis, Debye):
    X=             -1.5474    Y=             -0.3470    Z=             -0.0377  Tot=              1.5863
 Quadrupole moment (field-independent basis, Debye-Ang):
   XX=            -15.6211   YY=            -16.9012   ZZ=            -18.1330
   XY=             -3.6281   XZ=              0.0161   YZ=             -0.0244
 Traceless Quadrupole moment (field-independent basis, Debye-Ang):
   XX=              1.2639   YY=             -0.0161   ZZ=             -1.2479
   XY=             -3.6281   XZ=              0.0161   YZ=             -0.0244
 Octapole moment (field-independent basis, Debye-Ang**2):
  XXX=            -15.2416  YYY=             -7.9810  ZZZ=             -0.0093  XYY=              3.9159
  XXY=             -2.7675  XXZ=             -0.0013  XZZ=             -0.1404  YZZ=             -1.0091
  YYZ=              0.0224  XYZ=             -0.0057
 Hexadecapole moment (field-independent basis, Debye-Ang**3):
 XXXX=            -97.5149 YYYY=            -47.6089 ZZZZ=            -16.6358 XXXY=             -8.1747
 XXXZ=              0.0601 YYYX=             -5.0052 YYYZ=              0.0217 ZZZX=              0.0086
 ZZZY=             -0.0381 XXYY=            -25.2900 XXZZ=            -24.4962 YYZZ=            -11.1165
 XXYZ=             -0.0240 YYXZ=              0.0061 ZZXY=             -0.4904
 N-N= 6.672461505751D+01 E-N=-5.510696537627D+02  KE= 1.764263328288D+02
 1\1\GINC-NODE85\SP\RM062X\def2TZVPP\B1H3O2\YANZ\22-Sep-2023\0\\# M062X
 /def2TZVPP\\tmpdir/M2_conf_0_11.gjf\\0,1\O,0,0.,0.,0.\B,0,1.3642,0.,0.
 \O,0,1.96636,0.,1.21731\H,0,-0.50163,0.0013,-0.83057\H,0,2.00405,0.039
 05,-0.97218\H,0,1.43003,-0.01189,2.02954\\Version=ES64L-G16RevA.03\Sta
 te=1-A\HF=-177.2150938\RMSD=5.375e-09\Dipole=-0.5701458,-0.0161423,-0.
 2533376\Quadrupole=-1.9796915,-0.9280364,2.9077279,-0.0219041,1.236989
 3,-0.0108904\PG=C01 [X(B1H3O2)]\\@


 Sometimes the fool who rushes in gets the job done.
                                    -- Al Bernstein
 Job cpu time:       0 days  0 hours  0 minutes 57.7 seconds.
 Elapsed time:       0 days  0 hours  0 minutes 10.8 seconds.
 File lengths (MBytes):  RWF=     10 Int=      0 D2E=      0 Chk=      2 Scr=      1
 Normal termination of Gaussian 16 at Fri Sep 22 16:49:40 2023.
