 Entering Gaussian System, Link 0=g16
 Initial command:
 /share/apps/gaussian/g16/l1.exe "/tmp/55604.mgr/Gau-83923.inp" -scrdir="/tmp/55604.mgr/"
 Entering Link 1 = /share/apps/gaussian/g16/l1.exe PID=     83924.
  
 Copyright (c) 1988,1990,1992,1993,1995,1998,2003,2009,2016,
            Gaussian, Inc.  All Rights Reserved.
  
 This is part of the Gaussian(R) 16 program.  It is based on
 the Gaussian(R) 09 system (copyright 2009, Gaussian, Inc.),
 the Gaussian(R) 03 system (copyright 2003, Gaussian, Inc.),
 the Gaussian(R) 98 system (copyright 1998, Gaussian, Inc.),
 the Gaussian(R) 94 system (copyright 1995, Gaussian, Inc.),
 the Gaussian 92(TM) system (copyright 1992, Gaussian, Inc.),
 the Gaussian 90(TM) system (copyright 1990, Gaussian, Inc.),
 the Gaussian 88(TM) system (copyright 1988, Gaussian, Inc.),
 the Gaussian 86(TM) system (copyright 1986, Carnegie Mellon
 University), and the Gaussian 82(TM) system (copyright 1983,
 Carnegie Mellon University). Gaussian is a federally registered
 trademark of Gaussian, Inc.
  
 This software contains proprietary and confidential information,
 including trade secrets, belonging to Gaussian, Inc.
  
 This software is provided under written license and may be
 used, copied, transmitted, or stored only in accord with that
 written license.
  
 The following legend is applicable only to US Government
 contracts under FAR:
  
                    RESTRICTED RIGHTS LEGEND
  
 Use, reproduction and disclosure by the US Government is
 subject to restrictions as set forth in subparagraphs (a)
 and (c) of the Commercial Computer Software - Restricted
 Rights clause in FAR 52.227-19.
  
 Gaussian, Inc.
 340 Quinnipiac St., Bldg. 40, Wallingford CT 06492
  
  
 ---------------------------------------------------------------
 Warning -- This program may not be used in any manner that
 competes with the business of Gaussian, Inc. or will provide
 assistance to any competitor of Gaussian, Inc.  The licensee
 of this program is prohibited from giving any competitor of
 Gaussian, Inc. access to this program.  By using this program,
 the user acknowledges that Gaussian, Inc. is engaged in the
 business of creating and licensing software in the field of
 computational chemistry and represents and warrants to the
 licensee that it is not a competitor of Gaussian, Inc. and that
 it will not use this program in any manner prohibited above.
 ---------------------------------------------------------------
  

 Cite this work as:
 Gaussian 16, Revision A.03,
 M. J. Frisch, G. W. Trucks, H. B. Schlegel, G. E. Scuseria, 
 M. A. Robb, J. R. Cheeseman, G. Scalmani, V. Barone, 
 G. A. Petersson, H. Nakatsuji, X. Li, M. Caricato, A. V. Marenich, 
 J. Bloino, B. G. Janesko, R. Gomperts, B. Mennucci, H. P. Hratchian, 
 J. V. Ortiz, A. F. Izmaylov, J. L. Sonnenberg, D. Williams-Young, 
 F. Ding, F. Lipparini, F. Egidi, J. Goings, B. Peng, A. Petrone, 
 T. Henderson, D. Ranasinghe, V. G. Zakrzewski, J. Gao, N. Rega, 
 G. Zheng, W. Liang, M. Hada, M. Ehara, K. Toyota, R. Fukuda, 
 J. Hasegawa, M. Ishida, T. Nakajima, Y. Honda, O. Kitao, H. Nakai, 
 T. Vreven, K. Throssell, J. A. Montgomery, Jr., J. E. Peralta, 
 F. Ogliaro, M. J. Bearpark, J. J. Heyd, E. N. Brothers, K. N. Kudin, 
 V. N. Staroverov, T. A. Keith, R. Kobayashi, J. Normand, 
 K. Raghavachari, A. P. Rendell, J. C. Burant, S. S. Iyengar, 
 J. Tomasi, M. Cossi, J. M. Millam, M. Klene, C. Adamo, R. Cammi, 
 J. W. Ochterski, R. L. Martin, K. Morokuma, O. Farkas, 
 J. B. Foresman, and D. J. Fox, Gaussian, Inc., Wallingford CT, 2016.
 
 ******************************************
 Gaussian 16:  ES64L-G16RevA.03 25-Dec-2016
                22-Sep-2023 
 ******************************************
 %nprocshared=6
 Will use up to    6 processors via shared memory.
 %mem=6GB
 -----------------
 # M062X/def2TZVPP
 -----------------
 1/38=1,172=1/1;
 2/12=2,17=6,18=5,40=1/2;
 3/5=44,7=202,11=2,25=1,30=1,74=-55/1,2,3;
 4//1;
 5/5=2,38=5/2;
 6/7=2,8=2,9=2,10=2,28=1/1;
 99/5=1,9=1/99;
 -----------------------
 tmpdir/M2_conf_0_17.gjf
 -----------------------
 Symbolic Z-matrix:
 Charge =  0 Multiplicity = 1
 B                     0.        0.        0. 
 C                     1.5786    0.        0. 
 H                     2.02868   0.        1.0071 
 H                    -0.62303   0.88093   0.34861 
 H                    -0.53619  -0.93756  -0.32814 
 H                     2.01142  -0.86839  -0.61076 
 H                     1.94292   0.9498   -0.40571 
 
                          Input orientation:                          
 ---------------------------------------------------------------------
 Center     Atomic      Atomic             Coordinates (Angstroms)
 Number     Number       Type             X           Y           Z
 ---------------------------------------------------------------------
      1          5           0        0.000000    0.000000    0.000000
      2          6           0        1.578600    0.000000    0.000000
      3          1           0        2.028680    0.000000    1.007100
      4          1           0       -0.623030    0.880930    0.348610
      5          1           0       -0.536190   -0.937560   -0.328140
      6          1           0        2.011420   -0.868390   -0.610760
      7          1           0        1.942920    0.949800   -0.405710
 ---------------------------------------------------------------------
                    Distance matrix (angstroms):
                    1          2          3          4          5
     1  B    0.000000
     2  C    1.578600   0.000000
     3  H    2.264905   1.103097   0.000000
     4  H    1.133902   2.396819   2.870751   0.000000
     5  H    1.128802   2.336457   3.039810   1.942276   0.000000
     6  H    2.274410   1.146500   1.836265   3.304669   2.564171
     7  H    2.200377   1.095194   1.704555   2.675414   3.116750
                    6          7
     6  H    0.000000
     7  H    1.830998   0.000000
 Stoichiometry    CH5B
 Framework group  C1[X(CH5B)]
 Deg. of freedom    15
 Full point group                 C1      NOp   1
 Largest Abelian subgroup         C1      NOp   1
 Largest concise Abelian subgroup C1      NOp   1
                         Standard orientation:                         
 ---------------------------------------------------------------------
 Center     Atomic      Atomic             Coordinates (Angstroms)
 Number     Number       Type             X           Y           Z
 ---------------------------------------------------------------------
      1          5           0        0.893461    0.000204   -0.002368
      2          6           0       -0.685132    0.002841    0.001726
      3          1           0       -1.133436   -0.380211    0.933990
      4          1           0        1.514871   -0.948140   -0.017399
      5          1           0        1.431445    0.991167    0.050162
      6          1           0       -1.116826    1.039178   -0.230882
      7          1           0       -1.052570   -0.720057   -0.734384
 ---------------------------------------------------------------------
 Rotational constants (GHZ):          98.4740531          21.1538116          19.3898569
 Standard basis: def2TZVPP (5D, 7F)
 There are   147 symmetry adapted cartesian basis functions of A   symmetry.
 There are   132 symmetry adapted basis functions of A   symmetry.
   132 basis functions,   187 primitive gaussians,   147 cartesian basis functions
     8 alpha electrons        8 beta electrons
       nuclear repulsion energy        31.7509706219 Hartrees.
 NAtoms=    7 NActive=    7 NUniq=    7 SFac= 1.00D+00 NAtFMM=   60 NAOKFM=F Big=F
 Integral buffers will be    131072 words long.
 Raffenetti 2 integral format.
 Two-electron integral symmetry is turned on.
 One-electron integrals computed using PRISM.
   1 Symmetry operations used in ECPInt.
 ECPInt:  NShTT=    1378 NPrTT=    3299 LenC2=    1379 LenP2D=    3097.
 LDataN:  DoStor=T MaxTD1= 6 Len=  172
 NBasis=   132 RedAO= T EigKep=  4.72D-04  NBF=   132
 NBsUse=   132 1.00D-06 EigRej= -1.00D+00 NBFU=   132
 ExpMin= 6.06D-02 ExpMax= 1.36D+04 ExpMxC= 4.63D+02 IAcc=3 IRadAn=         5 AccDes= 0.00D+00
 Harris functional with IExCor= 1009 and IRadAn=       5 diagonalized for initial guess.
 HarFok:  IExCor= 1009 AccDes= 0.00D+00 IRadAn=         5 IDoV= 1 UseB2=F ITyADJ=14
 ICtDFT=  3500011 ScaDFX=  1.000000  1.000000  1.000000  1.000000
 FoFCou: FMM=F IPFlag=           0 FMFlag=      100000 FMFlg1=           0
         NFxFlg=           0 DoJE=T BraDBF=F KetDBF=T FulRan=T
         wScrn=  0.000000 ICntrl=       500 IOpCl=  0 I1Cent=   200000004 NGrid=           0
         NMat0=    1 NMatS0=      1 NMatT0=    0 NMatD0=    1 NMtDS0=    0 NMtDT0=    0
 Petite list used in FoFCou.
 Keep R1 ints in memory in canonical form, NReq=44362774.
 Requested convergence on RMS density matrix=1.00D-08 within 128 cycles.
 Requested convergence on MAX density matrix=1.00D-06.
 Requested convergence on             energy=1.00D-06.
 No special actions if energy rises.
 Integral accuracy reduced to 1.0D-05 until final iterations.
 Initial convergence to 1.0D-05 achieved.  Increase integral accuracy.
 SCF Done:  E(RM062X) =  -65.9165192219     A.U. after   11 cycles
            NFock= 11  Conv=0.49D-08     -V/T= 2.0056

 **********************************************************************

            Population analysis using the SCF density.

 **********************************************************************

 Orbital symmetries:
       Occupied  (A) (A) (A) (A) (A) (A) (A) (A)
       Virtual   (A) (A) (A) (A) (A) (A) (A) (A) (A) (A) (A) (A)
                 (A) (A) (A) (A) (A) (A) (A) (A) (A) (A) (A) (A)
                 (A) (A) (A) (A) (A) (A) (A) (A) (A) (A) (A) (A)
                 (A) (A) (A) (A) (A) (A) (A) (A) (A) (A) (A) (A)
                 (A) (A) (A) (A) (A) (A) (A) (A) (A) (A) (A) (A)
                 (A) (A) (A) (A) (A) (A) (A) (A) (A) (A) (A) (A)
                 (A) (A) (A) (A) (A) (A) (A) (A) (A) (A) (A) (A)
                 (A) (A) (A) (A) (A) (A) (A) (A) (A) (A) (A) (A)
                 (A) (A) (A) (A) (A) (A) (A) (A) (A) (A) (A) (A)
                 (A) (A) (A) (A) (A) (A) (A) (A) (A) (A) (A) (A)
                 (A) (A) (A) (A)
 The electronic state is 1-A.
 Alpha  occ. eigenvalues --  -10.51542  -7.03498  -0.78407  -0.56677  -0.47829
 Alpha  occ. eigenvalues --   -0.45429  -0.39305  -0.38633
 Alpha virt. eigenvalues --   -0.01511   0.06137   0.09746   0.10516   0.12915
 Alpha virt. eigenvalues --    0.15888   0.17742   0.19938   0.22317   0.23103
 Alpha virt. eigenvalues --    0.24448   0.27021   0.31234   0.36516   0.42940
 Alpha virt. eigenvalues --    0.44859   0.45545   0.46565   0.47941   0.52241
 Alpha virt. eigenvalues --    0.52827   0.60825   0.67282   0.68999   0.71912
 Alpha virt. eigenvalues --    0.76044   0.81104   0.82575   0.83524   0.88980
 Alpha virt. eigenvalues --    0.91083   0.96805   0.99278   1.00278   1.01333
 Alpha virt. eigenvalues --    1.03063   1.14585   1.20596   1.21839   1.23623
 Alpha virt. eigenvalues --    1.28086   1.32019   1.33461   1.37542   1.46307
 Alpha virt. eigenvalues --    1.47727   1.51095   1.54922   1.59234   1.59279
 Alpha virt. eigenvalues --    1.77608   1.85200   1.87951   1.94488   1.96056
 Alpha virt. eigenvalues --    1.99706   2.05430   2.11745   2.15019   2.23603
 Alpha virt. eigenvalues --    2.24531   2.30076   2.39035   2.41058   2.47862
 Alpha virt. eigenvalues --    2.57780   2.58637   2.67575   2.83482   2.91609
 Alpha virt. eigenvalues --    2.96421   2.97809   3.04342   3.07504   3.11844
 Alpha virt. eigenvalues --    3.18131   3.26876   3.28574   3.31671   3.38719
 Alpha virt. eigenvalues --    3.40479   3.41794   3.45973   3.50922   3.59311
 Alpha virt. eigenvalues --    3.60854   3.63077   3.70708   3.72877   3.76362
 Alpha virt. eigenvalues --    3.86654   3.87979   3.90575   3.95395   3.97845
 Alpha virt. eigenvalues --    3.99394   4.03773   4.06377   4.10021   4.12715
 Alpha virt. eigenvalues --    4.17510   4.21124   4.28359   4.40250   4.43107
 Alpha virt. eigenvalues --    4.49182   4.59764   4.62075   4.63918   4.84335
 Alpha virt. eigenvalues --    4.85044   4.93446   4.96528   5.02063   5.05342
 Alpha virt. eigenvalues --    5.10680   5.18105   5.19877   5.27865   5.38527
 Alpha virt. eigenvalues --    5.49402   5.53233  15.58019  23.41047
          Condensed to atoms (all electrons):
               1          2          3          4          5          6
     1  B    3.919075   0.374476  -0.022731   0.432189   0.435173  -0.039741
     2  C    0.374476   4.895087   0.377521  -0.027335  -0.033956   0.408124
     3  H   -0.022731   0.377521   0.548611   0.000552   0.003121  -0.020263
     4  H    0.432189  -0.027335   0.000552   0.567728  -0.018942   0.003396
     5  H    0.435173  -0.033956   0.003121  -0.018942   0.568360  -0.006868
     6  H   -0.039741   0.408124  -0.020263   0.003396  -0.006868   0.573523
     7  H   -0.031899   0.389048  -0.013609  -0.002577   0.004218  -0.025906
               7
     1  B   -0.031899
     2  C    0.389048
     3  H   -0.013609
     4  H   -0.002577
     5  H    0.004218
     6  H   -0.025906
     7  H    0.559636
 Mulliken charges:
               1
     1  B   -0.066542
     2  C   -0.382965
     3  H    0.126799
     4  H    0.044990
     5  H    0.048894
     6  H    0.107736
     7  H    0.121089
 Sum of Mulliken charges =  -0.00000
 Mulliken charges with hydrogens summed into heavy atoms:
               1
     1  B    0.027341
     2  C   -0.027341
 Electronic spatial extent (au):  <R**2>=            104.8498
 Charge=             -0.0000 electrons
 Dipole moment (field-independent basis, Debye):
    X=             -0.4210    Y=             -0.1320    Z=             -0.0085  Tot=              0.4413
 Quadrupole moment (field-independent basis, Debye-Ang):
   XX=            -16.2198   YY=            -15.5056   ZZ=            -13.7956
   XY=              0.1180   XZ=             -0.1950   YZ=             -0.1400
 Traceless Quadrupole moment (field-independent basis, Debye-Ang):
   XX=             -1.0461   YY=             -0.3320   ZZ=              1.3781
   XY=              0.1180   XZ=             -0.1950   YZ=             -0.1400
 Octapole moment (field-independent basis, Debye-Ang**2):
  XXX=             -5.7629  YYY=              0.3068  ZZZ=              0.3182  XYY=             -2.9398
  XXY=             -0.3682  XXZ=              0.2462  XZZ=             -0.7553  YZZ=             -0.5694
  YYZ=             -0.3487  XYZ=              0.0702
 Hexadecapole moment (field-independent basis, Debye-Ang**3):
 XXXX=           -109.8749 YYYY=            -37.3841 ZZZZ=            -21.8542 XXXY=              0.1952
 XXXZ=             -0.5420 YYYX=             -0.4408 YYYZ=             -0.1103 ZZZX=             -0.7581
 ZZZY=             -0.1895 XXYY=            -23.9629 XXZZ=            -19.5076 YYZZ=            -10.0042
 XXYZ=             -0.2990 YYXZ=              0.4179 ZZXY=              0.8035
 N-N= 3.175097062185D+01 E-N=-2.151972876068D+02  KE= 6.554754395459D+01
 1\1\GINC-NODE85\SP\RM062X\def2TZVPP\C1H5B1\YANZ\22-Sep-2023\0\\# M062X
 /def2TZVPP\\tmpdir/M2_conf_0_17.gjf\\0,1\B,0,0.,0.,0.\C,0,1.5786,0.,0.
 \H,0,2.02868,0.,1.0071\H,0,-0.62303,0.88093,0.34861\H,0,-0.53619,-0.93
 756,-0.32814\H,0,2.01142,-0.86839,-0.61076\H,0,1.94292,0.9498,-0.40571
 \\Version=ES64L-G16RevA.03\State=1-A\HF=-65.9165192\RMSD=4.887e-09\Dip
 ole=0.165553,0.0497068,0.016412\Quadrupole=-0.7772824,-0.1353932,0.912
 6755,0.0235596,0.1713974,-0.3736964\PG=C01 [X(C1H5B1)]\\@


 TIMES HAVE CHANGED. IN THE BIBLE WHEN AN ASS
 SPOKE IT WAS CONSIDERED A MIRACLE.
 Job cpu time:       0 days  0 hours  0 minutes 50.4 seconds.
 Elapsed time:       0 days  0 hours  0 minutes  9.1 seconds.
 File lengths (MBytes):  RWF=     10 Int=      0 D2E=      0 Chk=      2 Scr=      1
 Normal termination of Gaussian 16 at Fri Sep 22 16:49:42 2023.
