 Entering Gaussian System, Link 0=g16
 Initial command:
 /share/apps/gaussian/g16/l1.exe "/tmp/55604.mgr/Gau-84963.inp" -scrdir="/tmp/55604.mgr/"
 Entering Link 1 = /share/apps/gaussian/g16/l1.exe PID=     84964.
  
 Copyright (c) 1988,1990,1992,1993,1995,1998,2003,2009,2016,
            Gaussian, Inc.  All Rights Reserved.
  
 This is part of the Gaussian(R) 16 program.  It is based on
 the Gaussian(R) 09 system (copyright 2009, Gaussian, Inc.),
 the Gaussian(R) 03 system (copyright 2003, Gaussian, Inc.),
 the Gaussian(R) 98 system (copyright 1998, Gaussian, Inc.),
 the Gaussian(R) 94 system (copyright 1995, Gaussian, Inc.),
 the Gaussian 92(TM) system (copyright 1992, Gaussian, Inc.),
 the Gaussian 90(TM) system (copyright 1990, Gaussian, Inc.),
 the Gaussian 88(TM) system (copyright 1988, Gaussian, Inc.),
 the Gaussian 86(TM) system (copyright 1986, Carnegie Mellon
 University), and the Gaussian 82(TM) system (copyright 1983,
 Carnegie Mellon University). Gaussian is a federally registered
 trademark of Gaussian, Inc.
  
 This software contains proprietary and confidential information,
 including trade secrets, belonging to Gaussian, Inc.
  
 This software is provided under written license and may be
 used, copied, transmitted, or stored only in accord with that
 written license.
  
 The following legend is applicable only to US Government
 contracts under FAR:
  
                    RESTRICTED RIGHTS LEGEND
  
 Use, reproduction and disclosure by the US Government is
 subject to restrictions as set forth in subparagraphs (a)
 and (c) of the Commercial Computer Software - Restricted
 Rights clause in FAR 52.227-19.
  
 Gaussian, Inc.
 340 Quinnipiac St., Bldg. 40, Wallingford CT 06492
  
  
 ---------------------------------------------------------------
 Warning -- This program may not be used in any manner that
 competes with the business of Gaussian, Inc. or will provide
 assistance to any competitor of Gaussian, Inc.  The licensee
 of this program is prohibited from giving any competitor of
 Gaussian, Inc. access to this program.  By using this program,
 the user acknowledges that Gaussian, Inc. is engaged in the
 business of creating and licensing software in the field of
 computational chemistry and represents and warrants to the
 licensee that it is not a competitor of Gaussian, Inc. and that
 it will not use this program in any manner prohibited above.
 ---------------------------------------------------------------
  

 Cite this work as:
 Gaussian 16, Revision A.03,
 M. J. Frisch, G. W. Trucks, H. B. Schlegel, G. E. Scuseria, 
 M. A. Robb, J. R. Cheeseman, G. Scalmani, V. Barone, 
 G. A. Petersson, H. Nakatsuji, X. Li, M. Caricato, A. V. Marenich, 
 J. Bloino, B. G. Janesko, R. Gomperts, B. Mennucci, H. P. Hratchian, 
 J. V. Ortiz, A. F. Izmaylov, J. L. Sonnenberg, D. Williams-Young, 
 F. Ding, F. Lipparini, F. Egidi, J. Goings, B. Peng, A. Petrone, 
 T. Henderson, D. Ranasinghe, V. G. Zakrzewski, J. Gao, N. Rega, 
 G. Zheng, W. Liang, M. Hada, M. Ehara, K. Toyota, R. Fukuda, 
 J. Hasegawa, M. Ishida, T. Nakajima, Y. Honda, O. Kitao, H. Nakai, 
 T. Vreven, K. Throssell, J. A. Montgomery, Jr., J. E. Peralta, 
 F. Ogliaro, M. J. Bearpark, J. J. Heyd, E. N. Brothers, K. N. Kudin, 
 V. N. Staroverov, T. A. Keith, R. Kobayashi, J. Normand, 
 K. Raghavachari, A. P. Rendell, J. C. Burant, S. S. Iyengar, 
 J. Tomasi, M. Cossi, J. M. Millam, M. Klene, C. Adamo, R. Cammi, 
 J. W. Ochterski, R. L. Martin, K. Morokuma, O. Farkas, 
 J. B. Foresman, and D. J. Fox, Gaussian, Inc., Wallingford CT, 2016.
 
 ******************************************
 Gaussian 16:  ES64L-G16RevA.03 25-Dec-2016
                22-Sep-2023 
 ******************************************
 %nprocshared=6
 Will use up to    6 processors via shared memory.
 %mem=6GB
 -----------------
 # M062X/def2TZVPP
 -----------------
 1/38=1,172=1/1;
 2/12=2,17=6,18=5,40=1/2;
 3/5=44,7=202,11=2,25=1,30=1,74=-55/1,2,3;
 4//1;
 5/5=2,38=5/2;
 6/7=2,8=2,9=2,10=2,28=1/1;
 99/5=1,9=1/99;
 -----------------------
 tmpdir/M2_conf_0_37.gjf
 -----------------------
 Symbolic Z-matrix:
 Charge =  0 Multiplicity = 1
 O                     0.        0.        0. 
 C                     1.4172    0.        0. 
 H                     1.80302   0.        1.01943 
 H                    -0.44329   0.65828   0.38067 
 H                     1.80576   0.87703  -0.51805 
 H                     1.74551  -0.90046  -0.51278 
 
                          Input orientation:                          
 ---------------------------------------------------------------------
 Center     Atomic      Atomic             Coordinates (Angstroms)
 Number     Number       Type             X           Y           Z
 ---------------------------------------------------------------------
      1          8           0        0.000000    0.000000    0.000000
      2          6           0        1.417200    0.000000    0.000000
      3          1           0        1.803020    0.000000    1.019430
      4          1           0       -0.443290    0.658280    0.380670
      5          1           0        1.805760    0.877030   -0.518050
      6          1           0        1.745510   -0.900460   -0.512780
 ---------------------------------------------------------------------
                    Distance matrix (angstroms):
                    1          2          3          4          5
     1  O    0.000000
     2  C    1.417200   0.000000
     3  H    2.071260   1.089998   0.000000
     4  H    0.880198   2.009892   2.426367   0.000000
     5  H    2.073241   1.090200   1.770038   2.431825   0.000000
     6  H    2.029920   1.086995   1.778146   2.831743   1.778519
                    6
     6  H    0.000000
 Stoichiometry    CH4O
 Framework group  C1[X(CH4O)]
 Deg. of freedom    12
 Full point group                 C1      NOp   1
 Largest Abelian subgroup         C1      NOp   1
 Largest concise Abelian subgroup C1      NOp   1
                         Standard orientation:                         
 ---------------------------------------------------------------------
 Center     Atomic      Atomic             Coordinates (Angstroms)
 Number     Number       Type             X           Y           Z
 ---------------------------------------------------------------------
      1          8           0       -0.738659    0.106869    0.000284
      2          6           0        0.672934   -0.019077    0.000029
      3          1           0        1.011805   -0.560664   -0.883117
      4          1           0       -1.247773   -0.611149   -0.000499
      5          1           0        1.015601   -0.552535    0.886899
      6          1           0        1.092032    0.983860   -0.005726
 ---------------------------------------------------------------------
 Rotational constants (GHZ):         136.6079895          24.6515019          24.0166346
 Standard basis: def2TZVPP (5D, 7F)
 There are   132 symmetry adapted cartesian basis functions of A   symmetry.
 There are   118 symmetry adapted basis functions of A   symmetry.
   118 basis functions,   170 primitive gaussians,   132 cartesian basis functions
     9 alpha electrons        9 beta electrons
       nuclear repulsion energy        40.7465926723 Hartrees.
 NAtoms=    6 NActive=    6 NUniq=    6 SFac= 1.00D+00 NAtFMM=   60 NAOKFM=F Big=F
 Integral buffers will be    131072 words long.
 Raffenetti 2 integral format.
 Two-electron integral symmetry is turned on.
 One-electron integrals computed using PRISM.
   1 Symmetry operations used in ECPInt.
 ECPInt:  NShTT=    1081 NPrTT=    2684 LenC2=    1081 LenP2D=    2512.
 LDataN:  DoStor=T MaxTD1= 6 Len=  172
 NBasis=   118 RedAO= T EigKep=  5.83D-04  NBF=   118
 NBsUse=   118 1.00D-06 EigRej= -1.00D+00 NBFU=   118
 ExpMin= 9.52D-02 ExpMax= 2.70D+04 ExpMxC= 9.22D+02 IAcc=3 IRadAn=         5 AccDes= 0.00D+00
 Harris functional with IExCor= 1009 and IRadAn=       5 diagonalized for initial guess.
 HarFok:  IExCor= 1009 AccDes= 0.00D+00 IRadAn=         5 IDoV= 1 UseB2=F ITyADJ=14
 ICtDFT=  3500011 ScaDFX=  1.000000  1.000000  1.000000  1.000000
 FoFCou: FMM=F IPFlag=           0 FMFlag=      100000 FMFlg1=           0
         NFxFlg=           0 DoJE=T BraDBF=F KetDBF=T FulRan=T
         wScrn=  0.000000 ICntrl=       500 IOpCl=  0 I1Cent=   200000004 NGrid=           0
         NMat0=    1 NMatS0=      1 NMatT0=    0 NMatD0=    1 NMtDS0=    0 NMtDT0=    0
 Petite list used in FoFCou.
 Keep R1 ints in memory in canonical form, NReq=30406467.
 Requested convergence on RMS density matrix=1.00D-08 within 128 cycles.
 Requested convergence on MAX density matrix=1.00D-06.
 Requested convergence on             energy=1.00D-06.
 No special actions if energy rises.
 Integral accuracy reduced to 1.0D-05 until final iterations.
 Initial convergence to 1.0D-05 achieved.  Increase integral accuracy.
 SCF Done:  E(RM062X) =  -115.707651521     A.U. after   11 cycles
            NFock= 11  Conv=0.34D-08     -V/T= 2.0032

 **********************************************************************

            Population analysis using the SCF density.

 **********************************************************************

 Orbital symmetries:
       Occupied  (A) (A) (A) (A) (A) (A) (A) (A) (A)
       Virtual   (A) (A) (A) (A) (A) (A) (A) (A) (A) (A) (A) (A)
                 (A) (A) (A) (A) (A) (A) (A) (A) (A) (A) (A) (A)
                 (A) (A) (A) (A) (A) (A) (A) (A) (A) (A) (A) (A)
                 (A) (A) (A) (A) (A) (A) (A) (A) (A) (A) (A) (A)
                 (A) (A) (A) (A) (A) (A) (A) (A) (A) (A) (A) (A)
                 (A) (A) (A) (A) (A) (A) (A) (A) (A) (A) (A) (A)
                 (A) (A) (A) (A) (A) (A) (A) (A) (A) (A) (A) (A)
                 (A) (A) (A) (A) (A) (A) (A) (A) (A) (A) (A) (A)
                 (A) (A) (A) (A) (A) (A) (A) (A) (A) (A) (A) (A)
                 (A)
 The electronic state is 1-A.
 Alpha  occ. eigenvalues --  -19.60769 -10.57914  -1.14984  -0.79083  -0.59560
 Alpha  occ. eigenvalues --   -0.51588  -0.50585  -0.39919  -0.35352
 Alpha virt. eigenvalues --    0.06888   0.10696   0.15520   0.15762   0.17188
 Alpha virt. eigenvalues --    0.24537   0.25512   0.34631   0.39659   0.44212
 Alpha virt. eigenvalues --    0.47130   0.48256   0.52605   0.53354   0.54233
 Alpha virt. eigenvalues --    0.58860   0.67094   0.74196   0.78029   0.78646
 Alpha virt. eigenvalues --    0.90754   0.91512   0.98645   0.98916   1.04485
 Alpha virt. eigenvalues --    1.10066   1.12003   1.20657   1.29247   1.29494
 Alpha virt. eigenvalues --    1.33258   1.40946   1.46900   1.48395   1.54962
 Alpha virt. eigenvalues --    1.68408   1.78403   1.90253   1.91903   1.94260
 Alpha virt. eigenvalues --    2.02800   2.13841   2.14003   2.51487   2.53000
 Alpha virt. eigenvalues --    2.60265   2.61923   2.75065   2.76165   2.83843
 Alpha virt. eigenvalues --    2.86599   2.88659   2.92126   2.92760   3.00159
 Alpha virt. eigenvalues --    3.02822   3.11119   3.20852   3.28550   3.32303
 Alpha virt. eigenvalues --    3.40117   3.40494   3.45005   3.48452   3.54925
 Alpha virt. eigenvalues --    3.61741   3.63883   3.68508   3.74157   3.75143
 Alpha virt. eigenvalues --    3.80929   3.92395   3.94668   3.97351   4.02315
 Alpha virt. eigenvalues --    4.12862   4.14432   4.20825   4.25686   4.32915
 Alpha virt. eigenvalues --    4.41974   4.50041   4.57531   4.69272   4.80609
 Alpha virt. eigenvalues --    4.88614   4.95163   5.07052   5.09346   5.17773
 Alpha virt. eigenvalues --    5.22148   5.23336   5.28830   5.41653   5.49384
 Alpha virt. eigenvalues --    5.61379   5.68270   6.02077   6.08635   6.52490
 Alpha virt. eigenvalues --    6.59233   6.82846   6.90503   6.91087   7.06578
 Alpha virt. eigenvalues --    7.58375   7.64781  23.61195  44.17415
          Condensed to atoms (all electrons):
               1          2          3          4          5          6
     1  O    7.845451   0.267217  -0.047358   0.362982  -0.047208  -0.036134
     2  C    0.267217   4.713055   0.416517  -0.040191   0.416101   0.399960
     3  H   -0.047358   0.416517   0.600133  -0.006166  -0.044179  -0.033078
     4  H    0.362982  -0.040191  -0.006166   0.519349  -0.006028   0.008973
     5  H   -0.047208   0.416101  -0.044179  -0.006028   0.600474  -0.033306
     6  H   -0.036134   0.399960  -0.033078   0.008973  -0.033306   0.565337
 Mulliken charges:
               1
     1  O   -0.344949
     2  C   -0.172659
     3  H    0.114132
     4  H    0.161082
     5  H    0.114146
     6  H    0.128248
 Sum of Mulliken charges =  -0.00000
 Mulliken charges with hydrogens summed into heavy atoms:
               1
     1  O   -0.183867
     2  C    0.183867
 Electronic spatial extent (au):  <R**2>=             83.9516
 Charge=             -0.0000 electrons
 Dipole moment (field-independent basis, Debye):
    X=              0.6843    Y=             -1.3564    Z=             -0.0026  Tot=              1.5192
 Quadrupole moment (field-independent basis, Debye-Ang):
   XX=            -12.2037   YY=            -12.5284   ZZ=            -13.6984
   XY=              2.2184   XZ=              0.0031   YZ=             -0.0004
 Traceless Quadrupole moment (field-independent basis, Debye-Ang):
   XX=              0.6065   YY=              0.2818   ZZ=             -0.8882
   XY=              2.2184   XZ=              0.0031   YZ=             -0.0004
 Octapole moment (field-independent basis, Debye-Ang**2):
  XXX=             -5.8484  YYY=             -0.2153  ZZZ=              0.0045  XYY=             -1.4249
  XXY=             -2.3886  XXZ=             -0.0014  XZZ=             -0.4815  YZZ=             -0.6884
  YYZ=             -0.0096  XYZ=             -0.0041
 Hexadecapole moment (field-independent basis, Debye-Ang**3):
 XXXX=            -59.7693 YYYY=            -20.1516 ZZZZ=            -20.0169 XXXY=              4.5162
 XXXZ=              0.0070 YYYX=              2.7605 YYYZ=             -0.0009 ZZZX=              0.0091
 ZZZY=              0.0009 XXYY=            -12.6809 XXZZ=            -14.3659 YYZZ=             -6.7358
 XXYZ=             -0.0045 YYXZ=             -0.0084 ZZXY=             -0.1143
 N-N= 4.074659267233D+01 E-N=-3.531000257321D+02  KE= 1.153402966074D+02
 1\1\GINC-NODE85\SP\RM062X\def2TZVPP\C1H4O1\YANZ\22-Sep-2023\0\\# M062X
 /def2TZVPP\\tmpdir/M2_conf_0_37.gjf\\0,1\O,0,0.,0.,0.\C,0,1.4172,0.,0.
 \H,0,1.80302,0.,1.01943\H,0,-0.44329,0.65828,0.38067\H,0,1.80576,0.877
 03,-0.51805\H,0,1.74551,-0.90046,-0.51278\\Version=ES64L-G16RevA.03\St
 ate=1-A\HF=-115.7076515\RMSD=3.357e-09\Dipole=0.3155783,0.4392383,0.25
 44385\Quadrupole=0.1569933,0.2126938,-0.3696871,-1.4234397,-0.8238686,
 0.5037859\PG=C01 [X(C1H4O1)]\\@


 CONTRAIWISE...CONTINUED TWEEDLEDEE, IF IT WAS SO, IT MIGHT BE,
 AND IF IT WERE SO, IT WOULD BE.....
 BUT AS IT ISN'T, IT AIN'T....
 THAT'S LOGIC.....
 ALICE THROUGH THE LOOKING GLASS
 Job cpu time:       0 days  0 hours  0 minutes 39.7 seconds.
 Elapsed time:       0 days  0 hours  0 minutes  7.2 seconds.
 File lengths (MBytes):  RWF=     11 Int=      0 D2E=      0 Chk=      2 Scr=      1
 Normal termination of Gaussian 16 at Fri Sep 22 16:50:17 2023.
