 Entering Gaussian System, Link 0=g16
 Initial command:
 /share/apps/gaussian/g16/l1.exe "/tmp/55604.mgr/Gau-84736.inp" -scrdir="/tmp/55604.mgr/"
 Entering Link 1 = /share/apps/gaussian/g16/l1.exe PID=     84737.
  
 Copyright (c) 1988,1990,1992,1993,1995,1998,2003,2009,2016,
            Gaussian, Inc.  All Rights Reserved.
  
 This is part of the Gaussian(R) 16 program.  It is based on
 the Gaussian(R) 09 system (copyright 2009, Gaussian, Inc.),
 the Gaussian(R) 03 system (copyright 2003, Gaussian, Inc.),
 the Gaussian(R) 98 system (copyright 1998, Gaussian, Inc.),
 the Gaussian(R) 94 system (copyright 1995, Gaussian, Inc.),
 the Gaussian 92(TM) system (copyright 1992, Gaussian, Inc.),
 the Gaussian 90(TM) system (copyright 1990, Gaussian, Inc.),
 the Gaussian 88(TM) system (copyright 1988, Gaussian, Inc.),
 the Gaussian 86(TM) system (copyright 1986, Carnegie Mellon
 University), and the Gaussian 82(TM) system (copyright 1983,
 Carnegie Mellon University). Gaussian is a federally registered
 trademark of Gaussian, Inc.
  
 This software contains proprietary and confidential information,
 including trade secrets, belonging to Gaussian, Inc.
  
 This software is provided under written license and may be
 used, copied, transmitted, or stored only in accord with that
 written license.
  
 The following legend is applicable only to US Government
 contracts under FAR:
  
                    RESTRICTED RIGHTS LEGEND
  
 Use, reproduction and disclosure by the US Government is
 subject to restrictions as set forth in subparagraphs (a)
 and (c) of the Commercial Computer Software - Restricted
 Rights clause in FAR 52.227-19.
  
 Gaussian, Inc.
 340 Quinnipiac St., Bldg. 40, Wallingford CT 06492
  
  
 ---------------------------------------------------------------
 Warning -- This program may not be used in any manner that
 competes with the business of Gaussian, Inc. or will provide
 assistance to any competitor of Gaussian, Inc.  The licensee
 of this program is prohibited from giving any competitor of
 Gaussian, Inc. access to this program.  By using this program,
 the user acknowledges that Gaussian, Inc. is engaged in the
 business of creating and licensing software in the field of
 computational chemistry and represents and warrants to the
 licensee that it is not a competitor of Gaussian, Inc. and that
 it will not use this program in any manner prohibited above.
 ---------------------------------------------------------------
  

 Cite this work as:
 Gaussian 16, Revision A.03,
 M. J. Frisch, G. W. Trucks, H. B. Schlegel, G. E. Scuseria, 
 M. A. Robb, J. R. Cheeseman, G. Scalmani, V. Barone, 
 G. A. Petersson, H. Nakatsuji, X. Li, M. Caricato, A. V. Marenich, 
 J. Bloino, B. G. Janesko, R. Gomperts, B. Mennucci, H. P. Hratchian, 
 J. V. Ortiz, A. F. Izmaylov, J. L. Sonnenberg, D. Williams-Young, 
 F. Ding, F. Lipparini, F. Egidi, J. Goings, B. Peng, A. Petrone, 
 T. Henderson, D. Ranasinghe, V. G. Zakrzewski, J. Gao, N. Rega, 
 G. Zheng, W. Liang, M. Hada, M. Ehara, K. Toyota, R. Fukuda, 
 J. Hasegawa, M. Ishida, T. Nakajima, Y. Honda, O. Kitao, H. Nakai, 
 T. Vreven, K. Throssell, J. A. Montgomery, Jr., J. E. Peralta, 
 F. Ogliaro, M. J. Bearpark, J. J. Heyd, E. N. Brothers, K. N. Kudin, 
 V. N. Staroverov, T. A. Keith, R. Kobayashi, J. Normand, 
 K. Raghavachari, A. P. Rendell, J. C. Burant, S. S. Iyengar, 
 J. Tomasi, M. Cossi, J. M. Millam, M. Klene, C. Adamo, R. Cammi, 
 J. W. Ochterski, R. L. Martin, K. Morokuma, O. Farkas, 
 J. B. Foresman, and D. J. Fox, Gaussian, Inc., Wallingford CT, 2016.
 
 ******************************************
 Gaussian 16:  ES64L-G16RevA.03 25-Dec-2016
                22-Sep-2023 
 ******************************************
 %nprocshared=6
 Will use up to    6 processors via shared memory.
 %mem=6GB
 -----------------
 # M062X/def2TZVPP
 -----------------
 1/38=1,172=1/1;
 2/12=2,17=6,18=5,40=1/2;
 3/5=44,7=202,11=2,25=1,30=1,74=-55/1,2,3;
 4//1;
 5/5=2,38=5/2;
 6/7=2,8=2,9=2,10=2,28=1/1;
 99/5=1,9=1/99;
 -----------------------
 tmpdir/M2_conf_0_23.gjf
 -----------------------
 Symbolic Z-matrix:
 Charge =  0 Multiplicity = 1
 B                     0.        0.        0. 
 O                     1.3581    0.        0. 
 C                     2.00414   0.        1.26138 
 H                    -0.55315   0.0245   -1.02444 
 H                    -0.53705   0.01412   0.99855 
 H                     1.73634   0.88751   1.8351 
 H                     1.72691  -0.88191   1.83885 
 H                     3.07609  -0.00669   1.08124 
 
                          Input orientation:                          
 ---------------------------------------------------------------------
 Center     Atomic      Atomic             Coordinates (Angstroms)
 Number     Number       Type             X           Y           Z
 ---------------------------------------------------------------------
      1          5           0        0.000000    0.000000    0.000000
      2          8           0        1.358100    0.000000    0.000000
      3          6           0        2.004140    0.000000    1.261380
      4          1           0       -0.553150    0.024500   -1.024440
      5          1           0       -0.537050    0.014120    0.998550
      6          1           0        1.736340    0.887510    1.835100
      7          1           0        1.726910   -0.881910    1.838850
      8          1           0        3.076090   -0.006690    1.081240
 ---------------------------------------------------------------------
                    Distance matrix (angstroms):
                    1          2          3          4          5
     1  B    0.000000
     2  O    1.358100   0.000000
     3  C    2.368049   1.417197   0.000000
     4  H    1.164497   2.168630   3.430059   0.000000
     5  H    1.133898   2.142171   2.554785   2.023081   0.000000
     6  H    2.677712   2.073242   1.090204   3.763445   2.575059
     7  H    2.672331   2.072476   1.089997   3.770767   2.575750
     8  H    3.260591   2.029930   1.087001   4.195980   3.614146
                    6          7          8
     6  H    0.000000
     7  H    1.769449   0.000000
     8  H    1.778434   1.777715   0.000000
 Stoichiometry    CH5BO
 Framework group  C1[X(CH5BO)]
 Deg. of freedom    18
 Full point group                 C1      NOp   1
 Largest Abelian subgroup         C1      NOp   1
 Largest concise Abelian subgroup C1      NOp   1
                         Standard orientation:                         
 ---------------------------------------------------------------------
 Center     Atomic      Atomic             Coordinates (Angstroms)
 Number     Number       Type             X           Y           Z
 ---------------------------------------------------------------------
      1          5           0        1.264750    0.239119   -0.005684
      2          8           0        0.141032   -0.523552   -0.000477
      3          6           0       -1.101877    0.157345    0.000998
      4          1           0        2.297807   -0.297824    0.017509
      5          1           0        1.148390    1.366974    0.005584
      6          1           0       -1.200064    0.784937    0.887019
      7          1           0       -1.199191    0.788364   -0.882426
      8          1           0       -1.887685   -0.593702   -0.001439
 ---------------------------------------------------------------------
 Rotational constants (GHZ):          48.6419341          10.7253977           9.2981063
 Standard basis: def2TZVPP (5D, 7F)
 There are   183 symmetry adapted cartesian basis functions of A   symmetry.
 There are   163 symmetry adapted basis functions of A   symmetry.
   163 basis functions,   238 primitive gaussians,   183 cartesian basis functions
    12 alpha electrons       12 beta electrons
       nuclear repulsion energy        70.7414997250 Hartrees.
 NAtoms=    8 NActive=    8 NUniq=    8 SFac= 1.00D+00 NAtFMM=   60 NAOKFM=F Big=F
 Integral buffers will be    131072 words long.
 Raffenetti 2 integral format.
 Two-electron integral symmetry is turned on.
 One-electron integrals computed using PRISM.
   1 Symmetry operations used in ECPInt.
 ECPInt:  NShTT=    2016 NPrTT=    5131 LenC2=    2015 LenP2D=    4657.
 LDataN:  DoStor=T MaxTD1= 6 Len=  172
 NBasis=   163 RedAO= T EigKep=  3.87D-04  NBF=   163
 NBsUse=   163 1.00D-06 EigRej= -1.00D+00 NBFU=   163
 ExpMin= 6.06D-02 ExpMax= 2.70D+04 ExpMxC= 9.22D+02 IAcc=3 IRadAn=         5 AccDes= 0.00D+00
 Harris functional with IExCor= 1009 and IRadAn=       5 diagonalized for initial guess.
 HarFok:  IExCor= 1009 AccDes= 0.00D+00 IRadAn=         5 IDoV= 1 UseB2=F ITyADJ=14
 ICtDFT=  3500011 ScaDFX=  1.000000  1.000000  1.000000  1.000000
 FoFCou: FMM=F IPFlag=           0 FMFlag=      100000 FMFlg1=           0
         NFxFlg=           0 DoJE=T BraDBF=F KetDBF=T FulRan=T
         wScrn=  0.000000 ICntrl=       500 IOpCl=  0 I1Cent=   200000004 NGrid=           0
         NMat0=    1 NMatS0=      1 NMatT0=    0 NMatD0=    1 NMtDS0=    0 NMtDT0=    0
 Petite list used in FoFCou.
 Keep R1 ints in memory in canonical form, NReq=95387557.
 Requested convergence on RMS density matrix=1.00D-08 within 128 cycles.
 Requested convergence on MAX density matrix=1.00D-06.
 Requested convergence on             energy=1.00D-06.
 No special actions if energy rises.
 Integral accuracy reduced to 1.0D-05 until final iterations.
 Initial convergence to 1.0D-05 achieved.  Increase integral accuracy.
 SCF Done:  E(RM062X) =  -141.195990515     A.U. after   12 cycles
            NFock= 12  Conv=0.70D-08     -V/T= 2.0043

 **********************************************************************

            Population analysis using the SCF density.

 **********************************************************************

 Orbital symmetries:
       Occupied  (A) (A) (A) (A) (A) (A) (A) (A) (A) (A) (A) (A)
       Virtual   (A) (A) (A) (A) (A) (A) (A) (A) (A) (A) (A) (A)
                 (A) (A) (A) (A) (A) (A) (A) (A) (A) (A) (A) (A)
                 (A) (A) (A) (A) (A) (A) (A) (A) (A) (A) (A) (A)
                 (A) (A) (A) (A) (A) (A) (A) (A) (A) (A) (A) (A)
                 (A) (A) (A) (A) (A) (A) (A) (A) (A) (A) (A) (A)
                 (A) (A) (A) (A) (A) (A) (A) (A) (A) (A) (A) (A)
                 (A) (A) (A) (A) (A) (A) (A) (A) (A) (A) (A) (A)
                 (A) (A) (A) (A) (A) (A) (A) (A) (A) (A) (A) (A)
                 (A) (A) (A) (A) (A) (A) (A) (A) (A) (A) (A) (A)
                 (A) (A) (A) (A) (A) (A) (A) (A) (A) (A) (A) (A)
                 (A) (A) (A) (A) (A) (A) (A) (A) (A) (A) (A) (A)
                 (A) (A) (A) (A) (A) (A) (A) (A) (A) (A) (A) (A)
                 (A) (A) (A) (A) (A) (A) (A)
 The electronic state is 1-A.
 Alpha  occ. eigenvalues --  -19.64670 -10.58830  -7.04908  -1.16215  -0.79466
 Alpha  occ. eigenvalues --   -0.61907  -0.54515  -0.53858  -0.50470  -0.42714
 Alpha  occ. eigenvalues --   -0.39169  -0.37699
 Alpha virt. eigenvalues --    0.01208   0.06951   0.09817   0.10533   0.12614
 Alpha virt. eigenvalues --    0.15374   0.16336   0.17909   0.18650   0.20543
 Alpha virt. eigenvalues --    0.25290   0.25616   0.29560   0.36170   0.37534
 Alpha virt. eigenvalues --    0.39593   0.42374   0.44917   0.47030   0.47983
 Alpha virt. eigenvalues --    0.50178   0.55147   0.56488   0.57572   0.61497
 Alpha virt. eigenvalues --    0.62428   0.68514   0.71012   0.74263   0.76312
 Alpha virt. eigenvalues --    0.78066   0.81455   0.87024   0.89753   0.94634
 Alpha virt. eigenvalues --    0.95455   0.97154   1.00042   1.00328   1.04348
 Alpha virt. eigenvalues --    1.10297   1.10501   1.12617   1.14511   1.24383
 Alpha virt. eigenvalues --    1.28317   1.28763   1.33054   1.40051   1.45340
 Alpha virt. eigenvalues --    1.45380   1.46960   1.48725   1.54393   1.61013
 Alpha virt. eigenvalues --    1.64793   1.69099   1.75359   1.82766   1.87953
 Alpha virt. eigenvalues --    1.91933   1.94466   1.99181   2.00937   2.09005
 Alpha virt. eigenvalues --    2.10231   2.12470   2.24174   2.25903   2.26578
 Alpha virt. eigenvalues --    2.28768   2.39967   2.45068   2.50890   2.56856
 Alpha virt. eigenvalues --    2.57070   2.67044   2.73937   2.80463   2.82627
 Alpha virt. eigenvalues --    2.90750   2.91649   2.93145   3.02602   3.04140
 Alpha virt. eigenvalues --    3.04751   3.08488   3.12277   3.23843   3.27577
 Alpha virt. eigenvalues --    3.28443   3.32353   3.36248   3.43998   3.45074
 Alpha virt. eigenvalues --    3.52872   3.56148   3.58242   3.61229   3.64710
 Alpha virt. eigenvalues --    3.69724   3.75002   3.79491   3.82854   3.85741
 Alpha virt. eigenvalues --    3.90715   3.92952   3.96989   4.00899   4.02669
 Alpha virt. eigenvalues --    4.07506   4.11309   4.13549   4.19026   4.23258
 Alpha virt. eigenvalues --    4.26284   4.35072   4.41249   4.44338   4.52926
 Alpha virt. eigenvalues --    4.55099   4.61274   4.67100   4.72204   4.83746
 Alpha virt. eigenvalues --    4.93731   4.95265   4.97443   5.03392   5.05886
 Alpha virt. eigenvalues --    5.17884   5.22527   5.30147   5.35751   5.37698
 Alpha virt. eigenvalues --    5.50003   5.53228   5.55513   5.72737   5.87893
 Alpha virt. eigenvalues --    5.96863   6.25154   6.35273   6.71252   6.72151
 Alpha virt. eigenvalues --    6.88649   7.17508   7.27882  16.05626  23.66641
 Alpha virt. eigenvalues --   43.98656
          Condensed to atoms (all electrons):
               1          2          3          4          5          6
     1  B    3.688425   0.449094  -0.055491   0.421295   0.433866  -0.016504
     2  O    0.449094   7.785743   0.219873  -0.016416  -0.037013  -0.038007
     3  C   -0.055491   0.219873   4.792556   0.004215  -0.006360   0.417532
     4  H    0.421295  -0.016416   0.004215   0.620977  -0.036525  -0.000369
     5  H    0.433866  -0.037013  -0.006360  -0.036525   0.631334   0.001407
     6  H   -0.016504  -0.038007   0.417532  -0.000369   0.001407   0.579330
     7  H   -0.017031  -0.038058   0.416980  -0.000484   0.001529  -0.041532
     8  H    0.008376  -0.035591   0.415141   0.000031   0.000057  -0.028198
               7          8
     1  B   -0.017031   0.008376
     2  O   -0.038058  -0.035591
     3  C    0.416980   0.415141
     4  H   -0.000484   0.000031
     5  H    0.001529   0.000057
     6  H   -0.041532  -0.028198
     7  H    0.581104  -0.027989
     8  H   -0.027989   0.532879
 Mulliken charges:
               1
     1  B    0.087970
     2  O   -0.289624
     3  C   -0.204446
     4  H    0.007277
     5  H    0.011706
     6  H    0.126341
     7  H    0.125482
     8  H    0.135295
 Sum of Mulliken charges =  -0.00000
 Mulliken charges with hydrogens summed into heavy atoms:
               1
     1  B    0.106952
     2  O   -0.289624
     3  C    0.182672
 Electronic spatial extent (au):  <R**2>=            173.4511
 Charge=             -0.0000 electrons
 Dipole moment (field-independent basis, Debye):
    X=             -1.1976    Y=              0.9627    Z=             -0.0250  Tot=              1.5368
 Quadrupole moment (field-independent basis, Debye-Ang):
   XX=            -19.1351   YY=            -21.3301   ZZ=            -18.8465
   XY=              0.0775   XZ=             -0.0451   YZ=             -0.0019
 Traceless Quadrupole moment (field-independent basis, Debye-Ang):
   XX=              0.6354   YY=             -1.5595   ZZ=              0.9241
   XY=              0.0775   XZ=             -0.0451   YZ=             -0.0019
 Octapole moment (field-independent basis, Debye-Ang**2):
  XXX=            -10.4366  YYY=             -3.7265  ZZZ=             -0.0202  XYY=             -3.6607
  XXY=             -1.8838  XXZ=             -0.0510  XZZ=             -1.2462  YZZ=             -0.0778
  YYZ=              0.0112  XYZ=             -0.0124
 Hexadecapole moment (field-independent basis, Debye-Ang**3):
 XXXX=           -183.5370 YYYY=            -54.2970 ZZZZ=            -25.5422 XXXY=             -0.3352
 XXXZ=             -0.0587 YYYX=             -2.4236 YYYZ=              0.0210 ZZZX=             -0.0657
 ZZZY=              0.0025 XXYY=            -38.2300 XXZZ=            -33.0479 YYZZ=            -12.7393
 XXYZ=             -0.0165 YYXZ=              0.0097 ZZXY=             -0.9537
 N-N= 7.074149972496D+01 E-N=-4.712863941460D+02  KE= 1.405982716637D+02
 1\1\GINC-NODE85\SP\RM062X\def2TZVPP\C1H5B1O1\YANZ\22-Sep-2023\0\\# M06
 2X/def2TZVPP\\tmpdir/M2_conf_0_23.gjf\\0,1\B,0,0.,0.,0.\O,0,1.3581,0.,
 0.\C,0,2.00414,0.,1.26138\H,0,-0.55315,0.0245,-1.02444\H,0,-0.53705,0.
 01412,0.99855\H,0,1.73634,0.88751,1.8351\H,0,1.72691,-0.88191,1.83885\
 H,0,3.07609,-0.00669,1.08124\\Version=ES64L-G16RevA.03\State=1-A\HF=-1
 41.1959905\RMSD=6.982e-09\Dipole=0.1771049,-0.0100726,0.5779976\Quadru
 pole=0.0115373,0.6868227,-0.69836,0.0317073,0.7370414,0.0136942\PG=C01
  [X(C1H5B1O1)]\\@


 MICRO CREDO - NEVER TRUST A COMPUTER BIGGER
               BIGGER THAN YOU CAN LIFT.
 Job cpu time:       0 days  0 hours  1 minutes 37.2 seconds.
 Elapsed time:       0 days  0 hours  0 minutes 18.0 seconds.
 File lengths (MBytes):  RWF=     14 Int=      0 D2E=      0 Chk=      3 Scr=      1
 Normal termination of Gaussian 16 at Fri Sep 22 16:50:20 2023.
