 Entering Gaussian System, Link 0=g16
 Initial command:
 /share/apps/gaussian/g16/l1.exe "/tmp/55604.mgr/Gau-84029.inp" -scrdir="/tmp/55604.mgr/"
 Entering Link 1 = /share/apps/gaussian/g16/l1.exe PID=     84030.
  
 Copyright (c) 1988,1990,1992,1993,1995,1998,2003,2009,2016,
            Gaussian, Inc.  All Rights Reserved.
  
 This is part of the Gaussian(R) 16 program.  It is based on
 the Gaussian(R) 09 system (copyright 2009, Gaussian, Inc.),
 the Gaussian(R) 03 system (copyright 2003, Gaussian, Inc.),
 the Gaussian(R) 98 system (copyright 1998, Gaussian, Inc.),
 the Gaussian(R) 94 system (copyright 1995, Gaussian, Inc.),
 the Gaussian 92(TM) system (copyright 1992, Gaussian, Inc.),
 the Gaussian 90(TM) system (copyright 1990, Gaussian, Inc.),
 the Gaussian 88(TM) system (copyright 1988, Gaussian, Inc.),
 the Gaussian 86(TM) system (copyright 1986, Carnegie Mellon
 University), and the Gaussian 82(TM) system (copyright 1983,
 Carnegie Mellon University). Gaussian is a federally registered
 trademark of Gaussian, Inc.
  
 This software contains proprietary and confidential information,
 including trade secrets, belonging to Gaussian, Inc.
  
 This software is provided under written license and may be
 used, copied, transmitted, or stored only in accord with that
 written license.
  
 The following legend is applicable only to US Government
 contracts under FAR:
  
                    RESTRICTED RIGHTS LEGEND
  
 Use, reproduction and disclosure by the US Government is
 subject to restrictions as set forth in subparagraphs (a)
 and (c) of the Commercial Computer Software - Restricted
 Rights clause in FAR 52.227-19.
  
 Gaussian, Inc.
 340 Quinnipiac St., Bldg. 40, Wallingford CT 06492
  
  
 ---------------------------------------------------------------
 Warning -- This program may not be used in any manner that
 competes with the business of Gaussian, Inc. or will provide
 assistance to any competitor of Gaussian, Inc.  The licensee
 of this program is prohibited from giving any competitor of
 Gaussian, Inc. access to this program.  By using this program,
 the user acknowledges that Gaussian, Inc. is engaged in the
 business of creating and licensing software in the field of
 computational chemistry and represents and warrants to the
 licensee that it is not a competitor of Gaussian, Inc. and that
 it will not use this program in any manner prohibited above.
 ---------------------------------------------------------------
  

 Cite this work as:
 Gaussian 16, Revision A.03,
 M. J. Frisch, G. W. Trucks, H. B. Schlegel, G. E. Scuseria, 
 M. A. Robb, J. R. Cheeseman, G. Scalmani, V. Barone, 
 G. A. Petersson, H. Nakatsuji, X. Li, M. Caricato, A. V. Marenich, 
 J. Bloino, B. G. Janesko, R. Gomperts, B. Mennucci, H. P. Hratchian, 
 J. V. Ortiz, A. F. Izmaylov, J. L. Sonnenberg, D. Williams-Young, 
 F. Ding, F. Lipparini, F. Egidi, J. Goings, B. Peng, A. Petrone, 
 T. Henderson, D. Ranasinghe, V. G. Zakrzewski, J. Gao, N. Rega, 
 G. Zheng, W. Liang, M. Hada, M. Ehara, K. Toyota, R. Fukuda, 
 J. Hasegawa, M. Ishida, T. Nakajima, Y. Honda, O. Kitao, H. Nakai, 
 T. Vreven, K. Throssell, J. A. Montgomery, Jr., J. E. Peralta, 
 F. Ogliaro, M. J. Bearpark, J. J. Heyd, E. N. Brothers, K. N. Kudin, 
 V. N. Staroverov, T. A. Keith, R. Kobayashi, J. Normand, 
 K. Raghavachari, A. P. Rendell, J. C. Burant, S. S. Iyengar, 
 J. Tomasi, M. Cossi, J. M. Millam, M. Klene, C. Adamo, R. Cammi, 
 J. W. Ochterski, R. L. Martin, K. Morokuma, O. Farkas, 
 J. B. Foresman, and D. J. Fox, Gaussian, Inc., Wallingford CT, 2016.
 
 ******************************************
 Gaussian 16:  ES64L-G16RevA.03 25-Dec-2016
                22-Sep-2023 
 ******************************************
 %nprocshared=6
 Will use up to    6 processors via shared memory.
 %mem=6GB
 -----------------
 # M062X/def2TZVPP
 -----------------
 1/38=1,172=1/1;
 2/12=2,17=6,18=5,40=1/2;
 3/5=44,7=202,11=2,25=1,30=1,74=-55/1,2,3;
 4//1;
 5/5=2,38=5/2;
 6/7=2,8=2,9=2,10=2,28=1/1;
 99/5=1,9=1/99;
 -----------------------
 tmpdir/M2_conf_0_24.gjf
 -----------------------
 Symbolic Z-matrix:
 Charge =  0 Multiplicity = 1
 C                     0.        0.        0. 
 H                     1.096     0.        0. 
 H                    -0.41382   0.       -1.08368 
 H                    -0.35241   0.90371   0.49149 
 H                    -0.35233  -0.86777   0.56074 
 
                          Input orientation:                          
 ---------------------------------------------------------------------
 Center     Atomic      Atomic             Coordinates (Angstroms)
 Number     Number       Type             X           Y           Z
 ---------------------------------------------------------------------
      1          6           0        0.000000    0.000000    0.000000
      2          1           0        1.096000    0.000000    0.000000
      3          1           0       -0.413820    0.000000   -1.083680
      4          1           0       -0.352410    0.903710    0.491490
      5          1           0       -0.352330   -0.867770    0.560740
 ---------------------------------------------------------------------
                    Distance matrix (angstroms):
                    1          2          3          4          5
     1  C    0.000000
     2  H    1.096000   0.000000
     3  H    1.160004   1.858472   0.000000
     4  H    1.087404   1.776554   1.817037   0.000000
     5  H    1.091600   1.779077   1.860356   1.772833   0.000000
 Stoichiometry    CH4
 Framework group  C1[X(CH4)]
 Deg. of freedom     9
 Full point group                 C1      NOp   1
 Largest Abelian subgroup         C1      NOp   1
 Largest concise Abelian subgroup C1      NOp   1
                         Standard orientation:                         
 ---------------------------------------------------------------------
 Center     Atomic      Atomic             Coordinates (Angstroms)
 Number     Number       Type             X           Y           Z
 ---------------------------------------------------------------------
      1          6           0        0.004475   -0.000357   -0.002783
      2          1           0        0.490138    0.954825   -0.232946
      3          1           0       -1.125195    0.036311   -0.263763
      4          1           0        0.094241   -0.193411    1.063575
      5          1           0        0.513967   -0.795580   -0.550166
 ---------------------------------------------------------------------
 Rotational constants (GHZ):         159.6406241         150.2567443         149.1137368
 Standard basis: def2TZVPP (5D, 7F)
 There are    96 symmetry adapted cartesian basis functions of A   symmetry.
 There are    87 symmetry adapted basis functions of A   symmetry.
    87 basis functions,   119 primitive gaussians,    96 cartesian basis functions
     5 alpha electrons        5 beta electrons
       nuclear repulsion energy        13.2167813374 Hartrees.
 NAtoms=    5 NActive=    5 NUniq=    5 SFac= 1.00D+00 NAtFMM=   60 NAOKFM=F Big=F
 Integral buffers will be    131072 words long.
 Raffenetti 2 integral format.
 Two-electron integral symmetry is turned on.
 One-electron integrals computed using PRISM.
   1 Symmetry operations used in ECPInt.
 ECPInt:  NShTT=     630 NPrTT=    1412 LenC2=     631 LenP2D=    1376.
 LDataN:  DoStor=T MaxTD1= 6 Len=  172
 NBasis=    87 RedAO= T EigKep=  5.62D-04  NBF=    87
 NBsUse=    87 1.00D-06 EigRej= -1.00D+00 NBFU=    87
 ExpMin= 9.52D-02 ExpMax= 1.36D+04 ExpMxC= 4.63D+02 IAcc=3 IRadAn=         5 AccDes= 0.00D+00
 Harris functional with IExCor= 1009 and IRadAn=       5 diagonalized for initial guess.
 HarFok:  IExCor= 1009 AccDes= 0.00D+00 IRadAn=         5 IDoV= 1 UseB2=F ITyADJ=14
 ICtDFT=  3500011 ScaDFX=  1.000000  1.000000  1.000000  1.000000
 FoFCou: FMM=F IPFlag=           0 FMFlag=      100000 FMFlg1=           0
         NFxFlg=           0 DoJE=T BraDBF=F KetDBF=T FulRan=T
         wScrn=  0.000000 ICntrl=       500 IOpCl=  0 I1Cent=   200000004 NGrid=           0
         NMat0=    1 NMatS0=      1 NMatT0=    0 NMatD0=    1 NMtDS0=    0 NMtDT0=    0
 Petite list used in FoFCou.
 Keep R1 ints in memory in canonical form, NReq=12860297.
 Requested convergence on RMS density matrix=1.00D-08 within 128 cycles.
 Requested convergence on MAX density matrix=1.00D-06.
 Requested convergence on             energy=1.00D-06.
 No special actions if energy rises.
 Integral accuracy reduced to 1.0D-05 until final iterations.
 Initial convergence to 1.0D-05 achieved.  Increase integral accuracy.
 SCF Done:  E(RM062X) =  -40.4986162991     A.U. after   10 cycles
            NFock= 10  Conv=0.15D-08     -V/T= 2.0088

 **********************************************************************

            Population analysis using the SCF density.

 **********************************************************************

 Orbital symmetries:
       Occupied  (A) (A) (A) (A) (A)
       Virtual   (A) (A) (A) (A) (A) (A) (A) (A) (A) (A) (A) (A)
                 (A) (A) (A) (A) (A) (A) (A) (A) (A) (A) (A) (A)
                 (A) (A) (A) (A) (A) (A) (A) (A) (A) (A) (A) (A)
                 (A) (A) (A) (A) (A) (A) (A) (A) (A) (A) (A) (A)
                 (A) (A) (A) (A) (A) (A) (A) (A) (A) (A) (A) (A)
                 (A) (A) (A) (A) (A) (A) (A) (A) (A) (A) (A) (A)
                 (A) (A) (A) (A) (A) (A) (A) (A) (A) (A)
 The electronic state is 1-A.
 Alpha  occ. eigenvalues --  -10.52455  -0.77971  -0.45695  -0.45466  -0.44449
 Alpha virt. eigenvalues --    0.08455   0.15302   0.16132   0.16271   0.23708
 Alpha virt. eigenvalues --    0.23736   0.24212   0.41633   0.48348   0.50697
 Alpha virt. eigenvalues --    0.51032   0.54430   0.55167   0.55579   0.90269
 Alpha virt. eigenvalues --    0.91071   0.92477   0.97255   0.97706   0.98100
 Alpha virt. eigenvalues --    1.10286   1.12210   1.13242   1.35080   1.40748
 Alpha virt. eigenvalues --    1.41100   1.41949   1.47284   1.48033   1.56484
 Alpha virt. eigenvalues --    1.85299   1.86441   1.92967   2.52104   2.53199
 Alpha virt. eigenvalues --    2.53606   2.65478   2.82658   2.83682   2.84803
 Alpha virt. eigenvalues --    2.85563   2.85666   2.86426   2.90964   2.91317
 Alpha virt. eigenvalues --    3.26541   3.27831   3.29825   3.33361   3.37863
 Alpha virt. eigenvalues --    3.38780   3.44912   3.45510   3.58365   3.75282
 Alpha virt. eigenvalues --    3.76347   3.84295   3.85598   3.86166   3.95651
 Alpha virt. eigenvalues --    3.98910   4.03094   4.10337   4.10881   4.14641
 Alpha virt. eigenvalues --    4.43999   4.46701   4.48361   4.75688   5.00239
 Alpha virt. eigenvalues --    5.03673   5.05743   5.07442   5.13602   5.15239
 Alpha virt. eigenvalues --    5.19339   5.26577   5.27046   5.46382   5.47149
 Alpha virt. eigenvalues --    5.48705  23.73457
          Condensed to atoms (all electrons):
               1          2          3          4          5
     1  C    4.906711   0.399300   0.390291   0.399789   0.400082
     2  H    0.399300   0.537461  -0.020570  -0.021284  -0.021991
     3  H    0.390291  -0.020570   0.562596  -0.022869  -0.020127
     4  H    0.399789  -0.021284  -0.022869   0.535577  -0.021302
     5  H    0.400082  -0.021991  -0.020127  -0.021302   0.535016
 Mulliken charges:
               1
     1  C   -0.496173
     2  H    0.127084
     3  H    0.110679
     4  H    0.130089
     5  H    0.128322
 Sum of Mulliken charges =   0.00000
 Mulliken charges with hydrogens summed into heavy atoms:
               1
     1  C    0.000000
 Electronic spatial extent (au):  <R**2>=             36.5552
 Charge=              0.0000 electrons
 Dipole moment (field-independent basis, Debye):
    X=              0.0449    Y=             -0.0051    Z=              0.0297  Tot=              0.0541
 Quadrupole moment (field-independent basis, Debye-Ang):
   XX=             -8.4107   YY=             -8.5420   ZZ=             -8.5807
   XY=              0.0007   XZ=             -0.0416   YZ=              0.0036
 Traceless Quadrupole moment (field-independent basis, Debye-Ang):
   XX=              0.1004   YY=             -0.0309   ZZ=             -0.0696
   XY=              0.0007   XZ=             -0.0416   YZ=              0.0036
 Octapole moment (field-independent basis, Debye-Ang**2):
  XXX=             -0.6339  YYY=              0.2354  ZZZ=              0.8356  XYY=              0.6761
  XXY=              0.0375  XXZ=             -0.3558  XZZ=              0.2465  YZZ=             -0.3040
  YYZ=             -0.3456  XYZ=              0.0827
 Hexadecapole moment (field-independent basis, Debye-Ang**3):
 XXXX=            -17.2414 YYYY=            -16.5157 ZZZZ=            -16.2595 XXXY=             -0.0578
 XXXZ=              0.2313 YYYX=              0.2089 YYYZ=              0.0892 ZZZX=             -0.0614
 ZZZY=             -0.1314 XXYY=             -5.7620 XXZZ=             -5.9966 YYZZ=             -5.6503
 XXYZ=              0.0628 YYXZ=             -0.3796 ZZXY=             -0.1481
 N-N= 1.321678133742D+01 E-N=-1.195521305356D+02  KE= 4.014390505360D+01
 1\1\GINC-NODE85\SP\RM062X\def2TZVPP\C1H4\YANZ\22-Sep-2023\0\\# M062X/d
 ef2TZVPP\\tmpdir/M2_conf_0_24.gjf\\0,1\C,0,0.,0.,0.\H,0,1.096,0.,0.\H,
 0,-0.41382,0.,-1.08368\H,0,-0.35241,0.90371,0.49149\H,0,-0.35233,-0.86
 777,0.56074\\Version=ES64L-G16RevA.03\State=1-A\HF=-40.4986163\RMSD=1.
 546e-09\Dipole=0.0036149,0.0065428,0.0199214\Quadrupole=0.000105,-0.03
 03269,0.0302218,-0.0151949,0.0422308,-0.049189\PG=C01 [X(C1H4)]\\@


 LAWS OF PROGRAMMING DEFINITION:  A WORKING PROGRAM
                                  IS ONE THAT HAS
                                  ONLY UNOBSERVED
                                  BUGS.
 Job cpu time:       0 days  0 hours  0 minutes 22.0 seconds.
 Elapsed time:       0 days  0 hours  0 minutes  3.9 seconds.
 File lengths (MBytes):  RWF=      6 Int=      0 D2E=      0 Chk=      2 Scr=      1
 Normal termination of Gaussian 16 at Fri Sep 22 16:49:44 2023.
