 Entering Gaussian System, Link 0=g16
 Initial command:
 /share/apps/gaussian/g16/l1.exe "/tmp/55604.mgr/Gau-83082.inp" -scrdir="/tmp/55604.mgr/"
 Entering Link 1 = /share/apps/gaussian/g16/l1.exe PID=     83083.
  
 Copyright (c) 1988,1990,1992,1993,1995,1998,2003,2009,2016,
            Gaussian, Inc.  All Rights Reserved.
  
 This is part of the Gaussian(R) 16 program.  It is based on
 the Gaussian(R) 09 system (copyright 2009, Gaussian, Inc.),
 the Gaussian(R) 03 system (copyright 2003, Gaussian, Inc.),
 the Gaussian(R) 98 system (copyright 1998, Gaussian, Inc.),
 the Gaussian(R) 94 system (copyright 1995, Gaussian, Inc.),
 the Gaussian 92(TM) system (copyright 1992, Gaussian, Inc.),
 the Gaussian 90(TM) system (copyright 1990, Gaussian, Inc.),
 the Gaussian 88(TM) system (copyright 1988, Gaussian, Inc.),
 the Gaussian 86(TM) system (copyright 1986, Carnegie Mellon
 University), and the Gaussian 82(TM) system (copyright 1983,
 Carnegie Mellon University). Gaussian is a federally registered
 trademark of Gaussian, Inc.
  
 This software contains proprietary and confidential information,
 including trade secrets, belonging to Gaussian, Inc.
  
 This software is provided under written license and may be
 used, copied, transmitted, or stored only in accord with that
 written license.
  
 The following legend is applicable only to US Government
 contracts under FAR:
  
                    RESTRICTED RIGHTS LEGEND
  
 Use, reproduction and disclosure by the US Government is
 subject to restrictions as set forth in subparagraphs (a)
 and (c) of the Commercial Computer Software - Restricted
 Rights clause in FAR 52.227-19.
  
 Gaussian, Inc.
 340 Quinnipiac St., Bldg. 40, Wallingford CT 06492
  
  
 ---------------------------------------------------------------
 Warning -- This program may not be used in any manner that
 competes with the business of Gaussian, Inc. or will provide
 assistance to any competitor of Gaussian, Inc.  The licensee
 of this program is prohibited from giving any competitor of
 Gaussian, Inc. access to this program.  By using this program,
 the user acknowledges that Gaussian, Inc. is engaged in the
 business of creating and licensing software in the field of
 computational chemistry and represents and warrants to the
 licensee that it is not a competitor of Gaussian, Inc. and that
 it will not use this program in any manner prohibited above.
 ---------------------------------------------------------------
  

 Cite this work as:
 Gaussian 16, Revision A.03,
 M. J. Frisch, G. W. Trucks, H. B. Schlegel, G. E. Scuseria, 
 M. A. Robb, J. R. Cheeseman, G. Scalmani, V. Barone, 
 G. A. Petersson, H. Nakatsuji, X. Li, M. Caricato, A. V. Marenich, 
 J. Bloino, B. G. Janesko, R. Gomperts, B. Mennucci, H. P. Hratchian, 
 J. V. Ortiz, A. F. Izmaylov, J. L. Sonnenberg, D. Williams-Young, 
 F. Ding, F. Lipparini, F. Egidi, J. Goings, B. Peng, A. Petrone, 
 T. Henderson, D. Ranasinghe, V. G. Zakrzewski, J. Gao, N. Rega, 
 G. Zheng, W. Liang, M. Hada, M. Ehara, K. Toyota, R. Fukuda, 
 J. Hasegawa, M. Ishida, T. Nakajima, Y. Honda, O. Kitao, H. Nakai, 
 T. Vreven, K. Throssell, J. A. Montgomery, Jr., J. E. Peralta, 
 F. Ogliaro, M. J. Bearpark, J. J. Heyd, E. N. Brothers, K. N. Kudin, 
 V. N. Staroverov, T. A. Keith, R. Kobayashi, J. Normand, 
 K. Raghavachari, A. P. Rendell, J. C. Burant, S. S. Iyengar, 
 J. Tomasi, M. Cossi, J. M. Millam, M. Klene, C. Adamo, R. Cammi, 
 J. W. Ochterski, R. L. Martin, K. Morokuma, O. Farkas, 
 J. B. Foresman, and D. J. Fox, Gaussian, Inc., Wallingford CT, 2016.
 
 ******************************************
 Gaussian 16:  ES64L-G16RevA.03 25-Dec-2016
                22-Sep-2023 
 ******************************************
 %nprocshared=6
 Will use up to    6 processors via shared memory.
 %mem=6GB
 -----------------
 # M062X/def2TZVPP
 -----------------
 1/38=1,172=1/1;
 2/12=2,17=6,18=5,40=1/2;
 3/5=44,7=202,11=2,25=1,30=1,74=-55/1,2,3;
 4//1;
 5/5=2,38=5/2;
 6/7=2,8=2,9=2,10=2,28=1/1;
 99/5=1,9=1/99;
 ----------------------
 tmpdir/M2_conf_0_1.gjf
 ----------------------
 Symbolic Z-matrix:
 Charge =  0 Multiplicity = 1
 N                     0.        0.        0. 
 H                     1.0116    0.        0. 
 H                    -0.31758   0.       -0.95972 
 H                    -0.3844   -0.79952   0.50602 
 
                          Input orientation:                          
 ---------------------------------------------------------------------
 Center     Atomic      Atomic             Coordinates (Angstroms)
 Number     Number       Type             X           Y           Z
 ---------------------------------------------------------------------
      1          7           0        0.000000    0.000000    0.000000
      2          1           0        1.011600    0.000000    0.000000
      3          1           0       -0.317580    0.000000   -0.959720
      4          1           0       -0.384400   -0.799520    0.506020
 ---------------------------------------------------------------------
                    Distance matrix (angstroms):
                    1          2          3          4
     1  N    0.000000
     2  H    1.011600   0.000000
     3  H    1.010900   1.639446   0.000000
     4  H    1.021299   1.686447   1.670955   0.000000
 Stoichiometry    H3N
 Framework group  C1[X(H3N)]
 Deg. of freedom     6
 Full point group                 C1      NOp   1
 Largest Abelian subgroup         C1      NOp   1
 Largest concise Abelian subgroup C1      NOp   1
                         Standard orientation:                         
 ---------------------------------------------------------------------
 Center     Atomic      Atomic             Coordinates (Angstroms)
 Number     Number       Type             X           Y           Z
 ---------------------------------------------------------------------
      1          7           0        0.002468   -0.002198   -0.096946
      2          1           0       -0.627136   -0.724916    0.226493
      3          1           0       -0.348562    0.890681    0.221588
      4          1           0        0.958422   -0.150378    0.230539
 ---------------------------------------------------------------------
 Rotational constants (GHZ):         313.5712323         296.5213655         180.7097601
 Standard basis: def2TZVPP (5D, 7F)
 There are    81 symmetry adapted cartesian basis functions of A   symmetry.
 There are    73 symmetry adapted basis functions of A   symmetry.
    73 basis functions,   102 primitive gaussians,    81 cartesian basis functions
     5 alpha electrons        5 beta electrons
       nuclear repulsion energy        11.9063030849 Hartrees.
 NAtoms=    4 NActive=    4 NUniq=    4 SFac= 1.00D+00 NAtFMM=   60 NAOKFM=F Big=F
 Integral buffers will be    131072 words long.
 Raffenetti 2 integral format.
 Two-electron integral symmetry is turned on.
 One-electron integrals computed using PRISM.
   1 Symmetry operations used in ECPInt.
 ECPInt:  NShTT=     435 NPrTT=    1021 LenC2=     436 LenP2D=    1000.
 LDataN:  DoStor=T MaxTD1= 6 Len=  172
 NBasis=    73 RedAO= T EigKep=  9.11D-04  NBF=    73
 NBsUse=    73 1.00D-06 EigRej= -1.00D+00 NBFU=    73
 ExpMin= 1.03D-01 ExpMax= 1.97D+04 ExpMxC= 6.73D+02 IAcc=3 IRadAn=         5 AccDes= 0.00D+00
 Harris functional with IExCor= 1009 and IRadAn=       5 diagonalized for initial guess.
 HarFok:  IExCor= 1009 AccDes= 0.00D+00 IRadAn=         5 IDoV= 1 UseB2=F ITyADJ=14
 ICtDFT=  3500011 ScaDFX=  1.000000  1.000000  1.000000  1.000000
 FoFCou: FMM=F IPFlag=           0 FMFlag=      100000 FMFlg1=           0
         NFxFlg=           0 DoJE=T BraDBF=F KetDBF=T FulRan=T
         wScrn=  0.000000 ICntrl=       500 IOpCl=  0 I1Cent=   200000004 NGrid=           0
         NMat0=    1 NMatS0=      1 NMatT0=    0 NMatD0=    1 NMtDS0=    0 NMtDT0=    0
 Petite list used in FoFCou.
 Keep R1 ints in memory in canonical form, NReq=9081235.
 Requested convergence on RMS density matrix=1.00D-08 within 128 cycles.
 Requested convergence on MAX density matrix=1.00D-06.
 Requested convergence on             energy=1.00D-06.
 No special actions if energy rises.
 Integral accuracy reduced to 1.0D-05 until final iterations.
 Initial convergence to 1.0D-05 achieved.  Increase integral accuracy.
 SCF Done:  E(RM062X) =  -56.5511110934     A.U. after   12 cycles
            NFock= 12  Conv=0.69D-09     -V/T= 2.0052

 **********************************************************************

            Population analysis using the SCF density.

 **********************************************************************

 Orbital symmetries:
       Occupied  (A) (A) (A) (A) (A)
       Virtual   (A) (A) (A) (A) (A) (A) (A) (A) (A) (A) (A) (A)
                 (A) (A) (A) (A) (A) (A) (A) (A) (A) (A) (A) (A)
                 (A) (A) (A) (A) (A) (A) (A) (A) (A) (A) (A) (A)
                 (A) (A) (A) (A) (A) (A) (A) (A) (A) (A) (A) (A)
                 (A) (A) (A) (A) (A) (A) (A) (A) (A) (A) (A) (A)
                 (A) (A) (A) (A) (A) (A) (A) (A)
 The electronic state is 1-A.
 Alpha  occ. eigenvalues --  -14.71920  -0.94718  -0.53634  -0.53023  -0.32899
 Alpha virt. eigenvalues --    0.05980   0.13935   0.14152   0.34191   0.34770
 Alpha virt. eigenvalues --    0.39178   0.46651   0.50065   0.53109   0.53326
 Alpha virt. eigenvalues --    0.61834   0.63028   0.95779   0.96296   1.03741
 Alpha virt. eigenvalues --    1.04867   1.22982   1.23406   1.24285   1.48177
 Alpha virt. eigenvalues --    1.48695   1.54347   1.59098   1.59493   2.04390
 Alpha virt. eigenvalues --    2.16504   2.17628   2.25259   2.64751   2.86723
 Alpha virt. eigenvalues --    2.87974   3.10072   3.16962   3.18362   3.21995
 Alpha virt. eigenvalues --    3.27275   3.29077   3.36797   3.52829   3.53115
 Alpha virt. eigenvalues --    3.63434   3.65203   3.70233   3.77971   3.88210
 Alpha virt. eigenvalues --    3.88773   4.06724   4.07207   4.17725   4.32548
 Alpha virt. eigenvalues --    4.33881   4.35264   4.56131   4.72041   4.72311
 Alpha virt. eigenvalues --    5.15958   5.19266   5.22548   5.50711   5.65116
 Alpha virt. eigenvalues --    5.65734   5.81683   5.85464   6.05424   6.33406
 Alpha virt. eigenvalues --    6.36951   6.45002  32.62548
          Condensed to atoms (all electrons):
               1          2          3          4
     1  N    6.305841   0.393996   0.392326   0.394521
     2  H    0.393996   0.524717  -0.040880  -0.038508
     3  H    0.392326  -0.040880   0.530227  -0.039249
     4  H    0.394521  -0.038508  -0.039249   0.514804
 Mulliken charges:
               1
     1  N   -0.486684
     2  H    0.160675
     3  H    0.157577
     4  H    0.168432
 Sum of Mulliken charges =  -0.00000
 Mulliken charges with hydrogens summed into heavy atoms:
               1
     1  N   -0.000000
 Electronic spatial extent (au):  <R**2>=             26.7313
 Charge=             -0.0000 electrons
 Dipole moment (field-independent basis, Debye):
    X=             -0.0230    Y=              0.0199    Z=              1.4300  Tot=              1.4303
 Quadrupole moment (field-independent basis, Debye-Ang):
   XX=             -6.0059   YY=             -6.1998   ZZ=             -9.3670
   XY=              0.0028   XZ=              0.0017   YZ=             -0.0052
 Traceless Quadrupole moment (field-independent basis, Debye-Ang):
   XX=              1.1850   YY=              0.9911   ZZ=             -2.1761
   XY=              0.0028   XZ=              0.0017   YZ=             -0.0052
 Octapole moment (field-independent basis, Debye-Ang**2):
  XXX=              0.8904  YYY=              0.5090  ZZZ=              1.2839  XYY=             -0.9127
  XXY=             -0.4840  XXZ=              0.8113  XZZ=             -0.0144  YZZ=              0.0072
  YYZ=              0.7640  XYZ=              0.0017
 Hexadecapole moment (field-independent basis, Debye-Ang**3):
 XXXX=             -9.9903 YYYY=            -10.0123 ZZZZ=            -11.3606 XXXY=              0.0252
 XXXZ=              0.2879 YYYX=             -0.0172 YYYZ=              0.1455 ZZZX=             -0.0025
 ZZZY=             -0.0054 XXYY=             -3.3256 XXZZ=             -3.7631 YYZZ=             -3.7390
 XXYZ=             -0.1555 YYXZ=             -0.2813 ZZXY=              0.0027
 N-N= 1.190630308494D+01 E-N=-1.558692395945D+02  KE= 5.625608165985D+01
 1\1\GINC-NODE85\SP\RM062X\def2TZVPP\H3N1\YANZ\22-Sep-2023\0\\# M062X/d
 ef2TZVPP\\tmpdir/M2_conf_0_1.gjf\\0,1\N,0,0.,0.,0.\H,0,1.0116,0.,0.\H,
 0,-0.31758,0.,-0.95972\H,0,-0.3844,-0.79952,0.50602\\Version=ES64L-G16
 RevA.03\State=1-A\HF=-56.5511111\RMSD=6.870e-10\Dipole=0.1799197,-0.46
 7247,-0.2568662\Quadrupole=0.5551114,-0.8833197,0.3282083,0.6793111,0.
 2784877,-0.9117105\PG=C01 [X(H3N1)]\\@


 HE THAT RISETH LATE MUST TROT ALL DAY.

                  -- BENJAMIN FRANKLIN
 Job cpu time:       0 days  0 hours  0 minutes 18.5 seconds.
 Elapsed time:       0 days  0 hours  0 minutes  3.3 seconds.
 File lengths (MBytes):  RWF=      6 Int=      0 D2E=      0 Chk=      1 Scr=      1
 Normal termination of Gaussian 16 at Fri Sep 22 16:48:58 2023.
