 Entering Gaussian System, Link 0=g16
 Initial command:
 /share/apps/gaussian/g16/l1.exe "/tmp/55604.mgr/Gau-84568.inp" -scrdir="/tmp/55604.mgr/"
 Entering Link 1 = /share/apps/gaussian/g16/l1.exe PID=     84569.
  
 Copyright (c) 1988,1990,1992,1993,1995,1998,2003,2009,2016,
            Gaussian, Inc.  All Rights Reserved.
  
 This is part of the Gaussian(R) 16 program.  It is based on
 the Gaussian(R) 09 system (copyright 2009, Gaussian, Inc.),
 the Gaussian(R) 03 system (copyright 2003, Gaussian, Inc.),
 the Gaussian(R) 98 system (copyright 1998, Gaussian, Inc.),
 the Gaussian(R) 94 system (copyright 1995, Gaussian, Inc.),
 the Gaussian 92(TM) system (copyright 1992, Gaussian, Inc.),
 the Gaussian 90(TM) system (copyright 1990, Gaussian, Inc.),
 the Gaussian 88(TM) system (copyright 1988, Gaussian, Inc.),
 the Gaussian 86(TM) system (copyright 1986, Carnegie Mellon
 University), and the Gaussian 82(TM) system (copyright 1983,
 Carnegie Mellon University). Gaussian is a federally registered
 trademark of Gaussian, Inc.
  
 This software contains proprietary and confidential information,
 including trade secrets, belonging to Gaussian, Inc.
  
 This software is provided under written license and may be
 used, copied, transmitted, or stored only in accord with that
 written license.
  
 The following legend is applicable only to US Government
 contracts under FAR:
  
                    RESTRICTED RIGHTS LEGEND
  
 Use, reproduction and disclosure by the US Government is
 subject to restrictions as set forth in subparagraphs (a)
 and (c) of the Commercial Computer Software - Restricted
 Rights clause in FAR 52.227-19.
  
 Gaussian, Inc.
 340 Quinnipiac St., Bldg. 40, Wallingford CT 06492
  
  
 ---------------------------------------------------------------
 Warning -- This program may not be used in any manner that
 competes with the business of Gaussian, Inc. or will provide
 assistance to any competitor of Gaussian, Inc.  The licensee
 of this program is prohibited from giving any competitor of
 Gaussian, Inc. access to this program.  By using this program,
 the user acknowledges that Gaussian, Inc. is engaged in the
 business of creating and licensing software in the field of
 computational chemistry and represents and warrants to the
 licensee that it is not a competitor of Gaussian, Inc. and that
 it will not use this program in any manner prohibited above.
 ---------------------------------------------------------------
  

 Cite this work as:
 Gaussian 16, Revision A.03,
 M. J. Frisch, G. W. Trucks, H. B. Schlegel, G. E. Scuseria, 
 M. A. Robb, J. R. Cheeseman, G. Scalmani, V. Barone, 
 G. A. Petersson, H. Nakatsuji, X. Li, M. Caricato, A. V. Marenich, 
 J. Bloino, B. G. Janesko, R. Gomperts, B. Mennucci, H. P. Hratchian, 
 J. V. Ortiz, A. F. Izmaylov, J. L. Sonnenberg, D. Williams-Young, 
 F. Ding, F. Lipparini, F. Egidi, J. Goings, B. Peng, A. Petrone, 
 T. Henderson, D. Ranasinghe, V. G. Zakrzewski, J. Gao, N. Rega, 
 G. Zheng, W. Liang, M. Hada, M. Ehara, K. Toyota, R. Fukuda, 
 J. Hasegawa, M. Ishida, T. Nakajima, Y. Honda, O. Kitao, H. Nakai, 
 T. Vreven, K. Throssell, J. A. Montgomery, Jr., J. E. Peralta, 
 F. Ogliaro, M. J. Bearpark, J. J. Heyd, E. N. Brothers, K. N. Kudin, 
 V. N. Staroverov, T. A. Keith, R. Kobayashi, J. Normand, 
 K. Raghavachari, A. P. Rendell, J. C. Burant, S. S. Iyengar, 
 J. Tomasi, M. Cossi, J. M. Millam, M. Klene, C. Adamo, R. Cammi, 
 J. W. Ochterski, R. L. Martin, K. Morokuma, O. Farkas, 
 J. B. Foresman, and D. J. Fox, Gaussian, Inc., Wallingford CT, 2016.
 
 ******************************************
 Gaussian 16:  ES64L-G16RevA.03 25-Dec-2016
                22-Sep-2023 
 ******************************************
 %nprocshared=6
 Will use up to    6 processors via shared memory.
 %mem=6GB
 -----------------
 # M062X/def2TZVPP
 -----------------
 1/38=1,172=1/1;
 2/12=2,17=6,18=5,40=1/2;
 3/5=44,7=202,11=2,25=1,30=1,74=-55/1,2,3;
 4//1;
 5/5=2,38=5/2;
 6/7=2,8=2,9=2,10=2,28=1/1;
 99/5=1,9=1/99;
 -----------------------
 tmpdir/M2_conf_0_29.gjf
 -----------------------
 Symbolic Z-matrix:
 Charge =  0 Multiplicity = 1
 O                     0.        0.        0. 
 C                     1.4128    0.        0. 
 H                     1.8173    0.        1.01389 
 H                    -0.45712  -0.57997   0.48631 
 H                     1.80207  -0.8703   -0.53082 
 H                     1.7463    0.90126  -0.50887 
 
                          Input orientation:                          
 ---------------------------------------------------------------------
 Center     Atomic      Atomic             Coordinates (Angstroms)
 Number     Number       Type             X           Y           Z
 ---------------------------------------------------------------------
      1          8           0        0.000000    0.000000    0.000000
      2          6           0        1.412800    0.000000    0.000000
      3          1           0        1.817300    0.000000    1.013890
      4          1           0       -0.457120   -0.579970    0.486310
      5          1           0        1.802070   -0.870300   -0.530820
      6          1           0        1.746300    0.901260   -0.508870
 ---------------------------------------------------------------------
                    Distance matrix (angstroms):
                    1          2          3          4          5
     1  O    0.000000
     2  C    1.412800   0.000000
     3  H    2.080998   1.091601   0.000000
     4  H    0.884207   2.017291   2.405762   0.000000
     5  H    2.070422   1.091203   1.773072   2.494551   0.000000
     6  H    2.029971   1.087401   1.770906   2.835399   1.772574
                    6
     6  H    0.000000
 Stoichiometry    CH4O
 Framework group  C1[X(CH4O)]
 Deg. of freedom    12
 Full point group                 C1      NOp   1
 Largest Abelian subgroup         C1      NOp   1
 Largest concise Abelian subgroup C1      NOp   1
                         Standard orientation:                         
 ---------------------------------------------------------------------
 Center     Atomic      Atomic             Coordinates (Angstroms)
 Number     Number       Type             X           Y           Z
 ---------------------------------------------------------------------
      1          8           0        0.737039    0.106513    0.000120
      2          6           0       -0.670038   -0.020521    0.000062
      3          1           0       -1.014437   -0.704088   -0.778218
      4          1           0        1.260363   -0.606193   -0.001433
      5          1           0       -1.028294   -0.382024    0.965303
      6          1           0       -1.093711    0.963326   -0.186986
 ---------------------------------------------------------------------
 Rotational constants (GHZ):         137.2919936          24.6662319          24.0652723
 Standard basis: def2TZVPP (5D, 7F)
 There are   132 symmetry adapted cartesian basis functions of A   symmetry.
 There are   118 symmetry adapted basis functions of A   symmetry.
   118 basis functions,   170 primitive gaussians,   132 cartesian basis functions
     9 alpha electrons        9 beta electrons
       nuclear repulsion energy        40.7577899434 Hartrees.
 NAtoms=    6 NActive=    6 NUniq=    6 SFac= 1.00D+00 NAtFMM=   60 NAOKFM=F Big=F
 Integral buffers will be    131072 words long.
 Raffenetti 2 integral format.
 Two-electron integral symmetry is turned on.
 One-electron integrals computed using PRISM.
   1 Symmetry operations used in ECPInt.
 ECPInt:  NShTT=    1081 NPrTT=    2684 LenC2=    1081 LenP2D=    2511.
 LDataN:  DoStor=T MaxTD1= 6 Len=  172
 NBasis=   118 RedAO= T EigKep=  5.82D-04  NBF=   118
 NBsUse=   118 1.00D-06 EigRej= -1.00D+00 NBFU=   118
 ExpMin= 9.52D-02 ExpMax= 2.70D+04 ExpMxC= 9.22D+02 IAcc=3 IRadAn=         5 AccDes= 0.00D+00
 Harris functional with IExCor= 1009 and IRadAn=       5 diagonalized for initial guess.
 HarFok:  IExCor= 1009 AccDes= 0.00D+00 IRadAn=         5 IDoV= 1 UseB2=F ITyADJ=14
 ICtDFT=  3500011 ScaDFX=  1.000000  1.000000  1.000000  1.000000
 FoFCou: FMM=F IPFlag=           0 FMFlag=      100000 FMFlg1=           0
         NFxFlg=           0 DoJE=T BraDBF=F KetDBF=T FulRan=T
         wScrn=  0.000000 ICntrl=       500 IOpCl=  0 I1Cent=   200000004 NGrid=           0
         NMat0=    1 NMatS0=      1 NMatT0=    0 NMatD0=    1 NMtDS0=    0 NMtDT0=    0
 Petite list used in FoFCou.
 Keep R1 ints in memory in canonical form, NReq=30406467.
 Requested convergence on RMS density matrix=1.00D-08 within 128 cycles.
 Requested convergence on MAX density matrix=1.00D-06.
 Requested convergence on             energy=1.00D-06.
 No special actions if energy rises.
 Integral accuracy reduced to 1.0D-05 until final iterations.
 Initial convergence to 1.0D-05 achieved.  Increase integral accuracy.
 SCF Done:  E(RM062X) =  -115.708042043     A.U. after   11 cycles
            NFock= 11  Conv=0.43D-08     -V/T= 2.0033

 **********************************************************************

            Population analysis using the SCF density.

 **********************************************************************

 Orbital symmetries:
       Occupied  (A) (A) (A) (A) (A) (A) (A) (A) (A)
       Virtual   (A) (A) (A) (A) (A) (A) (A) (A) (A) (A) (A) (A)
                 (A) (A) (A) (A) (A) (A) (A) (A) (A) (A) (A) (A)
                 (A) (A) (A) (A) (A) (A) (A) (A) (A) (A) (A) (A)
                 (A) (A) (A) (A) (A) (A) (A) (A) (A) (A) (A) (A)
                 (A) (A) (A) (A) (A) (A) (A) (A) (A) (A) (A) (A)
                 (A) (A) (A) (A) (A) (A) (A) (A) (A) (A) (A) (A)
                 (A) (A) (A) (A) (A) (A) (A) (A) (A) (A) (A) (A)
                 (A) (A) (A) (A) (A) (A) (A) (A) (A) (A) (A) (A)
                 (A) (A) (A) (A) (A) (A) (A) (A) (A) (A) (A) (A)
                 (A)
 The electronic state is 1-A.
 Alpha  occ. eigenvalues --  -19.60832 -10.57914  -1.14976  -0.79082  -0.59637
 Alpha  occ. eigenvalues --   -0.51597  -0.50589  -0.39742  -0.35344
 Alpha virt. eigenvalues --    0.06894   0.10637   0.15466   0.15904   0.17262
 Alpha virt. eigenvalues --    0.24517   0.25596   0.34717   0.39787   0.44117
 Alpha virt. eigenvalues --    0.47326   0.48237   0.52379   0.53628   0.54204
 Alpha virt. eigenvalues --    0.58752   0.66683   0.73872   0.77548   0.79528
 Alpha virt. eigenvalues --    0.90916   0.91828   0.98872   0.99028   1.04353
 Alpha virt. eigenvalues --    1.10146   1.12149   1.19803   1.27975   1.29970
 Alpha virt. eigenvalues --    1.33890   1.40924   1.46885   1.48190   1.54790
 Alpha virt. eigenvalues --    1.69626   1.78814   1.88721   1.90811   1.96669
 Alpha virt. eigenvalues --    2.03168   2.13158   2.15061   2.51154   2.52887
 Alpha virt. eigenvalues --    2.60168   2.61633   2.75017   2.76316   2.83747
 Alpha virt. eigenvalues --    2.86790   2.88574   2.91426   2.93075   2.99679
 Alpha virt. eigenvalues --    3.03352   3.11700   3.20551   3.29095   3.32543
 Alpha virt. eigenvalues --    3.39117   3.40673   3.44726   3.49131   3.54202
 Alpha virt. eigenvalues --    3.61345   3.63795   3.67528   3.73438   3.74732
 Alpha virt. eigenvalues --    3.80748   3.92500   3.94793   3.97374   4.02984
 Alpha virt. eigenvalues --    4.12928   4.14761   4.19930   4.26090   4.32806
 Alpha virt. eigenvalues --    4.42426   4.49213   4.57264   4.69653   4.79953
 Alpha virt. eigenvalues --    4.88350   4.95700   5.04441   5.08970   5.16650
 Alpha virt. eigenvalues --    5.20347   5.24178   5.28621   5.41937   5.49492
 Alpha virt. eigenvalues --    5.61059   5.67528   6.03259   6.08571   6.52665
 Alpha virt. eigenvalues --    6.59396   6.82388   6.90148   6.90501   7.05407
 Alpha virt. eigenvalues --    7.57036   7.63421  23.61015  44.17117
          Condensed to atoms (all electrons):
               1          2          3          4          5          6
     1  O    7.847702   0.269934  -0.045494   0.362257  -0.049409  -0.036818
     2  C    0.269934   4.707237   0.416250  -0.039865   0.415691   0.399909
     3  H   -0.045494   0.416250   0.601920  -0.008108  -0.044321  -0.031865
     4  H    0.362257  -0.039865  -0.008108   0.515248  -0.003927   0.008904
     5  H   -0.049409   0.415691  -0.044321  -0.003927   0.605811  -0.037075
     6  H   -0.036818   0.399909  -0.031865   0.008904  -0.037075   0.569955
 Mulliken charges:
               1
     1  O   -0.348173
     2  C   -0.169155
     3  H    0.111618
     4  H    0.165491
     5  H    0.113229
     6  H    0.126990
 Sum of Mulliken charges =   0.00000
 Mulliken charges with hydrogens summed into heavy atoms:
               1
     1  O   -0.182682
     2  C    0.182682
 Electronic spatial extent (au):  <R**2>=             83.9547
 Charge=             -0.0000 electrons
 Dipole moment (field-independent basis, Debye):
    X=             -0.6449    Y=             -1.3524    Z=             -0.0214  Tot=              1.4985
 Quadrupole moment (field-independent basis, Debye-Ang):
   XX=            -12.1181   YY=            -12.5910   ZZ=            -13.6981
   XY=             -2.2112   XZ=              0.0391   YZ=             -0.0153
 Traceless Quadrupole moment (field-independent basis, Debye-Ang):
   XX=              0.6843   YY=              0.2114   ZZ=             -0.8957
   XY=             -2.2112   XZ=              0.0391   YZ=             -0.0153
 Octapole moment (field-independent basis, Debye-Ang**2):
  XXX=              5.9909  YYY=             -0.2923  ZZZ=              0.2474  XYY=              1.4610
  XXY=             -2.4277  XXZ=             -0.0673  XZZ=              0.4742  YZZ=             -0.5922
  YYZ=             -0.3052  XYZ=              0.0337
 Hexadecapole moment (field-independent basis, Debye-Ang**3):
 XXXX=            -59.5365 YYYY=            -20.2045 ZZZZ=            -20.0598 XXXY=             -4.5445
 XXXZ=              0.1019 YYYX=             -2.6313 YYYZ=             -0.0160 ZZZX=             -0.2467
 ZZZY=             -0.0304 XXYY=            -12.7233 XXZZ=            -14.3469 YYZZ=             -6.7547
 XXYZ=             -0.0513 YYXZ=              0.3496 ZZXY=              0.0245
 N-N= 4.075778994339D+01 E-N=-3.531147251347D+02  KE= 1.153303445490D+02
 1\1\GINC-NODE85\SP\RM062X\def2TZVPP\C1H4O1\YANZ\22-Sep-2023\0\\# M062X
 /def2TZVPP\\tmpdir/M2_conf_0_29.gjf\\0,1\O,0,0.,0.,0.\C,0,1.4128,0.,0.
 \H,0,1.8173,0.,1.01389\H,0,-0.45712,-0.57997,0.48631\H,0,1.80207,-0.87
 03,-0.53082\H,0,1.7463,0.90126,-0.50887\\Version=ES64L-G16RevA.03\Stat
 e=1-A\HF=-115.708042\RMSD=4.262e-09\Dipole=0.3005576,-0.3838657,0.3314
 705\Quadrupole=0.2114469,0.0078733,-0.2193202,1.2835708,-1.0353971,-0.
 5487099\PG=C01 [X(C1H4O1)]\\@


 NATURE GIVES TO EVERY TIME AND SEASON SOME BEAUTY OF ITS OWN.

                                                    --DICKENS
 Job cpu time:       0 days  0 hours  0 minutes 47.9 seconds.
 Elapsed time:       0 days  0 hours  0 minutes  8.9 seconds.
 File lengths (MBytes):  RWF=     11 Int=      0 D2E=      0 Chk=      2 Scr=      1
 Normal termination of Gaussian 16 at Fri Sep 22 16:50:07 2023.
