 Entering Gaussian System, Link 0=g16
 Initial command:
 /share/apps/gaussian/g16/l1.exe "/tmp/55604.mgr/Gau-84082.inp" -scrdir="/tmp/55604.mgr/"
 Entering Link 1 = /share/apps/gaussian/g16/l1.exe PID=     84083.
  
 Copyright (c) 1988,1990,1992,1993,1995,1998,2003,2009,2016,
            Gaussian, Inc.  All Rights Reserved.
  
 This is part of the Gaussian(R) 16 program.  It is based on
 the Gaussian(R) 09 system (copyright 2009, Gaussian, Inc.),
 the Gaussian(R) 03 system (copyright 2003, Gaussian, Inc.),
 the Gaussian(R) 98 system (copyright 1998, Gaussian, Inc.),
 the Gaussian(R) 94 system (copyright 1995, Gaussian, Inc.),
 the Gaussian 92(TM) system (copyright 1992, Gaussian, Inc.),
 the Gaussian 90(TM) system (copyright 1990, Gaussian, Inc.),
 the Gaussian 88(TM) system (copyright 1988, Gaussian, Inc.),
 the Gaussian 86(TM) system (copyright 1986, Carnegie Mellon
 University), and the Gaussian 82(TM) system (copyright 1983,
 Carnegie Mellon University). Gaussian is a federally registered
 trademark of Gaussian, Inc.
  
 This software contains proprietary and confidential information,
 including trade secrets, belonging to Gaussian, Inc.
  
 This software is provided under written license and may be
 used, copied, transmitted, or stored only in accord with that
 written license.
  
 The following legend is applicable only to US Government
 contracts under FAR:
  
                    RESTRICTED RIGHTS LEGEND
  
 Use, reproduction and disclosure by the US Government is
 subject to restrictions as set forth in subparagraphs (a)
 and (c) of the Commercial Computer Software - Restricted
 Rights clause in FAR 52.227-19.
  
 Gaussian, Inc.
 340 Quinnipiac St., Bldg. 40, Wallingford CT 06492
  
  
 ---------------------------------------------------------------
 Warning -- This program may not be used in any manner that
 competes with the business of Gaussian, Inc. or will provide
 assistance to any competitor of Gaussian, Inc.  The licensee
 of this program is prohibited from giving any competitor of
 Gaussian, Inc. access to this program.  By using this program,
 the user acknowledges that Gaussian, Inc. is engaged in the
 business of creating and licensing software in the field of
 computational chemistry and represents and warrants to the
 licensee that it is not a competitor of Gaussian, Inc. and that
 it will not use this program in any manner prohibited above.
 ---------------------------------------------------------------
  

 Cite this work as:
 Gaussian 16, Revision A.03,
 M. J. Frisch, G. W. Trucks, H. B. Schlegel, G. E. Scuseria, 
 M. A. Robb, J. R. Cheeseman, G. Scalmani, V. Barone, 
 G. A. Petersson, H. Nakatsuji, X. Li, M. Caricato, A. V. Marenich, 
 J. Bloino, B. G. Janesko, R. Gomperts, B. Mennucci, H. P. Hratchian, 
 J. V. Ortiz, A. F. Izmaylov, J. L. Sonnenberg, D. Williams-Young, 
 F. Ding, F. Lipparini, F. Egidi, J. Goings, B. Peng, A. Petrone, 
 T. Henderson, D. Ranasinghe, V. G. Zakrzewski, J. Gao, N. Rega, 
 G. Zheng, W. Liang, M. Hada, M. Ehara, K. Toyota, R. Fukuda, 
 J. Hasegawa, M. Ishida, T. Nakajima, Y. Honda, O. Kitao, H. Nakai, 
 T. Vreven, K. Throssell, J. A. Montgomery, Jr., J. E. Peralta, 
 F. Ogliaro, M. J. Bearpark, J. J. Heyd, E. N. Brothers, K. N. Kudin, 
 V. N. Staroverov, T. A. Keith, R. Kobayashi, J. Normand, 
 K. Raghavachari, A. P. Rendell, J. C. Burant, S. S. Iyengar, 
 J. Tomasi, M. Cossi, J. M. Millam, M. Klene, C. Adamo, R. Cammi, 
 J. W. Ochterski, R. L. Martin, K. Morokuma, O. Farkas, 
 J. B. Foresman, and D. J. Fox, Gaussian, Inc., Wallingford CT, 2016.
 
 ******************************************
 Gaussian 16:  ES64L-G16RevA.03 25-Dec-2016
                22-Sep-2023 
 ******************************************
 %nprocshared=6
 Will use up to    6 processors via shared memory.
 %mem=6GB
 -----------------
 # M062X/def2TZVPP
 -----------------
 1/38=1,172=1/1;
 2/12=2,17=6,18=5,40=1/2;
 3/5=44,7=202,11=2,25=1,30=1,74=-55/1,2,3;
 4//1;
 5/5=2,38=5/2;
 6/7=2,8=2,9=2,10=2,28=1/1;
 99/5=1,9=1/99;
 -----------------------
 tmpdir/M2_conf_0_27.gjf
 -----------------------
 Symbolic Z-matrix:
 Charge =  0 Multiplicity = 1
 O                     0.        0.        0. 
 C                     1.4128    0.        0. 
 H                     1.80794   0.        1.01714 
 H                    -0.45712   0.71717   0.24191 
 H                     1.7463   -0.90365  -0.50462 
 H                     1.81092   0.86774  -0.52926 
 
                          Input orientation:                          
 ---------------------------------------------------------------------
 Center     Atomic      Atomic             Coordinates (Angstroms)
 Number     Number       Type             X           Y           Z
 ---------------------------------------------------------------------
      1          8           0        0.000000    0.000000    0.000000
      2          6           0        1.412800    0.000000    0.000000
      3          1           0        1.807940    0.000000    1.017140
      4          1           0       -0.457120    0.717170    0.241910
      5          1           0        1.746300   -0.903650   -0.504620
      6          1           0        1.810920    0.867740   -0.529260
 ---------------------------------------------------------------------
                    Distance matrix (angstroms):
                    1          2          3          4          5
     1  O    0.000000
     2  C    1.412800   0.000000
     3  H    2.074421   1.091196   0.000000
     4  H    0.884201   2.017289   2.499162   0.000000
     5  H    2.029973   1.087404   1.770914   2.835388   0.000000
     6  H    2.076661   1.091599   1.773227   2.400287   1.772740
                    6
     6  H    0.000000
 Stoichiometry    CH4O
 Framework group  C1[X(CH4O)]
 Deg. of freedom    12
 Full point group                 C1      NOp   1
 Largest Abelian subgroup         C1      NOp   1
 Largest concise Abelian subgroup C1      NOp   1
                         Standard orientation:                         
 ---------------------------------------------------------------------
 Center     Atomic      Atomic             Coordinates (Angstroms)
 Number     Number       Type             X           Y           Z
 ---------------------------------------------------------------------
      1          8           0        0.736990    0.106672    0.000116
      2          6           0       -0.670068   -0.020572    0.000019
      3          1           0       -1.034779   -0.375629    0.965228
      4          1           0        1.260419   -0.605945    0.003545
      5          1           0       -1.093766    0.961937   -0.193898
      6          1           0       -1.007385   -0.710307   -0.775913
 ---------------------------------------------------------------------
 Rotational constants (GHZ):         137.2797799          24.6689197          24.0649536
 Standard basis: def2TZVPP (5D, 7F)
 There are   132 symmetry adapted cartesian basis functions of A   symmetry.
 There are   118 symmetry adapted basis functions of A   symmetry.
   118 basis functions,   170 primitive gaussians,   132 cartesian basis functions
     9 alpha electrons        9 beta electrons
       nuclear repulsion energy        40.7581966024 Hartrees.
 NAtoms=    6 NActive=    6 NUniq=    6 SFac= 1.00D+00 NAtFMM=   60 NAOKFM=F Big=F
 Integral buffers will be    131072 words long.
 Raffenetti 2 integral format.
 Two-electron integral symmetry is turned on.
 One-electron integrals computed using PRISM.
   1 Symmetry operations used in ECPInt.
 ECPInt:  NShTT=    1081 NPrTT=    2684 LenC2=    1081 LenP2D=    2511.
 LDataN:  DoStor=T MaxTD1= 6 Len=  172
 NBasis=   118 RedAO= T EigKep=  5.82D-04  NBF=   118
 NBsUse=   118 1.00D-06 EigRej= -1.00D+00 NBFU=   118
 ExpMin= 9.52D-02 ExpMax= 2.70D+04 ExpMxC= 9.22D+02 IAcc=3 IRadAn=         5 AccDes= 0.00D+00
 Harris functional with IExCor= 1009 and IRadAn=       5 diagonalized for initial guess.
 HarFok:  IExCor= 1009 AccDes= 0.00D+00 IRadAn=         5 IDoV= 1 UseB2=F ITyADJ=14
 ICtDFT=  3500011 ScaDFX=  1.000000  1.000000  1.000000  1.000000
 FoFCou: FMM=F IPFlag=           0 FMFlag=      100000 FMFlg1=           0
         NFxFlg=           0 DoJE=T BraDBF=F KetDBF=T FulRan=T
         wScrn=  0.000000 ICntrl=       500 IOpCl=  0 I1Cent=   200000004 NGrid=           0
         NMat0=    1 NMatS0=      1 NMatT0=    0 NMatD0=    1 NMtDS0=    0 NMtDT0=    0
 Petite list used in FoFCou.
 Keep R1 ints in memory in canonical form, NReq=30406467.
 Requested convergence on RMS density matrix=1.00D-08 within 128 cycles.
 Requested convergence on MAX density matrix=1.00D-06.
 Requested convergence on             energy=1.00D-06.
 No special actions if energy rises.
 Integral accuracy reduced to 1.0D-05 until final iterations.
 Initial convergence to 1.0D-05 achieved.  Increase integral accuracy.
 SCF Done:  E(RM062X) =  -115.708040731     A.U. after   11 cycles
            NFock= 11  Conv=0.43D-08     -V/T= 2.0033

 **********************************************************************

            Population analysis using the SCF density.

 **********************************************************************

 Orbital symmetries:
       Occupied  (A) (A) (A) (A) (A) (A) (A) (A) (A)
       Virtual   (A) (A) (A) (A) (A) (A) (A) (A) (A) (A) (A) (A)
                 (A) (A) (A) (A) (A) (A) (A) (A) (A) (A) (A) (A)
                 (A) (A) (A) (A) (A) (A) (A) (A) (A) (A) (A) (A)
                 (A) (A) (A) (A) (A) (A) (A) (A) (A) (A) (A) (A)
                 (A) (A) (A) (A) (A) (A) (A) (A) (A) (A) (A) (A)
                 (A) (A) (A) (A) (A) (A) (A) (A) (A) (A) (A) (A)
                 (A) (A) (A) (A) (A) (A) (A) (A) (A) (A) (A) (A)
                 (A) (A) (A) (A) (A) (A) (A) (A) (A) (A) (A) (A)
                 (A) (A) (A) (A) (A) (A) (A) (A) (A) (A) (A) (A)
                 (A)
 The electronic state is 1-A.
 Alpha  occ. eigenvalues --  -19.60830 -10.57915  -1.14976  -0.79081  -0.59634
 Alpha  occ. eigenvalues --   -0.51590  -0.50606  -0.39736  -0.35345
 Alpha virt. eigenvalues --    0.06892   0.10638   0.15477   0.15900   0.17254
 Alpha virt. eigenvalues --    0.24518   0.25594   0.34717   0.39777   0.44123
 Alpha virt. eigenvalues --    0.47341   0.48207   0.52370   0.53634   0.54214
 Alpha virt. eigenvalues --    0.58750   0.66668   0.73881   0.77595   0.79507
 Alpha virt. eigenvalues --    0.90907   0.91849   0.98882   0.99012   1.04389
 Alpha virt. eigenvalues --    1.10137   1.12115   1.19705   1.28016   1.30003
 Alpha virt. eigenvalues --    1.33886   1.40936   1.46879   1.48200   1.54786
 Alpha virt. eigenvalues --    1.69636   1.78800   1.88684   1.90824   1.96719
 Alpha virt. eigenvalues --    2.03098   2.12998   2.15234   2.51172   2.52881
 Alpha virt. eigenvalues --    2.60156   2.61698   2.75033   2.76275   2.83745
 Alpha virt. eigenvalues --    2.86750   2.88631   2.91418   2.93074   2.99618
 Alpha virt. eigenvalues --    3.03425   3.11645   3.20538   3.29086   3.32565
 Alpha virt. eigenvalues --    3.39126   3.40660   3.44795   3.49115   3.54203
 Alpha virt. eigenvalues --    3.61323   3.63755   3.67493   3.73556   3.74784
 Alpha virt. eigenvalues --    3.80685   3.92498   3.94770   3.97389   4.02937
 Alpha virt. eigenvalues --    4.12905   4.14812   4.19922   4.26014   4.32881
 Alpha virt. eigenvalues --    4.42437   4.49235   4.57233   4.69628   4.79938
 Alpha virt. eigenvalues --    4.88341   4.95714   5.04495   5.09005   5.16618
 Alpha virt. eigenvalues --    5.20093   5.24358   5.28559   5.41950   5.49491
 Alpha virt. eigenvalues --    5.61123   5.67532   6.03251   6.08566   6.52615
 Alpha virt. eigenvalues --    6.59431   6.82388   6.90164   6.90478   7.05387
 Alpha virt. eigenvalues --    7.57075   7.63421  23.61018  44.17121
          Condensed to atoms (all electrons):
               1          2          3          4          5          6
     1  O    7.847665   0.269931  -0.048804   0.362320  -0.036832  -0.046058
     2  C    0.269931   4.706966   0.414841  -0.039904   0.399979   0.417144
     3  H   -0.048804   0.414841   0.606246  -0.003945  -0.037279  -0.044289
     4  H    0.362320  -0.039904  -0.003945   0.515213   0.008903  -0.008103
     5  H   -0.036832   0.399979  -0.037279   0.008903   0.569932  -0.031697
     6  H   -0.046058   0.417144  -0.044289  -0.008103  -0.031697   0.601565
 Mulliken charges:
               1
     1  O   -0.348221
     2  C   -0.168956
     3  H    0.113229
     4  H    0.165516
     5  H    0.126995
     6  H    0.111438
 Sum of Mulliken charges =  -0.00000
 Mulliken charges with hydrogens summed into heavy atoms:
               1
     1  O   -0.182706
     2  C    0.182706
 Electronic spatial extent (au):  <R**2>=             83.9523
 Charge=             -0.0000 electrons
 Dipole moment (field-independent basis, Debye):
    X=             -0.6448    Y=             -1.3525    Z=             -0.0126  Tot=              1.4984
 Quadrupole moment (field-independent basis, Debye-Ang):
   XX=            -12.1181   YY=            -12.5904   ZZ=            -13.6992
   XY=             -2.2133   XZ=              0.0435   YZ=             -0.0202
 Traceless Quadrupole moment (field-independent basis, Debye-Ang):
   XX=              0.6844   YY=              0.2122   ZZ=             -0.8966
   XY=             -2.2133   XZ=              0.0435   YZ=             -0.0202
 Octapole moment (field-independent basis, Debye-Ang**2):
  XXX=              5.9920  YYY=             -0.2982  ZZZ=              0.2538  XYY=              1.4609
  XXY=             -2.4237  XXZ=             -0.0318  XZZ=              0.4735  YZZ=             -0.5871
  YYZ=             -0.3116  XYZ=              0.0268
 Hexadecapole moment (field-independent basis, Debye-Ang**3):
 XXXX=            -59.5317 YYYY=            -20.2083 ZZZZ=            -20.0616 XXXY=             -4.5507
 XXXZ=              0.1023 YYYX=             -2.6257 YYYZ=             -0.0197 ZZZX=             -0.2539
 ZZZY=             -0.0267 XXYY=            -12.7287 XXZZ=            -14.3425 YYZZ=             -6.7524
 XXYZ=             -0.0747 YYXZ=              0.3650 ZZXY=              0.0177
 N-N= 4.075819660244D+01 E-N=-3.531155104038D+02  KE= 1.153303369499D+02
 1\1\GINC-NODE85\SP\RM062X\def2TZVPP\C1H4O1\YANZ\22-Sep-2023\0\\# M062X
 /def2TZVPP\\tmpdir/M2_conf_0_27.gjf\\0,1\O,0,0.,0.,0.\C,0,1.4128,0.,0.
 \H,0,1.80794,0.,1.01714\H,0,-0.45712,0.71717,0.24191\H,0,1.7463,-0.903
 65,-0.50462\H,0,1.81092,0.86774,-0.52926\\Version=ES64L-G16RevA.03\Sta
 te=1-A\HF=-115.7080407\RMSD=4.267e-09\Dipole=0.3005948,0.4827769,0.155
 2168\Quadrupole=0.2108052,0.3335484,-0.5443535,-1.5564387,-0.5496769,0
 .3501473\PG=C01 [X(C1H4O1)]\\@


 WHEN A MATHEMATICIAN ENGAGED IN INVESTIGATING
 PHYSICAL ACTIONS AND RESULTS HAS ARRIVED AT HIS
 CONCLUSIONS, MAY THEY NOT BE EXPRESSED IN COMMON
 LANGUAGE AS FULLY, CLEARLY, AND DEFINITELY AS IN
 MATHEMATICAL FORMULAE?
           - LETTER FROM M. FARADAY TO J.C. MAXWELL, 1857.
 Job cpu time:       0 days  0 hours  0 minutes 43.6 seconds.
 Elapsed time:       0 days  0 hours  0 minutes  7.9 seconds.
 File lengths (MBytes):  RWF=     11 Int=      0 D2E=      0 Chk=      2 Scr=      1
 Normal termination of Gaussian 16 at Fri Sep 22 16:49:50 2023.
