 Entering Gaussian System, Link 0=g16
 Initial command:
 /share/apps/gaussian/g16/l1.exe "/tmp/55604.mgr/Gau-84366.inp" -scrdir="/tmp/55604.mgr/"
 Entering Link 1 = /share/apps/gaussian/g16/l1.exe PID=     84367.
  
 Copyright (c) 1988,1990,1992,1993,1995,1998,2003,2009,2016,
            Gaussian, Inc.  All Rights Reserved.
  
 This is part of the Gaussian(R) 16 program.  It is based on
 the Gaussian(R) 09 system (copyright 2009, Gaussian, Inc.),
 the Gaussian(R) 03 system (copyright 2003, Gaussian, Inc.),
 the Gaussian(R) 98 system (copyright 1998, Gaussian, Inc.),
 the Gaussian(R) 94 system (copyright 1995, Gaussian, Inc.),
 the Gaussian 92(TM) system (copyright 1992, Gaussian, Inc.),
 the Gaussian 90(TM) system (copyright 1990, Gaussian, Inc.),
 the Gaussian 88(TM) system (copyright 1988, Gaussian, Inc.),
 the Gaussian 86(TM) system (copyright 1986, Carnegie Mellon
 University), and the Gaussian 82(TM) system (copyright 1983,
 Carnegie Mellon University). Gaussian is a federally registered
 trademark of Gaussian, Inc.
  
 This software contains proprietary and confidential information,
 including trade secrets, belonging to Gaussian, Inc.
  
 This software is provided under written license and may be
 used, copied, transmitted, or stored only in accord with that
 written license.
  
 The following legend is applicable only to US Government
 contracts under FAR:
  
                    RESTRICTED RIGHTS LEGEND
  
 Use, reproduction and disclosure by the US Government is
 subject to restrictions as set forth in subparagraphs (a)
 and (c) of the Commercial Computer Software - Restricted
 Rights clause in FAR 52.227-19.
  
 Gaussian, Inc.
 340 Quinnipiac St., Bldg. 40, Wallingford CT 06492
  
  
 ---------------------------------------------------------------
 Warning -- This program may not be used in any manner that
 competes with the business of Gaussian, Inc. or will provide
 assistance to any competitor of Gaussian, Inc.  The licensee
 of this program is prohibited from giving any competitor of
 Gaussian, Inc. access to this program.  By using this program,
 the user acknowledges that Gaussian, Inc. is engaged in the
 business of creating and licensing software in the field of
 computational chemistry and represents and warrants to the
 licensee that it is not a competitor of Gaussian, Inc. and that
 it will not use this program in any manner prohibited above.
 ---------------------------------------------------------------
  

 Cite this work as:
 Gaussian 16, Revision A.03,
 M. J. Frisch, G. W. Trucks, H. B. Schlegel, G. E. Scuseria, 
 M. A. Robb, J. R. Cheeseman, G. Scalmani, V. Barone, 
 G. A. Petersson, H. Nakatsuji, X. Li, M. Caricato, A. V. Marenich, 
 J. Bloino, B. G. Janesko, R. Gomperts, B. Mennucci, H. P. Hratchian, 
 J. V. Ortiz, A. F. Izmaylov, J. L. Sonnenberg, D. Williams-Young, 
 F. Ding, F. Lipparini, F. Egidi, J. Goings, B. Peng, A. Petrone, 
 T. Henderson, D. Ranasinghe, V. G. Zakrzewski, J. Gao, N. Rega, 
 G. Zheng, W. Liang, M. Hada, M. Ehara, K. Toyota, R. Fukuda, 
 J. Hasegawa, M. Ishida, T. Nakajima, Y. Honda, O. Kitao, H. Nakai, 
 T. Vreven, K. Throssell, J. A. Montgomery, Jr., J. E. Peralta, 
 F. Ogliaro, M. J. Bearpark, J. J. Heyd, E. N. Brothers, K. N. Kudin, 
 V. N. Staroverov, T. A. Keith, R. Kobayashi, J. Normand, 
 K. Raghavachari, A. P. Rendell, J. C. Burant, S. S. Iyengar, 
 J. Tomasi, M. Cossi, J. M. Millam, M. Klene, C. Adamo, R. Cammi, 
 J. W. Ochterski, R. L. Martin, K. Morokuma, O. Farkas, 
 J. B. Foresman, and D. J. Fox, Gaussian, Inc., Wallingford CT, 2016.
 
 ******************************************
 Gaussian 16:  ES64L-G16RevA.03 25-Dec-2016
                22-Sep-2023 
 ******************************************
 %nprocshared=6
 Will use up to    6 processors via shared memory.
 %mem=6GB
 -----------------
 # M062X/def2TZVPP
 -----------------
 1/38=1,172=1/1;
 2/12=2,17=6,18=5,40=1/2;
 3/5=44,7=202,11=2,25=1,30=1,74=-55/1,2,3;
 4//1;
 5/5=2,38=5/2;
 6/7=2,8=2,9=2,10=2,28=1/1;
 99/5=1,9=1/99;
 -----------------------
 tmpdir/M2_conf_0_33.gjf
 -----------------------
 Symbolic Z-matrix:
 Charge =  0 Multiplicity = 1
 C                     0.        0.        0. 
 H                     1.0913    0.        0. 
 H                    -0.41476   0.       -1.08728 
 H                    -0.34604   0.87713   0.54681 
 H                    -0.36374  -0.89952   0.49003 
 
                          Input orientation:                          
 ---------------------------------------------------------------------
 Center     Atomic      Atomic             Coordinates (Angstroms)
 Number     Number       Type             X           Y           Z
 ---------------------------------------------------------------------
      1          6           0        0.000000    0.000000    0.000000
      2          1           0        1.091300    0.000000    0.000000
      3          1           0       -0.414760    0.000000   -1.087280
      4          1           0       -0.346040    0.877130    0.546810
      5          1           0       -0.363740   -0.899520    0.490030
 ---------------------------------------------------------------------
                    Distance matrix (angstroms):
                    1          2          3          4          5
     1  C    0.000000
     2  H    1.091300   0.000000
     3  H    1.163703   1.857524   0.000000
     4  H    1.090001   1.770397   1.855891   0.000000
     5  H    1.087002   1.779440   1.816493   1.777645   0.000000
 Stoichiometry    CH4
 Framework group  C1[X(CH4)]
 Deg. of freedom     9
 Full point group                 C1      NOp   1
 Largest Abelian subgroup         C1      NOp   1
 Largest concise Abelian subgroup C1      NOp   1
                         Standard orientation:                         
 ---------------------------------------------------------------------
 Center     Atomic      Atomic             Coordinates (Angstroms)
 Number     Number       Type             X           Y           Z
 ---------------------------------------------------------------------
      1          6           0       -0.006369   -0.000891    0.000380
      2          1           0       -0.520289   -0.686862   -0.675095
      3          1           0        1.117164   -0.285494    0.104680
      4          1           0       -0.505223   -0.030519    0.969074
      5          1           0       -0.053436    1.008218   -0.400939
 ---------------------------------------------------------------------
 Rotational constants (GHZ):         159.8366359         149.9645434         149.7782538
 Standard basis: def2TZVPP (5D, 7F)
 There are    96 symmetry adapted cartesian basis functions of A   symmetry.
 There are    87 symmetry adapted basis functions of A   symmetry.
    87 basis functions,   119 primitive gaussians,    96 cartesian basis functions
     5 alpha electrons        5 beta electrons
       nuclear repulsion energy        13.2269905438 Hartrees.
 NAtoms=    5 NActive=    5 NUniq=    5 SFac= 1.00D+00 NAtFMM=   60 NAOKFM=F Big=F
 Integral buffers will be    131072 words long.
 Raffenetti 2 integral format.
 Two-electron integral symmetry is turned on.
 One-electron integrals computed using PRISM.
   1 Symmetry operations used in ECPInt.
 ECPInt:  NShTT=     630 NPrTT=    1412 LenC2=     631 LenP2D=    1376.
 LDataN:  DoStor=T MaxTD1= 6 Len=  172
 NBasis=    87 RedAO= T EigKep=  5.58D-04  NBF=    87
 NBsUse=    87 1.00D-06 EigRej= -1.00D+00 NBFU=    87
 ExpMin= 9.52D-02 ExpMax= 1.36D+04 ExpMxC= 4.63D+02 IAcc=3 IRadAn=         5 AccDes= 0.00D+00
 Harris functional with IExCor= 1009 and IRadAn=       5 diagonalized for initial guess.
 HarFok:  IExCor= 1009 AccDes= 0.00D+00 IRadAn=         5 IDoV= 1 UseB2=F ITyADJ=14
 ICtDFT=  3500011 ScaDFX=  1.000000  1.000000  1.000000  1.000000
 FoFCou: FMM=F IPFlag=           0 FMFlag=      100000 FMFlg1=           0
         NFxFlg=           0 DoJE=T BraDBF=F KetDBF=T FulRan=T
         wScrn=  0.000000 ICntrl=       500 IOpCl=  0 I1Cent=   200000004 NGrid=           0
         NMat0=    1 NMatS0=      1 NMatT0=    0 NMatD0=    1 NMtDS0=    0 NMtDT0=    0
 Petite list used in FoFCou.
 Keep R1 ints in memory in canonical form, NReq=12860297.
 Requested convergence on RMS density matrix=1.00D-08 within 128 cycles.
 Requested convergence on MAX density matrix=1.00D-06.
 Requested convergence on             energy=1.00D-06.
 No special actions if energy rises.
 Integral accuracy reduced to 1.0D-05 until final iterations.
 Initial convergence to 1.0D-05 achieved.  Increase integral accuracy.
 SCF Done:  E(RM062X) =  -40.4984338532     A.U. after   10 cycles
            NFock= 10  Conv=0.19D-08     -V/T= 2.0087

 **********************************************************************

            Population analysis using the SCF density.

 **********************************************************************

 Orbital symmetries:
       Occupied  (A) (A) (A) (A) (A)
       Virtual   (A) (A) (A) (A) (A) (A) (A) (A) (A) (A) (A) (A)
                 (A) (A) (A) (A) (A) (A) (A) (A) (A) (A) (A) (A)
                 (A) (A) (A) (A) (A) (A) (A) (A) (A) (A) (A) (A)
                 (A) (A) (A) (A) (A) (A) (A) (A) (A) (A) (A) (A)
                 (A) (A) (A) (A) (A) (A) (A) (A) (A) (A) (A) (A)
                 (A) (A) (A) (A) (A) (A) (A) (A) (A) (A) (A) (A)
                 (A) (A) (A) (A) (A) (A) (A) (A) (A) (A)
 The electronic state is 1-A.
 Alpha  occ. eigenvalues --  -10.52422  -0.78004  -0.45871  -0.45495  -0.44301
 Alpha virt. eigenvalues --    0.08462   0.15258   0.16178   0.16306   0.23699
 Alpha virt. eigenvalues --    0.23719   0.24228   0.41597   0.48200   0.50802
 Alpha virt. eigenvalues --    0.51208   0.54308   0.55261   0.55711   0.90392
 Alpha virt. eigenvalues --    0.91088   0.92453   0.97375   0.97740   0.97964
 Alpha virt. eigenvalues --    1.10304   1.12277   1.13151   1.34942   1.40474
 Alpha virt. eigenvalues --    1.41170   1.42147   1.47720   1.48107   1.56670
 Alpha virt. eigenvalues --    1.84549   1.86249   1.93582   2.51913   2.53429
 Alpha virt. eigenvalues --    2.53612   2.65456   2.82605   2.83696   2.84671
 Alpha virt. eigenvalues --    2.85550   2.85748   2.86324   2.91318   2.91528
 Alpha virt. eigenvalues --    3.26910   3.27772   3.29630   3.32994   3.37781
 Alpha virt. eigenvalues --    3.39066   3.44778   3.45789   3.58754   3.75242
 Alpha virt. eigenvalues --    3.76630   3.84137   3.85838   3.86526   3.95985
 Alpha virt. eigenvalues --    3.98895   4.02936   4.10772   4.10866   4.14850
 Alpha virt. eigenvalues --    4.44276   4.47015   4.48121   4.75825   5.00251
 Alpha virt. eigenvalues --    5.03282   5.04589   5.09917   5.13474   5.15974
 Alpha virt. eigenvalues --    5.19814   5.26360   5.27370   5.47116   5.47465
 Alpha virt. eigenvalues --    5.48845  23.74074
          Condensed to atoms (all electrons):
               1          2          3          4          5
     1  C    4.907241   0.400017   0.389396   0.400183   0.400185
     2  H    0.400017   0.534994  -0.020455  -0.022116  -0.020848
     3  H    0.389396  -0.020455   0.565131  -0.020479  -0.023120
     4  H    0.400183  -0.022116  -0.020479   0.534475  -0.020864
     5  H    0.400185  -0.020848  -0.023120  -0.020864   0.534358
 Mulliken charges:
               1
     1  C   -0.497022
     2  H    0.128407
     3  H    0.109526
     4  H    0.128800
     5  H    0.130288
 Sum of Mulliken charges =  -0.00000
 Mulliken charges with hydrogens summed into heavy atoms:
               1
     1  C   -0.000000
 Electronic spatial extent (au):  <R**2>=             36.5286
 Charge=             -0.0000 electrons
 Dipole moment (field-independent basis, Debye):
    X=             -0.0451    Y=              0.0249    Z=             -0.0085  Tot=              0.0523
 Quadrupole moment (field-independent basis, Debye-Ang):
   XX=             -8.4183   YY=             -8.5562   ZZ=             -8.5529
   XY=              0.0494   XZ=             -0.0194   YZ=              0.0028
 Traceless Quadrupole moment (field-independent basis, Debye-Ang):
   XX=              0.0909   YY=             -0.0471   ZZ=             -0.0438
   XY=              0.0494   XZ=             -0.0194   YZ=              0.0028
 Octapole moment (field-independent basis, Debye-Ang**2):
  XXX=              0.5732  YYY=              0.5989  ZZZ=              0.3620  XYY=             -0.2525
  XXY=             -0.3727  XXZ=              0.1327  XZZ=             -0.6281  YZZ=             -0.1001
  YYZ=             -0.5366  XYZ=             -0.1798
 Hexadecapole moment (field-independent basis, Debye-Ang**3):
 XXXX=            -17.3067 YYYY=            -16.4276 ZZZZ=            -16.5559 XXXY=             -0.2420
 XXXZ=              0.0939 YYYX=              0.2431 YYYZ=             -0.2329 ZZZX=             -0.4140
 ZZZY=              0.1497 XXYY=             -5.9522 XXZZ=             -5.7631 YYZZ=             -5.5170
 XXYZ=              0.1008 YYXZ=              0.2227 ZZXY=              0.2472
 N-N= 1.322699054377D+01 E-N=-1.195755469339D+02  KE= 4.014885074311D+01
 1\1\GINC-NODE85\SP\RM062X\def2TZVPP\C1H4\YANZ\22-Sep-2023\0\\# M062X/d
 ef2TZVPP\\tmpdir/M2_conf_0_33.gjf\\0,1\C,0,0.,0.,0.\H,0,1.0913,0.,0.\H
 ,0,-0.41476,0.,-1.08728\H,0,-0.34604,0.87713,0.54681\H,0,-0.36374,-0.8
 9952,0.49003\\Version=ES64L-G16RevA.03\State=1-A\HF=-40.4984339\RMSD=1
 .929e-09\Dipole=0.0042581,-0.0044568,0.0196142\Quadrupole=0.0036399,-0
 .0157083,0.0120684,0.0280122,0.0445414,0.0449027\PG=C01 [X(C1H4)]\\@


 CHILDREN YOU ARE VERY LITTLE,
 AND YOUR BONES ARE VERY BRITTLE;
 IF YOU WOULD GROW GREAT AND STATELY
 YOU MUST TRY TO WALK SEDATELY.
 YOU MUST STILL BE BRIGHT AND QUIET,
 AND CONTENT WITH SIMPLE DIET;
 AND REMAIN, THROUGH ALL BEWILD'RING
 INNOCENT AND HONEST CHILDREN.
     -- A CHILD'S GARDEN OF VERSE,
        ROBERT LOUIS STEVENSON
 Job cpu time:       0 days  0 hours  0 minutes 21.2 seconds.
 Elapsed time:       0 days  0 hours  0 minutes  3.8 seconds.
 File lengths (MBytes):  RWF=      6 Int=      0 D2E=      0 Chk=      2 Scr=      1
 Normal termination of Gaussian 16 at Fri Sep 22 16:49:56 2023.
