 Entering Gaussian System, Link 0=g16
 Initial command:
 /share/apps/gaussian/g16/l1.exe "/tmp/55604.mgr/Gau-85065.inp" -scrdir="/tmp/55604.mgr/"
 Entering Link 1 = /share/apps/gaussian/g16/l1.exe PID=     85066.
  
 Copyright (c) 1988,1990,1992,1993,1995,1998,2003,2009,2016,
            Gaussian, Inc.  All Rights Reserved.
  
 This is part of the Gaussian(R) 16 program.  It is based on
 the Gaussian(R) 09 system (copyright 2009, Gaussian, Inc.),
 the Gaussian(R) 03 system (copyright 2003, Gaussian, Inc.),
 the Gaussian(R) 98 system (copyright 1998, Gaussian, Inc.),
 the Gaussian(R) 94 system (copyright 1995, Gaussian, Inc.),
 the Gaussian 92(TM) system (copyright 1992, Gaussian, Inc.),
 the Gaussian 90(TM) system (copyright 1990, Gaussian, Inc.),
 the Gaussian 88(TM) system (copyright 1988, Gaussian, Inc.),
 the Gaussian 86(TM) system (copyright 1986, Carnegie Mellon
 University), and the Gaussian 82(TM) system (copyright 1983,
 Carnegie Mellon University). Gaussian is a federally registered
 trademark of Gaussian, Inc.
  
 This software contains proprietary and confidential information,
 including trade secrets, belonging to Gaussian, Inc.
  
 This software is provided under written license and may be
 used, copied, transmitted, or stored only in accord with that
 written license.
  
 The following legend is applicable only to US Government
 contracts under FAR:
  
                    RESTRICTED RIGHTS LEGEND
  
 Use, reproduction and disclosure by the US Government is
 subject to restrictions as set forth in subparagraphs (a)
 and (c) of the Commercial Computer Software - Restricted
 Rights clause in FAR 52.227-19.
  
 Gaussian, Inc.
 340 Quinnipiac St., Bldg. 40, Wallingford CT 06492
  
  
 ---------------------------------------------------------------
 Warning -- This program may not be used in any manner that
 competes with the business of Gaussian, Inc. or will provide
 assistance to any competitor of Gaussian, Inc.  The licensee
 of this program is prohibited from giving any competitor of
 Gaussian, Inc. access to this program.  By using this program,
 the user acknowledges that Gaussian, Inc. is engaged in the
 business of creating and licensing software in the field of
 computational chemistry and represents and warrants to the
 licensee that it is not a competitor of Gaussian, Inc. and that
 it will not use this program in any manner prohibited above.
 ---------------------------------------------------------------
  

 Cite this work as:
 Gaussian 16, Revision A.03,
 M. J. Frisch, G. W. Trucks, H. B. Schlegel, G. E. Scuseria, 
 M. A. Robb, J. R. Cheeseman, G. Scalmani, V. Barone, 
 G. A. Petersson, H. Nakatsuji, X. Li, M. Caricato, A. V. Marenich, 
 J. Bloino, B. G. Janesko, R. Gomperts, B. Mennucci, H. P. Hratchian, 
 J. V. Ortiz, A. F. Izmaylov, J. L. Sonnenberg, D. Williams-Young, 
 F. Ding, F. Lipparini, F. Egidi, J. Goings, B. Peng, A. Petrone, 
 T. Henderson, D. Ranasinghe, V. G. Zakrzewski, J. Gao, N. Rega, 
 G. Zheng, W. Liang, M. Hada, M. Ehara, K. Toyota, R. Fukuda, 
 J. Hasegawa, M. Ishida, T. Nakajima, Y. Honda, O. Kitao, H. Nakai, 
 T. Vreven, K. Throssell, J. A. Montgomery, Jr., J. E. Peralta, 
 F. Ogliaro, M. J. Bearpark, J. J. Heyd, E. N. Brothers, K. N. Kudin, 
 V. N. Staroverov, T. A. Keith, R. Kobayashi, J. Normand, 
 K. Raghavachari, A. P. Rendell, J. C. Burant, S. S. Iyengar, 
 J. Tomasi, M. Cossi, J. M. Millam, M. Klene, C. Adamo, R. Cammi, 
 J. W. Ochterski, R. L. Martin, K. Morokuma, O. Farkas, 
 J. B. Foresman, and D. J. Fox, Gaussian, Inc., Wallingford CT, 2016.
 
 ******************************************
 Gaussian 16:  ES64L-G16RevA.03 25-Dec-2016
                22-Sep-2023 
 ******************************************
 %nprocshared=6
 Will use up to    6 processors via shared memory.
 %mem=6GB
 -----------------
 # M062X/def2TZVPP
 -----------------
 1/38=1,172=1/1;
 2/12=2,17=6,18=5,40=1/2;
 3/5=44,7=202,11=2,25=1,30=1,74=-55/1,2,3;
 4//1;
 5/5=2,38=5/2;
 6/7=2,8=2,9=2,10=2,28=1/1;
 99/5=1,9=1/99;
 -----------------------
 tmpdir/M2_conf_0_41.gjf
 -----------------------
 Symbolic Z-matrix:
 Charge =  0 Multiplicity = 1
 H                     0.        0.        0. 
 C                     1.09      0.        0. 
 H                     1.44192   0.        1.02846 
 H                     1.50381  -0.95575  -0.51914 
 H                     1.43611   0.8996   -0.50938 
 
                          Input orientation:                          
 ---------------------------------------------------------------------
 Center     Atomic      Atomic             Coordinates (Angstroms)
 Number     Number       Type             X           Y           Z
 ---------------------------------------------------------------------
      1          1           0        0.000000    0.000000    0.000000
      2          6           0        1.090000    0.000000    0.000000
      3          1           0        1.441920    0.000000    1.028460
      4          1           0        1.503810   -0.955750   -0.519140
      5          1           0        1.436110    0.899600   -0.509380
 ---------------------------------------------------------------------
                    Distance matrix (angstroms):
                    1          2          3          4          5
     1  H    0.000000
     2  C    1.090000   0.000000
     3  H    1.771119   1.087004   0.000000
     4  H    1.855912   1.163702   1.819987   0.000000
     5  H    1.769508   1.090202   1.781647   1.856610   0.000000
 Stoichiometry    CH4
 Framework group  C1[X(CH4)]
 Deg. of freedom     9
 Full point group                 C1      NOp   1
 Largest Abelian subgroup         C1      NOp   1
 Largest concise Abelian subgroup C1      NOp   1
                         Standard orientation:                         
 ---------------------------------------------------------------------
 Center     Atomic      Atomic             Coordinates (Angstroms)
 Number     Number       Type             X           Y           Z
 ---------------------------------------------------------------------
      1          1           0        0.500075   -0.272331    0.932018
      2          6           0        0.005811    0.001588   -0.000061
      3          1           0        0.093177   -0.824800   -0.700793
      4          1           0       -1.126830    0.202649    0.175724
      5          1           0        0.498710    0.884951   -0.406585
 ---------------------------------------------------------------------
 Rotational constants (GHZ):         159.9717107         150.4288368         149.4100877
 Standard basis: def2TZVPP (5D, 7F)
 There are    96 symmetry adapted cartesian basis functions of A   symmetry.
 There are    87 symmetry adapted basis functions of A   symmetry.
    87 basis functions,   119 primitive gaussians,    96 cartesian basis functions
     5 alpha electrons        5 beta electrons
       nuclear repulsion energy        13.2303733856 Hartrees.
 NAtoms=    5 NActive=    5 NUniq=    5 SFac= 1.00D+00 NAtFMM=   60 NAOKFM=F Big=F
 Integral buffers will be    131072 words long.
 Raffenetti 2 integral format.
 Two-electron integral symmetry is turned on.
 One-electron integrals computed using PRISM.
   1 Symmetry operations used in ECPInt.
 ECPInt:  NShTT=     630 NPrTT=    1412 LenC2=     631 LenP2D=    1376.
 LDataN:  DoStor=T MaxTD1= 6 Len=  172
 NBasis=    87 RedAO= T EigKep=  5.56D-04  NBF=    87
 NBsUse=    87 1.00D-06 EigRej= -1.00D+00 NBFU=    87
 ExpMin= 9.52D-02 ExpMax= 1.36D+04 ExpMxC= 4.63D+02 IAcc=3 IRadAn=         5 AccDes= 0.00D+00
 Harris functional with IExCor= 1009 and IRadAn=       5 diagonalized for initial guess.
 HarFok:  IExCor= 1009 AccDes= 0.00D+00 IRadAn=         5 IDoV= 1 UseB2=F ITyADJ=14
 ICtDFT=  3500011 ScaDFX=  1.000000  1.000000  1.000000  1.000000
 FoFCou: FMM=F IPFlag=           0 FMFlag=      100000 FMFlg1=           0
         NFxFlg=           0 DoJE=T BraDBF=F KetDBF=T FulRan=T
         wScrn=  0.000000 ICntrl=       500 IOpCl=  0 I1Cent=   200000004 NGrid=           0
         NMat0=    1 NMatS0=      1 NMatT0=    0 NMatD0=    1 NMtDS0=    0 NMtDT0=    0
 Petite list used in FoFCou.
 Keep R1 ints in memory in canonical form, NReq=12860297.
 Requested convergence on RMS density matrix=1.00D-08 within 128 cycles.
 Requested convergence on MAX density matrix=1.00D-06.
 Requested convergence on             energy=1.00D-06.
 No special actions if energy rises.
 Integral accuracy reduced to 1.0D-05 until final iterations.
 Initial convergence to 1.0D-05 achieved.  Increase integral accuracy.
 SCF Done:  E(RM062X) =  -40.4984382362     A.U. after   10 cycles
            NFock= 10  Conv=0.15D-08     -V/T= 2.0087

 **********************************************************************

            Population analysis using the SCF density.

 **********************************************************************

 Orbital symmetries:
       Occupied  (A) (A) (A) (A) (A)
       Virtual   (A) (A) (A) (A) (A) (A) (A) (A) (A) (A) (A) (A)
                 (A) (A) (A) (A) (A) (A) (A) (A) (A) (A) (A) (A)
                 (A) (A) (A) (A) (A) (A) (A) (A) (A) (A) (A) (A)
                 (A) (A) (A) (A) (A) (A) (A) (A) (A) (A) (A) (A)
                 (A) (A) (A) (A) (A) (A) (A) (A) (A) (A) (A) (A)
                 (A) (A) (A) (A) (A) (A) (A) (A) (A) (A) (A) (A)
                 (A) (A) (A) (A) (A) (A) (A) (A) (A) (A)
 The electronic state is 1-A.
 Alpha  occ. eigenvalues --  -10.52410  -0.78015  -0.45845  -0.45489  -0.44347
 Alpha virt. eigenvalues --    0.08464   0.15261   0.16192   0.16305   0.23696
 Alpha virt. eigenvalues --    0.23716   0.24229   0.41610   0.48209   0.50823
 Alpha virt. eigenvalues --    0.51194   0.54396   0.55198   0.55731   0.90407
 Alpha virt. eigenvalues --    0.91052   0.92516   0.97318   0.97765   0.98001
 Alpha virt. eigenvalues --    1.10388   1.12108   1.13266   1.34952   1.40464
 Alpha virt. eigenvalues --    1.41207   1.42088   1.47805   1.48145   1.56703
 Alpha virt. eigenvalues --    1.84574   1.86427   1.93381   2.52011   2.53200
 Alpha virt. eigenvalues --    2.53736   2.65448   2.82730   2.83693   2.84748
 Alpha virt. eigenvalues --    2.85473   2.85702   2.86264   2.91340   2.91522
 Alpha virt. eigenvalues --    3.26889   3.27711   3.29783   3.33098   3.37785
 Alpha virt. eigenvalues --    3.39068   3.44820   3.45762   3.58776   3.75284
 Alpha virt. eigenvalues --    3.76575   3.84290   3.85857   3.86484   3.96086
 Alpha virt. eigenvalues --    3.98697   4.03228   4.10645   4.11119   4.14940
 Alpha virt. eigenvalues --    4.44188   4.47123   4.48255   4.75842   5.00510
 Alpha virt. eigenvalues --    5.03448   5.04779   5.09425   5.13787   5.16011
 Alpha virt. eigenvalues --    5.19472   5.26672   5.27731   5.47102   5.47653
 Alpha virt. eigenvalues --    5.48830  23.74234
          Condensed to atoms (all electrons):
               1          2          3          4          5
     1  H    0.535144   0.399949  -0.021289  -0.020429  -0.022066
     2  C    0.399949   4.907278   0.400151   0.389518   0.400294
     3  H   -0.021289   0.400151   0.534464  -0.022891  -0.020625
     4  H   -0.020429   0.389518  -0.022891   0.564746  -0.020521
     5  H   -0.022066   0.400294  -0.020625  -0.020521   0.534182
 Mulliken charges:
               1
     1  H    0.128691
     2  C   -0.497191
     3  H    0.130189
     4  H    0.109576
     5  H    0.128735
 Sum of Mulliken charges =  -0.00000
 Mulliken charges with hydrogens summed into heavy atoms:
               1
     2  C   -0.000000
 Electronic spatial extent (au):  <R**2>=             36.5182
 Charge=             -0.0000 electrons
 Dipole moment (field-independent basis, Debye):
    X=              0.0478    Y=             -0.0205    Z=             -0.0132  Tot=              0.0536
 Quadrupole moment (field-independent basis, Debye-Ang):
   XX=             -8.4184   YY=             -8.5353   ZZ=             -8.5709
   XY=              0.0362   XZ=              0.0302   YZ=             -0.0045
 Traceless Quadrupole moment (field-independent basis, Debye-Ang):
   XX=              0.0898   YY=             -0.0271   ZZ=             -0.0627
   XY=              0.0362   XZ=              0.0302   YZ=             -0.0045
 Octapole moment (field-independent basis, Debye-Ang**2):
  XXX=             -0.6101  YYY=              0.0120  ZZZ=              0.2354  XYY=              0.4346
  XXY=              0.2743  XXZ=              0.2397  XZZ=              0.4919  YZZ=             -0.3822
  YYZ=             -0.5470  XYZ=             -0.2213
 Hexadecapole moment (field-independent basis, Debye-Ang**3):
 XXXX=            -17.2659 YYYY=            -16.6277 ZZZZ=            -16.6513 XXXY=             -0.1734
 XXXZ=             -0.1518 YYYX=              0.4340 YYYZ=              0.1076 ZZZX=              0.4909
 ZZZY=             -0.0034 XXYY=             -5.9026 XXZZ=             -5.8557 YYZZ=             -5.3289
 XXYZ=             -0.1312 YYXZ=             -0.1884 ZZXY=             -0.0780
 N-N= 1.323037338558D+01 E-N=-1.195833689603D+02  KE= 4.015030930943D+01
 1\1\GINC-NODE85\SP\RM062X\def2TZVPP\C1H4\YANZ\22-Sep-2023\0\\# M062X/d
 ef2TZVPP\\tmpdir/M2_conf_0_41.gjf\\0,1\H,0,0.,0.,0.\C,0,1.09,0.,0.\H,0
 ,1.44192,0.,1.02846\H,0,1.50381,-0.95575,-0.51914\H,0,1.43611,0.8996,-
 0.50938\\Version=ES64L-G16RevA.03\State=1-A\HF=-40.4984382\RMSD=1.466e
 -09\Dipole=-0.0061104,0.0148243,0.0137184\Quadrupole=-0.0089089,0.0460
 202,-0.0371113,-0.0520986,-0.0086636,-0.0135574\PG=C01 [X(C1H4)]\\@


 Boundary, n.  In political geography, an imaginary
 line between two nations, separating the imaginary
 rights of one from the imaginary rights of another.
                               -- Ambrose Bierce
 Job cpu time:       0 days  0 hours  0 minutes 22.0 seconds.
 Elapsed time:       0 days  0 hours  0 minutes  3.9 seconds.
 File lengths (MBytes):  RWF=      6 Int=      0 D2E=      0 Chk=      2 Scr=      1
 Normal termination of Gaussian 16 at Fri Sep 22 16:50:18 2023.
