 Entering Gaussian System, Link 0=g16
 Initial command:
 /share/apps/gaussian/g16/l1.exe "/tmp/55604.mgr/Gau-82885.inp" -scrdir="/tmp/55604.mgr/"
 Entering Link 1 = /share/apps/gaussian/g16/l1.exe PID=     82890.
  
 Copyright (c) 1988,1990,1992,1993,1995,1998,2003,2009,2016,
            Gaussian, Inc.  All Rights Reserved.
  
 This is part of the Gaussian(R) 16 program.  It is based on
 the Gaussian(R) 09 system (copyright 2009, Gaussian, Inc.),
 the Gaussian(R) 03 system (copyright 2003, Gaussian, Inc.),
 the Gaussian(R) 98 system (copyright 1998, Gaussian, Inc.),
 the Gaussian(R) 94 system (copyright 1995, Gaussian, Inc.),
 the Gaussian 92(TM) system (copyright 1992, Gaussian, Inc.),
 the Gaussian 90(TM) system (copyright 1990, Gaussian, Inc.),
 the Gaussian 88(TM) system (copyright 1988, Gaussian, Inc.),
 the Gaussian 86(TM) system (copyright 1986, Carnegie Mellon
 University), and the Gaussian 82(TM) system (copyright 1983,
 Carnegie Mellon University). Gaussian is a federally registered
 trademark of Gaussian, Inc.
  
 This software contains proprietary and confidential information,
 including trade secrets, belonging to Gaussian, Inc.
  
 This software is provided under written license and may be
 used, copied, transmitted, or stored only in accord with that
 written license.
  
 The following legend is applicable only to US Government
 contracts under FAR:
  
                    RESTRICTED RIGHTS LEGEND
  
 Use, reproduction and disclosure by the US Government is
 subject to restrictions as set forth in subparagraphs (a)
 and (c) of the Commercial Computer Software - Restricted
 Rights clause in FAR 52.227-19.
  
 Gaussian, Inc.
 340 Quinnipiac St., Bldg. 40, Wallingford CT 06492
  
  
 ---------------------------------------------------------------
 Warning -- This program may not be used in any manner that
 competes with the business of Gaussian, Inc. or will provide
 assistance to any competitor of Gaussian, Inc.  The licensee
 of this program is prohibited from giving any competitor of
 Gaussian, Inc. access to this program.  By using this program,
 the user acknowledges that Gaussian, Inc. is engaged in the
 business of creating and licensing software in the field of
 computational chemistry and represents and warrants to the
 licensee that it is not a competitor of Gaussian, Inc. and that
 it will not use this program in any manner prohibited above.
 ---------------------------------------------------------------
  

 Cite this work as:
 Gaussian 16, Revision A.03,
 M. J. Frisch, G. W. Trucks, H. B. Schlegel, G. E. Scuseria, 
 M. A. Robb, J. R. Cheeseman, G. Scalmani, V. Barone, 
 G. A. Petersson, H. Nakatsuji, X. Li, M. Caricato, A. V. Marenich, 
 J. Bloino, B. G. Janesko, R. Gomperts, B. Mennucci, H. P. Hratchian, 
 J. V. Ortiz, A. F. Izmaylov, J. L. Sonnenberg, D. Williams-Young, 
 F. Ding, F. Lipparini, F. Egidi, J. Goings, B. Peng, A. Petrone, 
 T. Henderson, D. Ranasinghe, V. G. Zakrzewski, J. Gao, N. Rega, 
 G. Zheng, W. Liang, M. Hada, M. Ehara, K. Toyota, R. Fukuda, 
 J. Hasegawa, M. Ishida, T. Nakajima, Y. Honda, O. Kitao, H. Nakai, 
 T. Vreven, K. Throssell, J. A. Montgomery, Jr., J. E. Peralta, 
 F. Ogliaro, M. J. Bearpark, J. J. Heyd, E. N. Brothers, K. N. Kudin, 
 V. N. Staroverov, T. A. Keith, R. Kobayashi, J. Normand, 
 K. Raghavachari, A. P. Rendell, J. C. Burant, S. S. Iyengar, 
 J. Tomasi, M. Cossi, J. M. Millam, M. Klene, C. Adamo, R. Cammi, 
 J. W. Ochterski, R. L. Martin, K. Morokuma, O. Farkas, 
 J. B. Foresman, and D. J. Fox, Gaussian, Inc., Wallingford CT, 2016.
 
 ******************************************
 Gaussian 16:  ES64L-G16RevA.03 25-Dec-2016
                22-Sep-2023 
 ******************************************
 %nprocshared=6
 Will use up to    6 processors via shared memory.
 %mem=6GB
 -----------------
 # M062X/def2TZVPP
 -----------------
 1/38=1,172=1/1;
 2/12=2,17=6,18=5,40=1/2;
 3/5=44,7=202,11=2,25=1,30=1,74=-55/1,2,3;
 4//1;
 5/5=2,38=5/2;
 6/7=2,8=2,9=2,10=2,28=1/1;
 99/5=1,9=1/99;
 ----------------------
 tmpdir/M2_conf_0_3.gjf
 ----------------------
 Symbolic Z-matrix:
 Charge =  0 Multiplicity = 1
 H                     0.        0.        0. 
 N                     1.0109    0.        0. 
 H                     1.36516   0.        0.94551 
 H                     1.37057   0.79947  -0.52396 
 
                          Input orientation:                          
 ---------------------------------------------------------------------
 Center     Atomic      Atomic             Coordinates (Angstroms)
 Number     Number       Type             X           Y           Z
 ---------------------------------------------------------------------
      1          1           0        0.000000    0.000000    0.000000
      2          7           0        1.010900    0.000000    0.000000
      3          1           0        1.365160    0.000000    0.945510
      4          1           0        1.370570    0.799470   -0.523960
 ---------------------------------------------------------------------
                    Distance matrix (angstroms):
                    1          2          3          4
     1  H    0.000000
     2  N    1.010900   0.000000
     3  H    1.660618   1.009698   0.000000
     4  H    1.670972   1.021298   1.672879   0.000000
 Stoichiometry    H3N
 Framework group  C1[X(H3N)]
 Deg. of freedom     6
 Full point group                 C1      NOp   1
 Largest Abelian subgroup         C1      NOp   1
 Largest concise Abelian subgroup C1      NOp   1
                         Standard orientation:                         
 ---------------------------------------------------------------------
 Center     Atomic      Atomic             Coordinates (Angstroms)
 Number     Number       Type             X           Y           Z
 ---------------------------------------------------------------------
      1          1           0       -0.418404    0.863993    0.222222
      2          7           0       -0.001222   -0.000397   -0.095125
      3          1           0       -0.540807   -0.792107    0.223516
      4          1           0        0.967765   -0.069110    0.220140
 ---------------------------------------------------------------------
 Rotational constants (GHZ):         308.2525498         303.5092016         180.1971310
 Standard basis: def2TZVPP (5D, 7F)
 There are    81 symmetry adapted cartesian basis functions of A   symmetry.
 There are    73 symmetry adapted basis functions of A   symmetry.
    73 basis functions,   102 primitive gaussians,    81 cartesian basis functions
     5 alpha electrons        5 beta electrons
       nuclear repulsion energy        11.9116351614 Hartrees.
 NAtoms=    4 NActive=    4 NUniq=    4 SFac= 1.00D+00 NAtFMM=   60 NAOKFM=F Big=F
 Integral buffers will be    131072 words long.
 Raffenetti 2 integral format.
 Two-electron integral symmetry is turned on.
 One-electron integrals computed using PRISM.
   1 Symmetry operations used in ECPInt.
 ECPInt:  NShTT=     435 NPrTT=    1021 LenC2=     436 LenP2D=    1000.
 LDataN:  DoStor=T MaxTD1= 6 Len=  172
 NBasis=    73 RedAO= T EigKep=  9.07D-04  NBF=    73
 NBsUse=    73 1.00D-06 EigRej= -1.00D+00 NBFU=    73
 ExpMin= 1.03D-01 ExpMax= 1.97D+04 ExpMxC= 6.73D+02 IAcc=3 IRadAn=         5 AccDes= 0.00D+00
 Harris functional with IExCor= 1009 and IRadAn=       5 diagonalized for initial guess.
 HarFok:  IExCor= 1009 AccDes= 0.00D+00 IRadAn=         5 IDoV= 1 UseB2=F ITyADJ=14
 ICtDFT=  3500011 ScaDFX=  1.000000  1.000000  1.000000  1.000000
 FoFCou: FMM=F IPFlag=           0 FMFlag=      100000 FMFlg1=           0
         NFxFlg=           0 DoJE=T BraDBF=F KetDBF=T FulRan=T
         wScrn=  0.000000 ICntrl=       500 IOpCl=  0 I1Cent=   200000004 NGrid=           0
         NMat0=    1 NMatS0=      1 NMatT0=    0 NMatD0=    1 NMtDS0=    0 NMtDT0=    0
 Petite list used in FoFCou.
 Keep R1 ints in memory in canonical form, NReq=9081235.
 Requested convergence on RMS density matrix=1.00D-08 within 128 cycles.
 Requested convergence on MAX density matrix=1.00D-06.
 Requested convergence on             energy=1.00D-06.
 No special actions if energy rises.
 Integral accuracy reduced to 1.0D-05 until final iterations.
 Initial convergence to 1.0D-05 achieved.  Increase integral accuracy.
 SCF Done:  E(RM062X) =  -56.5511563196     A.U. after   12 cycles
            NFock= 12  Conv=0.56D-09     -V/T= 2.0052

 **********************************************************************

            Population analysis using the SCF density.

 **********************************************************************

 Orbital symmetries:
       Occupied  (A) (A) (A) (A) (A)
       Virtual   (A) (A) (A) (A) (A) (A) (A) (A) (A) (A) (A) (A)
                 (A) (A) (A) (A) (A) (A) (A) (A) (A) (A) (A) (A)
                 (A) (A) (A) (A) (A) (A) (A) (A) (A) (A) (A) (A)
                 (A) (A) (A) (A) (A) (A) (A) (A) (A) (A) (A) (A)
                 (A) (A) (A) (A) (A) (A) (A) (A) (A) (A) (A) (A)
                 (A) (A) (A) (A) (A) (A) (A) (A)
 The electronic state is 1-A.
 Alpha  occ. eigenvalues --  -14.71877  -0.94682  -0.53492  -0.53294  -0.32812
 Alpha virt. eigenvalues --    0.06006   0.13995   0.14096   0.34473   0.34524
 Alpha virt. eigenvalues --    0.39209   0.46683   0.49985   0.53044   0.53360
 Alpha virt. eigenvalues --    0.62467   0.62639   0.95773   0.96616   1.04195
 Alpha virt. eigenvalues --    1.04418   1.23201   1.23557   1.23939   1.48107
 Alpha virt. eigenvalues --    1.48448   1.54489   1.59289   1.59458   2.04313
 Alpha virt. eigenvalues --    2.17307   2.17648   2.24465   2.64547   2.87165
 Alpha virt. eigenvalues --    2.87813   3.10762   3.17202   3.17494   3.21927
 Alpha virt. eigenvalues --    3.27595   3.28929   3.36174   3.53433   3.53675
 Alpha virt. eigenvalues --    3.64317   3.64690   3.70403   3.77876   3.88909
 Alpha virt. eigenvalues --    3.88984   4.07494   4.07752   4.16532   4.32783
 Alpha virt. eigenvalues --    4.34529   4.34737   4.55744   4.71243   4.71691
 Alpha virt. eigenvalues --    5.17816   5.19353   5.22019   5.51269   5.64227
 Alpha virt. eigenvalues --    5.66150   5.82251   5.84298   6.07034   6.34250
 Alpha virt. eigenvalues --    6.34915   6.46083  32.63118
          Condensed to atoms (all electrons):
               1          2          3          4
     1  H    0.522778   0.394790  -0.039818  -0.039205
     2  N    0.394790   6.305587   0.395345   0.393145
     3  H   -0.039818   0.395345   0.522072  -0.039123
     4  H   -0.039205   0.393145  -0.039123   0.519294
 Mulliken charges:
               1
     1  H    0.161455
     2  N   -0.488867
     3  H    0.161524
     4  H    0.165888
 Sum of Mulliken charges =  -0.00000
 Mulliken charges with hydrogens summed into heavy atoms:
               1
     2  N   -0.000000
 Electronic spatial extent (au):  <R**2>=             26.7196
 Charge=             -0.0000 electrons
 Dipole moment (field-independent basis, Debye):
    X=              0.0082    Y=              0.0034    Z=              1.4083  Tot=              1.4084
 Quadrupole moment (field-independent basis, Debye-Ang):
   XX=             -6.0705   YY=             -6.1071   ZZ=             -9.3806
   XY=              0.0027   XZ=             -0.0095   YZ=             -0.0013
 Traceless Quadrupole moment (field-independent basis, Debye-Ang):
   XX=              1.1156   YY=              1.0790   ZZ=             -2.1946
   XY=              0.0027   XZ=             -0.0095   YZ=             -0.0013
 Octapole moment (field-independent basis, Debye-Ang**2):
  XXX=              1.0286  YYY=              0.2298  ZZZ=              1.2648  XYY=             -1.0118
  XXY=             -0.2253  XXZ=              0.7792  XZZ=             -0.0074  YZZ=              0.0007
  YYZ=              0.7745  XYZ=              0.0013
 Hexadecapole moment (field-independent basis, Debye-Ang**3):
 XXXX=             -9.9871 YYYY=             -9.9444 ZZZZ=            -11.3410 XXXY=              0.0048
 XXXZ=              0.2999 YYYX=              0.0032 YYYZ=              0.0675 ZZZX=             -0.0164
 ZZZY=             -0.0017 XXYY=             -3.3340 XXZZ=             -3.7643 YYZZ=             -3.7418
 XXYZ=             -0.0697 YYXZ=             -0.3135 ZZXY=              0.0025
 N-N= 1.191163516138D+01 E-N=-1.558814929833D+02  KE= 5.625707222130D+01
 1\1\GINC-NODE85\SP\RM062X\def2TZVPP\H3N1\YANZ\22-Sep-2023\0\\# M062X/d
 ef2TZVPP\\tmpdir/M2_conf_0_3.gjf\\0,1\H,0,0.,0.,0.\N,0,1.0109,0.,0.\H,
 0,1.36516,0.,0.94551\H,0,1.37057,0.79947,-0.52396\\Version=ES64L-G16Re
 vA.03\State=1-A\HF=-56.5511563\RMSD=5.645e-10\Dipole=-0.1737563,0.4635
 727,0.2488656\Quadrupole=0.5668721,-0.8870044,0.3201323,0.6414926,0.33
 73085,-0.9307277\PG=C01 [X(H3N1)]\\@


 LOVE IS BLIND, THAT'S WHY ALL THE WORLD LOVES A LOUVER.
 Job cpu time:       0 days  0 hours  0 minutes 18.7 seconds.
 Elapsed time:       0 days  0 hours  0 minutes  3.4 seconds.
 File lengths (MBytes):  RWF=      6 Int=      0 D2E=      0 Chk=      1 Scr=      1
 Normal termination of Gaussian 16 at Fri Sep 22 16:48:55 2023.
