 Entering Gaussian System, Link 0=g16
 Initial command:
 /share/apps/gaussian/g16/l1.exe "/tmp/55604.mgr/Gau-83390.inp" -scrdir="/tmp/55604.mgr/"
 Entering Link 1 = /share/apps/gaussian/g16/l1.exe PID=     83391.
  
 Copyright (c) 1988,1990,1992,1993,1995,1998,2003,2009,2016,
            Gaussian, Inc.  All Rights Reserved.
  
 This is part of the Gaussian(R) 16 program.  It is based on
 the Gaussian(R) 09 system (copyright 2009, Gaussian, Inc.),
 the Gaussian(R) 03 system (copyright 2003, Gaussian, Inc.),
 the Gaussian(R) 98 system (copyright 1998, Gaussian, Inc.),
 the Gaussian(R) 94 system (copyright 1995, Gaussian, Inc.),
 the Gaussian 92(TM) system (copyright 1992, Gaussian, Inc.),
 the Gaussian 90(TM) system (copyright 1990, Gaussian, Inc.),
 the Gaussian 88(TM) system (copyright 1988, Gaussian, Inc.),
 the Gaussian 86(TM) system (copyright 1986, Carnegie Mellon
 University), and the Gaussian 82(TM) system (copyright 1983,
 Carnegie Mellon University). Gaussian is a federally registered
 trademark of Gaussian, Inc.
  
 This software contains proprietary and confidential information,
 including trade secrets, belonging to Gaussian, Inc.
  
 This software is provided under written license and may be
 used, copied, transmitted, or stored only in accord with that
 written license.
  
 The following legend is applicable only to US Government
 contracts under FAR:
  
                    RESTRICTED RIGHTS LEGEND
  
 Use, reproduction and disclosure by the US Government is
 subject to restrictions as set forth in subparagraphs (a)
 and (c) of the Commercial Computer Software - Restricted
 Rights clause in FAR 52.227-19.
  
 Gaussian, Inc.
 340 Quinnipiac St., Bldg. 40, Wallingford CT 06492
  
  
 ---------------------------------------------------------------
 Warning -- This program may not be used in any manner that
 competes with the business of Gaussian, Inc. or will provide
 assistance to any competitor of Gaussian, Inc.  The licensee
 of this program is prohibited from giving any competitor of
 Gaussian, Inc. access to this program.  By using this program,
 the user acknowledges that Gaussian, Inc. is engaged in the
 business of creating and licensing software in the field of
 computational chemistry and represents and warrants to the
 licensee that it is not a competitor of Gaussian, Inc. and that
 it will not use this program in any manner prohibited above.
 ---------------------------------------------------------------
  

 Cite this work as:
 Gaussian 16, Revision A.03,
 M. J. Frisch, G. W. Trucks, H. B. Schlegel, G. E. Scuseria, 
 M. A. Robb, J. R. Cheeseman, G. Scalmani, V. Barone, 
 G. A. Petersson, H. Nakatsuji, X. Li, M. Caricato, A. V. Marenich, 
 J. Bloino, B. G. Janesko, R. Gomperts, B. Mennucci, H. P. Hratchian, 
 J. V. Ortiz, A. F. Izmaylov, J. L. Sonnenberg, D. Williams-Young, 
 F. Ding, F. Lipparini, F. Egidi, J. Goings, B. Peng, A. Petrone, 
 T. Henderson, D. Ranasinghe, V. G. Zakrzewski, J. Gao, N. Rega, 
 G. Zheng, W. Liang, M. Hada, M. Ehara, K. Toyota, R. Fukuda, 
 J. Hasegawa, M. Ishida, T. Nakajima, Y. Honda, O. Kitao, H. Nakai, 
 T. Vreven, K. Throssell, J. A. Montgomery, Jr., J. E. Peralta, 
 F. Ogliaro, M. J. Bearpark, J. J. Heyd, E. N. Brothers, K. N. Kudin, 
 V. N. Staroverov, T. A. Keith, R. Kobayashi, J. Normand, 
 K. Raghavachari, A. P. Rendell, J. C. Burant, S. S. Iyengar, 
 J. Tomasi, M. Cossi, J. M. Millam, M. Klene, C. Adamo, R. Cammi, 
 J. W. Ochterski, R. L. Martin, K. Morokuma, O. Farkas, 
 J. B. Foresman, and D. J. Fox, Gaussian, Inc., Wallingford CT, 2016.
 
 ******************************************
 Gaussian 16:  ES64L-G16RevA.03 25-Dec-2016
                22-Sep-2023 
 ******************************************
 %nprocshared=6
 Will use up to    6 processors via shared memory.
 %mem=6GB
 -----------------
 # M062X/def2TZVPP
 -----------------
 1/38=1,172=1/1;
 2/12=2,17=6,18=5,40=1/2;
 3/5=44,7=202,11=2,25=1,30=1,74=-55/1,2,3;
 4//1;
 5/5=2,38=5/2;
 6/7=2,8=2,9=2,10=2,28=1/1;
 99/5=1,9=1/99;
 -----------------------
 tmpdir/M2_conf_0_12.gjf
 -----------------------
 Symbolic Z-matrix:
 Charge =  0 Multiplicity = 1
 C                     0.        0.        0. 
 H                     1.088     0.        0. 
 H                    -0.46083   0.       -1.04981 
 H                    -0.3116   -0.8602    0.58437 
 H                    -0.28401   0.91869   0.52422 
 
                          Input orientation:                          
 ---------------------------------------------------------------------
 Center     Atomic      Atomic             Coordinates (Angstroms)
 Number     Number       Type             X           Y           Z
 ---------------------------------------------------------------------
      1          6           0        0.000000    0.000000    0.000000
      2          1           0        1.088000    0.000000    0.000000
      3          1           0       -0.460830    0.000000   -1.049810
      4          1           0       -0.311600   -0.860200    0.584370
      5          1           0       -0.284010    0.918690    0.524220
 ---------------------------------------------------------------------
                    Distance matrix (angstroms):
                    1          2          3          4          5
     1  C    0.000000
     2  H    1.088000   0.000000
     3  H    1.146501   1.871089   0.000000
     4  H    1.085600   1.743649   1.852770   0.000000
     5  H    1.095198   1.732400   1.831073   1.780120   0.000000
 Stoichiometry    CH4
 Framework group  C1[X(CH4)]
 Deg. of freedom     9
 Full point group                 C1      NOp   1
 Largest Abelian subgroup         C1      NOp   1
 Largest concise Abelian subgroup C1      NOp   1
                         Standard orientation:                         
 ---------------------------------------------------------------------
 Center     Atomic      Atomic             Coordinates (Angstroms)
 Number     Number       Type             X           Y           Z
 ---------------------------------------------------------------------
      1          6           0       -0.006280    0.006101    0.001438
      2          1           0        0.571856   -0.174714    0.905213
      3          1           0       -1.138092    0.049031    0.179270
      4          1           0        0.375289    0.924409   -0.434041
      5          1           0        0.228626   -0.835329   -0.659072
 ---------------------------------------------------------------------
 Rotational constants (GHZ):         163.8777031         152.4131915         147.4276546
 Standard basis: def2TZVPP (5D, 7F)
 There are    96 symmetry adapted cartesian basis functions of A   symmetry.
 There are    87 symmetry adapted basis functions of A   symmetry.
    87 basis functions,   119 primitive gaussians,    96 cartesian basis functions
     5 alpha electrons        5 beta electrons
       nuclear repulsion energy        13.2750391590 Hartrees.
 NAtoms=    5 NActive=    5 NUniq=    5 SFac= 1.00D+00 NAtFMM=   60 NAOKFM=F Big=F
 Integral buffers will be    131072 words long.
 Raffenetti 2 integral format.
 Two-electron integral symmetry is turned on.
 One-electron integrals computed using PRISM.
   1 Symmetry operations used in ECPInt.
 ECPInt:  NShTT=     630 NPrTT=    1412 LenC2=     631 LenP2D=    1376.
 LDataN:  DoStor=T MaxTD1= 6 Len=  172
 NBasis=    87 RedAO= T EigKep=  5.39D-04  NBF=    87
 NBsUse=    87 1.00D-06 EigRej= -1.00D+00 NBFU=    87
 ExpMin= 9.52D-02 ExpMax= 1.36D+04 ExpMxC= 4.63D+02 IAcc=3 IRadAn=         5 AccDes= 0.00D+00
 Harris functional with IExCor= 1009 and IRadAn=       5 diagonalized for initial guess.
 HarFok:  IExCor= 1009 AccDes= 0.00D+00 IRadAn=         5 IDoV= 1 UseB2=F ITyADJ=14
 ICtDFT=  3500011 ScaDFX=  1.000000  1.000000  1.000000  1.000000
 FoFCou: FMM=F IPFlag=           0 FMFlag=      100000 FMFlg1=           0
         NFxFlg=           0 DoJE=T BraDBF=F KetDBF=T FulRan=T
         wScrn=  0.000000 ICntrl=       500 IOpCl=  0 I1Cent=   200000004 NGrid=           0
         NMat0=    1 NMatS0=      1 NMatT0=    0 NMatD0=    1 NMtDS0=    0 NMtDT0=    0
 Petite list used in FoFCou.
 Keep R1 ints in memory in canonical form, NReq=12860297.
 Requested convergence on RMS density matrix=1.00D-08 within 128 cycles.
 Requested convergence on MAX density matrix=1.00D-06.
 Requested convergence on             energy=1.00D-06.
 No special actions if energy rises.
 Integral accuracy reduced to 1.0D-05 until final iterations.
 Initial convergence to 1.0D-05 achieved.  Increase integral accuracy.
 SCF Done:  E(RM062X) =  -40.4986290283     A.U. after   10 cycles
            NFock= 10  Conv=0.17D-08     -V/T= 2.0083

 **********************************************************************

            Population analysis using the SCF density.

 **********************************************************************

 Orbital symmetries:
       Occupied  (A) (A) (A) (A) (A)
       Virtual   (A) (A) (A) (A) (A) (A) (A) (A) (A) (A) (A) (A)
                 (A) (A) (A) (A) (A) (A) (A) (A) (A) (A) (A) (A)
                 (A) (A) (A) (A) (A) (A) (A) (A) (A) (A) (A) (A)
                 (A) (A) (A) (A) (A) (A) (A) (A) (A) (A) (A) (A)
                 (A) (A) (A) (A) (A) (A) (A) (A) (A) (A) (A) (A)
                 (A) (A) (A) (A) (A) (A) (A) (A) (A) (A) (A) (A)
                 (A) (A) (A) (A) (A) (A) (A) (A) (A) (A)
 The electronic state is 1-A.
 Alpha  occ. eigenvalues --  -10.52247  -0.78157  -0.45773  -0.45585  -0.44475
 Alpha virt. eigenvalues --    0.08502   0.15450   0.16173   0.16305   0.23675
 Alpha virt. eigenvalues --    0.23764   0.24181   0.41544   0.48792   0.50512
 Alpha virt. eigenvalues --    0.51143   0.54472   0.54920   0.56770   0.90106
 Alpha virt. eigenvalues --    0.90786   0.93296   0.96563   0.98265   0.98827
 Alpha virt. eigenvalues --    1.09850   1.11227   1.15220   1.34886   1.40773
 Alpha virt. eigenvalues --    1.41650   1.41867   1.47719   1.48303   1.56683
 Alpha virt. eigenvalues --    1.83004   1.89729   1.92923   2.50736   2.52046
 Alpha virt. eigenvalues --    2.55043   2.64423   2.82421   2.83423   2.84722
 Alpha virt. eigenvalues --    2.85280   2.86672   2.87488   2.91250   2.92024
 Alpha virt. eigenvalues --    3.26256   3.27465   3.32204   3.33788   3.36842
 Alpha virt. eigenvalues --    3.40712   3.44834   3.46584   3.58309   3.74175
 Alpha virt. eigenvalues --    3.76996   3.83848   3.85083   3.86959   3.96313
 Alpha virt. eigenvalues --    3.98182   4.07242   4.09698   4.11675   4.16501
 Alpha virt. eigenvalues --    4.43427   4.48801   4.50559   4.75631   4.97237
 Alpha virt. eigenvalues --    5.04421   5.07399   5.09107   5.14881   5.18098
 Alpha virt. eigenvalues --    5.18727   5.29307   5.33978   5.44943   5.48404
 Alpha virt. eigenvalues --    5.50880  23.76561
          Condensed to atoms (all electrons):
               1          2          3          4          5
     1  C    4.903310   0.398947   0.393885   0.401094   0.397944
     2  H    0.398947   0.539784  -0.018203  -0.023482  -0.024051
     3  H    0.393885  -0.018203   0.552061  -0.019933  -0.022029
     4  H    0.401094  -0.023482  -0.019933   0.534859  -0.020935
     5  H    0.397944  -0.024051  -0.022029  -0.020935   0.543510
 Mulliken charges:
               1
     1  C   -0.495181
     2  H    0.127004
     3  H    0.114220
     4  H    0.128396
     5  H    0.125560
 Sum of Mulliken charges =  -0.00000
 Mulliken charges with hydrogens summed into heavy atoms:
               1
     1  C   -0.000000
 Electronic spatial extent (au):  <R**2>=             36.3634
 Charge=             -0.0000 electrons
 Dipole moment (field-independent basis, Debye):
    X=              0.0647    Y=             -0.0160    Z=             -0.0099  Tot=              0.0674
 Quadrupole moment (field-independent basis, Debye-Ang):
   XX=             -8.2821   YY=             -8.5148   ZZ=             -8.6955
   XY=              0.0135   XZ=              0.0211   YZ=             -0.0175
 Traceless Quadrupole moment (field-independent basis, Debye-Ang):
   XX=              0.2153   YY=             -0.0173   ZZ=             -0.1980
   XY=              0.0135   XZ=              0.0211   YZ=             -0.0175
 Octapole moment (field-independent basis, Debye-Ang**2):
  XXX=             -0.7093  YYY=              0.1385  ZZZ=              0.2160  XYY=              0.4760
  XXY=              0.0638  XXZ=              0.3180  XZZ=              0.5289  YZZ=             -0.2275
  YYZ=             -0.5799  XYZ=             -0.0972
 Hexadecapole moment (field-independent basis, Debye-Ang**3):
 XXXX=            -16.9481 YYYY=            -16.4717 ZZZZ=            -16.6608 XXXY=             -0.0438
 XXXZ=             -0.0893 YYYX=              0.2305 YYYZ=              0.0098 ZZZX=              0.4515
 ZZZY=             -0.0009 XXYY=             -5.9890 XXZZ=             -5.7186 YYZZ=             -5.3547
 XXYZ=             -0.1019 YYXZ=             -0.2635 ZZXY=             -0.1146
 N-N= 1.327503915900D+01 E-N=-1.196852352895D+02  KE= 4.016712277170D+01
 1\1\GINC-NODE85\SP\RM062X\def2TZVPP\C1H4\YANZ\22-Sep-2023\0\\# M062X/d
 ef2TZVPP\\tmpdir/M2_conf_0_12.gjf\\0,1\C,0,0.,0.,0.\H,0,1.088,0.,0.\H,
 0,-0.46083,0.,-1.04981\H,0,-0.3116,-0.8602,0.58437\H,0,-0.28401,0.9186
 9,0.52422\\Version=ES64L-G16RevA.03\State=1-A\HF=-40.498629\RMSD=1.662
 e-09\Dipole=0.0113233,0.00522,0.0233887\Quadrupole=-0.0410798,-0.01805
 5,0.0591349,0.0149327,0.1410468,-0.037076\PG=C01 [X(C1H4)]\\@


 AND ALL THIS SCIENCE I DON'T UNDERSTAND
 IT'S JUST MY JOB FIVE DAYS A WEEK

                           -- ELTON JOHN, "ROCKET MAN"
 Job cpu time:       0 days  0 hours  0 minutes 23.4 seconds.
 Elapsed time:       0 days  0 hours  0 minutes  4.2 seconds.
 File lengths (MBytes):  RWF=      6 Int=      0 D2E=      0 Chk=      2 Scr=      1
 Normal termination of Gaussian 16 at Fri Sep 22 16:49:14 2023.
