 Entering Gaussian System, Link 0=g16
 Initial command:
 /share/apps/gaussian/g16/l1.exe "/tmp/55604.mgr/Gau-84507.inp" -scrdir="/tmp/55604.mgr/"
 Entering Link 1 = /share/apps/gaussian/g16/l1.exe PID=     84508.
  
 Copyright (c) 1988,1990,1992,1993,1995,1998,2003,2009,2016,
            Gaussian, Inc.  All Rights Reserved.
  
 This is part of the Gaussian(R) 16 program.  It is based on
 the Gaussian(R) 09 system (copyright 2009, Gaussian, Inc.),
 the Gaussian(R) 03 system (copyright 2003, Gaussian, Inc.),
 the Gaussian(R) 98 system (copyright 1998, Gaussian, Inc.),
 the Gaussian(R) 94 system (copyright 1995, Gaussian, Inc.),
 the Gaussian 92(TM) system (copyright 1992, Gaussian, Inc.),
 the Gaussian 90(TM) system (copyright 1990, Gaussian, Inc.),
 the Gaussian 88(TM) system (copyright 1988, Gaussian, Inc.),
 the Gaussian 86(TM) system (copyright 1986, Carnegie Mellon
 University), and the Gaussian 82(TM) system (copyright 1983,
 Carnegie Mellon University). Gaussian is a federally registered
 trademark of Gaussian, Inc.
  
 This software contains proprietary and confidential information,
 including trade secrets, belonging to Gaussian, Inc.
  
 This software is provided under written license and may be
 used, copied, transmitted, or stored only in accord with that
 written license.
  
 The following legend is applicable only to US Government
 contracts under FAR:
  
                    RESTRICTED RIGHTS LEGEND
  
 Use, reproduction and disclosure by the US Government is
 subject to restrictions as set forth in subparagraphs (a)
 and (c) of the Commercial Computer Software - Restricted
 Rights clause in FAR 52.227-19.
  
 Gaussian, Inc.
 340 Quinnipiac St., Bldg. 40, Wallingford CT 06492
  
  
 ---------------------------------------------------------------
 Warning -- This program may not be used in any manner that
 competes with the business of Gaussian, Inc. or will provide
 assistance to any competitor of Gaussian, Inc.  The licensee
 of this program is prohibited from giving any competitor of
 Gaussian, Inc. access to this program.  By using this program,
 the user acknowledges that Gaussian, Inc. is engaged in the
 business of creating and licensing software in the field of
 computational chemistry and represents and warrants to the
 licensee that it is not a competitor of Gaussian, Inc. and that
 it will not use this program in any manner prohibited above.
 ---------------------------------------------------------------
  

 Cite this work as:
 Gaussian 16, Revision A.03,
 M. J. Frisch, G. W. Trucks, H. B. Schlegel, G. E. Scuseria, 
 M. A. Robb, J. R. Cheeseman, G. Scalmani, V. Barone, 
 G. A. Petersson, H. Nakatsuji, X. Li, M. Caricato, A. V. Marenich, 
 J. Bloino, B. G. Janesko, R. Gomperts, B. Mennucci, H. P. Hratchian, 
 J. V. Ortiz, A. F. Izmaylov, J. L. Sonnenberg, D. Williams-Young, 
 F. Ding, F. Lipparini, F. Egidi, J. Goings, B. Peng, A. Petrone, 
 T. Henderson, D. Ranasinghe, V. G. Zakrzewski, J. Gao, N. Rega, 
 G. Zheng, W. Liang, M. Hada, M. Ehara, K. Toyota, R. Fukuda, 
 J. Hasegawa, M. Ishida, T. Nakajima, Y. Honda, O. Kitao, H. Nakai, 
 T. Vreven, K. Throssell, J. A. Montgomery, Jr., J. E. Peralta, 
 F. Ogliaro, M. J. Bearpark, J. J. Heyd, E. N. Brothers, K. N. Kudin, 
 V. N. Staroverov, T. A. Keith, R. Kobayashi, J. Normand, 
 K. Raghavachari, A. P. Rendell, J. C. Burant, S. S. Iyengar, 
 J. Tomasi, M. Cossi, J. M. Millam, M. Klene, C. Adamo, R. Cammi, 
 J. W. Ochterski, R. L. Martin, K. Morokuma, O. Farkas, 
 J. B. Foresman, and D. J. Fox, Gaussian, Inc., Wallingford CT, 2016.
 
 ******************************************
 Gaussian 16:  ES64L-G16RevA.03 25-Dec-2016
                22-Sep-2023 
 ******************************************
 %nprocshared=6
 Will use up to    6 processors via shared memory.
 %mem=6GB
 -----------------
 # M062X/def2TZVPP
 -----------------
 1/38=1,172=1/1;
 2/12=2,17=6,18=5,40=1/2;
 3/5=44,7=202,11=2,25=1,30=1,74=-55/1,2,3;
 4//1;
 5/5=2,38=5/2;
 6/7=2,8=2,9=2,10=2,28=1/1;
 99/5=1,9=1/99;
 -----------------------
 tmpdir/M2_conf_0_34.gjf
 -----------------------
 Symbolic Z-matrix:
 Charge =  0 Multiplicity = 1
 C                     0.        0.        0. 
 H                     1.0957    0.        0. 
 H                    -0.41381   0.       -1.08764 
 H                    -0.34611  -0.877     0.54737 
 H                    -0.36267   0.90045   0.48911 
 
                          Input orientation:                          
 ---------------------------------------------------------------------
 Center     Atomic      Atomic             Coordinates (Angstroms)
 Number     Number       Type             X           Y           Z
 ---------------------------------------------------------------------
      1          6           0        0.000000    0.000000    0.000000
      2          1           0        1.095700    0.000000    0.000000
      3          1           0       -0.413810    0.000000   -1.087640
      4          1           0       -0.346110   -0.877000    0.547370
      5          1           0       -0.362670    0.900450    0.489110
 ---------------------------------------------------------------------
                    Distance matrix (angstroms):
                    1          2          3          4          5
     1  C    0.000000
     2  H    1.095700   0.000000
     3  H    1.163701   1.860533   0.000000
     4  H    1.090200   1.774136   1.856602   0.000000
     5  H    1.087000   1.782381   1.816471   1.778482   0.000000
 Stoichiometry    CH4
 Framework group  C1[X(CH4)]
 Deg. of freedom     9
 Full point group                 C1      NOp   1
 Largest Abelian subgroup         C1      NOp   1
 Largest concise Abelian subgroup C1      NOp   1
                         Standard orientation:                         
 ---------------------------------------------------------------------
 Center     Atomic      Atomic             Coordinates (Angstroms)
 Number     Number       Type             X           Y           Z
 ---------------------------------------------------------------------
      1          6           0        0.006154   -0.000138   -0.001006
      2          1           0        0.535320    0.942462    0.178013
      3          1           0       -1.114603    0.194610   -0.246314
      4          1           0        0.498279   -0.522930   -0.821395
      5          1           0        0.044080   -0.613315    0.895734
 ---------------------------------------------------------------------
 Rotational constants (GHZ):         159.4392915         149.7373303         149.4552560
 Standard basis: def2TZVPP (5D, 7F)
 There are    96 symmetry adapted cartesian basis functions of A   symmetry.
 There are    87 symmetry adapted basis functions of A   symmetry.
    87 basis functions,   119 primitive gaussians,    96 cartesian basis functions
     5 alpha electrons        5 beta electrons
       nuclear repulsion energy        13.2129584861 Hartrees.
 NAtoms=    5 NActive=    5 NUniq=    5 SFac= 1.00D+00 NAtFMM=   60 NAOKFM=F Big=F
 Integral buffers will be    131072 words long.
 Raffenetti 2 integral format.
 Two-electron integral symmetry is turned on.
 One-electron integrals computed using PRISM.
   1 Symmetry operations used in ECPInt.
 ECPInt:  NShTT=     630 NPrTT=    1412 LenC2=     631 LenP2D=    1376.
 LDataN:  DoStor=T MaxTD1= 6 Len=  172
 NBasis=    87 RedAO= T EigKep=  5.62D-04  NBF=    87
 NBsUse=    87 1.00D-06 EigRej= -1.00D+00 NBFU=    87
 ExpMin= 9.52D-02 ExpMax= 1.36D+04 ExpMxC= 4.63D+02 IAcc=3 IRadAn=         5 AccDes= 0.00D+00
 Harris functional with IExCor= 1009 and IRadAn=       5 diagonalized for initial guess.
 HarFok:  IExCor= 1009 AccDes= 0.00D+00 IRadAn=         5 IDoV= 1 UseB2=F ITyADJ=14
 ICtDFT=  3500011 ScaDFX=  1.000000  1.000000  1.000000  1.000000
 FoFCou: FMM=F IPFlag=           0 FMFlag=      100000 FMFlg1=           0
         NFxFlg=           0 DoJE=T BraDBF=F KetDBF=T FulRan=T
         wScrn=  0.000000 ICntrl=       500 IOpCl=  0 I1Cent=   200000004 NGrid=           0
         NMat0=    1 NMatS0=      1 NMatT0=    0 NMatD0=    1 NMtDS0=    0 NMtDT0=    0
 Petite list used in FoFCou.
 Keep R1 ints in memory in canonical form, NReq=12860297.
 Requested convergence on RMS density matrix=1.00D-08 within 128 cycles.
 Requested convergence on MAX density matrix=1.00D-06.
 Requested convergence on             energy=1.00D-06.
 No special actions if energy rises.
 Integral accuracy reduced to 1.0D-05 until final iterations.
 Initial convergence to 1.0D-05 achieved.  Increase integral accuracy.
 SCF Done:  E(RM062X) =  -40.4983948143     A.U. after   10 cycles
            NFock= 10  Conv=0.12D-08     -V/T= 2.0089

 **********************************************************************

            Population analysis using the SCF density.

 **********************************************************************

 Orbital symmetries:
       Occupied  (A) (A) (A) (A) (A)
       Virtual   (A) (A) (A) (A) (A) (A) (A) (A) (A) (A) (A) (A)
                 (A) (A) (A) (A) (A) (A) (A) (A) (A) (A) (A) (A)
                 (A) (A) (A) (A) (A) (A) (A) (A) (A) (A) (A) (A)
                 (A) (A) (A) (A) (A) (A) (A) (A) (A) (A) (A) (A)
                 (A) (A) (A) (A) (A) (A) (A) (A) (A) (A) (A) (A)
                 (A) (A) (A) (A) (A) (A) (A) (A) (A) (A) (A) (A)
                 (A) (A) (A) (A) (A) (A) (A) (A) (A) (A)
 The electronic state is 1-A.
 Alpha  occ. eigenvalues --  -10.52472  -0.77962  -0.45858  -0.45438  -0.44302
 Alpha virt. eigenvalues --    0.08449   0.15251   0.16133   0.16295   0.23704
 Alpha virt. eigenvalues --    0.23730   0.24228   0.41597   0.48198   0.50683
 Alpha virt. eigenvalues --    0.51180   0.54265   0.55240   0.55630   0.90328
 Alpha virt. eigenvalues --    0.91058   0.92374   0.97364   0.97717   0.97952
 Alpha virt. eigenvalues --    1.10277   1.12286   1.13107   1.35000   1.40463
 Alpha virt. eigenvalues --    1.41108   1.42085   1.47358   1.48058   1.56544
 Alpha virt. eigenvalues --    1.84729   1.86208   1.93581   2.51927   2.53408
 Alpha virt. eigenvalues --    2.53604   2.65556   2.82557   2.83607   2.84666
 Alpha virt. eigenvalues --    2.85574   2.85665   2.86329   2.91101   2.91535
 Alpha virt. eigenvalues --    3.26807   3.27737   3.29520   3.32986   3.37740
 Alpha virt. eigenvalues --    3.38904   3.44695   3.45712   3.58469   3.75182
 Alpha virt. eigenvalues --    3.76568   3.83986   3.85707   3.86325   3.95780
 Alpha virt. eigenvalues --    3.98801   4.02653   4.10456   4.10660   4.14525
 Alpha virt. eigenvalues --    4.44121   4.46737   4.47918   4.75783   5.00105
 Alpha virt. eigenvalues --    5.02927   5.04342   5.09542   5.12845   5.15636
 Alpha virt. eigenvalues --    5.19510   5.25838   5.26946   5.46769   5.47253
 Alpha virt. eigenvalues --    5.48546  23.73211
          Condensed to atoms (all electrons):
               1          2          3          4          5
     1  C    4.907090   0.399342   0.389424   0.400231   0.400217
     2  H    0.399342   0.537041  -0.020526  -0.022189  -0.020948
     3  H    0.389424  -0.020526   0.565032  -0.020454  -0.023124
     4  H    0.400231  -0.022189  -0.020454   0.534307  -0.020823
     5  H    0.400217  -0.020948  -0.023124  -0.020823   0.534232
 Mulliken charges:
               1
     1  C   -0.496304
     2  H    0.127281
     3  H    0.109648
     4  H    0.128928
     5  H    0.130447
 Sum of Mulliken charges =  -0.00000
 Mulliken charges with hydrogens summed into heavy atoms:
               1
     1  C   -0.000000
 Electronic spatial extent (au):  <R**2>=             36.5720
 Charge=             -0.0000 electrons
 Dipole moment (field-independent basis, Debye):
    X=              0.0437    Y=             -0.0181    Z=              0.0210  Tot=              0.0517
 Quadrupole moment (field-independent basis, Debye-Ang):
   XX=             -8.4211   YY=             -8.5573   ZZ=             -8.5589
   XY=              0.0277   XZ=             -0.0446   YZ=              0.0044
 Traceless Quadrupole moment (field-independent basis, Debye-Ang):
   XX=              0.0913   YY=             -0.0448   ZZ=             -0.0465
   XY=              0.0277   XZ=             -0.0446   YZ=              0.0044
 Octapole moment (field-independent basis, Debye-Ang**2):
  XXX=             -0.5707  YYY=              0.2622  ZZZ=              0.1967  XYY=              0.5338
  XXY=              0.2563  XXZ=             -0.3119  XZZ=              0.3340  YZZ=             -0.6177
  YYZ=              0.2190  XYZ=              0.2514
 Hexadecapole moment (field-independent basis, Debye-Ang**3):
 XXXX=            -17.3387 YYYY=            -16.7860 ZZZZ=            -16.6068 XXXY=             -0.1646
 XXXZ=              0.2160 YYYX=              0.5162 YYYZ=              0.0800 ZZZX=             -0.3969
 ZZZY=             -0.1733 XXYY=             -5.7914 XXZZ=             -5.9267 YYZZ=             -5.3642
 XXYZ=              0.1202 YYXZ=             -0.0429 ZZXY=             -0.2124
 N-N= 1.321295848613D+01 E-N=-1.195431544458D+02  KE= 4.014272976834D+01
 1\1\GINC-NODE85\SP\RM062X\def2TZVPP\C1H4\YANZ\22-Sep-2023\0\\# M062X/d
 ef2TZVPP\\tmpdir/M2_conf_0_34.gjf\\0,1\C,0,0.,0.,0.\H,0,1.0957,0.,0.\H
 ,0,-0.41381,0.,-1.08764\H,0,-0.34611,-0.877,0.54737\H,0,-0.36267,0.900
 45,0.48911\\Version=ES64L-G16RevA.03\State=1-A\HF=-40.4983948\RMSD=1.2
 33e-09\Dipole=0.0035258,0.0046351,0.0195029\Quadrupole=0.0030641,-0.01
 48909,0.0118268,-0.0273276,0.044333,-0.0457886\PG=C01 [X(C1H4)]\\@


 MAN IS A SINGULAR CREATURE.  HE HAS A SET OF GIFTS
 WHICH MAKE HIM UNIQUE AMONG THE ANIMALS: SO THAT, 
 UNLIKE THEM, HE IS NOT A FIGURE IN THE LANDSCAPE --
 HE IS A SHAPER OF THE LANDSCAPE.

                       -- JACOB BRONOWSKI
 Job cpu time:       0 days  0 hours  0 minutes 22.4 seconds.
 Elapsed time:       0 days  0 hours  0 minutes  4.0 seconds.
 File lengths (MBytes):  RWF=      6 Int=      0 D2E=      0 Chk=      2 Scr=      1
 Normal termination of Gaussian 16 at Fri Sep 22 16:50:01 2023.
