 Entering Gaussian System, Link 0=g16
 Initial command:
 /share/apps/gaussian/g16/l1.exe "/tmp/55604.mgr/Gau-84981.inp" -scrdir="/tmp/55604.mgr/"
 Entering Link 1 = /share/apps/gaussian/g16/l1.exe PID=     84982.
  
 Copyright (c) 1988,1990,1992,1993,1995,1998,2003,2009,2016,
            Gaussian, Inc.  All Rights Reserved.
  
 This is part of the Gaussian(R) 16 program.  It is based on
 the Gaussian(R) 09 system (copyright 2009, Gaussian, Inc.),
 the Gaussian(R) 03 system (copyright 2003, Gaussian, Inc.),
 the Gaussian(R) 98 system (copyright 1998, Gaussian, Inc.),
 the Gaussian(R) 94 system (copyright 1995, Gaussian, Inc.),
 the Gaussian 92(TM) system (copyright 1992, Gaussian, Inc.),
 the Gaussian 90(TM) system (copyright 1990, Gaussian, Inc.),
 the Gaussian 88(TM) system (copyright 1988, Gaussian, Inc.),
 the Gaussian 86(TM) system (copyright 1986, Carnegie Mellon
 University), and the Gaussian 82(TM) system (copyright 1983,
 Carnegie Mellon University). Gaussian is a federally registered
 trademark of Gaussian, Inc.
  
 This software contains proprietary and confidential information,
 including trade secrets, belonging to Gaussian, Inc.
  
 This software is provided under written license and may be
 used, copied, transmitted, or stored only in accord with that
 written license.
  
 The following legend is applicable only to US Government
 contracts under FAR:
  
                    RESTRICTED RIGHTS LEGEND
  
 Use, reproduction and disclosure by the US Government is
 subject to restrictions as set forth in subparagraphs (a)
 and (c) of the Commercial Computer Software - Restricted
 Rights clause in FAR 52.227-19.
  
 Gaussian, Inc.
 340 Quinnipiac St., Bldg. 40, Wallingford CT 06492
  
  
 ---------------------------------------------------------------
 Warning -- This program may not be used in any manner that
 competes with the business of Gaussian, Inc. or will provide
 assistance to any competitor of Gaussian, Inc.  The licensee
 of this program is prohibited from giving any competitor of
 Gaussian, Inc. access to this program.  By using this program,
 the user acknowledges that Gaussian, Inc. is engaged in the
 business of creating and licensing software in the field of
 computational chemistry and represents and warrants to the
 licensee that it is not a competitor of Gaussian, Inc. and that
 it will not use this program in any manner prohibited above.
 ---------------------------------------------------------------
  

 Cite this work as:
 Gaussian 16, Revision A.03,
 M. J. Frisch, G. W. Trucks, H. B. Schlegel, G. E. Scuseria, 
 M. A. Robb, J. R. Cheeseman, G. Scalmani, V. Barone, 
 G. A. Petersson, H. Nakatsuji, X. Li, M. Caricato, A. V. Marenich, 
 J. Bloino, B. G. Janesko, R. Gomperts, B. Mennucci, H. P. Hratchian, 
 J. V. Ortiz, A. F. Izmaylov, J. L. Sonnenberg, D. Williams-Young, 
 F. Ding, F. Lipparini, F. Egidi, J. Goings, B. Peng, A. Petrone, 
 T. Henderson, D. Ranasinghe, V. G. Zakrzewski, J. Gao, N. Rega, 
 G. Zheng, W. Liang, M. Hada, M. Ehara, K. Toyota, R. Fukuda, 
 J. Hasegawa, M. Ishida, T. Nakajima, Y. Honda, O. Kitao, H. Nakai, 
 T. Vreven, K. Throssell, J. A. Montgomery, Jr., J. E. Peralta, 
 F. Ogliaro, M. J. Bearpark, J. J. Heyd, E. N. Brothers, K. N. Kudin, 
 V. N. Staroverov, T. A. Keith, R. Kobayashi, J. Normand, 
 K. Raghavachari, A. P. Rendell, J. C. Burant, S. S. Iyengar, 
 J. Tomasi, M. Cossi, J. M. Millam, M. Klene, C. Adamo, R. Cammi, 
 J. W. Ochterski, R. L. Martin, K. Morokuma, O. Farkas, 
 J. B. Foresman, and D. J. Fox, Gaussian, Inc., Wallingford CT, 2016.
 
 ******************************************
 Gaussian 16:  ES64L-G16RevA.03 25-Dec-2016
                22-Sep-2023 
 ******************************************
 %nprocshared=6
 Will use up to    6 processors via shared memory.
 %mem=6GB
 -----------------
 # M062X/def2TZVPP
 -----------------
 1/38=1,172=1/1;
 2/12=2,17=6,18=5,40=1/2;
 3/5=44,7=202,11=2,25=1,30=1,74=-55/1,2,3;
 4//1;
 5/5=2,38=5/2;
 6/7=2,8=2,9=2,10=2,28=1/1;
 99/5=1,9=1/99;
 -----------------------
 tmpdir/M2_conf_0_40.gjf
 -----------------------
 Symbolic Z-matrix:
 Charge =  0 Multiplicity = 1
 H                     0.        0.        0. 
 C                     1.0902    0.        0. 
 H                     1.4475    0.        1.0266 
 H                     1.50496   0.95479  -0.52014 
 H                     1.43624  -0.89979  -0.50866 
 
                          Input orientation:                          
 ---------------------------------------------------------------------
 Center     Atomic      Atomic             Coordinates (Angstroms)
 Number     Number       Type             X           Y           Z
 ---------------------------------------------------------------------
      1          1           0        0.000000    0.000000    0.000000
      2          6           0        1.090200    0.000000    0.000000
      3          1           0        1.447500    0.000000    1.026600
      4          1           0        1.504960    0.954790   -0.520140
      5          1           0        1.436240   -0.899790   -0.508660
 ---------------------------------------------------------------------
                    Distance matrix (angstroms):
                    1          2          3          4          5
     1  H    0.000000
     2  C    1.090200   0.000000
     3  H    1.774588   1.087001   0.000000
     4  H    1.856630   1.163699   1.818607   0.000000
     5  H    1.769503   1.090000   1.779543   1.855888   0.000000
 Stoichiometry    CH4
 Framework group  C1[X(CH4)]
 Deg. of freedom     9
 Full point group                 C1      NOp   1
 Largest Abelian subgroup         C1      NOp   1
 Largest concise Abelian subgroup C1      NOp   1
                         Standard orientation:                         
 ---------------------------------------------------------------------
 Center     Atomic      Atomic             Coordinates (Angstroms)
 Number     Number       Type             X           Y           Z
 ---------------------------------------------------------------------
      1          1           0        0.509547    0.189959    0.948122
      2          6           0        0.006049   -0.001199    0.000238
      3          1           0        0.078547    0.883204   -0.627573
      4          1           0       -1.123389   -0.225468    0.168370
      5          1           0        0.499002   -0.840501   -0.490344
 ---------------------------------------------------------------------
 Rotational constants (GHZ):         159.9540762         150.1929904         149.6615260
 Standard basis: def2TZVPP (5D, 7F)
 There are    96 symmetry adapted cartesian basis functions of A   symmetry.
 There are    87 symmetry adapted basis functions of A   symmetry.
    87 basis functions,   119 primitive gaussians,    96 cartesian basis functions
     5 alpha electrons        5 beta electrons
       nuclear repulsion energy        13.2303832401 Hartrees.
 NAtoms=    5 NActive=    5 NUniq=    5 SFac= 1.00D+00 NAtFMM=   60 NAOKFM=F Big=F
 Integral buffers will be    131072 words long.
 Raffenetti 2 integral format.
 Two-electron integral symmetry is turned on.
 One-electron integrals computed using PRISM.
   1 Symmetry operations used in ECPInt.
 ECPInt:  NShTT=     630 NPrTT=    1412 LenC2=     631 LenP2D=    1376.
 LDataN:  DoStor=T MaxTD1= 6 Len=  172
 NBasis=    87 RedAO= T EigKep=  5.56D-04  NBF=    87
 NBsUse=    87 1.00D-06 EigRej= -1.00D+00 NBFU=    87
 ExpMin= 9.52D-02 ExpMax= 1.36D+04 ExpMxC= 4.63D+02 IAcc=3 IRadAn=         5 AccDes= 0.00D+00
 Harris functional with IExCor= 1009 and IRadAn=       5 diagonalized for initial guess.
 HarFok:  IExCor= 1009 AccDes= 0.00D+00 IRadAn=         5 IDoV= 1 UseB2=F ITyADJ=14
 ICtDFT=  3500011 ScaDFX=  1.000000  1.000000  1.000000  1.000000
 FoFCou: FMM=F IPFlag=           0 FMFlag=      100000 FMFlg1=           0
         NFxFlg=           0 DoJE=T BraDBF=F KetDBF=T FulRan=T
         wScrn=  0.000000 ICntrl=       500 IOpCl=  0 I1Cent=   200000004 NGrid=           0
         NMat0=    1 NMatS0=      1 NMatT0=    0 NMatD0=    1 NMtDS0=    0 NMtDT0=    0
 Petite list used in FoFCou.
 Keep R1 ints in memory in canonical form, NReq=12860297.
 Requested convergence on RMS density matrix=1.00D-08 within 128 cycles.
 Requested convergence on MAX density matrix=1.00D-06.
 Requested convergence on             energy=1.00D-06.
 No special actions if energy rises.
 Integral accuracy reduced to 1.0D-05 until final iterations.
 Initial convergence to 1.0D-05 achieved.  Increase integral accuracy.
 SCF Done:  E(RM062X) =  -40.4984419869     A.U. after   10 cycles
            NFock= 10  Conv=0.16D-08     -V/T= 2.0087

 **********************************************************************

            Population analysis using the SCF density.

 **********************************************************************

 Orbital symmetries:
       Occupied  (A) (A) (A) (A) (A)
       Virtual   (A) (A) (A) (A) (A) (A) (A) (A) (A) (A) (A) (A)
                 (A) (A) (A) (A) (A) (A) (A) (A) (A) (A) (A) (A)
                 (A) (A) (A) (A) (A) (A) (A) (A) (A) (A) (A) (A)
                 (A) (A) (A) (A) (A) (A) (A) (A) (A) (A) (A) (A)
                 (A) (A) (A) (A) (A) (A) (A) (A) (A) (A) (A) (A)
                 (A) (A) (A) (A) (A) (A) (A) (A) (A) (A) (A) (A)
                 (A) (A) (A) (A) (A) (A) (A) (A) (A) (A)
 The electronic state is 1-A.
 Alpha  occ. eigenvalues --  -10.52410  -0.78014  -0.45851  -0.45502  -0.44329
 Alpha virt. eigenvalues --    0.08464   0.15261   0.16190   0.16307   0.23696
 Alpha virt. eigenvalues --    0.23716   0.24229   0.41606   0.48206   0.50829
 Alpha virt. eigenvalues --    0.51200   0.54365   0.55233   0.55721   0.90408
 Alpha virt. eigenvalues --    0.91070   0.92499   0.97344   0.97762   0.97978
 Alpha virt. eigenvalues --    1.10358   1.12188   1.13209   1.34943   1.40471
 Alpha virt. eigenvalues --    1.41199   1.42118   1.47806   1.48136   1.56703
 Alpha virt. eigenvalues --    1.84583   1.86325   1.93455   2.51973   2.53341
 Alpha virt. eigenvalues --    2.53642   2.65443   2.82686   2.83703   2.84717
 Alpha virt. eigenvalues --    2.85501   2.85745   2.86272   2.91349   2.91518
 Alpha virt. eigenvalues --    3.26919   3.27731   3.29726   3.33060   3.37795
 Alpha virt. eigenvalues --    3.39074   3.44822   3.45768   3.58798   3.75283
 Alpha virt. eigenvalues --    3.76595   3.84245   3.85868   3.86519   3.96070
 Alpha virt. eigenvalues --    3.98791   4.03127   4.10766   4.11001   4.14939
 Alpha virt. eigenvalues --    4.44238   4.47128   4.48197   4.75839   5.00481
 Alpha virt. eigenvalues --    5.03446   5.04659   5.09651   5.13721   5.16019
 Alpha virt. eigenvalues --    5.19639   5.26624   5.27596   5.47169   5.47576
 Alpha virt. eigenvalues --    5.48857  23.74255
          Condensed to atoms (all electrons):
               1          2          3          4          5
     1  H    0.534876   0.400044  -0.021088  -0.020415  -0.022077
     2  C    0.400044   4.907300   0.400163   0.389468   0.400242
     3  H   -0.021088   0.400163   0.534426  -0.022980  -0.020738
     4  H   -0.020415   0.389468  -0.022980   0.564902  -0.020522
     5  H   -0.022077   0.400242  -0.020738  -0.020522   0.534302
 Mulliken charges:
               1
     1  H    0.128661
     2  C   -0.497217
     3  H    0.130216
     4  H    0.109548
     5  H    0.128793
 Sum of Mulliken charges =  -0.00000
 Mulliken charges with hydrogens summed into heavy atoms:
               1
     2  C   -0.000000
 Electronic spatial extent (au):  <R**2>=             36.5181
 Charge=             -0.0000 electrons
 Dipole moment (field-independent basis, Debye):
    X=              0.0469    Y=              0.0208    Z=             -0.0137  Tot=              0.0531
 Quadrupole moment (field-independent basis, Debye-Ang):
   XX=             -8.4182   YY=             -8.5449   ZZ=             -8.5616
   XY=             -0.0401   XZ=              0.0291   YZ=              0.0051
 Traceless Quadrupole moment (field-independent basis, Debye-Ang):
   XX=              0.0900   YY=             -0.0367   ZZ=             -0.0534
   XY=             -0.0401   XZ=              0.0291   YZ=              0.0051
 Octapole moment (field-independent basis, Debye-Ang**2):
  XXX=             -0.5962  YYY=              0.1473  ZZZ=              0.3014  XYY=              0.3799
  XXY=             -0.2996  XXZ=              0.2279  XZZ=              0.5301  YZZ=              0.2535
  YYZ=             -0.6009  XYZ=              0.2241
 Hexadecapole moment (field-independent basis, Debye-Ang**3):
 XXXX=            -17.2785 YYYY=            -16.5875 ZZZZ=            -16.6654 XXXY=              0.1954
 XXXZ=             -0.1410 YYYX=             -0.3861 YYYZ=             -0.1574 ZZZX=              0.5090
 ZZZY=              0.0615 XXYY=             -5.9219 XXZZ=             -5.8199 YYZZ=             -5.3523
 XXYZ=              0.1258 YYXZ=             -0.2223 ZZXY=             -0.0110
 N-N= 1.323038324005D+01 E-N=-1.195833875965D+02  KE= 4.015032117766D+01
 1\1\GINC-NODE85\SP\RM062X\def2TZVPP\C1H4\YANZ\22-Sep-2023\0\\# M062X/d
 ef2TZVPP\\tmpdir/M2_conf_0_40.gjf\\0,1\H,0,0.,0.,0.\C,0,1.0902,0.,0.\H
 ,0,1.4475,0.,1.0266\H,0,1.50496,0.95479,-0.52014\H,0,1.43624,-0.89979,
 -0.50866\\Version=ES64L-G16RevA.03\State=1-A\HF=-40.498442\RMSD=1.629e
 -09\Dipole=-0.0052789,-0.0150429,0.0134924\Quadrupole=-0.0028525,0.044
 2134,-0.0413609,0.0525595,-0.0035747,0.0125826\PG=C01 [X(C1H4)]\\@


 IBM COMPATIBILITY IS LIKE PREGNANCY. YOU ARE OR
 OR YOU ARE NOT. -- ADAM OSBORNE
 Job cpu time:       0 days  0 hours  0 minutes 21.9 seconds.
 Elapsed time:       0 days  0 hours  0 minutes  3.9 seconds.
 File lengths (MBytes):  RWF=      6 Int=      0 D2E=      0 Chk=      2 Scr=      1
 Normal termination of Gaussian 16 at Fri Sep 22 16:50:14 2023.
