 Entering Gaussian System, Link 0=g16
 Initial command:
 /share/apps/gaussian/g16/l1.exe "/tmp/55604.mgr/Gau-84312.inp" -scrdir="/tmp/55604.mgr/"
 Entering Link 1 = /share/apps/gaussian/g16/l1.exe PID=     84313.
  
 Copyright (c) 1988,1990,1992,1993,1995,1998,2003,2009,2016,
            Gaussian, Inc.  All Rights Reserved.
  
 This is part of the Gaussian(R) 16 program.  It is based on
 the Gaussian(R) 09 system (copyright 2009, Gaussian, Inc.),
 the Gaussian(R) 03 system (copyright 2003, Gaussian, Inc.),
 the Gaussian(R) 98 system (copyright 1998, Gaussian, Inc.),
 the Gaussian(R) 94 system (copyright 1995, Gaussian, Inc.),
 the Gaussian 92(TM) system (copyright 1992, Gaussian, Inc.),
 the Gaussian 90(TM) system (copyright 1990, Gaussian, Inc.),
 the Gaussian 88(TM) system (copyright 1988, Gaussian, Inc.),
 the Gaussian 86(TM) system (copyright 1986, Carnegie Mellon
 University), and the Gaussian 82(TM) system (copyright 1983,
 Carnegie Mellon University). Gaussian is a federally registered
 trademark of Gaussian, Inc.
  
 This software contains proprietary and confidential information,
 including trade secrets, belonging to Gaussian, Inc.
  
 This software is provided under written license and may be
 used, copied, transmitted, or stored only in accord with that
 written license.
  
 The following legend is applicable only to US Government
 contracts under FAR:
  
                    RESTRICTED RIGHTS LEGEND
  
 Use, reproduction and disclosure by the US Government is
 subject to restrictions as set forth in subparagraphs (a)
 and (c) of the Commercial Computer Software - Restricted
 Rights clause in FAR 52.227-19.
  
 Gaussian, Inc.
 340 Quinnipiac St., Bldg. 40, Wallingford CT 06492
  
  
 ---------------------------------------------------------------
 Warning -- This program may not be used in any manner that
 competes with the business of Gaussian, Inc. or will provide
 assistance to any competitor of Gaussian, Inc.  The licensee
 of this program is prohibited from giving any competitor of
 Gaussian, Inc. access to this program.  By using this program,
 the user acknowledges that Gaussian, Inc. is engaged in the
 business of creating and licensing software in the field of
 computational chemistry and represents and warrants to the
 licensee that it is not a competitor of Gaussian, Inc. and that
 it will not use this program in any manner prohibited above.
 ---------------------------------------------------------------
  

 Cite this work as:
 Gaussian 16, Revision A.03,
 M. J. Frisch, G. W. Trucks, H. B. Schlegel, G. E. Scuseria, 
 M. A. Robb, J. R. Cheeseman, G. Scalmani, V. Barone, 
 G. A. Petersson, H. Nakatsuji, X. Li, M. Caricato, A. V. Marenich, 
 J. Bloino, B. G. Janesko, R. Gomperts, B. Mennucci, H. P. Hratchian, 
 J. V. Ortiz, A. F. Izmaylov, J. L. Sonnenberg, D. Williams-Young, 
 F. Ding, F. Lipparini, F. Egidi, J. Goings, B. Peng, A. Petrone, 
 T. Henderson, D. Ranasinghe, V. G. Zakrzewski, J. Gao, N. Rega, 
 G. Zheng, W. Liang, M. Hada, M. Ehara, K. Toyota, R. Fukuda, 
 J. Hasegawa, M. Ishida, T. Nakajima, Y. Honda, O. Kitao, H. Nakai, 
 T. Vreven, K. Throssell, J. A. Montgomery, Jr., J. E. Peralta, 
 F. Ogliaro, M. J. Bearpark, J. J. Heyd, E. N. Brothers, K. N. Kudin, 
 V. N. Staroverov, T. A. Keith, R. Kobayashi, J. Normand, 
 K. Raghavachari, A. P. Rendell, J. C. Burant, S. S. Iyengar, 
 J. Tomasi, M. Cossi, J. M. Millam, M. Klene, C. Adamo, R. Cammi, 
 J. W. Ochterski, R. L. Martin, K. Morokuma, O. Farkas, 
 J. B. Foresman, and D. J. Fox, Gaussian, Inc., Wallingford CT, 2016.
 
 ******************************************
 Gaussian 16:  ES64L-G16RevA.03 25-Dec-2016
                22-Sep-2023 
 ******************************************
 %nprocshared=6
 Will use up to    6 processors via shared memory.
 %mem=6GB
 -----------------
 # M062X/def2TZVPP
 -----------------
 1/38=1,172=1/1;
 2/12=2,17=6,18=5,40=1/2;
 3/5=44,7=202,11=2,25=1,30=1,74=-55/1,2,3;
 4//1;
 5/5=2,38=5/2;
 6/7=2,8=2,9=2,10=2,28=1/1;
 99/5=1,9=1/99;
 -----------------------
 tmpdir/M2_conf_0_28.gjf
 -----------------------
 Symbolic Z-matrix:
 Charge =  0 Multiplicity = 1
 O                     0.        0.        0. 
 C                     1.4128    0.        0. 
 H                     1.75964   0.        1.0306 
 H                    -0.45712  -0.13845  -0.7441 
 H                     1.80207   0.89003  -0.49702 
 H                     1.81092  -0.88507  -0.49973 
 
                          Input orientation:                          
 ---------------------------------------------------------------------
 Center     Atomic      Atomic             Coordinates (Angstroms)
 Number     Number       Type             X           Y           Z
 ---------------------------------------------------------------------
      1          8           0        0.000000    0.000000    0.000000
      2          6           0        1.412800    0.000000    0.000000
      3          1           0        1.759640    0.000000    1.030600
      4          1           0       -0.457120   -0.138450   -0.744100
      5          1           0        1.802070    0.890030   -0.497020
      6          1           0        1.810920   -0.885070   -0.499730
 ---------------------------------------------------------------------
                    Distance matrix (angstroms):
                    1          2          3          4          5
     1  O    0.000000
     2  C    1.412800   0.000000
     3  H    2.039233   1.087398   0.000000
     4  H    0.884201   2.017289   2.843018   0.000000
     5  H    2.070420   1.091198   1.768496   2.494546   0.000000
     6  H    2.076658   1.091594   1.768584   2.400242   1.775124
                    6
     6  H    0.000000
 Stoichiometry    CH4O
 Framework group  C1[X(CH4O)]
 Deg. of freedom    12
 Full point group                 C1      NOp   1
 Largest Abelian subgroup         C1      NOp   1
 Largest concise Abelian subgroup C1      NOp   1
                         Standard orientation:                         
 ---------------------------------------------------------------------
 Center     Atomic      Atomic             Coordinates (Angstroms)
 Number     Number       Type             X           Y           Z
 ---------------------------------------------------------------------
      1          8           0        0.737288    0.107606   -0.000624
      2          6           0       -0.669664   -0.020803    0.000209
      3          1           0       -1.107161    0.955451   -0.194625
      4          1           0        1.261309   -0.604569    0.003977
      5          1           0       -1.027706   -0.374411    0.968445
      6          1           0       -1.006767   -0.712502   -0.774060
 ---------------------------------------------------------------------
 Rotational constants (GHZ):         137.4936288          24.6447271          24.0568732
 Standard basis: def2TZVPP (5D, 7F)
 There are   132 symmetry adapted cartesian basis functions of A   symmetry.
 There are   118 symmetry adapted basis functions of A   symmetry.
   118 basis functions,   170 primitive gaussians,   132 cartesian basis functions
     9 alpha electrons        9 beta electrons
       nuclear repulsion energy        40.7533814475 Hartrees.
 NAtoms=    6 NActive=    6 NUniq=    6 SFac= 1.00D+00 NAtFMM=   60 NAOKFM=F Big=F
 Integral buffers will be    131072 words long.
 Raffenetti 2 integral format.
 Two-electron integral symmetry is turned on.
 One-electron integrals computed using PRISM.
   1 Symmetry operations used in ECPInt.
 ECPInt:  NShTT=    1081 NPrTT=    2684 LenC2=    1081 LenP2D=    2511.
 LDataN:  DoStor=T MaxTD1= 6 Len=  172
 NBasis=   118 RedAO= T EigKep=  5.81D-04  NBF=   118
 NBsUse=   118 1.00D-06 EigRej= -1.00D+00 NBFU=   118
 ExpMin= 9.52D-02 ExpMax= 2.70D+04 ExpMxC= 9.22D+02 IAcc=3 IRadAn=         5 AccDes= 0.00D+00
 Harris functional with IExCor= 1009 and IRadAn=       5 diagonalized for initial guess.
 HarFok:  IExCor= 1009 AccDes= 0.00D+00 IRadAn=         5 IDoV= 1 UseB2=F ITyADJ=14
 ICtDFT=  3500011 ScaDFX=  1.000000  1.000000  1.000000  1.000000
 FoFCou: FMM=F IPFlag=           0 FMFlag=      100000 FMFlg1=           0
         NFxFlg=           0 DoJE=T BraDBF=F KetDBF=T FulRan=T
         wScrn=  0.000000 ICntrl=       500 IOpCl=  0 I1Cent=   200000004 NGrid=           0
         NMat0=    1 NMatS0=      1 NMatT0=    0 NMatD0=    1 NMtDS0=    0 NMtDT0=    0
 Petite list used in FoFCou.
 Keep R1 ints in memory in canonical form, NReq=30406467.
 Requested convergence on RMS density matrix=1.00D-08 within 128 cycles.
 Requested convergence on MAX density matrix=1.00D-06.
 Requested convergence on             energy=1.00D-06.
 No special actions if energy rises.
 Integral accuracy reduced to 1.0D-05 until final iterations.
 Initial convergence to 1.0D-05 achieved.  Increase integral accuracy.
 SCF Done:  E(RM062X) =  -115.707933882     A.U. after   11 cycles
            NFock= 11  Conv=0.45D-08     -V/T= 2.0033

 **********************************************************************

            Population analysis using the SCF density.

 **********************************************************************

 Orbital symmetries:
       Occupied  (A) (A) (A) (A) (A) (A) (A) (A) (A)
       Virtual   (A) (A) (A) (A) (A) (A) (A) (A) (A) (A) (A) (A)
                 (A) (A) (A) (A) (A) (A) (A) (A) (A) (A) (A) (A)
                 (A) (A) (A) (A) (A) (A) (A) (A) (A) (A) (A) (A)
                 (A) (A) (A) (A) (A) (A) (A) (A) (A) (A) (A) (A)
                 (A) (A) (A) (A) (A) (A) (A) (A) (A) (A) (A) (A)
                 (A) (A) (A) (A) (A) (A) (A) (A) (A) (A) (A) (A)
                 (A) (A) (A) (A) (A) (A) (A) (A) (A) (A) (A) (A)
                 (A) (A) (A) (A) (A) (A) (A) (A) (A) (A) (A) (A)
                 (A) (A) (A) (A) (A) (A) (A) (A) (A) (A) (A) (A)
                 (A)
 The electronic state is 1-A.
 Alpha  occ. eigenvalues --  -19.60833 -10.57921  -1.14975  -0.79084  -0.59623
 Alpha  occ. eigenvalues --   -0.51617  -0.50639  -0.39695  -0.35346
 Alpha virt. eigenvalues --    0.06890   0.10619   0.15514   0.15909   0.17206
 Alpha virt. eigenvalues --    0.24581   0.25584   0.34712   0.39771   0.44051
 Alpha virt. eigenvalues --    0.47338   0.48226   0.52376   0.53653   0.54275
 Alpha virt. eigenvalues --    0.58691   0.66650   0.73779   0.77648   0.79526
 Alpha virt. eigenvalues --    0.90825   0.91897   0.98970   0.98991   1.04278
 Alpha virt. eigenvalues --    1.10363   1.12055   1.19793   1.27855   1.29800
 Alpha virt. eigenvalues --    1.33834   1.40904   1.46893   1.48266   1.54792
 Alpha virt. eigenvalues --    1.69986   1.78939   1.88517   1.90998   1.96766
 Alpha virt. eigenvalues --    2.02684   2.13260   2.15272   2.51026   2.52629
 Alpha virt. eigenvalues --    2.60469   2.61654   2.74998   2.76331   2.83713
 Alpha virt. eigenvalues --    2.86544   2.88703   2.91377   2.93174   2.99294
 Alpha virt. eigenvalues --    3.03285   3.12048   3.20472   3.29248   3.32287
 Alpha virt. eigenvalues --    3.39185   3.40667   3.44975   3.48978   3.54183
 Alpha virt. eigenvalues --    3.61227   3.63727   3.67302   3.73221   3.74929
 Alpha virt. eigenvalues --    3.80424   3.92519   3.94960   3.97242   4.03213
 Alpha virt. eigenvalues --    4.12973   4.14898   4.20079   4.26119   4.32793
 Alpha virt. eigenvalues --    4.42495   4.49265   4.57209   4.69942   4.79597
 Alpha virt. eigenvalues --    4.88199   4.95728   5.04050   5.08581   5.16298
 Alpha virt. eigenvalues --    5.20392   5.24355   5.28623   5.41991   5.49645
 Alpha virt. eigenvalues --    5.61394   5.67818   6.03131   6.08474   6.52612
 Alpha virt. eigenvalues --    6.59430   6.82477   6.90119   6.90545   7.05317
 Alpha virt. eigenvalues --    7.56974   7.63316  23.60950  44.16786
          Condensed to atoms (all electrons):
               1          2          3          4          5          6
     1  O    7.847313   0.269841  -0.035709   0.362502  -0.049441  -0.046096
     2  C    0.269841   4.706888   0.399107  -0.039829   0.415778   0.417130
     3  H   -0.035709   0.399107   0.570304   0.008793  -0.037487  -0.032063
     4  H    0.362502  -0.039829   0.008793   0.514790  -0.003926  -0.008113
     5  H   -0.049441   0.415778  -0.037487  -0.003926   0.605969  -0.044034
     6  H   -0.046096   0.417130  -0.032063  -0.008113  -0.044034   0.601825
 Mulliken charges:
               1
     1  O   -0.348411
     2  C   -0.168915
     3  H    0.127054
     4  H    0.165782
     5  H    0.113140
     6  H    0.111351
 Sum of Mulliken charges =  -0.00000
 Mulliken charges with hydrogens summed into heavy atoms:
               1
     1  O   -0.182629
     2  C    0.182629
 Electronic spatial extent (au):  <R**2>=             83.9848
 Charge=             -0.0000 electrons
 Dipole moment (field-independent basis, Debye):
    X=             -0.6463    Y=             -1.3523    Z=             -0.0100  Tot=              1.4989
 Quadrupole moment (field-independent basis, Debye-Ang):
   XX=            -12.1006   YY=            -12.6103   ZZ=            -13.6946
   XY=             -2.2294   XZ=              0.0557   YZ=             -0.0194
 Traceless Quadrupole moment (field-independent basis, Debye-Ang):
   XX=              0.7013   YY=              0.1915   ZZ=             -0.8928
   XY=             -2.2294   XZ=              0.0557   YZ=             -0.0194
 Octapole moment (field-independent basis, Debye-Ang**2):
  XXX=              5.9776  YYY=             -0.3075  ZZZ=              0.2597  XYY=              1.4615
  XXY=             -2.3972  XXZ=             -0.0430  XZZ=              0.4741  YZZ=             -0.5846
  YYZ=             -0.3107  XYZ=              0.0252
 Hexadecapole moment (field-independent basis, Debye-Ang**3):
 XXXX=            -59.5228 YYYY=            -20.2213 ZZZZ=            -20.0626 XXXY=             -4.6118
 XXXZ=              0.1365 YYYX=             -2.6254 YYYZ=             -0.0134 ZZZX=             -0.2483
 ZZZY=             -0.0298 XXYY=            -12.7254 XXZZ=            -14.3602 YYZZ=             -6.7513
 XXYZ=             -0.0760 YYXZ=              0.3705 ZZXY=              0.0111
 N-N= 4.075338144746D+01 E-N=-3.531040695394D+02  KE= 1.153291189298D+02
 1\1\GINC-NODE85\SP\RM062X\def2TZVPP\C1H4O1\YANZ\22-Sep-2023\0\\# M062X
 /def2TZVPP\\tmpdir/M2_conf_0_28.gjf\\0,1\O,0,0.,0.,0.\C,0,1.4128,0.,0.
 \H,0,1.75964,0.,1.0306\H,0,-0.45712,-0.13845,-0.7441\H,0,1.80207,0.890
 03,-0.49702\H,0,1.81092,-0.88507,-0.49973\\Version=ES64L-G16RevA.03\St
 ate=1-A\HF=-115.7079339\RMSD=4.550e-09\Dipole=0.3015886,-0.0999356,-0.
 4967999\Quadrupole=0.2181334,-0.6310779,0.4129445,0.2752814,1.641994,0
 .1883847\PG=C01 [X(C1H4O1)]\\@


 PATIENCE IS THE ABILITY TO IDLE YOUR MOTOR WHEN
 YOU FEEL LIKE STRIPPING YOUR GEARS.
 Job cpu time:       0 days  0 hours  0 minutes 41.6 seconds.
 Elapsed time:       0 days  0 hours  0 minutes  7.5 seconds.
 File lengths (MBytes):  RWF=     11 Int=      0 D2E=      0 Chk=      2 Scr=      1
 Normal termination of Gaussian 16 at Fri Sep 22 16:49:58 2023.
