 Entering Gaussian System, Link 0=g16
 Initial command:
 /share/apps/gaussian/g16/l1.exe "/tmp/55604.mgr/Gau-83337.inp" -scrdir="/tmp/55604.mgr/"
 Entering Link 1 = /share/apps/gaussian/g16/l1.exe PID=     83338.
  
 Copyright (c) 1988,1990,1992,1993,1995,1998,2003,2009,2016,
            Gaussian, Inc.  All Rights Reserved.
  
 This is part of the Gaussian(R) 16 program.  It is based on
 the Gaussian(R) 09 system (copyright 2009, Gaussian, Inc.),
 the Gaussian(R) 03 system (copyright 2003, Gaussian, Inc.),
 the Gaussian(R) 98 system (copyright 1998, Gaussian, Inc.),
 the Gaussian(R) 94 system (copyright 1995, Gaussian, Inc.),
 the Gaussian 92(TM) system (copyright 1992, Gaussian, Inc.),
 the Gaussian 90(TM) system (copyright 1990, Gaussian, Inc.),
 the Gaussian 88(TM) system (copyright 1988, Gaussian, Inc.),
 the Gaussian 86(TM) system (copyright 1986, Carnegie Mellon
 University), and the Gaussian 82(TM) system (copyright 1983,
 Carnegie Mellon University). Gaussian is a federally registered
 trademark of Gaussian, Inc.
  
 This software contains proprietary and confidential information,
 including trade secrets, belonging to Gaussian, Inc.
  
 This software is provided under written license and may be
 used, copied, transmitted, or stored only in accord with that
 written license.
  
 The following legend is applicable only to US Government
 contracts under FAR:
  
                    RESTRICTED RIGHTS LEGEND
  
 Use, reproduction and disclosure by the US Government is
 subject to restrictions as set forth in subparagraphs (a)
 and (c) of the Commercial Computer Software - Restricted
 Rights clause in FAR 52.227-19.
  
 Gaussian, Inc.
 340 Quinnipiac St., Bldg. 40, Wallingford CT 06492
  
  
 ---------------------------------------------------------------
 Warning -- This program may not be used in any manner that
 competes with the business of Gaussian, Inc. or will provide
 assistance to any competitor of Gaussian, Inc.  The licensee
 of this program is prohibited from giving any competitor of
 Gaussian, Inc. access to this program.  By using this program,
 the user acknowledges that Gaussian, Inc. is engaged in the
 business of creating and licensing software in the field of
 computational chemistry and represents and warrants to the
 licensee that it is not a competitor of Gaussian, Inc. and that
 it will not use this program in any manner prohibited above.
 ---------------------------------------------------------------
  

 Cite this work as:
 Gaussian 16, Revision A.03,
 M. J. Frisch, G. W. Trucks, H. B. Schlegel, G. E. Scuseria, 
 M. A. Robb, J. R. Cheeseman, G. Scalmani, V. Barone, 
 G. A. Petersson, H. Nakatsuji, X. Li, M. Caricato, A. V. Marenich, 
 J. Bloino, B. G. Janesko, R. Gomperts, B. Mennucci, H. P. Hratchian, 
 J. V. Ortiz, A. F. Izmaylov, J. L. Sonnenberg, D. Williams-Young, 
 F. Ding, F. Lipparini, F. Egidi, J. Goings, B. Peng, A. Petrone, 
 T. Henderson, D. Ranasinghe, V. G. Zakrzewski, J. Gao, N. Rega, 
 G. Zheng, W. Liang, M. Hada, M. Ehara, K. Toyota, R. Fukuda, 
 J. Hasegawa, M. Ishida, T. Nakajima, Y. Honda, O. Kitao, H. Nakai, 
 T. Vreven, K. Throssell, J. A. Montgomery, Jr., J. E. Peralta, 
 F. Ogliaro, M. J. Bearpark, J. J. Heyd, E. N. Brothers, K. N. Kudin, 
 V. N. Staroverov, T. A. Keith, R. Kobayashi, J. Normand, 
 K. Raghavachari, A. P. Rendell, J. C. Burant, S. S. Iyengar, 
 J. Tomasi, M. Cossi, J. M. Millam, M. Klene, C. Adamo, R. Cammi, 
 J. W. Ochterski, R. L. Martin, K. Morokuma, O. Farkas, 
 J. B. Foresman, and D. J. Fox, Gaussian, Inc., Wallingford CT, 2016.
 
 ******************************************
 Gaussian 16:  ES64L-G16RevA.03 25-Dec-2016
                22-Sep-2023 
 ******************************************
 %nprocshared=6
 Will use up to    6 processors via shared memory.
 %mem=6GB
 -----------------
 # M062X/def2TZVPP
 -----------------
 1/38=1,172=1/1;
 2/12=2,17=6,18=5,40=1/2;
 3/5=44,7=202,11=2,25=1,30=1,74=-55/1,2,3;
 4//1;
 5/5=2,38=5/2;
 6/7=2,8=2,9=2,10=2,28=1/1;
 99/5=1,9=1/99;
 ----------------------
 tmpdir/M2_conf_0_8.gjf
 ----------------------
 Symbolic Z-matrix:
 Charge =  0 Multiplicity = 1
 B                     0.        0.        0. 
 O                     1.408     0.        0. 
 H                    -0.55315   0.       -1.02474 
 H                    -0.53705   0.03799   0.99793 
 H                     1.89823   0.02011   0.8407 
 
                          Input orientation:                          
 ---------------------------------------------------------------------
 Center     Atomic      Atomic             Coordinates (Angstroms)
 Number     Number       Type             X           Y           Z
 ---------------------------------------------------------------------
      1          5           0        0.000000    0.000000    0.000000
      2          8           0        1.408000    0.000000    0.000000
      3          1           0       -0.553150    0.000000   -1.024740
      4          1           0       -0.537050    0.037990    0.997930
      5          1           0        1.898230    0.020110    0.840700
 ---------------------------------------------------------------------
                    Distance matrix (angstroms):
                    1          2          3          4          5
     1  B    0.000000
     2  O    1.408000   0.000000
     3  H    1.164503   2.212736   0.000000
     4  H    1.133900   2.186442   2.023091   0.000000
     5  H    2.076164   0.973399   3.080509   2.440416   0.000000
 Stoichiometry    BH3O
 Framework group  C1[X(BH3O)]
 Deg. of freedom     9
 Full point group                 C1      NOp   1
 Largest Abelian subgroup         C1      NOp   1
 Largest concise Abelian subgroup C1      NOp   1
                         Standard orientation:                         
 ---------------------------------------------------------------------
 Center     Atomic      Atomic             Coordinates (Angstroms)
 Number     Number       Type             X           Y           Z
 ---------------------------------------------------------------------
      1          5           0        0.755137    0.040105   -0.005819
      2          8           0       -0.642646   -0.129097    0.000233
      3          1           0        1.427483   -0.910505    0.013049
      4          1           0        1.168370    1.095920    0.009165
      5          1           0       -1.230366    0.646834    0.005015
 ---------------------------------------------------------------------
 Rotational constants (GHZ):         188.0706363          28.2767850          24.5823598
 Standard basis: def2TZVPP (5D, 7F)
 There are   117 symmetry adapted cartesian basis functions of A   symmetry.
 There are   104 symmetry adapted basis functions of A   symmetry.
   104 basis functions,   153 primitive gaussians,   117 cartesian basis functions
     8 alpha electrons        8 beta electrons
       nuclear repulsion energy        29.7621232793 Hartrees.
 NAtoms=    5 NActive=    5 NUniq=    5 SFac= 1.00D+00 NAtFMM=   60 NAOKFM=F Big=F
 Integral buffers will be    131072 words long.
 Raffenetti 2 integral format.
 Two-electron integral symmetry is turned on.
 One-electron integrals computed using PRISM.
   1 Symmetry operations used in ECPInt.
 ECPInt:  NShTT=     820 NPrTT=    2133 LenC2=     821 LenP2D=    1992.
 LDataN:  DoStor=T MaxTD1= 6 Len=  172
 NBasis=   104 RedAO= T EigKep=  7.68D-04  NBF=   104
 NBsUse=   104 1.00D-06 EigRej= -1.00D+00 NBFU=   104
 ExpMin= 6.06D-02 ExpMax= 2.70D+04 ExpMxC= 9.22D+02 IAcc=3 IRadAn=         5 AccDes= 0.00D+00
 Harris functional with IExCor= 1009 and IRadAn=       5 diagonalized for initial guess.
 HarFok:  IExCor= 1009 AccDes= 0.00D+00 IRadAn=         5 IDoV= 1 UseB2=F ITyADJ=14
 ICtDFT=  3500011 ScaDFX=  1.000000  1.000000  1.000000  1.000000
 FoFCou: FMM=F IPFlag=           0 FMFlag=      100000 FMFlg1=           0
         NFxFlg=           0 DoJE=T BraDBF=F KetDBF=T FulRan=T
         wScrn=  0.000000 ICntrl=       500 IOpCl=  0 I1Cent=   200000004 NGrid=           0
         NMat0=    1 NMatS0=      1 NMatT0=    0 NMatD0=    1 NMtDS0=    0 NMtDT0=    0
 Petite list used in FoFCou.
 Keep R1 ints in memory in canonical form, NReq=20564853.
 Requested convergence on RMS density matrix=1.00D-08 within 128 cycles.
 Requested convergence on MAX density matrix=1.00D-06.
 Requested convergence on             energy=1.00D-06.
 No special actions if energy rises.
 Integral accuracy reduced to 1.0D-05 until final iterations.
 Initial convergence to 1.0D-05 achieved.  Increase integral accuracy.
 SCF Done:  E(RM062X) =  -101.902571909     A.U. after   12 cycles
            NFock= 12  Conv=0.69D-08     -V/T= 2.0051

 **********************************************************************

            Population analysis using the SCF density.

 **********************************************************************

 Orbital symmetries:
       Occupied  (A) (A) (A) (A) (A) (A) (A) (A)
       Virtual   (A) (A) (A) (A) (A) (A) (A) (A) (A) (A) (A) (A)
                 (A) (A) (A) (A) (A) (A) (A) (A) (A) (A) (A) (A)
                 (A) (A) (A) (A) (A) (A) (A) (A) (A) (A) (A) (A)
                 (A) (A) (A) (A) (A) (A) (A) (A) (A) (A) (A) (A)
                 (A) (A) (A) (A) (A) (A) (A) (A) (A) (A) (A) (A)
                 (A) (A) (A) (A) (A) (A) (A) (A) (A) (A) (A) (A)
                 (A) (A) (A) (A) (A) (A) (A) (A) (A) (A) (A) (A)
                 (A) (A) (A) (A) (A) (A) (A) (A) (A) (A) (A) (A)
 The electronic state is 1-A.
 Alpha  occ. eigenvalues --  -19.64544  -7.06496  -1.13554  -0.64909  -0.53811
 Alpha  occ. eigenvalues --   -0.47421  -0.43614  -0.38479
 Alpha virt. eigenvalues --    0.01178   0.05158   0.09329   0.11626   0.15104
 Alpha virt. eigenvalues --    0.17930   0.18445   0.23789   0.34818   0.40030
 Alpha virt. eigenvalues --    0.40153   0.45685   0.51352   0.51738   0.52218
 Alpha virt. eigenvalues --    0.55774   0.57199   0.66327   0.69872   0.73532
 Alpha virt. eigenvalues --    0.76076   0.78572   0.79524   0.83742   0.93608
 Alpha virt. eigenvalues --    0.95426   0.99277   1.07374   1.10917   1.25641
 Alpha virt. eigenvalues --    1.27867   1.33693   1.46654   1.50192   1.59175
 Alpha virt. eigenvalues --    1.65758   1.76977   1.84236   1.85862   1.88152
 Alpha virt. eigenvalues --    1.92002   2.02806   2.04223   2.10324   2.15746
 Alpha virt. eigenvalues --    2.17746   2.24529   2.27820   2.32618   2.37404
 Alpha virt. eigenvalues --    2.45649   2.68661   2.86463   2.87538   3.12639
 Alpha virt. eigenvalues --    3.17964   3.26628   3.29460   3.31943   3.34698
 Alpha virt. eigenvalues --    3.50575   3.52083   3.60923   3.62087   3.76245
 Alpha virt. eigenvalues --    3.81166   3.90277   3.93444   3.98576   4.04925
 Alpha virt. eigenvalues --    4.11012   4.14890   4.19621   4.21966   4.46097
 Alpha virt. eigenvalues --    4.51853   4.59354   4.68032   4.73127   4.85535
 Alpha virt. eigenvalues --    4.99007   5.31966   5.36553   5.57937   5.64706
 Alpha virt. eigenvalues --    5.73391   6.41854   6.54553   6.62711   6.66010
 Alpha virt. eigenvalues --    6.69473   6.85997   7.23612   7.35245  15.84865
 Alpha virt. eigenvalues --   43.69232
          Condensed to atoms (all electrons):
               1          2          3          4          5
     1  B    3.622159   0.449389   0.417783   0.438048  -0.044207
     2  O    0.449389   7.654404  -0.017281  -0.043682   0.333788
     3  H    0.417783  -0.017281   0.623545  -0.038820   0.006685
     4  H    0.438048  -0.043682  -0.038820   0.645350  -0.011717
     5  H   -0.044207   0.333788   0.006685  -0.011717   0.474570
 Mulliken charges:
               1
     1  B    0.116827
     2  O   -0.376618
     3  H    0.008088
     4  H    0.010821
     5  H    0.240881
 Sum of Mulliken charges =  -0.00000
 Mulliken charges with hydrogens summed into heavy atoms:
               1
     1  B    0.135736
     2  O   -0.135736
 Electronic spatial extent (au):  <R**2>=             77.2976
 Charge=             -0.0000 electrons
 Dipole moment (field-independent basis, Debye):
    X=             -0.3877    Y=              1.4090    Z=             -0.0201  Tot=              1.4615
 Quadrupole moment (field-independent basis, Debye-Ang):
   XX=            -12.3041   YY=            -13.2998   ZZ=            -12.7428
   XY=             -2.1691   XZ=             -0.0403   YZ=              0.0083
 Traceless Quadrupole moment (field-independent basis, Debye-Ang):
   XX=              0.4781   YY=             -0.5176   ZZ=              0.0394
   XY=             -2.1691   XZ=             -0.0403   YZ=              0.0083
 Octapole moment (field-independent basis, Debye-Ang**2):
  XXX=            -11.1959  YYY=              0.4225  ZZZ=             -0.0198  XYY=             -3.9822
  XXY=              2.4565  XXZ=              0.0110  XZZ=             -1.3856  YZZ=              0.1015
  YYZ=              0.0216  XYZ=             -0.0133
 Hexadecapole moment (field-independent basis, Debye-Ang**3):
 XXXX=            -67.8660 YYYY=            -27.8534 ZZZZ=            -12.3533 XXXY=             -4.1633
 XXXZ=             -0.0495 YYYX=             -2.2574 YYYZ=              0.0133 ZZZX=             -0.0481
 ZZZY=              0.0063 XXYY=            -15.8924 XXZZ=            -13.5583 YYZZ=             -7.0138
 XXYZ=              0.0055 YYXZ=              0.0100 ZZXY=             -0.3255
 N-N= 2.976212327926D+01 E-N=-2.986094365986D+02  KE= 1.013848183486D+02
 1\1\GINC-NODE85\SP\RM062X\def2TZVPP\B1H3O1\YANZ\22-Sep-2023\0\\# M062X
 /def2TZVPP\\tmpdir/M2_conf_0_8.gjf\\0,1\B,0,0.,0.,0.\O,0,1.408,0.,0.\H
 ,0,-0.55315,0.,-1.02474\H,0,-0.53705,0.03799,0.99793\H,0,1.89823,0.020
 11,0.8407\\Version=ES64L-G16RevA.03\State=1-A\HF=-101.9025719\RMSD=6.8
 67e-09\Dipole=0.0847561,0.0035194,0.5687169\Quadrupole=-0.0397547,0.02
 91604,0.0105943,0.0635769,1.6534895,0.00221\PG=C01 [X(B1H3O1)]\\@


 CHARLIE BROWN -- WHICH DO YOU THINK LASTS LONGER IN LIFE, THE GOOD THINGS 
                  OR THE BAD THINGS?
 LINUS --         GOOD THINGS LAST EIGHT SECONDS ..
                  BAD THINGS LAST THREE WEEKS
 CHARLIE BROWN -- WHAT ABOUT IN BETWEEN?
 SNOOPY --        IN BETWEEN YOU SHOULD TAKE A NAP ...
 Job cpu time:       0 days  0 hours  0 minutes 32.8 seconds.
 Elapsed time:       0 days  0 hours  0 minutes  6.0 seconds.
 File lengths (MBytes):  RWF=     10 Int=      0 D2E=      0 Chk=      2 Scr=      1
 Normal termination of Gaussian 16 at Fri Sep 22 16:49:13 2023.
