 Entering Gaussian System, Link 0=g16
 Initial command:
 /share/apps/gaussian/g16/l1.exe "/tmp/55604.mgr/Gau-85118.inp" -scrdir="/tmp/55604.mgr/"
 Entering Link 1 = /share/apps/gaussian/g16/l1.exe PID=     85119.
  
 Copyright (c) 1988,1990,1992,1993,1995,1998,2003,2009,2016,
            Gaussian, Inc.  All Rights Reserved.
  
 This is part of the Gaussian(R) 16 program.  It is based on
 the Gaussian(R) 09 system (copyright 2009, Gaussian, Inc.),
 the Gaussian(R) 03 system (copyright 2003, Gaussian, Inc.),
 the Gaussian(R) 98 system (copyright 1998, Gaussian, Inc.),
 the Gaussian(R) 94 system (copyright 1995, Gaussian, Inc.),
 the Gaussian 92(TM) system (copyright 1992, Gaussian, Inc.),
 the Gaussian 90(TM) system (copyright 1990, Gaussian, Inc.),
 the Gaussian 88(TM) system (copyright 1988, Gaussian, Inc.),
 the Gaussian 86(TM) system (copyright 1986, Carnegie Mellon
 University), and the Gaussian 82(TM) system (copyright 1983,
 Carnegie Mellon University). Gaussian is a federally registered
 trademark of Gaussian, Inc.
  
 This software contains proprietary and confidential information,
 including trade secrets, belonging to Gaussian, Inc.
  
 This software is provided under written license and may be
 used, copied, transmitted, or stored only in accord with that
 written license.
  
 The following legend is applicable only to US Government
 contracts under FAR:
  
                    RESTRICTED RIGHTS LEGEND
  
 Use, reproduction and disclosure by the US Government is
 subject to restrictions as set forth in subparagraphs (a)
 and (c) of the Commercial Computer Software - Restricted
 Rights clause in FAR 52.227-19.
  
 Gaussian, Inc.
 340 Quinnipiac St., Bldg. 40, Wallingford CT 06492
  
  
 ---------------------------------------------------------------
 Warning -- This program may not be used in any manner that
 competes with the business of Gaussian, Inc. or will provide
 assistance to any competitor of Gaussian, Inc.  The licensee
 of this program is prohibited from giving any competitor of
 Gaussian, Inc. access to this program.  By using this program,
 the user acknowledges that Gaussian, Inc. is engaged in the
 business of creating and licensing software in the field of
 computational chemistry and represents and warrants to the
 licensee that it is not a competitor of Gaussian, Inc. and that
 it will not use this program in any manner prohibited above.
 ---------------------------------------------------------------
  

 Cite this work as:
 Gaussian 16, Revision A.03,
 M. J. Frisch, G. W. Trucks, H. B. Schlegel, G. E. Scuseria, 
 M. A. Robb, J. R. Cheeseman, G. Scalmani, V. Barone, 
 G. A. Petersson, H. Nakatsuji, X. Li, M. Caricato, A. V. Marenich, 
 J. Bloino, B. G. Janesko, R. Gomperts, B. Mennucci, H. P. Hratchian, 
 J. V. Ortiz, A. F. Izmaylov, J. L. Sonnenberg, D. Williams-Young, 
 F. Ding, F. Lipparini, F. Egidi, J. Goings, B. Peng, A. Petrone, 
 T. Henderson, D. Ranasinghe, V. G. Zakrzewski, J. Gao, N. Rega, 
 G. Zheng, W. Liang, M. Hada, M. Ehara, K. Toyota, R. Fukuda, 
 J. Hasegawa, M. Ishida, T. Nakajima, Y. Honda, O. Kitao, H. Nakai, 
 T. Vreven, K. Throssell, J. A. Montgomery, Jr., J. E. Peralta, 
 F. Ogliaro, M. J. Bearpark, J. J. Heyd, E. N. Brothers, K. N. Kudin, 
 V. N. Staroverov, T. A. Keith, R. Kobayashi, J. Normand, 
 K. Raghavachari, A. P. Rendell, J. C. Burant, S. S. Iyengar, 
 J. Tomasi, M. Cossi, J. M. Millam, M. Klene, C. Adamo, R. Cammi, 
 J. W. Ochterski, R. L. Martin, K. Morokuma, O. Farkas, 
 J. B. Foresman, and D. J. Fox, Gaussian, Inc., Wallingford CT, 2016.
 
 ******************************************
 Gaussian 16:  ES64L-G16RevA.03 25-Dec-2016
                22-Sep-2023 
 ******************************************
 %nprocshared=6
 Will use up to    6 processors via shared memory.
 %mem=6GB
 -----------------
 # M062X/def2TZVPP
 -----------------
 1/38=1,172=1/1;
 2/12=2,17=6,18=5,40=1/2;
 3/5=44,7=202,11=2,25=1,30=1,74=-55/1,2,3;
 4//1;
 5/5=2,38=5/2;
 6/7=2,8=2,9=2,10=2,28=1/1;
 99/5=1,9=1/99;
 -----------------------
 tmpdir/M2_conf_0_38.gjf
 -----------------------
 Symbolic Z-matrix:
 Charge =  0 Multiplicity = 1
 O                     0.        0.        0. 
 C                     1.4172    0.        0. 
 H                     1.75977   0.        1.03161 
 H                    -0.44329   0.00491  -0.76041 
 H                     1.80576  -0.88418  -0.50576 
 H                     1.8048    0.88528  -0.50413 
 
                          Input orientation:                          
 ---------------------------------------------------------------------
 Center     Atomic      Atomic             Coordinates (Angstroms)
 Number     Number       Type             X           Y           Z
 ---------------------------------------------------------------------
      1          8           0        0.000000    0.000000    0.000000
      2          6           0        1.417200    0.000000    0.000000
      3          1           0        1.759770    0.000000    1.031610
      4          1           0       -0.443290    0.004910   -0.760410
      5          1           0        1.805760   -0.884180   -0.505760
      6          1           0        1.804800    0.885280   -0.504130
 ---------------------------------------------------------------------
                    Distance matrix (angstroms):
                    1          2          3          4          5
     1  O    0.000000
     2  C    1.417200   0.000000
     3  H    2.039855   1.087002   0.000000
     4  H    0.880201   2.009893   2.839865   0.000000
     5  H    2.073243   1.090205   1.774090   2.431780   0.000000
     6  H    2.072479   1.090001   1.773202   2.427888   1.769461
                    6
     6  H    0.000000
 Stoichiometry    CH4O
 Framework group  C1[X(CH4O)]
 Deg. of freedom    12
 Full point group                 C1      NOp   1
 Largest Abelian subgroup         C1      NOp   1
 Largest concise Abelian subgroup C1      NOp   1
                         Standard orientation:                         
 ---------------------------------------------------------------------
 Center     Atomic      Atomic             Coordinates (Angstroms)
 Number     Number       Type             X           Y           Z
 ---------------------------------------------------------------------
      1          8           0       -0.739457    0.107654    0.000271
      2          6           0        0.672055   -0.019187    0.000046
      3          1           0        1.105579    0.977612   -0.004569
      4          1           0       -1.249027   -0.610044   -0.001207
      5          1           0        1.014280   -0.553809    0.886391
      6          1           0        1.012490   -0.559865   -0.883058
 ---------------------------------------------------------------------
 Rotational constants (GHZ):         137.0544321          24.6100707          23.9886999
 Standard basis: def2TZVPP (5D, 7F)
 There are   132 symmetry adapted cartesian basis functions of A   symmetry.
 There are   118 symmetry adapted basis functions of A   symmetry.
   118 basis functions,   170 primitive gaussians,   132 cartesian basis functions
     9 alpha electrons        9 beta electrons
       nuclear repulsion energy        40.7361775747 Hartrees.
 NAtoms=    6 NActive=    6 NUniq=    6 SFac= 1.00D+00 NAtFMM=   60 NAOKFM=F Big=F
 Integral buffers will be    131072 words long.
 Raffenetti 2 integral format.
 Two-electron integral symmetry is turned on.
 One-electron integrals computed using PRISM.
   1 Symmetry operations used in ECPInt.
 ECPInt:  NShTT=    1081 NPrTT=    2684 LenC2=    1081 LenP2D=    2512.
 LDataN:  DoStor=T MaxTD1= 6 Len=  172
 NBasis=   118 RedAO= T EigKep=  5.80D-04  NBF=   118
 NBsUse=   118 1.00D-06 EigRej= -1.00D+00 NBFU=   118
 ExpMin= 9.52D-02 ExpMax= 2.70D+04 ExpMxC= 9.22D+02 IAcc=3 IRadAn=         5 AccDes= 0.00D+00
 Harris functional with IExCor= 1009 and IRadAn=       5 diagonalized for initial guess.
 HarFok:  IExCor= 1009 AccDes= 0.00D+00 IRadAn=         5 IDoV= 1 UseB2=F ITyADJ=14
 ICtDFT=  3500011 ScaDFX=  1.000000  1.000000  1.000000  1.000000
 FoFCou: FMM=F IPFlag=           0 FMFlag=      100000 FMFlg1=           0
         NFxFlg=           0 DoJE=T BraDBF=F KetDBF=T FulRan=T
         wScrn=  0.000000 ICntrl=       500 IOpCl=  0 I1Cent=   200000004 NGrid=           0
         NMat0=    1 NMatS0=      1 NMatT0=    0 NMatD0=    1 NMtDS0=    0 NMtDT0=    0
 Petite list used in FoFCou.
 Keep R1 ints in memory in canonical form, NReq=30406467.
 Requested convergence on RMS density matrix=1.00D-08 within 128 cycles.
 Requested convergence on MAX density matrix=1.00D-06.
 Requested convergence on             energy=1.00D-06.
 No special actions if energy rises.
 Integral accuracy reduced to 1.0D-05 until final iterations.
 Initial convergence to 1.0D-05 achieved.  Increase integral accuracy.
 SCF Done:  E(RM062X) =  -115.707585451     A.U. after   11 cycles
            NFock= 11  Conv=0.35D-08     -V/T= 2.0032

 **********************************************************************

            Population analysis using the SCF density.

 **********************************************************************

 Orbital symmetries:
       Occupied  (A) (A) (A) (A) (A) (A) (A) (A) (A)
       Virtual   (A) (A) (A) (A) (A) (A) (A) (A) (A) (A) (A) (A)
                 (A) (A) (A) (A) (A) (A) (A) (A) (A) (A) (A) (A)
                 (A) (A) (A) (A) (A) (A) (A) (A) (A) (A) (A) (A)
                 (A) (A) (A) (A) (A) (A) (A) (A) (A) (A) (A) (A)
                 (A) (A) (A) (A) (A) (A) (A) (A) (A) (A) (A) (A)
                 (A) (A) (A) (A) (A) (A) (A) (A) (A) (A) (A) (A)
                 (A) (A) (A) (A) (A) (A) (A) (A) (A) (A) (A) (A)
                 (A) (A) (A) (A) (A) (A) (A) (A) (A) (A) (A) (A)
                 (A) (A) (A) (A) (A) (A) (A) (A) (A) (A) (A) (A)
                 (A)
 The electronic state is 1-A.
 Alpha  occ. eigenvalues --  -19.60798 -10.57922  -1.14993  -0.79094  -0.59581
 Alpha  occ. eigenvalues --   -0.51582  -0.50619  -0.39892  -0.35365
 Alpha virt. eigenvalues --    0.06892   0.10658   0.15575   0.15773   0.17157
 Alpha virt. eigenvalues --    0.24611   0.25520   0.34621   0.39675   0.44138
 Alpha virt. eigenvalues --    0.47108   0.48246   0.52593   0.53429   0.54283
 Alpha virt. eigenvalues --    0.58790   0.67023   0.74083   0.78070   0.78629
 Alpha virt. eigenvalues --    0.90614   0.91654   0.98797   0.98991   1.04321
 Alpha virt. eigenvalues --    1.10395   1.11854   1.20695   1.28949   1.29120
 Alpha virt. eigenvalues --    1.33298   1.40907   1.46967   1.48520   1.54971
 Alpha virt. eigenvalues --    1.68962   1.78854   1.90080   1.91933   1.94273
 Alpha virt. eigenvalues --    2.02473   2.13868   2.14060   2.51496   2.52662
 Alpha virt. eigenvalues --    2.60495   2.61909   2.74921   2.76123   2.83796
 Alpha virt. eigenvalues --    2.86431   2.88674   2.91997   2.92728   2.99779
 Alpha virt. eigenvalues --    3.02835   3.11516   3.20656   3.28888   3.32172
 Alpha virt. eigenvalues --    3.40088   3.40457   3.45087   3.48364   3.54896
 Alpha virt. eigenvalues --    3.61624   3.63847   3.67936   3.73671   3.75119
 Alpha virt. eigenvalues --    3.80617   3.92530   3.94874   3.97332   4.02892
 Alpha virt. eigenvalues --    4.13049   4.14662   4.21084   4.25705   4.32775
 Alpha virt. eigenvalues --    4.42058   4.50095   4.57521   4.69620   4.80013
 Alpha virt. eigenvalues --    4.88511   4.95375   5.06863   5.07690   5.17102
 Alpha virt. eigenvalues --    5.22652   5.23483   5.28857   5.41754   5.49663
 Alpha virt. eigenvalues --    5.61715   5.68602   6.02161   6.08414   6.52448
 Alpha virt. eigenvalues --    6.59255   6.82795   6.90531   6.91035   7.06484
 Alpha virt. eigenvalues --    7.58251   7.64664  23.60919  44.16981
          Condensed to atoms (all electrons):
               1          2          3          4          5          6
     1  O    7.843927   0.267747  -0.035054   0.363029  -0.047370  -0.047353
     2  C    0.267747   4.712610   0.399283  -0.040030   0.416396   0.416545
     3  H   -0.035054   0.399283   0.565909   0.008854  -0.033682  -0.033512
     4  H    0.363029  -0.040030   0.008854   0.518877  -0.006018  -0.006155
     5  H   -0.047370   0.416396  -0.033682  -0.006018   0.600975  -0.044215
     6  H   -0.047353   0.416545  -0.033512  -0.006155  -0.044215   0.600767
 Mulliken charges:
               1
     1  O   -0.344927
     2  C   -0.172552
     3  H    0.128202
     4  H    0.161443
     5  H    0.113912
     6  H    0.113922
 Sum of Mulliken charges =  -0.00000
 Mulliken charges with hydrogens summed into heavy atoms:
               1
     1  O   -0.183483
     2  C    0.183483
 Electronic spatial extent (au):  <R**2>=             84.0247
 Charge=             -0.0000 electrons
 Dipole moment (field-independent basis, Debye):
    X=              0.6857    Y=             -1.3562    Z=             -0.0038  Tot=              1.5197
 Quadrupole moment (field-independent basis, Debye-Ang):
   XX=            -12.1750   YY=            -12.5504   ZZ=            -13.7015
   XY=              2.2331   XZ=              0.0036   YZ=              0.0004
 Traceless Quadrupole moment (field-independent basis, Debye-Ang):
   XX=              0.6340   YY=              0.2585   ZZ=             -0.8925
   XY=              2.2331   XZ=              0.0036   YZ=              0.0004
 Octapole moment (field-independent basis, Debye-Ang**2):
  XXX=             -5.8238  YYY=             -0.2271  ZZZ=              0.0031  XYY=             -1.4291
  XXY=             -2.3677  XXZ=             -0.0066  XZZ=             -0.4850  YZZ=             -0.6828
  YYZ=             -0.0081  XYZ=             -0.0050
 Hexadecapole moment (field-independent basis, Debye-Ang**3):
 XXXX=            -59.7967 YYYY=            -20.1666 ZZZZ=            -20.0220 XXXY=              4.5754
 XXXZ=              0.0066 YYYX=              2.7608 YYYZ=             -0.0001 ZZZX=              0.0074
 ZZZY=              0.0003 XXYY=            -12.6831 XXZZ=            -14.3877 YYZZ=             -6.7335
 XXYZ=             -0.0011 YYXZ=             -0.0057 ZZXY=             -0.1090
 N-N= 4.073617757470D+01 E-N=-3.530751286862D+02  KE= 1.153380762575D+02
 1\1\GINC-NODE85\SP\RM062X\def2TZVPP\C1H4O1\YANZ\22-Sep-2023\0\\# M062X
 /def2TZVPP\\tmpdir/M2_conf_0_38.gjf\\0,1\O,0,0.,0.,0.\C,0,1.4172,0.,0.
 \H,0,1.75977,0.,1.03161\H,0,-0.44329,0.00491,-0.76041\H,0,1.80576,-0.8
 8418,-0.50576\H,0,1.8048,0.88528,-0.50413\\Version=ES64L-G16RevA.03\St
 ate=1-A\HF=-115.7075855\RMSD=3.454e-09\Dipole=0.3164664,0.0036718,-0.5
 072838\Quadrupole=0.1731409,-0.663549,0.4904081,-0.0100749,1.6584815,-
 0.005884\PG=C01 [X(C1H4O1)]\\@


 IT IS IMPOSSIBLE TO MEDITATE ON TIME AND THE MYSTERY 
 OF NATURE WITHOUT AN OVERWHELMING EMOTION AT THE
 LIMITATIONS OF HUMAN INTELLIGENCE.

                                         -- ALFRED NORTH WHITEHEAD
 Job cpu time:       0 days  0 hours  0 minutes 35.3 seconds.
 Elapsed time:       0 days  0 hours  0 minutes  6.3 seconds.
 File lengths (MBytes):  RWF=     11 Int=      0 D2E=      0 Chk=      2 Scr=      1
 Normal termination of Gaussian 16 at Fri Sep 22 16:50:24 2023.
