 Entering Gaussian System, Link 0=g16
 Initial command:
 /share/apps/gaussian/g16/l1.exe "/tmp/55604.mgr/Gau-83284.inp" -scrdir="/tmp/55604.mgr/"
 Entering Link 1 = /share/apps/gaussian/g16/l1.exe PID=     83285.
  
 Copyright (c) 1988,1990,1992,1993,1995,1998,2003,2009,2016,
            Gaussian, Inc.  All Rights Reserved.
  
 This is part of the Gaussian(R) 16 program.  It is based on
 the Gaussian(R) 09 system (copyright 2009, Gaussian, Inc.),
 the Gaussian(R) 03 system (copyright 2003, Gaussian, Inc.),
 the Gaussian(R) 98 system (copyright 1998, Gaussian, Inc.),
 the Gaussian(R) 94 system (copyright 1995, Gaussian, Inc.),
 the Gaussian 92(TM) system (copyright 1992, Gaussian, Inc.),
 the Gaussian 90(TM) system (copyright 1990, Gaussian, Inc.),
 the Gaussian 88(TM) system (copyright 1988, Gaussian, Inc.),
 the Gaussian 86(TM) system (copyright 1986, Carnegie Mellon
 University), and the Gaussian 82(TM) system (copyright 1983,
 Carnegie Mellon University). Gaussian is a federally registered
 trademark of Gaussian, Inc.
  
 This software contains proprietary and confidential information,
 including trade secrets, belonging to Gaussian, Inc.
  
 This software is provided under written license and may be
 used, copied, transmitted, or stored only in accord with that
 written license.
  
 The following legend is applicable only to US Government
 contracts under FAR:
  
                    RESTRICTED RIGHTS LEGEND
  
 Use, reproduction and disclosure by the US Government is
 subject to restrictions as set forth in subparagraphs (a)
 and (c) of the Commercial Computer Software - Restricted
 Rights clause in FAR 52.227-19.
  
 Gaussian, Inc.
 340 Quinnipiac St., Bldg. 40, Wallingford CT 06492
  
  
 ---------------------------------------------------------------
 Warning -- This program may not be used in any manner that
 competes with the business of Gaussian, Inc. or will provide
 assistance to any competitor of Gaussian, Inc.  The licensee
 of this program is prohibited from giving any competitor of
 Gaussian, Inc. access to this program.  By using this program,
 the user acknowledges that Gaussian, Inc. is engaged in the
 business of creating and licensing software in the field of
 computational chemistry and represents and warrants to the
 licensee that it is not a competitor of Gaussian, Inc. and that
 it will not use this program in any manner prohibited above.
 ---------------------------------------------------------------
  

 Cite this work as:
 Gaussian 16, Revision A.03,
 M. J. Frisch, G. W. Trucks, H. B. Schlegel, G. E. Scuseria, 
 M. A. Robb, J. R. Cheeseman, G. Scalmani, V. Barone, 
 G. A. Petersson, H. Nakatsuji, X. Li, M. Caricato, A. V. Marenich, 
 J. Bloino, B. G. Janesko, R. Gomperts, B. Mennucci, H. P. Hratchian, 
 J. V. Ortiz, A. F. Izmaylov, J. L. Sonnenberg, D. Williams-Young, 
 F. Ding, F. Lipparini, F. Egidi, J. Goings, B. Peng, A. Petrone, 
 T. Henderson, D. Ranasinghe, V. G. Zakrzewski, J. Gao, N. Rega, 
 G. Zheng, W. Liang, M. Hada, M. Ehara, K. Toyota, R. Fukuda, 
 J. Hasegawa, M. Ishida, T. Nakajima, Y. Honda, O. Kitao, H. Nakai, 
 T. Vreven, K. Throssell, J. A. Montgomery, Jr., J. E. Peralta, 
 F. Ogliaro, M. J. Bearpark, J. J. Heyd, E. N. Brothers, K. N. Kudin, 
 V. N. Staroverov, T. A. Keith, R. Kobayashi, J. Normand, 
 K. Raghavachari, A. P. Rendell, J. C. Burant, S. S. Iyengar, 
 J. Tomasi, M. Cossi, J. M. Millam, M. Klene, C. Adamo, R. Cammi, 
 J. W. Ochterski, R. L. Martin, K. Morokuma, O. Farkas, 
 J. B. Foresman, and D. J. Fox, Gaussian, Inc., Wallingford CT, 2016.
 
 ******************************************
 Gaussian 16:  ES64L-G16RevA.03 25-Dec-2016
                22-Sep-2023 
 ******************************************
 %nprocshared=6
 Will use up to    6 processors via shared memory.
 %mem=6GB
 -----------------
 # M062X/def2TZVPP
 -----------------
 1/38=1,172=1/1;
 2/12=2,17=6,18=5,40=1/2;
 3/5=44,7=202,11=2,25=1,30=1,74=-55/1,2,3;
 4//1;
 5/5=2,38=5/2;
 6/7=2,8=2,9=2,10=2,28=1/1;
 99/5=1,9=1/99;
 ----------------------
 tmpdir/M2_conf_0_5.gjf
 ----------------------
 Symbolic Z-matrix:
 Charge =  0 Multiplicity = 1
 H                     0.        0.        0. 
 N                     1.0097    0.        0. 
 C                     1.66125   0.        1.3051 
 H                     1.32728   0.81095  -0.51325 
 H                     2.66831   0.40294   1.26041 
 H                     1.12093   0.58238   2.07042 
 H                     1.69481  -1.02207   1.69716 
 
                          Input orientation:                          
 ---------------------------------------------------------------------
 Center     Atomic      Atomic             Coordinates (Angstroms)
 Number     Number       Type             X           Y           Z
 ---------------------------------------------------------------------
      1          1           0        0.000000    0.000000    0.000000
      2          7           0        1.009700    0.000000    0.000000
      3          6           0        1.661250    0.000000    1.305100
      4          1           0        1.327280    0.810950   -0.513250
      5          1           0        2.668310    0.402940    1.260410
      6          1           0        1.120930    0.582380    2.070420
      7          1           0        1.694810   -1.022070    1.697160
 ---------------------------------------------------------------------
                    Distance matrix (angstroms):
                    1          2          3          4          5
     1  H    0.000000
     2  N    1.009700   0.000000
     3  C    2.112590   1.458699   0.000000
     4  H    1.637906   1.010902   2.018805   0.000000
     5  H    2.978401   2.121787   1.085600   2.260686   0.000000
     6  H    2.425343   2.153643   1.103099   2.601956   1.755762
     7  H    2.607175   2.096272   1.095201   2.894988   1.780198
                    6          7
     6  H    0.000000
     7  H    1.744397   0.000000
 Stoichiometry    CH5N
 Framework group  C1[X(CH5N)]
 Deg. of freedom    15
 Full point group                 C1      NOp   1
 Largest Abelian subgroup         C1      NOp   1
 Largest concise Abelian subgroup C1      NOp   1
                         Standard orientation:                         
 ---------------------------------------------------------------------
 Center     Atomic      Atomic             Coordinates (Angstroms)
 Number     Number       Type             X           Y           Z
 ---------------------------------------------------------------------
      1          1           0       -1.232874   -0.774448    0.328084
      2          7           0       -0.747598   -0.006266   -0.112253
      3          6           0        0.705981    0.001728    0.009600
      4          1           0       -1.103229    0.857435    0.274361
      5          1           0        1.121238    0.998400   -0.103239
      6          1           0        1.072130   -0.386337    0.975088
      7          1           0        1.140035   -0.661556   -0.746122
 ---------------------------------------------------------------------
 Rotational constants (GHZ):         105.3419112          22.8217866          21.7544571
 Standard basis: def2TZVPP (5D, 7F)
 There are   147 symmetry adapted cartesian basis functions of A   symmetry.
 There are   132 symmetry adapted basis functions of A   symmetry.
   132 basis functions,   187 primitive gaussians,   147 cartesian basis functions
     9 alpha electrons        9 beta electrons
       nuclear repulsion energy        42.0242136067 Hartrees.
 NAtoms=    7 NActive=    7 NUniq=    7 SFac= 1.00D+00 NAtFMM=   60 NAOKFM=F Big=F
 Integral buffers will be    131072 words long.
 Raffenetti 2 integral format.
 Two-electron integral symmetry is turned on.
 One-electron integrals computed using PRISM.
   1 Symmetry operations used in ECPInt.
 ECPInt:  NShTT=    1378 NPrTT=    3299 LenC2=    1378 LenP2D=    3098.
 LDataN:  DoStor=T MaxTD1= 6 Len=  172
 NBasis=   132 RedAO= T EigKep=  5.42D-04  NBF=   132
 NBsUse=   132 1.00D-06 EigRej= -1.00D+00 NBFU=   132
 ExpMin= 9.52D-02 ExpMax= 1.97D+04 ExpMxC= 6.73D+02 IAcc=3 IRadAn=         5 AccDes= 0.00D+00
 Harris functional with IExCor= 1009 and IRadAn=       5 diagonalized for initial guess.
 HarFok:  IExCor= 1009 AccDes= 0.00D+00 IRadAn=         5 IDoV= 1 UseB2=F ITyADJ=14
 ICtDFT=  3500011 ScaDFX=  1.000000  1.000000  1.000000  1.000000
 FoFCou: FMM=F IPFlag=           0 FMFlag=      100000 FMFlg1=           0
         NFxFlg=           0 DoJE=T BraDBF=F KetDBF=T FulRan=T
         wScrn=  0.000000 ICntrl=       500 IOpCl=  0 I1Cent=   200000004 NGrid=           0
         NMat0=    1 NMatS0=      1 NMatT0=    0 NMatD0=    1 NMtDS0=    0 NMtDT0=    0
 Petite list used in FoFCou.
 Keep R1 ints in memory in canonical form, NReq=44362774.
 Requested convergence on RMS density matrix=1.00D-08 within 128 cycles.
 Requested convergence on MAX density matrix=1.00D-06.
 Requested convergence on             energy=1.00D-06.
 No special actions if energy rises.
 Integral accuracy reduced to 1.0D-05 until final iterations.
 Initial convergence to 1.0D-05 achieved.  Increase integral accuracy.
 SCF Done:  E(RM062X) =  -95.8426356280     A.U. after   11 cycles
            NFock= 11  Conv=0.77D-08     -V/T= 2.0053

 **********************************************************************

            Population analysis using the SCF density.

 **********************************************************************

 Orbital symmetries:
       Occupied  (A) (A) (A) (A) (A) (A) (A) (A) (A)
       Virtual   (A) (A) (A) (A) (A) (A) (A) (A) (A) (A) (A) (A)
                 (A) (A) (A) (A) (A) (A) (A) (A) (A) (A) (A) (A)
                 (A) (A) (A) (A) (A) (A) (A) (A) (A) (A) (A) (A)
                 (A) (A) (A) (A) (A) (A) (A) (A) (A) (A) (A) (A)
                 (A) (A) (A) (A) (A) (A) (A) (A) (A) (A) (A) (A)
                 (A) (A) (A) (A) (A) (A) (A) (A) (A) (A) (A) (A)
                 (A) (A) (A) (A) (A) (A) (A) (A) (A) (A) (A) (A)
                 (A) (A) (A) (A) (A) (A) (A) (A) (A) (A) (A) (A)
                 (A) (A) (A) (A) (A) (A) (A) (A) (A) (A) (A) (A)
                 (A) (A) (A) (A) (A) (A) (A) (A) (A) (A) (A) (A)
                 (A) (A) (A)
 The electronic state is 1-A.
 Alpha  occ. eigenvalues --  -14.72056 -10.55036  -0.97675  -0.74803  -0.56421
 Alpha  occ. eigenvalues --   -0.50606  -0.46695  -0.43332  -0.29915
 Alpha virt. eigenvalues --    0.06478   0.10926   0.12143   0.16082   0.17190
 Alpha virt. eigenvalues --    0.19775   0.25807   0.26829   0.32276   0.39184
 Alpha virt. eigenvalues --    0.41222   0.41668   0.44549   0.49280   0.50389
 Alpha virt. eigenvalues --    0.51938   0.55095   0.55626   0.59957   0.62273
 Alpha virt. eigenvalues --    0.64266   0.84723   0.89148   0.91623   0.97312
 Alpha virt. eigenvalues --    0.99858   1.01704   1.03022   1.05006   1.11974
 Alpha virt. eigenvalues --    1.13465   1.20884   1.23596   1.27070   1.33528
 Alpha virt. eigenvalues --    1.37161   1.38344   1.47683   1.48474   1.53528
 Alpha virt. eigenvalues --    1.55988   1.63766   1.64219   1.69254   1.71905
 Alpha virt. eigenvalues --    1.91920   2.01234   2.05559   2.20670   2.38587
 Alpha virt. eigenvalues --    2.43015   2.54538   2.58986   2.60989   2.61490
 Alpha virt. eigenvalues --    2.77882   2.84032   2.85487   2.89111   2.92594
 Alpha virt. eigenvalues --    2.93443   2.97152   3.01472   3.05848   3.14075
 Alpha virt. eigenvalues --    3.25968   3.28106   3.32216   3.33054   3.35233
 Alpha virt. eigenvalues --    3.42141   3.43012   3.45092   3.46940   3.53007
 Alpha virt. eigenvalues --    3.58292   3.61076   3.68344   3.71473   3.76659
 Alpha virt. eigenvalues --    3.84485   3.85480   3.89128   3.91087   3.95852
 Alpha virt. eigenvalues --    3.98440   4.00601   4.08646   4.13156   4.16742
 Alpha virt. eigenvalues --    4.20282   4.21660   4.26651   4.34383   4.42123
 Alpha virt. eigenvalues --    4.52255   4.55241   4.58929   4.74606   4.76332
 Alpha virt. eigenvalues --    4.80565   4.91313   4.97342   4.98378   5.10540
 Alpha virt. eigenvalues --    5.14154   5.17306   5.20638   5.31297   5.32184
 Alpha virt. eigenvalues --    5.35554   5.49084   5.53542   5.60263   5.66115
 Alpha virt. eigenvalues --    5.73941   5.82862   5.93725   6.10277   6.35902
 Alpha virt. eigenvalues --    6.42999  23.56671  32.72501
          Condensed to atoms (all electrons):
               1          2          3          4          5          6
     1  H    0.549838   0.391712  -0.041946  -0.043985   0.007206  -0.011796
     2  N    0.391712   6.460544   0.270524   0.389997  -0.027036  -0.055000
     3  C   -0.041946   0.270524   4.809060  -0.051229   0.411948   0.433488
     4  H   -0.043985   0.389997  -0.051229   0.572382  -0.013266  -0.001020
     5  H    0.007206  -0.027036   0.411948  -0.013266   0.561449  -0.030486
     6  H   -0.011796  -0.055000   0.433488  -0.001020  -0.030486   0.613131
     7  H    0.000523  -0.046350   0.406415   0.009150  -0.025752  -0.051079
               7
     1  H    0.000523
     2  N   -0.046350
     3  C    0.406415
     4  H    0.009150
     5  H   -0.025752
     6  H   -0.051079
     7  H    0.589556
 Mulliken charges:
               1
     1  H    0.148447
     2  N   -0.384391
     3  C   -0.238261
     4  H    0.137971
     5  H    0.115936
     6  H    0.102762
     7  H    0.117536
 Sum of Mulliken charges =  -0.00000
 Mulliken charges with hydrogens summed into heavy atoms:
               1
     2  N   -0.097973
     3  C    0.097973
 Electronic spatial extent (au):  <R**2>=             95.6325
 Charge=             -0.0000 electrons
 Dipole moment (field-independent basis, Debye):
    X=              0.1677    Y=              0.1082    Z=              1.2637  Tot=              1.2793
 Quadrupole moment (field-independent basis, Debye-Ang):
   XX=            -13.7207   YY=            -12.5526   ZZ=            -15.6340
   XY=              0.2302   XZ=             -1.8553   YZ=              0.0069
 Traceless Quadrupole moment (field-independent basis, Debye-Ang):
   XX=              0.2484   YY=              1.4165   ZZ=             -1.6649
   XY=              0.2302   XZ=             -1.8553   YZ=              0.0069
 Octapole moment (field-independent basis, Debye-Ang**2):
  XXX=             -3.3284  YYY=              0.8443  ZZZ=              1.2346  XYY=             -2.0878
  XXY=             -0.0877  XXZ=              2.1005  XZZ=              0.5503  YZZ=             -0.4496
  YYZ=              0.5989  XYZ=              0.1743
 Hexadecapole moment (field-independent basis, Debye-Ang**3):
 XXXX=            -76.2367 YYYY=            -23.9299 ZZZZ=            -25.2752 XXXY=              1.1438
 XXXZ=             -3.7086 YYYX=              0.7717 YYYZ=              0.1320 ZZZX=             -1.6822
 ZZZY=             -0.0007 XXYY=            -14.4432 XXZZ=            -18.0839 YYZZ=             -8.2579
 XXYZ=             -0.0955 YYXZ=             -1.5426 ZZXY=             -0.3791
 N-N= 4.202421360667D+01 E-N=-3.069175873134D+02  KE= 9.533614606422D+01
 1\1\GINC-NODE85\SP\RM062X\def2TZVPP\C1H5N1\YANZ\22-Sep-2023\0\\# M062X
 /def2TZVPP\\tmpdir/M2_conf_0_5.gjf\\0,1\H,0,0.,0.,0.\N,0,1.0097,0.,0.\
 C,0,1.66125,0.,1.3051\H,0,1.32728,0.81095,-0.51325\H,0,2.66831,0.40294
 ,1.26041\H,0,1.12093,0.58238,2.07042\H,0,1.69481,-1.02207,1.69716\\Ver
 sion=ES64L-G16RevA.03\State=1-A\HF=-95.8426356\RMSD=7.687e-09\Dipole=-
 0.1527189,0.4375292,0.1964132\Quadrupole=1.1168122,-0.4222078,-0.69460
 44,0.3064682,0.3506293,-1.4487444\PG=C01 [X(C1H5N1)]\\@


 AND ALL THIS SCIENCE I DON'T UNDERSTAND
 IT'S JUST MY JOB FIVE DAYS A WEEK

                           -- ELTON JOHN, "ROCKET MAN"
 Job cpu time:       0 days  0 hours  0 minutes 50.3 seconds.
 Elapsed time:       0 days  0 hours  0 minutes  9.1 seconds.
 File lengths (MBytes):  RWF=     10 Int=      0 D2E=      0 Chk=      2 Scr=      1
 Normal termination of Gaussian 16 at Fri Sep 22 16:49:14 2023.
