 Entering Gaussian System, Link 0=g16
 Initial command:
 /share/apps/gaussian/g16/l1.exe "/tmp/55604.mgr/Gau-83657.inp" -scrdir="/tmp/55604.mgr/"
 Entering Link 1 = /share/apps/gaussian/g16/l1.exe PID=     83658.
  
 Copyright (c) 1988,1990,1992,1993,1995,1998,2003,2009,2016,
            Gaussian, Inc.  All Rights Reserved.
  
 This is part of the Gaussian(R) 16 program.  It is based on
 the Gaussian(R) 09 system (copyright 2009, Gaussian, Inc.),
 the Gaussian(R) 03 system (copyright 2003, Gaussian, Inc.),
 the Gaussian(R) 98 system (copyright 1998, Gaussian, Inc.),
 the Gaussian(R) 94 system (copyright 1995, Gaussian, Inc.),
 the Gaussian 92(TM) system (copyright 1992, Gaussian, Inc.),
 the Gaussian 90(TM) system (copyright 1990, Gaussian, Inc.),
 the Gaussian 88(TM) system (copyright 1988, Gaussian, Inc.),
 the Gaussian 86(TM) system (copyright 1986, Carnegie Mellon
 University), and the Gaussian 82(TM) system (copyright 1983,
 Carnegie Mellon University). Gaussian is a federally registered
 trademark of Gaussian, Inc.
  
 This software contains proprietary and confidential information,
 including trade secrets, belonging to Gaussian, Inc.
  
 This software is provided under written license and may be
 used, copied, transmitted, or stored only in accord with that
 written license.
  
 The following legend is applicable only to US Government
 contracts under FAR:
  
                    RESTRICTED RIGHTS LEGEND
  
 Use, reproduction and disclosure by the US Government is
 subject to restrictions as set forth in subparagraphs (a)
 and (c) of the Commercial Computer Software - Restricted
 Rights clause in FAR 52.227-19.
  
 Gaussian, Inc.
 340 Quinnipiac St., Bldg. 40, Wallingford CT 06492
  
  
 ---------------------------------------------------------------
 Warning -- This program may not be used in any manner that
 competes with the business of Gaussian, Inc. or will provide
 assistance to any competitor of Gaussian, Inc.  The licensee
 of this program is prohibited from giving any competitor of
 Gaussian, Inc. access to this program.  By using this program,
 the user acknowledges that Gaussian, Inc. is engaged in the
 business of creating and licensing software in the field of
 computational chemistry and represents and warrants to the
 licensee that it is not a competitor of Gaussian, Inc. and that
 it will not use this program in any manner prohibited above.
 ---------------------------------------------------------------
  

 Cite this work as:
 Gaussian 16, Revision A.03,
 M. J. Frisch, G. W. Trucks, H. B. Schlegel, G. E. Scuseria, 
 M. A. Robb, J. R. Cheeseman, G. Scalmani, V. Barone, 
 G. A. Petersson, H. Nakatsuji, X. Li, M. Caricato, A. V. Marenich, 
 J. Bloino, B. G. Janesko, R. Gomperts, B. Mennucci, H. P. Hratchian, 
 J. V. Ortiz, A. F. Izmaylov, J. L. Sonnenberg, D. Williams-Young, 
 F. Ding, F. Lipparini, F. Egidi, J. Goings, B. Peng, A. Petrone, 
 T. Henderson, D. Ranasinghe, V. G. Zakrzewski, J. Gao, N. Rega, 
 G. Zheng, W. Liang, M. Hada, M. Ehara, K. Toyota, R. Fukuda, 
 J. Hasegawa, M. Ishida, T. Nakajima, Y. Honda, O. Kitao, H. Nakai, 
 T. Vreven, K. Throssell, J. A. Montgomery, Jr., J. E. Peralta, 
 F. Ogliaro, M. J. Bearpark, J. J. Heyd, E. N. Brothers, K. N. Kudin, 
 V. N. Staroverov, T. A. Keith, R. Kobayashi, J. Normand, 
 K. Raghavachari, A. P. Rendell, J. C. Burant, S. S. Iyengar, 
 J. Tomasi, M. Cossi, J. M. Millam, M. Klene, C. Adamo, R. Cammi, 
 J. W. Ochterski, R. L. Martin, K. Morokuma, O. Farkas, 
 J. B. Foresman, and D. J. Fox, Gaussian, Inc., Wallingford CT, 2016.
 
 ******************************************
 Gaussian 16:  ES64L-G16RevA.03 25-Dec-2016
                22-Sep-2023 
 ******************************************
 %nprocshared=6
 Will use up to    6 processors via shared memory.
 %mem=6GB
 -----------------
 # M062X/def2TZVPP
 -----------------
 1/38=1,172=1/1;
 2/12=2,17=6,18=5,40=1/2;
 3/5=44,7=202,11=2,25=1,30=1,74=-55/1,2,3;
 4//1;
 5/5=2,38=5/2;
 6/7=2,8=2,9=2,10=2,28=1/1;
 99/5=1,9=1/99;
 -----------------------
 tmpdir/M2_conf_0_14.gjf
 -----------------------
 Symbolic Z-matrix:
 Charge =  0 Multiplicity = 1
 N                     0.        0.        0. 
 C                     1.4587    0.        0. 
 B                     1.72441   0.        1.55608 
 H                    -0.35601  -0.54754   0.77161 
 H                    -0.38004  -0.37496  -0.85701 
 H                     1.90209  -0.86434  -0.52264 
 H                     1.82447   0.87831  -0.54245 
 H                     2.73723   0.22165   2.01518 
 H                     0.87264  -0.27096   2.24547 
 
                          Input orientation:                          
 ---------------------------------------------------------------------
 Center     Atomic      Atomic             Coordinates (Angstroms)
 Number     Number       Type             X           Y           Z
 ---------------------------------------------------------------------
      1          7           0        0.000000    0.000000    0.000000
      2          6           0        1.458700    0.000000    0.000000
      3          5           0        1.724410    0.000000    1.556080
      4          1           0       -0.356010   -0.547540    0.771610
      5          1           0       -0.380040   -0.374960   -0.857010
      6          1           0        1.902090   -0.864340   -0.522640
      7          1           0        1.824470    0.878310   -0.542450
      8          1           0        2.737230    0.221650    2.015180
      9          1           0        0.872640   -0.270960    2.245470
 ---------------------------------------------------------------------
                    Distance matrix (angstroms):
                    1          2          3          4          5
     1  N    0.000000
     2  C    1.458700   0.000000
     3  B    2.322709   1.578603   0.000000
     4  H    1.010903   2.046547   2.289834   0.000000
     5  H    1.009699   2.063014   3.223710   1.637915   0.000000
     6  H    2.153644   1.103101   2.258258   2.621919   2.357841
     7  H    2.096276   1.095202   2.277118   2.917926   2.555288
     8  H    3.406245   2.396814   1.133890   3.421440   4.280513
     9  H    2.424264   2.336455   1.128800   1.938644   3.347448
                    6          7          8          9
     6  H    0.000000
     7  H    1.744490   0.000000
     8  H    2.883984   2.793887   0.000000
     9  H    3.012358   3.162167   1.942265   0.000000
 Stoichiometry    CH6BN
 Framework group  C1[X(CH6BN)]
 Deg. of freedom    21
 Full point group                 C1      NOp   1
 Largest Abelian subgroup         C1      NOp   1
 Largest concise Abelian subgroup C1      NOp   1
                         Standard orientation:                         
 ---------------------------------------------------------------------
 Center     Atomic      Atomic             Coordinates (Angstroms)
 Number     Number       Type             X           Y           Z
 ---------------------------------------------------------------------
      1          7           0        1.036219   -0.337482   -0.133211
      2          6           0       -0.028128    0.645619    0.035557
      3          5           0       -1.283015   -0.311072   -0.009003
      4          1           0        0.798243   -1.203137    0.331477
      5          1           0        1.917304   -0.010909    0.236291
      6          1           0        0.049513    1.227210    0.969664
      7          1           0        0.029330    1.388363   -0.767250
      8          1           0       -2.346549    0.061744   -0.133939
      9          1           0       -1.117533   -1.419251    0.127909
 ---------------------------------------------------------------------
 Rotational constants (GHZ):          30.4714474          10.9164589           8.5707519
 Standard basis: def2TZVPP (5D, 7F)
 There are   198 symmetry adapted cartesian basis functions of A   symmetry.
 There are   177 symmetry adapted basis functions of A   symmetry.
   177 basis functions,   255 primitive gaussians,   198 cartesian basis functions
    12 alpha electrons       12 beta electrons
       nuclear repulsion energy        70.3800407404 Hartrees.
 NAtoms=    9 NActive=    9 NUniq=    9 SFac= 1.00D+00 NAtFMM=   60 NAOKFM=F Big=F
 Integral buffers will be    131072 words long.
 Raffenetti 2 integral format.
 Two-electron integral symmetry is turned on.
 One-electron integrals computed using PRISM.
   1 Symmetry operations used in ECPInt.
 ECPInt:  NShTT=    2415 NPrTT=    5970 LenC2=    2414 LenP2D=    5445.
 LDataN:  DoStor=T MaxTD1= 6 Len=  172
 NBasis=   177 RedAO= T EigKep=  3.94D-04  NBF=   177
 NBsUse=   177 1.00D-06 EigRej= -1.00D+00 NBFU=   177
 ExpMin= 6.06D-02 ExpMax= 1.97D+04 ExpMxC= 6.73D+02 IAcc=3 IRadAn=         5 AccDes= 0.00D+00
 Harris functional with IExCor= 1009 and IRadAn=       5 diagonalized for initial guess.
 HarFok:  IExCor= 1009 AccDes= 0.00D+00 IRadAn=         5 IDoV= 1 UseB2=F ITyADJ=14
 ICtDFT=  3500011 ScaDFX=  1.000000  1.000000  1.000000  1.000000
 FoFCou: FMM=F IPFlag=           0 FMFlag=      100000 FMFlg1=           0
         NFxFlg=           0 DoJE=T BraDBF=F KetDBF=T FulRan=T
         wScrn=  0.000000 ICntrl=       500 IOpCl=  0 I1Cent=   200000004 NGrid=           0
         NMat0=    1 NMatS0=      1 NMatT0=    0 NMatD0=    1 NMtDS0=    0 NMtDT0=    0
 Petite list used in FoFCou.
 Keep R1 ints in memory in canonical form, NReq=130241692.
 Requested convergence on RMS density matrix=1.00D-08 within 128 cycles.
 Requested convergence on MAX density matrix=1.00D-06.
 Requested convergence on             energy=1.00D-06.
 No special actions if energy rises.
 Integral accuracy reduced to 1.0D-05 until final iterations.
 Initial convergence to 1.0D-05 achieved.  Increase integral accuracy.
 SCF Done:  E(RM062X) =  -121.253817379     A.U. after   13 cycles
            NFock= 13  Conv=0.40D-08     -V/T= 2.0037

 **********************************************************************

            Population analysis using the SCF density.

 **********************************************************************

 Orbital symmetries:
       Occupied  (A) (A) (A) (A) (A) (A) (A) (A) (A) (A) (A) (A)
       Virtual   (A) (A) (A) (A) (A) (A) (A) (A) (A) (A) (A) (A)
                 (A) (A) (A) (A) (A) (A) (A) (A) (A) (A) (A) (A)
                 (A) (A) (A) (A) (A) (A) (A) (A) (A) (A) (A) (A)
                 (A) (A) (A) (A) (A) (A) (A) (A) (A) (A) (A) (A)
                 (A) (A) (A) (A) (A) (A) (A) (A) (A) (A) (A) (A)
                 (A) (A) (A) (A) (A) (A) (A) (A) (A) (A) (A) (A)
                 (A) (A) (A) (A) (A) (A) (A) (A) (A) (A) (A) (A)
                 (A) (A) (A) (A) (A) (A) (A) (A) (A) (A) (A) (A)
                 (A) (A) (A) (A) (A) (A) (A) (A) (A) (A) (A) (A)
                 (A) (A) (A) (A) (A) (A) (A) (A) (A) (A) (A) (A)
                 (A) (A) (A) (A) (A) (A) (A) (A) (A) (A) (A) (A)
                 (A) (A) (A) (A) (A) (A) (A) (A) (A) (A) (A) (A)
                 (A) (A) (A) (A) (A) (A) (A) (A) (A) (A) (A) (A)
                 (A) (A) (A) (A) (A) (A) (A) (A) (A)
 The electronic state is 1-A.
 Alpha  occ. eigenvalues --  -14.71812 -10.53966  -7.03952  -0.98146  -0.74524
 Alpha  occ. eigenvalues --   -0.60571  -0.53158  -0.50700  -0.47160  -0.40984
 Alpha  occ. eigenvalues --   -0.37697  -0.30334
 Alpha virt. eigenvalues --   -0.02082   0.06248   0.08670   0.09336   0.12262
 Alpha virt. eigenvalues --    0.12376   0.14249   0.18313   0.20186   0.22141
 Alpha virt. eigenvalues --    0.23755   0.25436   0.28202   0.31749   0.35934
 Alpha virt. eigenvalues --    0.37209   0.40500   0.40913   0.41714   0.43603
 Alpha virt. eigenvalues --    0.46993   0.47053   0.50255   0.51629   0.54012
 Alpha virt. eigenvalues --    0.57551   0.58766   0.61067   0.65771   0.69875
 Alpha virt. eigenvalues --    0.71759   0.72746   0.76949   0.80103   0.81890
 Alpha virt. eigenvalues --    0.86610   0.87269   0.94543   0.96528   0.98914
 Alpha virt. eigenvalues --    1.01616   1.03539   1.07634   1.09093   1.11136
 Alpha virt. eigenvalues --    1.13914   1.19769   1.20431   1.23214   1.25635
 Alpha virt. eigenvalues --    1.29949   1.31709   1.33604   1.39524   1.40781
 Alpha virt. eigenvalues --    1.46775   1.48780   1.52083   1.54951   1.57168
 Alpha virt. eigenvalues --    1.60464   1.64478   1.69173   1.75167   1.79261
 Alpha virt. eigenvalues --    1.88042   1.91189   1.93380   1.95006   1.96101
 Alpha virt. eigenvalues --    2.03547   2.04262   2.12616   2.19428   2.23074
 Alpha virt. eigenvalues --    2.26208   2.28802   2.32053   2.34779   2.40545
 Alpha virt. eigenvalues --    2.47017   2.52239   2.59760   2.65151   2.72316
 Alpha virt. eigenvalues --    2.79699   2.84906   2.87608   2.97314   3.02554
 Alpha virt. eigenvalues --    3.02564   3.08551   3.14927   3.16762   3.18721
 Alpha virt. eigenvalues --    3.21556   3.28854   3.30634   3.32115   3.36803
 Alpha virt. eigenvalues --    3.38890   3.40844   3.43492   3.47500   3.51527
 Alpha virt. eigenvalues --    3.54212   3.59491   3.63071   3.64746   3.65065
 Alpha virt. eigenvalues --    3.70097   3.72221   3.75055   3.78580   3.81460
 Alpha virt. eigenvalues --    3.87554   3.88483   3.91845   3.95453   3.99324
 Alpha virt. eigenvalues --    4.01609   4.04861   4.08248   4.11602   4.13870
 Alpha virt. eigenvalues --    4.16422   4.18164   4.21254   4.24032   4.29855
 Alpha virt. eigenvalues --    4.32565   4.42436   4.44585   4.52122   4.53377
 Alpha virt. eigenvalues --    4.59812   4.60733   4.61601   4.69805   4.77988
 Alpha virt. eigenvalues --    4.81584   4.85732   4.89129   4.94684   5.00353
 Alpha virt. eigenvalues --    5.03779   5.10627   5.16610   5.21741   5.26368
 Alpha virt. eigenvalues --    5.29263   5.33395   5.46156   5.52313   5.62499
 Alpha virt. eigenvalues --    5.65811   5.72797   5.85755   5.91264   6.12882
 Alpha virt. eigenvalues --    6.37923   6.49101  15.66963  23.30240  32.77686
          Condensed to atoms (all electrons):
               1          2          3          4          5          6
     1  N    6.540970   0.238818  -0.043477   0.389091   0.368418  -0.050111
     2  C    0.238818   4.868198   0.385662  -0.045305  -0.047144   0.408897
     3  B   -0.043477   0.385662   3.927784  -0.030899   0.011409  -0.008104
     4  H    0.389091  -0.045305  -0.030899   0.572598  -0.044393  -0.001789
     5  H    0.368418  -0.047144   0.011409  -0.044393   0.593469  -0.013652
     6  H   -0.050111   0.408897  -0.008104  -0.001789  -0.013652   0.603819
     7  H   -0.051630   0.408088  -0.043536   0.010653   0.001792  -0.051199
     8  H    0.004879  -0.029470   0.425493   0.000808  -0.000568   0.001502
     9  H   -0.020867  -0.026926   0.438293  -0.001698   0.001902   0.001281
               7          8          9
     1  N   -0.051630   0.004879  -0.020867
     2  C    0.408088  -0.029470  -0.026926
     3  B   -0.043536   0.425493   0.438293
     4  H    0.010653   0.000808  -0.001698
     5  H    0.001792  -0.000568   0.001902
     6  H   -0.051199   0.001502   0.001281
     7  H    0.604832  -0.000968   0.003059
     8  H   -0.000968   0.566271  -0.019657
     9  H    0.003059  -0.019657   0.584759
 Mulliken charges:
               1
     1  N   -0.376091
     2  C   -0.160819
     3  B   -0.062625
     4  H    0.150935
     5  H    0.128766
     6  H    0.109356
     7  H    0.118911
     8  H    0.051711
     9  H    0.039856
 Sum of Mulliken charges =  -0.00000
 Mulliken charges with hydrogens summed into heavy atoms:
               1
     1  N   -0.096390
     2  C    0.067448
     3  B    0.028942
 Electronic spatial extent (au):  <R**2>=            186.9186
 Charge=             -0.0000 electrons
 Dipole moment (field-independent basis, Debye):
    X=              0.1642    Y=              0.3807    Z=              1.2318  Tot=              1.2997
 Quadrupole moment (field-independent basis, Debye-Ang):
   XX=            -21.3643   YY=            -20.2271   ZZ=            -20.7382
   XY=              0.5374   XZ=              1.7698   YZ=             -0.8953
 Traceless Quadrupole moment (field-independent basis, Debye-Ang):
   XX=             -0.5877   YY=              0.5494   ZZ=              0.0383
   XY=              0.5374   XZ=              1.7698   YZ=             -0.8953
 Octapole moment (field-independent basis, Debye-Ang**2):
  XXX=             15.9634  YYY=              0.5565  ZZZ=              1.1865  XYY=              4.3096
  XXY=              1.3217  XXZ=              3.1536  XZZ=              0.0507  YZZ=              1.1198
  YYZ=              0.7896  XYZ=             -1.2350
 Hexadecapole moment (field-independent basis, Debye-Ang**3):
 XXXX=           -169.5705 YYYY=            -75.0750 ZZZZ=            -31.0331 XXXY=             -1.2560
 XXXZ=              3.9607 YYYX=             -4.7329 YYYZ=             -2.0867 ZZZX=              1.6916
 ZZZY=             -0.7685 XXYY=            -42.5472 XXZZ=            -33.5998 YYZZ=            -17.1519
 XXYZ=             -0.8970 YYXZ=              1.3369 ZZXY=              0.6742
 N-N= 7.038004074044D+01 E-N=-4.222296197464D+02  KE= 1.208070312233D+02
 1\1\GINC-NODE85\SP\RM062X\def2TZVPP\C1H6B1N1\YANZ\22-Sep-2023\0\\# M06
 2X/def2TZVPP\\tmpdir/M2_conf_0_14.gjf\\0,1\N,0,0.,0.,0.\C,0,1.4587,0.,
 0.\B,0,1.72441,0.,1.55608\H,0,-0.35601,-0.54754,0.77161\H,0,-0.38004,-
 0.37496,-0.85701\H,0,1.90209,-0.86434,-0.52264\H,0,1.82447,0.87831,-0.
 54245\H,0,2.73723,0.22165,2.01518\H,0,0.87264,-0.27096,2.24547\\Versio
 n=ES64L-G16RevA.03\State=1-A\HF=-121.2538174\RMSD=3.967e-09\Dipole=0.1
 099031,-0.4670395,-0.1768222\Quadrupole=-0.7656383,0.3136155,0.4520227
 ,1.3452996,-0.3687352,0.3509443\PG=C01 [X(C1H6B1N1)]\\@


  THE LARGE PRINT GIVETH,
  AND THE SMALL PRINT TAKETH AWAY.

                     -- TOM WAITS
 Job cpu time:       0 days  0 hours  2 minutes 18.7 seconds.
 Elapsed time:       0 days  0 hours  0 minutes 27.3 seconds.
 File lengths (MBytes):  RWF=     16 Int=      0 D2E=      0 Chk=      3 Scr=      1
 Normal termination of Gaussian 16 at Fri Sep 22 16:49:45 2023.
