 Entering Gaussian System, Link 0=g16
 Initial command:
 /share/apps/gaussian/g16/l1.exe "/tmp/55604.mgr/Gau-83545.inp" -scrdir="/tmp/55604.mgr/"
 Entering Link 1 = /share/apps/gaussian/g16/l1.exe PID=     83546.
  
 Copyright (c) 1988,1990,1992,1993,1995,1998,2003,2009,2016,
            Gaussian, Inc.  All Rights Reserved.
  
 This is part of the Gaussian(R) 16 program.  It is based on
 the Gaussian(R) 09 system (copyright 2009, Gaussian, Inc.),
 the Gaussian(R) 03 system (copyright 2003, Gaussian, Inc.),
 the Gaussian(R) 98 system (copyright 1998, Gaussian, Inc.),
 the Gaussian(R) 94 system (copyright 1995, Gaussian, Inc.),
 the Gaussian 92(TM) system (copyright 1992, Gaussian, Inc.),
 the Gaussian 90(TM) system (copyright 1990, Gaussian, Inc.),
 the Gaussian 88(TM) system (copyright 1988, Gaussian, Inc.),
 the Gaussian 86(TM) system (copyright 1986, Carnegie Mellon
 University), and the Gaussian 82(TM) system (copyright 1983,
 Carnegie Mellon University). Gaussian is a federally registered
 trademark of Gaussian, Inc.
  
 This software contains proprietary and confidential information,
 including trade secrets, belonging to Gaussian, Inc.
  
 This software is provided under written license and may be
 used, copied, transmitted, or stored only in accord with that
 written license.
  
 The following legend is applicable only to US Government
 contracts under FAR:
  
                    RESTRICTED RIGHTS LEGEND
  
 Use, reproduction and disclosure by the US Government is
 subject to restrictions as set forth in subparagraphs (a)
 and (c) of the Commercial Computer Software - Restricted
 Rights clause in FAR 52.227-19.
  
 Gaussian, Inc.
 340 Quinnipiac St., Bldg. 40, Wallingford CT 06492
  
  
 ---------------------------------------------------------------
 Warning -- This program may not be used in any manner that
 competes with the business of Gaussian, Inc. or will provide
 assistance to any competitor of Gaussian, Inc.  The licensee
 of this program is prohibited from giving any competitor of
 Gaussian, Inc. access to this program.  By using this program,
 the user acknowledges that Gaussian, Inc. is engaged in the
 business of creating and licensing software in the field of
 computational chemistry and represents and warrants to the
 licensee that it is not a competitor of Gaussian, Inc. and that
 it will not use this program in any manner prohibited above.
 ---------------------------------------------------------------
  

 Cite this work as:
 Gaussian 16, Revision A.03,
 M. J. Frisch, G. W. Trucks, H. B. Schlegel, G. E. Scuseria, 
 M. A. Robb, J. R. Cheeseman, G. Scalmani, V. Barone, 
 G. A. Petersson, H. Nakatsuji, X. Li, M. Caricato, A. V. Marenich, 
 J. Bloino, B. G. Janesko, R. Gomperts, B. Mennucci, H. P. Hratchian, 
 J. V. Ortiz, A. F. Izmaylov, J. L. Sonnenberg, D. Williams-Young, 
 F. Ding, F. Lipparini, F. Egidi, J. Goings, B. Peng, A. Petrone, 
 T. Henderson, D. Ranasinghe, V. G. Zakrzewski, J. Gao, N. Rega, 
 G. Zheng, W. Liang, M. Hada, M. Ehara, K. Toyota, R. Fukuda, 
 J. Hasegawa, M. Ishida, T. Nakajima, Y. Honda, O. Kitao, H. Nakai, 
 T. Vreven, K. Throssell, J. A. Montgomery, Jr., J. E. Peralta, 
 F. Ogliaro, M. J. Bearpark, J. J. Heyd, E. N. Brothers, K. N. Kudin, 
 V. N. Staroverov, T. A. Keith, R. Kobayashi, J. Normand, 
 K. Raghavachari, A. P. Rendell, J. C. Burant, S. S. Iyengar, 
 J. Tomasi, M. Cossi, J. M. Millam, M. Klene, C. Adamo, R. Cammi, 
 J. W. Ochterski, R. L. Martin, K. Morokuma, O. Farkas, 
 J. B. Foresman, and D. J. Fox, Gaussian, Inc., Wallingford CT, 2016.
 
 ******************************************
 Gaussian 16:  ES64L-G16RevA.03 25-Dec-2016
                22-Sep-2023 
 ******************************************
 %nprocshared=6
 Will use up to    6 processors via shared memory.
 %mem=6GB
 -----------------
 # M062X/def2TZVPP
 -----------------
 1/38=1,172=1/1;
 2/12=2,17=6,18=5,40=1/2;
 3/5=44,7=202,11=2,25=1,30=1,74=-55/1,2,3;
 4//1;
 5/5=2,38=5/2;
 6/7=2,8=2,9=2,10=2,28=1/1;
 99/5=1,9=1/99;
 -----------------------
 tmpdir/M2_conf_0_13.gjf
 -----------------------
 Symbolic Z-matrix:
 Charge =  0 Multiplicity = 1
 C                     0.        0.        0. 
 H                     1.0887    0.        0. 
 H                    -0.3829    0.       -1.08067 
 H                    -0.36113   0.85519   0.56282 
 H                    -0.28606  -0.89892   0.57179 
 
                          Input orientation:                          
 ---------------------------------------------------------------------
 Center     Atomic      Atomic             Coordinates (Angstroms)
 Number     Number       Type             X           Y           Z
 ---------------------------------------------------------------------
      1          6           0        0.000000    0.000000    0.000000
      2          1           0        1.088700    0.000000    0.000000
      3          1           0       -0.382900    0.000000   -1.080670
      4          1           0       -0.361130    0.855190    0.562820
      5          1           0       -0.286060   -0.898920    0.571790
 ---------------------------------------------------------------------
                    Distance matrix (angstroms):
                    1          2          3          4          5
     1  C    0.000000
     2  H    1.088700   0.000000
     3  H    1.146499   1.825775   0.000000
     4  H    1.085602   1.774859   1.852804   0.000000
     5  H    1.103101   1.739243   1.883629   1.755739   0.000000
 Stoichiometry    CH4
 Framework group  C1[X(CH4)]
 Deg. of freedom     9
 Full point group                 C1      NOp   1
 Largest Abelian subgroup         C1      NOp   1
 Largest concise Abelian subgroup C1      NOp   1
                         Standard orientation:                         
 ---------------------------------------------------------------------
 Center     Atomic      Atomic             Coordinates (Angstroms)
 Number     Number       Type             X           Y           Z
 ---------------------------------------------------------------------
      1          6           0       -0.006970    0.005769    0.000847
      2          1           0        0.197146   -0.741416   -0.764215
      3          1           0       -1.128797    0.015184    0.237227
      4          1           0        0.349046    0.974357   -0.336229
      5          1           0        0.624423   -0.282736    0.858133
 ---------------------------------------------------------------------
 Rotational constants (GHZ):         163.3769309         151.2681488         147.2779918
 Standard basis: def2TZVPP (5D, 7F)
 There are    96 symmetry adapted cartesian basis functions of A   symmetry.
 There are    87 symmetry adapted basis functions of A   symmetry.
    87 basis functions,   119 primitive gaussians,    96 cartesian basis functions
     5 alpha electrons        5 beta electrons
       nuclear repulsion energy        13.2489351249 Hartrees.
 NAtoms=    5 NActive=    5 NUniq=    5 SFac= 1.00D+00 NAtFMM=   60 NAOKFM=F Big=F
 Integral buffers will be    131072 words long.
 Raffenetti 2 integral format.
 Two-electron integral symmetry is turned on.
 One-electron integrals computed using PRISM.
   1 Symmetry operations used in ECPInt.
 ECPInt:  NShTT=     630 NPrTT=    1412 LenC2=     631 LenP2D=    1376.
 LDataN:  DoStor=T MaxTD1= 6 Len=  172
 NBasis=    87 RedAO= T EigKep=  5.51D-04  NBF=    87
 NBsUse=    87 1.00D-06 EigRej= -1.00D+00 NBFU=    87
 ExpMin= 9.52D-02 ExpMax= 1.36D+04 ExpMxC= 4.63D+02 IAcc=3 IRadAn=         5 AccDes= 0.00D+00
 Harris functional with IExCor= 1009 and IRadAn=       5 diagonalized for initial guess.
 HarFok:  IExCor= 1009 AccDes= 0.00D+00 IRadAn=         5 IDoV= 1 UseB2=F ITyADJ=14
 ICtDFT=  3500011 ScaDFX=  1.000000  1.000000  1.000000  1.000000
 FoFCou: FMM=F IPFlag=           0 FMFlag=      100000 FMFlg1=           0
         NFxFlg=           0 DoJE=T BraDBF=F KetDBF=T FulRan=T
         wScrn=  0.000000 ICntrl=       500 IOpCl=  0 I1Cent=   200000004 NGrid=           0
         NMat0=    1 NMatS0=      1 NMatT0=    0 NMatD0=    1 NMtDS0=    0 NMtDT0=    0
 Petite list used in FoFCou.
 Keep R1 ints in memory in canonical form, NReq=12860297.
 Requested convergence on RMS density matrix=1.00D-08 within 128 cycles.
 Requested convergence on MAX density matrix=1.00D-06.
 Requested convergence on             energy=1.00D-06.
 No special actions if energy rises.
 Integral accuracy reduced to 1.0D-05 until final iterations.
 Initial convergence to 1.0D-05 achieved.  Increase integral accuracy.
 SCF Done:  E(RM062X) =  -40.4985239356     A.U. after   10 cycles
            NFock= 10  Conv=0.13D-08     -V/T= 2.0085

 **********************************************************************

            Population analysis using the SCF density.

 **********************************************************************

 Orbital symmetries:
       Occupied  (A) (A) (A) (A) (A)
       Virtual   (A) (A) (A) (A) (A) (A) (A) (A) (A) (A) (A) (A)
                 (A) (A) (A) (A) (A) (A) (A) (A) (A) (A) (A) (A)
                 (A) (A) (A) (A) (A) (A) (A) (A) (A) (A) (A) (A)
                 (A) (A) (A) (A) (A) (A) (A) (A) (A) (A) (A) (A)
                 (A) (A) (A) (A) (A) (A) (A) (A) (A) (A) (A) (A)
                 (A) (A) (A) (A) (A) (A) (A) (A) (A) (A) (A) (A)
                 (A) (A) (A) (A) (A) (A) (A) (A) (A) (A)
 The electronic state is 1-A.
 Alpha  occ. eigenvalues --  -10.52339  -0.78079  -0.45816  -0.45459  -0.44433
 Alpha virt. eigenvalues --    0.08478   0.15460   0.16004   0.16344   0.23700
 Alpha virt. eigenvalues --    0.23758   0.24191   0.41542   0.48804   0.50145
 Alpha virt. eigenvalues --    0.51246   0.54419   0.54802   0.56642   0.89852
 Alpha virt. eigenvalues --    0.90846   0.93173   0.96570   0.98217   0.98783
 Alpha virt. eigenvalues --    1.09661   1.11402   1.15103   1.34997   1.40632
 Alpha virt. eigenvalues --    1.41575   1.41791   1.46991   1.48271   1.56508
 Alpha virt. eigenvalues --    1.83494   1.88909   1.93466   2.50922   2.52062
 Alpha virt. eigenvalues --    2.54918   2.64579   2.82115   2.83205   2.84636
 Alpha virt. eigenvalues --    2.85394   2.86804   2.87606   2.91171   2.91635
 Alpha virt. eigenvalues --    3.26138   3.27334   3.31943   3.33594   3.36997
 Alpha virt. eigenvalues --    3.40250   3.44853   3.46273   3.57907   3.74076
 Alpha virt. eigenvalues --    3.76840   3.83359   3.84785   3.86921   3.95603
 Alpha virt. eigenvalues --    3.98355   4.06693   4.09447   4.10849   4.16019
 Alpha virt. eigenvalues --    4.43181   4.48256   4.50090   4.75547   4.96300
 Alpha virt. eigenvalues --    5.04011   5.06750   5.08243   5.14168   5.17026
 Alpha virt. eigenvalues --    5.18894   5.28670   5.33075   5.44218   5.47922
 Alpha virt. eigenvalues --    5.50437  23.74953
          Condensed to atoms (all electrons):
               1          2          3          4          5
     1  C    4.903395   0.399123   0.393874   0.401223   0.396558
     2  H    0.399123   0.539851  -0.021978  -0.020794  -0.024200
     3  H    0.393874  -0.021978   0.551978  -0.019952  -0.018291
     4  H    0.401223  -0.020794  -0.019952   0.534395  -0.023744
     5  H    0.396558  -0.024200  -0.018291  -0.023744   0.546748
 Mulliken charges:
               1
     1  C   -0.494172
     2  H    0.127999
     3  H    0.114370
     4  H    0.128873
     5  H    0.122931
 Sum of Mulliken charges =  -0.00000
 Mulliken charges with hydrogens summed into heavy atoms:
               1
     1  C   -0.000000
 Electronic spatial extent (au):  <R**2>=             36.4448
 Charge=             -0.0000 electrons
 Dipole moment (field-independent basis, Debye):
    X=              0.0603    Y=             -0.0143    Z=             -0.0258  Tot=              0.0672
 Quadrupole moment (field-independent basis, Debye-Ang):
   XX=             -8.2860   YY=             -8.5221   ZZ=             -8.7033
   XY=              0.0126   XZ=              0.0067   YZ=              0.0011
 Traceless Quadrupole moment (field-independent basis, Debye-Ang):
   XX=              0.2178   YY=             -0.0183   ZZ=             -0.1995
   XY=              0.0126   XZ=              0.0067   YZ=              0.0011
 Octapole moment (field-independent basis, Debye-Ang**2):
  XXX=             -0.6796  YYY=              0.3537  ZZZ=             -0.0146  XYY=              0.4642
  XXY=             -0.0070  XXZ=              0.3944  XZZ=              0.4800  YZZ=             -0.3657
  YYZ=             -0.5170  XYZ=             -0.1178
 Hexadecapole moment (field-independent basis, Debye-Ang**3):
 XXXX=            -17.0503 YYYY=            -16.4306 ZZZZ=            -16.8234 XXXY=             -0.0344
 XXXZ=             -0.1583 YYYX=              0.3128 YYYZ=             -0.0103 ZZZX=              0.3644
 ZZZY=              0.1460 XXYY=             -5.9942 XXZZ=             -5.7155 YYZZ=             -5.3748
 XXYZ=             -0.1356 YYXZ=             -0.1794 ZZXY=             -0.2101
 N-N= 1.324893512487D+01 E-N=-1.196249949239D+02  KE= 4.015587201466D+01
 1\1\GINC-NODE85\SP\RM062X\def2TZVPP\C1H4\YANZ\22-Sep-2023\0\\# M062X/d
 ef2TZVPP\\tmpdir/M2_conf_0_13.gjf\\0,1\C,0,0.,0.,0.\H,0,1.0887,0.,0.\H
 ,0,-0.3829,0.,-1.08067\H,0,-0.36113,0.85519,0.56282\H,0,-0.28606,-0.89
 892,0.57179\\Version=ES64L-G16RevA.03\State=1-A\HF=-40.4985239\RMSD=1.
 290e-09\Dipole=0.0154562,-0.0000712,0.0214344\Quadrupole=-0.0768896,-0
 .0796798,0.1565693,-0.070041,0.0254869,-0.0193228\PG=C01 [X(C1H4)]\\@


    THE DOUGHNUT CREED
 AS YOU RAMBLE ON THROUGH LIFE, BROTHER
 WHATEVER BE YOUR GOAL
 KEEP YOUR EYE UPON THE DOUGHNUT
 AND NOT UPON THE HOLE.
 Job cpu time:       0 days  0 hours  0 minutes 23.3 seconds.
 Elapsed time:       0 days  0 hours  0 minutes  4.1 seconds.
 File lengths (MBytes):  RWF=      6 Int=      0 D2E=      0 Chk=      2 Scr=      1
 Normal termination of Gaussian 16 at Fri Sep 22 16:49:18 2023.
