 Entering Gaussian System, Link 0=g16
 Initial command:
 /share/apps/gaussian/g16/l1.exe "/tmp/55604.mgr/Gau-82886.inp" -scrdir="/tmp/55604.mgr/"
 Entering Link 1 = /share/apps/gaussian/g16/l1.exe PID=     82891.
  
 Copyright (c) 1988,1990,1992,1993,1995,1998,2003,2009,2016,
            Gaussian, Inc.  All Rights Reserved.
  
 This is part of the Gaussian(R) 16 program.  It is based on
 the Gaussian(R) 09 system (copyright 2009, Gaussian, Inc.),
 the Gaussian(R) 03 system (copyright 2003, Gaussian, Inc.),
 the Gaussian(R) 98 system (copyright 1998, Gaussian, Inc.),
 the Gaussian(R) 94 system (copyright 1995, Gaussian, Inc.),
 the Gaussian 92(TM) system (copyright 1992, Gaussian, Inc.),
 the Gaussian 90(TM) system (copyright 1990, Gaussian, Inc.),
 the Gaussian 88(TM) system (copyright 1988, Gaussian, Inc.),
 the Gaussian 86(TM) system (copyright 1986, Carnegie Mellon
 University), and the Gaussian 82(TM) system (copyright 1983,
 Carnegie Mellon University). Gaussian is a federally registered
 trademark of Gaussian, Inc.
  
 This software contains proprietary and confidential information,
 including trade secrets, belonging to Gaussian, Inc.
  
 This software is provided under written license and may be
 used, copied, transmitted, or stored only in accord with that
 written license.
  
 The following legend is applicable only to US Government
 contracts under FAR:
  
                    RESTRICTED RIGHTS LEGEND
  
 Use, reproduction and disclosure by the US Government is
 subject to restrictions as set forth in subparagraphs (a)
 and (c) of the Commercial Computer Software - Restricted
 Rights clause in FAR 52.227-19.
  
 Gaussian, Inc.
 340 Quinnipiac St., Bldg. 40, Wallingford CT 06492
  
  
 ---------------------------------------------------------------
 Warning -- This program may not be used in any manner that
 competes with the business of Gaussian, Inc. or will provide
 assistance to any competitor of Gaussian, Inc.  The licensee
 of this program is prohibited from giving any competitor of
 Gaussian, Inc. access to this program.  By using this program,
 the user acknowledges that Gaussian, Inc. is engaged in the
 business of creating and licensing software in the field of
 computational chemistry and represents and warrants to the
 licensee that it is not a competitor of Gaussian, Inc. and that
 it will not use this program in any manner prohibited above.
 ---------------------------------------------------------------
  

 Cite this work as:
 Gaussian 16, Revision A.03,
 M. J. Frisch, G. W. Trucks, H. B. Schlegel, G. E. Scuseria, 
 M. A. Robb, J. R. Cheeseman, G. Scalmani, V. Barone, 
 G. A. Petersson, H. Nakatsuji, X. Li, M. Caricato, A. V. Marenich, 
 J. Bloino, B. G. Janesko, R. Gomperts, B. Mennucci, H. P. Hratchian, 
 J. V. Ortiz, A. F. Izmaylov, J. L. Sonnenberg, D. Williams-Young, 
 F. Ding, F. Lipparini, F. Egidi, J. Goings, B. Peng, A. Petrone, 
 T. Henderson, D. Ranasinghe, V. G. Zakrzewski, J. Gao, N. Rega, 
 G. Zheng, W. Liang, M. Hada, M. Ehara, K. Toyota, R. Fukuda, 
 J. Hasegawa, M. Ishida, T. Nakajima, Y. Honda, O. Kitao, H. Nakai, 
 T. Vreven, K. Throssell, J. A. Montgomery, Jr., J. E. Peralta, 
 F. Ogliaro, M. J. Bearpark, J. J. Heyd, E. N. Brothers, K. N. Kudin, 
 V. N. Staroverov, T. A. Keith, R. Kobayashi, J. Normand, 
 K. Raghavachari, A. P. Rendell, J. C. Burant, S. S. Iyengar, 
 J. Tomasi, M. Cossi, J. M. Millam, M. Klene, C. Adamo, R. Cammi, 
 J. W. Ochterski, R. L. Martin, K. Morokuma, O. Farkas, 
 J. B. Foresman, and D. J. Fox, Gaussian, Inc., Wallingford CT, 2016.
 
 ******************************************
 Gaussian 16:  ES64L-G16RevA.03 25-Dec-2016
                22-Sep-2023 
 ******************************************
 %nprocshared=6
 Will use up to    6 processors via shared memory.
 %mem=6GB
 -----------------
 # M062X/def2TZVPP
 -----------------
 1/38=1,172=1/1;
 2/12=2,17=6,18=5,40=1/2;
 3/5=44,7=202,11=2,25=1,30=1,74=-55/1,2,3;
 4//1;
 5/5=2,38=5/2;
 6/7=2,8=2,9=2,10=2,28=1/1;
 99/5=1,9=1/99;
 ----------------------
 tmpdir/M2_conf_0_6.gjf
 ----------------------
 Symbolic Z-matrix:
 Charge =  0 Multiplicity = 1
 B                     0.        0.        0. 
 C                     1.635     0.        0. 
 H                    -0.62303   0.       -0.9474 
 H                    -0.53619   0.03986   0.99252 
 H                     2.06782  -0.24838   1.0322 
 H                     1.95162   0.98255  -0.38882 
 H                     1.99932  -0.72661  -0.73401 
 
                          Input orientation:                          
 ---------------------------------------------------------------------
 Center     Atomic      Atomic             Coordinates (Angstroms)
 Number     Number       Type             X           Y           Z
 ---------------------------------------------------------------------
      1          5           0        0.000000    0.000000    0.000000
      2          6           0        1.635000    0.000000    0.000000
      3          1           0       -0.623030    0.000000   -0.947400
      4          1           0       -0.536190    0.039860    0.992520
      5          1           0        2.067820   -0.248380    1.032200
      6          1           0        1.951620    0.982550   -0.388820
      7          1           0        1.999320   -0.726610   -0.734010
 ---------------------------------------------------------------------
                    Distance matrix (angstroms):
                    1          2          3          4          5
     1  B    0.000000
     2  C    1.635000   0.000000
     3  H    1.133902   2.448727   0.000000
     4  H    1.128798   2.387625   1.942272   0.000000
     5  H    2.324437   1.146500   3.349803   2.620215   0.000000
     6  H    2.219326   1.103102   2.811803   2.997660   1.883611
     7  H    2.250336   1.095199   2.729509   3.161834   1.831091
                    6          7
     6  H    0.000000
     7  H    1.744322   0.000000
 Stoichiometry    CH5B
 Framework group  C1[X(CH5B)]
 Deg. of freedom    15
 Full point group                 C1      NOp   1
 Largest Abelian subgroup         C1      NOp   1
 Largest concise Abelian subgroup C1      NOp   1
                         Standard orientation:                         
 ---------------------------------------------------------------------
 Center     Atomic      Atomic             Coordinates (Angstroms)
 Number     Number       Type             X           Y           Z
 ---------------------------------------------------------------------
      1          5           0        0.916788    0.003830   -0.010405
      2          6           0       -0.718156    0.002236    0.003026
      3          1           0        1.540476   -0.942498   -0.045193
      4          1           0        1.452577    0.995137    0.056113
      5          1           0       -1.153748    1.041284   -0.209342
      6          1           0       -1.026389   -0.417466    0.975485
      7          1           0       -1.087925   -0.709019   -0.743198
 ---------------------------------------------------------------------
 Rotational constants (GHZ):          96.5456302          20.1573703          18.5978318
 Standard basis: def2TZVPP (5D, 7F)
 There are   147 symmetry adapted cartesian basis functions of A   symmetry.
 There are   132 symmetry adapted basis functions of A   symmetry.
   132 basis functions,   187 primitive gaussians,   147 cartesian basis functions
     8 alpha electrons        8 beta electrons
       nuclear repulsion energy        31.2981647485 Hartrees.
 NAtoms=    7 NActive=    7 NUniq=    7 SFac= 1.00D+00 NAtFMM=   60 NAOKFM=F Big=F
 Integral buffers will be    131072 words long.
 Raffenetti 2 integral format.
 Two-electron integral symmetry is turned on.
 One-electron integrals computed using PRISM.
   1 Symmetry operations used in ECPInt.
 ECPInt:  NShTT=    1378 NPrTT=    3299 LenC2=    1378 LenP2D=    3089.
 LDataN:  DoStor=T MaxTD1= 6 Len=  172
 NBasis=   132 RedAO= T EigKep=  5.14D-04  NBF=   132
 NBsUse=   132 1.00D-06 EigRej= -1.00D+00 NBFU=   132
 ExpMin= 6.06D-02 ExpMax= 1.36D+04 ExpMxC= 4.63D+02 IAcc=3 IRadAn=         5 AccDes= 0.00D+00
 Harris functional with IExCor= 1009 and IRadAn=       5 diagonalized for initial guess.
 HarFok:  IExCor= 1009 AccDes= 0.00D+00 IRadAn=         5 IDoV= 1 UseB2=F ITyADJ=14
 ICtDFT=  3500011 ScaDFX=  1.000000  1.000000  1.000000  1.000000
 FoFCou: FMM=F IPFlag=           0 FMFlag=      100000 FMFlg1=           0
         NFxFlg=           0 DoJE=T BraDBF=F KetDBF=T FulRan=T
         wScrn=  0.000000 ICntrl=       500 IOpCl=  0 I1Cent=   200000004 NGrid=           0
         NMat0=    1 NMatS0=      1 NMatT0=    0 NMatD0=    1 NMtDS0=    0 NMtDT0=    0
 Petite list used in FoFCou.
 Keep R1 ints in memory in canonical form, NReq=44362774.
 Requested convergence on RMS density matrix=1.00D-08 within 128 cycles.
 Requested convergence on MAX density matrix=1.00D-06.
 Requested convergence on             energy=1.00D-06.
 No special actions if energy rises.
 Integral accuracy reduced to 1.0D-05 until final iterations.
 Initial convergence to 1.0D-05 achieved.  Increase integral accuracy.
 SCF Done:  E(RM062X) =  -65.9145307652     A.U. after   11 cycles
            NFock= 11  Conv=0.59D-08     -V/T= 2.0067

 **********************************************************************

            Population analysis using the SCF density.

 **********************************************************************

 Orbital symmetries:
       Occupied  (A) (A) (A) (A) (A) (A) (A) (A)
       Virtual   (A) (A) (A) (A) (A) (A) (A) (A) (A) (A) (A) (A)
                 (A) (A) (A) (A) (A) (A) (A) (A) (A) (A) (A) (A)
                 (A) (A) (A) (A) (A) (A) (A) (A) (A) (A) (A) (A)
                 (A) (A) (A) (A) (A) (A) (A) (A) (A) (A) (A) (A)
                 (A) (A) (A) (A) (A) (A) (A) (A) (A) (A) (A) (A)
                 (A) (A) (A) (A) (A) (A) (A) (A) (A) (A) (A) (A)
                 (A) (A) (A) (A) (A) (A) (A) (A) (A) (A) (A) (A)
                 (A) (A) (A) (A) (A) (A) (A) (A) (A) (A) (A) (A)
                 (A) (A) (A) (A) (A) (A) (A) (A) (A) (A) (A) (A)
                 (A) (A) (A) (A) (A) (A) (A) (A) (A) (A) (A) (A)
                 (A) (A) (A) (A)
 The electronic state is 1-A.
 Alpha  occ. eigenvalues --  -10.51884  -7.04096  -0.77767  -0.56634  -0.47548
 Alpha  occ. eigenvalues --   -0.45836  -0.39252  -0.37943
 Alpha virt. eigenvalues --   -0.01628   0.06131   0.09602   0.10703   0.13246
 Alpha virt. eigenvalues --    0.15769   0.17951   0.19752   0.22037   0.22813
 Alpha virt. eigenvalues --    0.23668   0.26779   0.31138   0.35611   0.43116
 Alpha virt. eigenvalues --    0.44303   0.45703   0.46429   0.47230   0.52095
 Alpha virt. eigenvalues --    0.52476   0.59842   0.67132   0.68756   0.71337
 Alpha virt. eigenvalues --    0.76281   0.80780   0.82513   0.83383   0.89423
 Alpha virt. eigenvalues --    0.89971   0.96432   0.98372   1.00726   1.01201
 Alpha virt. eigenvalues --    1.01936   1.13379   1.16767   1.22109   1.25577
 Alpha virt. eigenvalues --    1.28365   1.31601   1.34316   1.37953   1.45825
 Alpha virt. eigenvalues --    1.46729   1.50558   1.54317   1.56892   1.58436
 Alpha virt. eigenvalues --    1.75266   1.82952   1.86172   1.92320   1.95559
 Alpha virt. eigenvalues --    1.99281   2.04738   2.07992   2.13667   2.24047
 Alpha virt. eigenvalues --    2.25144   2.28466   2.39101   2.40058   2.45155
 Alpha virt. eigenvalues --    2.56975   2.58969   2.67908   2.83489   2.90705
 Alpha virt. eigenvalues --    2.95658   2.97343   3.04420   3.07464   3.10986
 Alpha virt. eigenvalues --    3.15688   3.25685   3.28544   3.28886   3.36187
 Alpha virt. eigenvalues --    3.38044   3.43178   3.45470   3.49663   3.59382
 Alpha virt. eigenvalues --    3.60965   3.63698   3.70767   3.71613   3.78123
 Alpha virt. eigenvalues --    3.84396   3.86967   3.88984   3.94838   3.95046
 Alpha virt. eigenvalues --    3.97356   4.00970   4.05545   4.09462   4.11062
 Alpha virt. eigenvalues --    4.14651   4.18063   4.26058   4.39080   4.41050
 Alpha virt. eigenvalues --    4.48067   4.57832   4.60964   4.62068   4.80940
 Alpha virt. eigenvalues --    4.84051   4.93457   4.98397   5.02380   5.08487
 Alpha virt. eigenvalues --    5.12481   5.15284   5.17891   5.23116   5.38017
 Alpha virt. eigenvalues --    5.45037   5.49444  15.46854  23.40018
          Condensed to atoms (all electrons):
               1          2          3          4          5          6
     1  B    3.916909   0.364760   0.431503   0.434483  -0.037531  -0.021284
     2  C    0.364760   4.911732  -0.027211  -0.033897   0.406144   0.377251
     3  H    0.431503  -0.027211   0.563853  -0.018715   0.002950   0.000840
     4  H    0.434483  -0.033897  -0.018715   0.564498  -0.005302   0.003122
     5  H   -0.037531   0.406144   0.002950  -0.005302   0.567604  -0.017127
     6  H   -0.021284   0.377251   0.000840   0.003122  -0.017127   0.554650
     7  H   -0.032407   0.393332  -0.001918   0.003813  -0.025474  -0.014395
               7
     1  B   -0.032407
     2  C    0.393332
     3  H   -0.001918
     4  H    0.003813
     5  H   -0.025474
     6  H   -0.014395
     7  H    0.554883
 Mulliken charges:
               1
     1  B   -0.056433
     2  C   -0.392110
     3  H    0.048698
     4  H    0.051999
     5  H    0.108736
     6  H    0.116942
     7  H    0.122166
 Sum of Mulliken charges =  -0.00000
 Mulliken charges with hydrogens summed into heavy atoms:
               1
     1  B    0.044265
     2  C   -0.044265
 Electronic spatial extent (au):  <R**2>=            107.3045
 Charge=             -0.0000 electrons
 Dipole moment (field-independent basis, Debye):
    X=             -0.2534    Y=             -0.1224    Z=              0.0035  Tot=              0.2815
 Quadrupole moment (field-independent basis, Debye-Ang):
   XX=            -16.4173   YY=            -15.5115   ZZ=            -13.7333
   XY=              0.0236   XZ=             -0.0529   YZ=             -0.2351
 Traceless Quadrupole moment (field-independent basis, Debye-Ang):
   XX=             -1.1966   YY=             -0.2908   ZZ=              1.4874
   XY=              0.0236   XZ=             -0.0529   YZ=             -0.2351
 Octapole moment (field-independent basis, Debye-Ang**2):
  XXX=             -5.1688  YYY=              0.3338  ZZZ=              0.3670  XYY=             -2.9141
  XXY=             -0.2207  XXZ=             -0.1388  XZZ=             -0.6865  YZZ=             -0.6372
  YYZ=             -0.3172  XYZ=              0.0392
 Hexadecapole moment (field-independent basis, Debye-Ang**3):
 XXXX=           -114.3803 YYYY=            -37.4158 ZZZZ=            -21.9838 XXXY=             -0.2084
 XXXZ=              0.0702 YYYX=             -0.6273 YYYZ=             -0.2310 ZZZX=             -0.5673
 ZZZY=             -0.3807 XXYY=            -24.4681 XXZZ=            -20.2733 YYZZ=            -10.0219
 XXYZ=             -0.3027 YYXZ=              0.4574 ZZXY=              0.8151
 N-N= 3.129816474854D+01 E-N=-2.142299888694D+02  KE= 6.547492377319D+01
 1\1\GINC-NODE85\SP\RM062X\def2TZVPP\C1H5B1\YANZ\22-Sep-2023\0\\# M062X
 /def2TZVPP\\tmpdir/M2_conf_0_6.gjf\\0,1\B,0,0.,0.,0.\C,0,1.635,0.,0.\H
 ,0,-0.62303,0.,-0.9474\H,0,-0.53619,0.03986,0.99252\H,0,2.06782,-0.248
 38,1.0322\H,0,1.95162,0.98255,-0.38882\H,0,1.99932,-0.72661,-0.73401\\
 Version=ES64L-G16RevA.03\State=1-A\HF=-65.9145308\RMSD=5.904e-09\Dipol
 e=0.0997637,0.0020708,-0.0480126\Quadrupole=-0.8888559,1.114722,-0.225
 8662,0.0564617,-0.0178537,-0.1328606\PG=C01 [X(C1H5B1)]\\@


 10 WHATSOEVER THY HAND FINDETH TO DO, DO IT WITH THY  
 MIGHT. FOR THERE IS NO WORK, NOR DEVICE, NOR KNOWLEDGE, NOR  
 WISDOM, IN THE GRAVE, WHITHER THOU GOEST.                    
 11 I RETURNED AND SAW UNDER THE SUN, THAT THE RACE IS NOT TO 
 THE SWIFT, NOR THE BATTLE TO THE STRONG, NEITHER YET BREAD TO
 THE WISE, NOR YET RICHES TO MEN OF UNDERSTANDING, NOR YET    
 FAVOR TO MEN OF SKILL. BUT TIME AND CHANCE HAPPEN TO THEM ALL.
 12 FOR MAN ALSO KNOWETH NOT HIS TIME. AS THE FISHES   
 THAT ARE TAKEN IN AN EVIL NET, AND AS THE BIRDS THAT ARE     
 CAUGHT IN THE SNARE. SO ARE THE SONS OF MEN SNARED IN AN EVIL
 TIME, WHEN IT FALLETH SUDDENLY UPON THEM.
                                         ECCLESIASTES 9
 Job cpu time:       0 days  0 hours  0 minutes 49.4 seconds.
 Elapsed time:       0 days  0 hours  0 minutes  8.9 seconds.
 File lengths (MBytes):  RWF=     10 Int=      0 D2E=      0 Chk=      2 Scr=      1
 Normal termination of Gaussian 16 at Fri Sep 22 16:49:00 2023.
