 Entering Gaussian System, Link 0=g16
 Initial command:
 /share/apps/gaussian/g16/l1.exe "/tmp/55604.mgr/Gau-83496.inp" -scrdir="/tmp/55604.mgr/"
 Entering Link 1 = /share/apps/gaussian/g16/l1.exe PID=     83497.
  
 Copyright (c) 1988,1990,1992,1993,1995,1998,2003,2009,2016,
            Gaussian, Inc.  All Rights Reserved.
  
 This is part of the Gaussian(R) 16 program.  It is based on
 the Gaussian(R) 09 system (copyright 2009, Gaussian, Inc.),
 the Gaussian(R) 03 system (copyright 2003, Gaussian, Inc.),
 the Gaussian(R) 98 system (copyright 1998, Gaussian, Inc.),
 the Gaussian(R) 94 system (copyright 1995, Gaussian, Inc.),
 the Gaussian 92(TM) system (copyright 1992, Gaussian, Inc.),
 the Gaussian 90(TM) system (copyright 1990, Gaussian, Inc.),
 the Gaussian 88(TM) system (copyright 1988, Gaussian, Inc.),
 the Gaussian 86(TM) system (copyright 1986, Carnegie Mellon
 University), and the Gaussian 82(TM) system (copyright 1983,
 Carnegie Mellon University). Gaussian is a federally registered
 trademark of Gaussian, Inc.
  
 This software contains proprietary and confidential information,
 including trade secrets, belonging to Gaussian, Inc.
  
 This software is provided under written license and may be
 used, copied, transmitted, or stored only in accord with that
 written license.
  
 The following legend is applicable only to US Government
 contracts under FAR:
  
                    RESTRICTED RIGHTS LEGEND
  
 Use, reproduction and disclosure by the US Government is
 subject to restrictions as set forth in subparagraphs (a)
 and (c) of the Commercial Computer Software - Restricted
 Rights clause in FAR 52.227-19.
  
 Gaussian, Inc.
 340 Quinnipiac St., Bldg. 40, Wallingford CT 06492
  
  
 ---------------------------------------------------------------
 Warning -- This program may not be used in any manner that
 competes with the business of Gaussian, Inc. or will provide
 assistance to any competitor of Gaussian, Inc.  The licensee
 of this program is prohibited from giving any competitor of
 Gaussian, Inc. access to this program.  By using this program,
 the user acknowledges that Gaussian, Inc. is engaged in the
 business of creating and licensing software in the field of
 computational chemistry and represents and warrants to the
 licensee that it is not a competitor of Gaussian, Inc. and that
 it will not use this program in any manner prohibited above.
 ---------------------------------------------------------------
  

 Cite this work as:
 Gaussian 16, Revision A.03,
 M. J. Frisch, G. W. Trucks, H. B. Schlegel, G. E. Scuseria, 
 M. A. Robb, J. R. Cheeseman, G. Scalmani, V. Barone, 
 G. A. Petersson, H. Nakatsuji, X. Li, M. Caricato, A. V. Marenich, 
 J. Bloino, B. G. Janesko, R. Gomperts, B. Mennucci, H. P. Hratchian, 
 J. V. Ortiz, A. F. Izmaylov, J. L. Sonnenberg, D. Williams-Young, 
 F. Ding, F. Lipparini, F. Egidi, J. Goings, B. Peng, A. Petrone, 
 T. Henderson, D. Ranasinghe, V. G. Zakrzewski, J. Gao, N. Rega, 
 G. Zheng, W. Liang, M. Hada, M. Ehara, K. Toyota, R. Fukuda, 
 J. Hasegawa, M. Ishida, T. Nakajima, Y. Honda, O. Kitao, H. Nakai, 
 T. Vreven, K. Throssell, J. A. Montgomery, Jr., J. E. Peralta, 
 F. Ogliaro, M. J. Bearpark, J. J. Heyd, E. N. Brothers, K. N. Kudin, 
 V. N. Staroverov, T. A. Keith, R. Kobayashi, J. Normand, 
 K. Raghavachari, A. P. Rendell, J. C. Burant, S. S. Iyengar, 
 J. Tomasi, M. Cossi, J. M. Millam, M. Klene, C. Adamo, R. Cammi, 
 J. W. Ochterski, R. L. Martin, K. Morokuma, O. Farkas, 
 J. B. Foresman, and D. J. Fox, Gaussian, Inc., Wallingford CT, 2016.
 
 ******************************************
 Gaussian 16:  ES64L-G16RevA.03 25-Dec-2016
                22-Sep-2023 
 ******************************************
 %nprocshared=6
 Will use up to    6 processors via shared memory.
 %mem=6GB
 -----------------
 # M062X/def2TZVPP
 -----------------
 1/38=1,172=1/1;
 2/12=2,17=6,18=5,40=1/2;
 3/5=44,7=202,11=2,25=1,30=1,74=-55/1,2,3;
 4//1;
 5/5=2,38=5/2;
 6/7=2,8=2,9=2,10=2,28=1/1;
 99/5=1,9=1/99;
 -----------------------
 tmpdir/M2_conf_0_15.gjf
 -----------------------
 Symbolic Z-matrix:
 Charge =  0 Multiplicity = 1
 N                     0.        0.        0. 
 C                     1.4587    0.        0. 
 H                     1.85653   0.        1.02886 
 H                    -0.35601   0.9436    0.06929 
 H                    -0.38004  -0.53936   0.7643 
 H                     1.86853   0.86023  -0.52016 
 H                     1.82447  -0.91874  -0.47075 
 
                          Input orientation:                          
 ---------------------------------------------------------------------
 Center     Atomic      Atomic             Coordinates (Angstroms)
 Number     Number       Type             X           Y           Z
 ---------------------------------------------------------------------
      1          7           0        0.000000    0.000000    0.000000
      2          6           0        1.458700    0.000000    0.000000
      3          1           0        1.856530    0.000000    1.028860
      4          1           0       -0.356010    0.943600    0.069290
      5          1           0       -0.380040   -0.539360    0.764300
      6          1           0        1.868530    0.860230   -0.520160
      7          1           0        1.824470   -0.918740   -0.470750
 ---------------------------------------------------------------------
                    Distance matrix (angstroms):
                    1          2          3          4          5
     1  N    0.000000
     2  C    1.458700   0.000000
     3  H    2.122559   1.103096   0.000000
     4  H    1.010903   2.046547   2.589689   0.000000
     5  H    1.009700   2.063014   2.315847   1.637921   0.000000
     6  H    2.121784   1.085598   1.771892   2.302820   2.943596
     7  H    2.096278   1.095206   1.758960   2.917952   2.555219
                    6          7
     6  H    0.000000
     7  H    1.780201   0.000000
 Stoichiometry    CH5N
 Framework group  C1[X(CH5N)]
 Deg. of freedom    15
 Full point group                 C1      NOp   1
 Largest Abelian subgroup         C1      NOp   1
 Largest concise Abelian subgroup C1      NOp   1
                         Standard orientation:                         
 ---------------------------------------------------------------------
 Center     Atomic      Atomic             Coordinates (Angstroms)
 Number     Number       Type             X           Y           Z
 ---------------------------------------------------------------------
      1          7           0       -0.746049   -0.000599   -0.118789
      2          6           0        0.706865    0.005927    0.010848
      3          1           0        1.021953   -0.422036    0.977485
      4          1           0       -1.144961    0.826201    0.304526
      5          1           0       -1.162669   -0.811591    0.315049
      6          1           0        1.120686    1.006613   -0.065978
      7          1           0        1.146145   -0.630557   -0.764650
 ---------------------------------------------------------------------
 Rotational constants (GHZ):         103.9521191          22.9555931          21.9149205
 Standard basis: def2TZVPP (5D, 7F)
 There are   147 symmetry adapted cartesian basis functions of A   symmetry.
 There are   132 symmetry adapted basis functions of A   symmetry.
   132 basis functions,   187 primitive gaussians,   147 cartesian basis functions
     9 alpha electrons        9 beta electrons
       nuclear repulsion energy        42.0707088530 Hartrees.
 NAtoms=    7 NActive=    7 NUniq=    7 SFac= 1.00D+00 NAtFMM=   60 NAOKFM=F Big=F
 Integral buffers will be    131072 words long.
 Raffenetti 2 integral format.
 Two-electron integral symmetry is turned on.
 One-electron integrals computed using PRISM.
   1 Symmetry operations used in ECPInt.
 ECPInt:  NShTT=    1378 NPrTT=    3299 LenC2=    1378 LenP2D=    3098.
 LDataN:  DoStor=T MaxTD1= 6 Len=  172
 NBasis=   132 RedAO= T EigKep=  5.45D-04  NBF=   132
 NBsUse=   132 1.00D-06 EigRej= -1.00D+00 NBFU=   132
 ExpMin= 9.52D-02 ExpMax= 1.97D+04 ExpMxC= 6.73D+02 IAcc=3 IRadAn=         5 AccDes= 0.00D+00
 Harris functional with IExCor= 1009 and IRadAn=       5 diagonalized for initial guess.
 HarFok:  IExCor= 1009 AccDes= 0.00D+00 IRadAn=         5 IDoV= 1 UseB2=F ITyADJ=14
 ICtDFT=  3500011 ScaDFX=  1.000000  1.000000  1.000000  1.000000
 FoFCou: FMM=F IPFlag=           0 FMFlag=      100000 FMFlg1=           0
         NFxFlg=           0 DoJE=T BraDBF=F KetDBF=T FulRan=T
         wScrn=  0.000000 ICntrl=       500 IOpCl=  0 I1Cent=   200000004 NGrid=           0
         NMat0=    1 NMatS0=      1 NMatT0=    0 NMatD0=    1 NMtDS0=    0 NMtDT0=    0
 Petite list used in FoFCou.
 Keep R1 ints in memory in canonical form, NReq=44362774.
 Requested convergence on RMS density matrix=1.00D-08 within 128 cycles.
 Requested convergence on MAX density matrix=1.00D-06.
 Requested convergence on             energy=1.00D-06.
 No special actions if energy rises.
 Integral accuracy reduced to 1.0D-05 until final iterations.
 Initial convergence to 1.0D-05 achieved.  Increase integral accuracy.
 SCF Done:  E(RM062X) =  -95.8434030714     A.U. after   11 cycles
            NFock= 11  Conv=0.83D-08     -V/T= 2.0052

 **********************************************************************

            Population analysis using the SCF density.

 **********************************************************************

 Orbital symmetries:
       Occupied  (A) (A) (A) (A) (A) (A) (A) (A) (A)
       Virtual   (A) (A) (A) (A) (A) (A) (A) (A) (A) (A) (A) (A)
                 (A) (A) (A) (A) (A) (A) (A) (A) (A) (A) (A) (A)
                 (A) (A) (A) (A) (A) (A) (A) (A) (A) (A) (A) (A)
                 (A) (A) (A) (A) (A) (A) (A) (A) (A) (A) (A) (A)
                 (A) (A) (A) (A) (A) (A) (A) (A) (A) (A) (A) (A)
                 (A) (A) (A) (A) (A) (A) (A) (A) (A) (A) (A) (A)
                 (A) (A) (A) (A) (A) (A) (A) (A) (A) (A) (A) (A)
                 (A) (A) (A) (A) (A) (A) (A) (A) (A) (A) (A) (A)
                 (A) (A) (A) (A) (A) (A) (A) (A) (A) (A) (A) (A)
                 (A) (A) (A) (A) (A) (A) (A) (A) (A) (A) (A) (A)
                 (A) (A) (A)
 The electronic state is 1-A.
 Alpha  occ. eigenvalues --  -14.71998 -10.55006  -0.97781  -0.74658  -0.56462
 Alpha  occ. eigenvalues --   -0.50353  -0.46902  -0.43417  -0.29966
 Alpha virt. eigenvalues --    0.06392   0.11087   0.12099   0.16022   0.17078
 Alpha virt. eigenvalues --    0.19685   0.25647   0.26914   0.32286   0.39256
 Alpha virt. eigenvalues --    0.40581   0.41815   0.45397   0.49109   0.50507
 Alpha virt. eigenvalues --    0.51892   0.55188   0.55818   0.60082   0.61517
 Alpha virt. eigenvalues --    0.63944   0.85929   0.88054   0.91146   0.97360
 Alpha virt. eigenvalues --    0.99707   1.01684   1.02772   1.05195   1.13273
 Alpha virt. eigenvalues --    1.13592   1.20155   1.24785   1.26626   1.34020
 Alpha virt. eigenvalues --    1.36622   1.38484   1.47620   1.48456   1.53638
 Alpha virt. eigenvalues --    1.55978   1.62971   1.64390   1.68126   1.70714
 Alpha virt. eigenvalues --    1.92433   2.02905   2.05569   2.20227   2.38840
 Alpha virt. eigenvalues --    2.43337   2.55093   2.57429   2.61665   2.62568
 Alpha virt. eigenvalues --    2.76701   2.84647   2.85045   2.89895   2.92318
 Alpha virt. eigenvalues --    2.93185   2.96097   3.01497   3.07868   3.13479
 Alpha virt. eigenvalues --    3.25872   3.27888   3.31354   3.33461   3.36827
 Alpha virt. eigenvalues --    3.41111   3.43262   3.44166   3.47469   3.52312
 Alpha virt. eigenvalues --    3.58506   3.61925   3.68878   3.72968   3.76588
 Alpha virt. eigenvalues --    3.84657   3.85493   3.89624   3.91703   3.96346
 Alpha virt. eigenvalues --    3.97057   3.99238   4.07727   4.13667   4.16385
 Alpha virt. eigenvalues --    4.19814   4.20722   4.27069   4.36083   4.42266
 Alpha virt. eigenvalues --    4.51963   4.54548   4.59008   4.75743   4.77847
 Alpha virt. eigenvalues --    4.80432   4.91388   4.97970   5.01511   5.09398
 Alpha virt. eigenvalues --    5.16772   5.17853   5.21450   5.29566   5.30832
 Alpha virt. eigenvalues --    5.33945   5.49840   5.53289   5.59839   5.66716
 Alpha virt. eigenvalues --    5.74559   5.83148   5.92928   6.09305   6.35300
 Alpha virt. eigenvalues --    6.42925  23.57878  32.71722
          Condensed to atoms (all electrons):
               1          2          3          4          5          6
     1  N    6.461367   0.264747  -0.059599   0.391894   0.393524  -0.026871
     2  C    0.264747   4.814166   0.439320  -0.048740  -0.047328   0.410724
     3  H   -0.059599   0.439320   0.613551  -0.001233  -0.013083  -0.028961
     4  H    0.391894  -0.048740  -0.001233   0.565754  -0.044603  -0.012183
     5  H    0.393524  -0.047328  -0.013083  -0.044603   0.560227   0.007723
     6  H   -0.026871   0.410724  -0.028961  -0.012183   0.007723   0.559508
     7  H   -0.044127   0.404856  -0.050132   0.008875   0.000053  -0.025706
               7
     1  N   -0.044127
     2  C    0.404856
     3  H   -0.050132
     4  H    0.008875
     5  H    0.000053
     6  H   -0.025706
     7  H    0.587129
 Mulliken charges:
               1
     1  N   -0.380935
     2  C   -0.237745
     3  H    0.100138
     4  H    0.140237
     5  H    0.143487
     6  H    0.115765
     7  H    0.119052
 Sum of Mulliken charges =  -0.00000
 Mulliken charges with hydrogens summed into heavy atoms:
               1
     1  N   -0.097211
     2  C    0.097211
 Electronic spatial extent (au):  <R**2>=             95.2837
 Charge=             -0.0000 electrons
 Dipole moment (field-independent basis, Debye):
    X=              0.2058    Y=              0.0475    Z=              1.3053  Tot=              1.3222
 Quadrupole moment (field-independent basis, Debye-Ang):
   XX=            -13.9068   YY=            -12.5345   ZZ=            -15.5621
   XY=              0.1698   XZ=             -1.9350   YZ=              0.0356
 Traceless Quadrupole moment (field-independent basis, Debye-Ang):
   XX=              0.0943   YY=              1.4666   ZZ=             -1.5610
   XY=              0.1698   XZ=             -1.9350   YZ=              0.0356
 Octapole moment (field-independent basis, Debye-Ang**2):
  XXX=             -3.1117  YYY=              0.6496  ZZZ=              1.2689  XYY=             -2.0705
  XXY=              0.1618  XXZ=              2.0431  XZZ=              0.5769  YZZ=             -0.4886
  YYZ=              0.6856  XYZ=              0.1065
 Hexadecapole moment (field-independent basis, Debye-Ang**3):
 XXXX=            -76.2245 YYYY=            -23.9499 ZZZZ=            -25.3121 XXXY=              0.5728
 XXXZ=             -3.8473 YYYX=              0.8791 YYYZ=              0.1130 ZZZX=             -1.8316
 ZZZY=              0.0120 XXYY=            -14.4029 XXZZ=            -18.0164 YYZZ=             -8.2431
 XXYZ=              0.1260 YYXZ=             -1.5315 ZZXY=             -0.4595
 N-N= 4.207070885301D+01 E-N=-3.070202701045D+02  KE= 9.534496925534D+01
 1\1\GINC-NODE85\SP\RM062X\def2TZVPP\C1H5N1\YANZ\22-Sep-2023\0\\# M062X
 /def2TZVPP\\tmpdir/M2_conf_0_15.gjf\\0,1\N,0,0.,0.,0.\C,0,1.4587,0.,0.
 \H,0,1.85653,0.,1.02886\H,0,-0.35601,0.9436,0.06929\H,0,-0.38004,-0.53
 936,0.7643\H,0,1.86853,0.86023,-0.52016\H,0,1.82447,-0.91874,-0.47075\
 \Version=ES64L-G16RevA.03\State=1-A\HF=-95.8434031\RMSD=8.317e-09\Dipo
 le=0.1263697,0.2271233,0.4506266\Quadrupole=-0.1931174,0.7595592,-0.56
 64418,-0.5152467,-1.4412754,-0.7391473\PG=C01 [X(C1H5N1)]\\@


 IF THERE IS ONE WAY BETTER THAN ANOTHER IT IS THE WAY OF NATURE.

                          -- ARISTOTLE
 Job cpu time:       0 days  0 hours  0 minutes 51.5 seconds.
 Elapsed time:       0 days  0 hours  0 minutes  9.3 seconds.
 File lengths (MBytes):  RWF=     10 Int=      0 D2E=      0 Chk=      2 Scr=      1
 Normal termination of Gaussian 16 at Fri Sep 22 16:49:22 2023.
