 Entering Gaussian System, Link 0=g16
 Initial command:
 /share/apps/gaussian/g16/l1.exe "/tmp/55604.mgr/Gau-82888.inp" -scrdir="/tmp/55604.mgr/"
 Entering Link 1 = /share/apps/gaussian/g16/l1.exe PID=     82892.
  
 Copyright (c) 1988,1990,1992,1993,1995,1998,2003,2009,2016,
            Gaussian, Inc.  All Rights Reserved.
  
 This is part of the Gaussian(R) 16 program.  It is based on
 the Gaussian(R) 09 system (copyright 2009, Gaussian, Inc.),
 the Gaussian(R) 03 system (copyright 2003, Gaussian, Inc.),
 the Gaussian(R) 98 system (copyright 1998, Gaussian, Inc.),
 the Gaussian(R) 94 system (copyright 1995, Gaussian, Inc.),
 the Gaussian 92(TM) system (copyright 1992, Gaussian, Inc.),
 the Gaussian 90(TM) system (copyright 1990, Gaussian, Inc.),
 the Gaussian 88(TM) system (copyright 1988, Gaussian, Inc.),
 the Gaussian 86(TM) system (copyright 1986, Carnegie Mellon
 University), and the Gaussian 82(TM) system (copyright 1983,
 Carnegie Mellon University). Gaussian is a federally registered
 trademark of Gaussian, Inc.
  
 This software contains proprietary and confidential information,
 including trade secrets, belonging to Gaussian, Inc.
  
 This software is provided under written license and may be
 used, copied, transmitted, or stored only in accord with that
 written license.
  
 The following legend is applicable only to US Government
 contracts under FAR:
  
                    RESTRICTED RIGHTS LEGEND
  
 Use, reproduction and disclosure by the US Government is
 subject to restrictions as set forth in subparagraphs (a)
 and (c) of the Commercial Computer Software - Restricted
 Rights clause in FAR 52.227-19.
  
 Gaussian, Inc.
 340 Quinnipiac St., Bldg. 40, Wallingford CT 06492
  
  
 ---------------------------------------------------------------
 Warning -- This program may not be used in any manner that
 competes with the business of Gaussian, Inc. or will provide
 assistance to any competitor of Gaussian, Inc.  The licensee
 of this program is prohibited from giving any competitor of
 Gaussian, Inc. access to this program.  By using this program,
 the user acknowledges that Gaussian, Inc. is engaged in the
 business of creating and licensing software in the field of
 computational chemistry and represents and warrants to the
 licensee that it is not a competitor of Gaussian, Inc. and that
 it will not use this program in any manner prohibited above.
 ---------------------------------------------------------------
  

 Cite this work as:
 Gaussian 16, Revision A.03,
 M. J. Frisch, G. W. Trucks, H. B. Schlegel, G. E. Scuseria, 
 M. A. Robb, J. R. Cheeseman, G. Scalmani, V. Barone, 
 G. A. Petersson, H. Nakatsuji, X. Li, M. Caricato, A. V. Marenich, 
 J. Bloino, B. G. Janesko, R. Gomperts, B. Mennucci, H. P. Hratchian, 
 J. V. Ortiz, A. F. Izmaylov, J. L. Sonnenberg, D. Williams-Young, 
 F. Ding, F. Lipparini, F. Egidi, J. Goings, B. Peng, A. Petrone, 
 T. Henderson, D. Ranasinghe, V. G. Zakrzewski, J. Gao, N. Rega, 
 G. Zheng, W. Liang, M. Hada, M. Ehara, K. Toyota, R. Fukuda, 
 J. Hasegawa, M. Ishida, T. Nakajima, Y. Honda, O. Kitao, H. Nakai, 
 T. Vreven, K. Throssell, J. A. Montgomery, Jr., J. E. Peralta, 
 F. Ogliaro, M. J. Bearpark, J. J. Heyd, E. N. Brothers, K. N. Kudin, 
 V. N. Staroverov, T. A. Keith, R. Kobayashi, J. Normand, 
 K. Raghavachari, A. P. Rendell, J. C. Burant, S. S. Iyengar, 
 J. Tomasi, M. Cossi, J. M. Millam, M. Klene, C. Adamo, R. Cammi, 
 J. W. Ochterski, R. L. Martin, K. Morokuma, O. Farkas, 
 J. B. Foresman, and D. J. Fox, Gaussian, Inc., Wallingford CT, 2016.
 
 ******************************************
 Gaussian 16:  ES64L-G16RevA.03 25-Dec-2016
                22-Sep-2023 
 ******************************************
 %nprocshared=6
 Will use up to    6 processors via shared memory.
 %mem=6GB
 -----------------
 # M062X/def2TZVPP
 -----------------
 1/38=1,172=1/1;
 2/12=2,17=6,18=5,40=1/2;
 3/5=44,7=202,11=2,25=1,30=1,74=-55/1,2,3;
 4//1;
 5/5=2,38=5/2;
 6/7=2,8=2,9=2,10=2,28=1/1;
 99/5=1,9=1/99;
 ----------------------
 tmpdir/M2_conf_0_0.gjf
 ----------------------
 Symbolic Z-matrix:
 Charge =  0 Multiplicity = 1
 N                     0.        0.        0. 
 H                     1.0146    0.        0. 
 H                    -0.31721   0.       -0.95858 
 H                    -0.35967   0.79947   0.52396 
 
                          Input orientation:                          
 ---------------------------------------------------------------------
 Center     Atomic      Atomic             Coordinates (Angstroms)
 Number     Number       Type             X           Y           Z
 ---------------------------------------------------------------------
      1          7           0        0.000000    0.000000    0.000000
      2          1           0        1.014600    0.000000    0.000000
      3          1           0       -0.317210    0.000000   -0.958580
      4          1           0       -0.359670    0.799470    0.523960
 ---------------------------------------------------------------------
                    Distance matrix (angstroms):
                    1          2          3          4
     1  N    0.000000
     2  H    1.014600   0.000000
     3  H    1.009702   1.640912   0.000000
     4  H    1.021298   1.674008   1.684898   0.000000
 Stoichiometry    H3N
 Framework group  C1[X(H3N)]
 Deg. of freedom     6
 Full point group                 C1      NOp   1
 Largest Abelian subgroup         C1      NOp   1
 Largest concise Abelian subgroup C1      NOp   1
                         Standard orientation:                         
 ---------------------------------------------------------------------
 Center     Atomic      Atomic             Coordinates (Angstroms)
 Number     Number       Type             X           Y           Z
 ---------------------------------------------------------------------
      1          7           0        0.002612   -0.002762   -0.096987
      2          1           0       -0.390169    0.877141    0.220673
      3          1           0       -0.592395   -0.751249    0.227407
      4          1           0        0.964282   -0.106559    0.230832
 ---------------------------------------------------------------------
 Rotational constants (GHZ):         312.8002636         296.5427503         180.4918128
 Standard basis: def2TZVPP (5D, 7F)
 There are    81 symmetry adapted cartesian basis functions of A   symmetry.
 There are    73 symmetry adapted basis functions of A   symmetry.
    73 basis functions,   102 primitive gaussians,    81 cartesian basis functions
     5 alpha electrons        5 beta electrons
       nuclear repulsion energy        11.8992529848 Hartrees.
 NAtoms=    4 NActive=    4 NUniq=    4 SFac= 1.00D+00 NAtFMM=   60 NAOKFM=F Big=F
 Integral buffers will be    131072 words long.
 Raffenetti 2 integral format.
 Two-electron integral symmetry is turned on.
 One-electron integrals computed using PRISM.
   1 Symmetry operations used in ECPInt.
 ECPInt:  NShTT=     435 NPrTT=    1021 LenC2=     436 LenP2D=    1000.
 LDataN:  DoStor=T MaxTD1= 6 Len=  172
 NBasis=    73 RedAO= T EigKep=  9.14D-04  NBF=    73
 NBsUse=    73 1.00D-06 EigRej= -1.00D+00 NBFU=    73
 ExpMin= 1.03D-01 ExpMax= 1.97D+04 ExpMxC= 6.73D+02 IAcc=3 IRadAn=         5 AccDes= 0.00D+00
 Harris functional with IExCor= 1009 and IRadAn=       5 diagonalized for initial guess.
 HarFok:  IExCor= 1009 AccDes= 0.00D+00 IRadAn=         5 IDoV= 1 UseB2=F ITyADJ=14
 ICtDFT=  3500011 ScaDFX=  1.000000  1.000000  1.000000  1.000000
 FoFCou: FMM=F IPFlag=           0 FMFlag=      100000 FMFlg1=           0
         NFxFlg=           0 DoJE=T BraDBF=F KetDBF=T FulRan=T
         wScrn=  0.000000 ICntrl=       500 IOpCl=  0 I1Cent=   200000004 NGrid=           0
         NMat0=    1 NMatS0=      1 NMatT0=    0 NMatD0=    1 NMtDS0=    0 NMtDT0=    0
 Petite list used in FoFCou.
 Keep R1 ints in memory in canonical form, NReq=9081235.
 Requested convergence on RMS density matrix=1.00D-08 within 128 cycles.
 Requested convergence on MAX density matrix=1.00D-06.
 Requested convergence on             energy=1.00D-06.
 No special actions if energy rises.
 Integral accuracy reduced to 1.0D-05 until final iterations.
 Initial convergence to 1.0D-05 achieved.  Increase integral accuracy.
 SCF Done:  E(RM062X) =  -56.5510944039     A.U. after   12 cycles
            NFock= 12  Conv=0.73D-09     -V/T= 2.0053

 **********************************************************************

            Population analysis using the SCF density.

 **********************************************************************

 Orbital symmetries:
       Occupied  (A) (A) (A) (A) (A)
       Virtual   (A) (A) (A) (A) (A) (A) (A) (A) (A) (A) (A) (A)
                 (A) (A) (A) (A) (A) (A) (A) (A) (A) (A) (A) (A)
                 (A) (A) (A) (A) (A) (A) (A) (A) (A) (A) (A) (A)
                 (A) (A) (A) (A) (A) (A) (A) (A) (A) (A) (A) (A)
                 (A) (A) (A) (A) (A) (A) (A) (A) (A) (A) (A) (A)
                 (A) (A) (A) (A) (A) (A) (A) (A)
 The electronic state is 1-A.
 Alpha  occ. eigenvalues --  -14.71937  -0.94691  -0.53650  -0.52967  -0.32896
 Alpha virt. eigenvalues --    0.05974   0.13936   0.14139   0.34182   0.34770
 Alpha virt. eigenvalues --    0.39184   0.46619   0.50062   0.53085   0.53299
 Alpha virt. eigenvalues --    0.61835   0.63011   0.95749   0.96277   1.03722
 Alpha virt. eigenvalues --    1.04833   1.22857   1.23459   1.24280   1.48141
 Alpha virt. eigenvalues --    1.48803   1.54335   1.59098   1.59459   2.04456
 Alpha virt. eigenvalues --    2.16488   2.17740   2.25261   2.64683   2.86712
 Alpha virt. eigenvalues --    2.87847   3.10039   3.16940   3.18296   3.21924
 Alpha virt. eigenvalues --    3.27265   3.28905   3.36731   3.52711   3.53119
 Alpha virt. eigenvalues --    3.63421   3.65131   3.70231   3.77886   3.88171
 Alpha virt. eigenvalues --    3.88760   4.06772   4.07079   4.17541   4.32594
 Alpha virt. eigenvalues --    4.33634   4.35159   4.55978   4.71880   4.72434
 Alpha virt. eigenvalues --    5.15930   5.18922   5.22428   5.50440   5.64438
 Alpha virt. eigenvalues --    5.65958   5.81712   5.85205   6.05247   6.33194
 Alpha virt. eigenvalues --    6.36657   6.44916  32.62198
          Condensed to atoms (all electrons):
               1          2          3          4
     1  N    6.307476   0.391447   0.394220   0.394368
     2  H    0.391447   0.529398  -0.040794  -0.039063
     3  H    0.394220  -0.040794   0.525179  -0.038615
     4  H    0.394368  -0.039063  -0.038615   0.514821
 Mulliken charges:
               1
     1  N   -0.487511
     2  H    0.159011
     3  H    0.160011
     4  H    0.168488
 Sum of Mulliken charges =  -0.00000
 Mulliken charges with hydrogens summed into heavy atoms:
               1
     1  N   -0.000000
 Electronic spatial extent (au):  <R**2>=             26.7454
 Charge=              0.0000 electrons
 Dipole moment (field-independent basis, Debye):
    X=             -0.0242    Y=              0.0235    Z=              1.4298  Tot=              1.4302
 Quadrupole moment (field-independent basis, Debye-Ang):
   XX=             -6.0086   YY=             -6.1971   ZZ=             -9.3690
   XY=              0.0068   XZ=              0.0022   YZ=             -0.0098
 Traceless Quadrupole moment (field-independent basis, Debye-Ang):
   XX=              1.1830   YY=              0.9945   ZZ=             -2.1775
   XY=              0.0068   XZ=              0.0022   YZ=             -0.0098
 Octapole moment (field-independent basis, Debye-Ang**2):
  XXX=              0.9495  YYY=              0.3867  ZZZ=              1.2826  XYY=             -0.9734
  XXY=             -0.3545  XXZ=              0.8111  XZZ=             -0.0145  YZZ=              0.0036
  YYZ=              0.7644  XYZ=              0.0036
 Hexadecapole moment (field-independent basis, Debye-Ang**3):
 XXXX=             -9.9972 YYYY=            -10.0273 ZZZZ=            -11.3652 XXXY=              0.0338
 XXXZ=              0.3073 YYYX=             -0.0143 YYYZ=              0.1008 ZZZX=             -0.0017
 ZZZY=             -0.0134 XXYY=             -3.3260 XXZZ=             -3.7639 YYZZ=             -3.7436
 XXYZ=             -0.1173 YYXZ=             -0.2998 ZZXY=              0.0064
 N-N= 1.189925298476D+01 E-N=-1.558535583034D+02  KE= 5.625317552316D+01
 1\1\GINC-NODE85\SP\RM062X\def2TZVPP\H3N1\YANZ\22-Sep-2023\0\\# M062X/d
 ef2TZVPP\\tmpdir/M2_conf_0_0.gjf\\0,1\N,0,0.,0.,0.\H,0,1.0146,0.,0.\H,
 0,-0.31721,0.,-0.95858\H,0,-0.35967,0.79947,0.52396\\Version=ES64L-G16
 RevA.03\State=1-A\HF=-56.5510944\RMSD=7.260e-10\Dipole=0.1878294,0.467
 1673,-0.251209\Quadrupole=0.5214563,-0.8844964,0.3630401,-0.6528022,0.
 2903813,0.9311767\PG=C01 [X(H3N1)]\\@


 LOVE IS BLIND, THAT'S WHY ALL THE WORLD LOVES A LOUVER.
 Job cpu time:       0 days  0 hours  0 minutes 19.0 seconds.
 Elapsed time:       0 days  0 hours  0 minutes  3.4 seconds.
 File lengths (MBytes):  RWF=      6 Int=      0 D2E=      0 Chk=      1 Scr=      1
 Normal termination of Gaussian 16 at Fri Sep 22 16:48:55 2023.
