 Entering Gaussian System, Link 0=g16
 Initial command:
 /share/apps/gaussian/g16/l1.exe "/tmp/55604.mgr/Gau-84299.inp" -scrdir="/tmp/55604.mgr/"
 Entering Link 1 = /share/apps/gaussian/g16/l1.exe PID=     84300.
  
 Copyright (c) 1988,1990,1992,1993,1995,1998,2003,2009,2016,
            Gaussian, Inc.  All Rights Reserved.
  
 This is part of the Gaussian(R) 16 program.  It is based on
 the Gaussian(R) 09 system (copyright 2009, Gaussian, Inc.),
 the Gaussian(R) 03 system (copyright 2003, Gaussian, Inc.),
 the Gaussian(R) 98 system (copyright 1998, Gaussian, Inc.),
 the Gaussian(R) 94 system (copyright 1995, Gaussian, Inc.),
 the Gaussian 92(TM) system (copyright 1992, Gaussian, Inc.),
 the Gaussian 90(TM) system (copyright 1990, Gaussian, Inc.),
 the Gaussian 88(TM) system (copyright 1988, Gaussian, Inc.),
 the Gaussian 86(TM) system (copyright 1986, Carnegie Mellon
 University), and the Gaussian 82(TM) system (copyright 1983,
 Carnegie Mellon University). Gaussian is a federally registered
 trademark of Gaussian, Inc.
  
 This software contains proprietary and confidential information,
 including trade secrets, belonging to Gaussian, Inc.
  
 This software is provided under written license and may be
 used, copied, transmitted, or stored only in accord with that
 written license.
  
 The following legend is applicable only to US Government
 contracts under FAR:
  
                    RESTRICTED RIGHTS LEGEND
  
 Use, reproduction and disclosure by the US Government is
 subject to restrictions as set forth in subparagraphs (a)
 and (c) of the Commercial Computer Software - Restricted
 Rights clause in FAR 52.227-19.
  
 Gaussian, Inc.
 340 Quinnipiac St., Bldg. 40, Wallingford CT 06492
  
  
 ---------------------------------------------------------------
 Warning -- This program may not be used in any manner that
 competes with the business of Gaussian, Inc. or will provide
 assistance to any competitor of Gaussian, Inc.  The licensee
 of this program is prohibited from giving any competitor of
 Gaussian, Inc. access to this program.  By using this program,
 the user acknowledges that Gaussian, Inc. is engaged in the
 business of creating and licensing software in the field of
 computational chemistry and represents and warrants to the
 licensee that it is not a competitor of Gaussian, Inc. and that
 it will not use this program in any manner prohibited above.
 ---------------------------------------------------------------
  

 Cite this work as:
 Gaussian 16, Revision A.03,
 M. J. Frisch, G. W. Trucks, H. B. Schlegel, G. E. Scuseria, 
 M. A. Robb, J. R. Cheeseman, G. Scalmani, V. Barone, 
 G. A. Petersson, H. Nakatsuji, X. Li, M. Caricato, A. V. Marenich, 
 J. Bloino, B. G. Janesko, R. Gomperts, B. Mennucci, H. P. Hratchian, 
 J. V. Ortiz, A. F. Izmaylov, J. L. Sonnenberg, D. Williams-Young, 
 F. Ding, F. Lipparini, F. Egidi, J. Goings, B. Peng, A. Petrone, 
 T. Henderson, D. Ranasinghe, V. G. Zakrzewski, J. Gao, N. Rega, 
 G. Zheng, W. Liang, M. Hada, M. Ehara, K. Toyota, R. Fukuda, 
 J. Hasegawa, M. Ishida, T. Nakajima, Y. Honda, O. Kitao, H. Nakai, 
 T. Vreven, K. Throssell, J. A. Montgomery, Jr., J. E. Peralta, 
 F. Ogliaro, M. J. Bearpark, J. J. Heyd, E. N. Brothers, K. N. Kudin, 
 V. N. Staroverov, T. A. Keith, R. Kobayashi, J. Normand, 
 K. Raghavachari, A. P. Rendell, J. C. Burant, S. S. Iyengar, 
 J. Tomasi, M. Cossi, J. M. Millam, M. Klene, C. Adamo, R. Cammi, 
 J. W. Ochterski, R. L. Martin, K. Morokuma, O. Farkas, 
 J. B. Foresman, and D. J. Fox, Gaussian, Inc., Wallingford CT, 2016.
 
 ******************************************
 Gaussian 16:  ES64L-G16RevA.03 25-Dec-2016
                22-Sep-2023 
 ******************************************
 %nprocshared=6
 Will use up to    6 processors via shared memory.
 %mem=6GB
 -----------------
 # M062X/def2TZVPP
 -----------------
 1/38=1,172=1/1;
 2/12=2,17=6,18=5,40=1/2;
 3/5=44,7=202,11=2,25=1,30=1,74=-55/1,2,3;
 4//1;
 5/5=2,38=5/2;
 6/7=2,8=2,9=2,10=2,28=1/1;
 99/5=1,9=1/99;
 -----------------------
 tmpdir/M2_conf_0_31.gjf
 -----------------------
 Symbolic Z-matrix:
 Charge =  0 Multiplicity = 1
 H                     0.        0.        0. 
 C                     1.0912    0.        0. 
 H                     1.43522   0.        1.03597 
 H                     1.50502   0.91018  -0.58815 
 H                     1.44361  -0.90328  -0.49228 
 
                          Input orientation:                          
 ---------------------------------------------------------------------
 Center     Atomic      Atomic             Coordinates (Angstroms)
 Number     Number       Type             X           Y           Z
 ---------------------------------------------------------------------
      1          1           0        0.000000    0.000000    0.000000
      2          6           0        1.091200    0.000000    0.000000
      3          1           0        1.435220    0.000000    1.035970
      4          1           0        1.505020    0.910180   -0.588150
      5          1           0        1.443610   -0.903280   -0.492280
 ---------------------------------------------------------------------
                    Distance matrix (angstroms):
                    1          2          3          4          5
     1  H    0.000000
     2  C    1.091200   0.000000
     3  H    1.770054   1.091597   0.000000
     4  H    1.854571   1.159998   1.863080   0.000000
     5  H    1.772643   1.087404   1.775256   1.817030   0.000000
 Stoichiometry    CH4
 Framework group  C1[X(CH4)]
 Deg. of freedom     9
 Full point group                 C1      NOp   1
 Largest Abelian subgroup         C1      NOp   1
 Largest concise Abelian subgroup C1      NOp   1
                         Standard orientation:                         
 ---------------------------------------------------------------------
 Center     Atomic      Atomic             Coordinates (Angstroms)
 Number     Number       Type             X           Y           Z
 ---------------------------------------------------------------------
      1          1           0       -0.467929   -0.880473   -0.448005
      2          6           0       -0.004194    0.001008   -0.002295
      3          1           0       -0.548010    0.884568   -0.341663
      4          1           0        1.121346    0.059890   -0.276680
      5          1           0       -0.080244   -0.070037    1.080117
 ---------------------------------------------------------------------
 Rotational constants (GHZ):         160.3684976         149.9567374         149.7106575
 Standard basis: def2TZVPP (5D, 7F)
 There are    96 symmetry adapted cartesian basis functions of A   symmetry.
 There are    87 symmetry adapted basis functions of A   symmetry.
    87 basis functions,   119 primitive gaussians,    96 cartesian basis functions
     5 alpha electrons        5 beta electrons
       nuclear repulsion energy        13.2314975764 Hartrees.
 NAtoms=    5 NActive=    5 NUniq=    5 SFac= 1.00D+00 NAtFMM=   60 NAOKFM=F Big=F
 Integral buffers will be    131072 words long.
 Raffenetti 2 integral format.
 Two-electron integral symmetry is turned on.
 One-electron integrals computed using PRISM.
   1 Symmetry operations used in ECPInt.
 ECPInt:  NShTT=     630 NPrTT=    1412 LenC2=     631 LenP2D=    1376.
 LDataN:  DoStor=T MaxTD1= 6 Len=  172
 NBasis=    87 RedAO= T EigKep=  5.57D-04  NBF=    87
 NBsUse=    87 1.00D-06 EigRej= -1.00D+00 NBFU=    87
 ExpMin= 9.52D-02 ExpMax= 1.36D+04 ExpMxC= 4.63D+02 IAcc=3 IRadAn=         5 AccDes= 0.00D+00
 Harris functional with IExCor= 1009 and IRadAn=       5 diagonalized for initial guess.
 HarFok:  IExCor= 1009 AccDes= 0.00D+00 IRadAn=         5 IDoV= 1 UseB2=F ITyADJ=14
 ICtDFT=  3500011 ScaDFX=  1.000000  1.000000  1.000000  1.000000
 FoFCou: FMM=F IPFlag=           0 FMFlag=      100000 FMFlg1=           0
         NFxFlg=           0 DoJE=T BraDBF=F KetDBF=T FulRan=T
         wScrn=  0.000000 ICntrl=       500 IOpCl=  0 I1Cent=   200000004 NGrid=           0
         NMat0=    1 NMatS0=      1 NMatT0=    0 NMatD0=    1 NMtDS0=    0 NMtDT0=    0
 Petite list used in FoFCou.
 Keep R1 ints in memory in canonical form, NReq=12860297.
 Requested convergence on RMS density matrix=1.00D-08 within 128 cycles.
 Requested convergence on MAX density matrix=1.00D-06.
 Requested convergence on             energy=1.00D-06.
 No special actions if energy rises.
 Integral accuracy reduced to 1.0D-05 until final iterations.
 Initial convergence to 1.0D-05 achieved.  Increase integral accuracy.
 SCF Done:  E(RM062X) =  -40.4986181866     A.U. after   10 cycles
            NFock= 10  Conv=0.17D-08     -V/T= 2.0087

 **********************************************************************

            Population analysis using the SCF density.

 **********************************************************************

 Orbital symmetries:
       Occupied  (A) (A) (A) (A) (A)
       Virtual   (A) (A) (A) (A) (A) (A) (A) (A) (A) (A) (A) (A)
                 (A) (A) (A) (A) (A) (A) (A) (A) (A) (A) (A) (A)
                 (A) (A) (A) (A) (A) (A) (A) (A) (A) (A) (A) (A)
                 (A) (A) (A) (A) (A) (A) (A) (A) (A) (A) (A) (A)
                 (A) (A) (A) (A) (A) (A) (A) (A) (A) (A) (A) (A)
                 (A) (A) (A) (A) (A) (A) (A) (A) (A) (A) (A) (A)
                 (A) (A) (A) (A) (A) (A) (A) (A) (A) (A)
 The electronic state is 1-A.
 Alpha  occ. eigenvalues --  -10.52404  -0.78016  -0.45777  -0.45448  -0.44454
 Alpha virt. eigenvalues --    0.08467   0.15307   0.16167   0.16293   0.23707
 Alpha virt. eigenvalues --    0.23719   0.24217   0.41613   0.48344   0.50761
 Alpha virt. eigenvalues --    0.51118   0.54372   0.55242   0.55747   0.90294
 Alpha virt. eigenvalues --    0.91082   0.92591   0.97244   0.97796   0.98094
 Alpha virt. eigenvalues --    1.10203   1.12224   1.13390   1.34999   1.40736
 Alpha virt. eigenvalues --    1.41090   1.42089   1.47651   1.48098   1.56619
 Alpha virt. eigenvalues --    1.84918   1.86442   1.93247   2.51903   2.53398
 Alpha virt. eigenvalues --    2.53589   2.65335   2.82645   2.83682   2.84771
 Alpha virt. eigenvalues --    2.85638   2.85728   2.86519   2.91215   2.91323
 Alpha virt. eigenvalues --    3.26717   3.27761   3.30021   3.33247   3.37935
 Alpha virt. eigenvalues --    3.39109   3.44801   3.45703   3.58604   3.75251
 Alpha virt. eigenvalues --    3.76522   3.84404   3.85717   3.86325   3.95830
 Alpha virt. eigenvalues --    3.98960   4.03542   4.10652   4.10894   4.15105
 Alpha virt. eigenvalues --    4.44079   4.47121   4.48564   4.75722   5.00825
 Alpha virt. eigenvalues --    5.04144   5.05673   5.07594   5.13965   5.15737
 Alpha virt. eigenvalues --    5.19535   5.27054   5.27865   5.46581   5.47603
 Alpha virt. eigenvalues --    5.48931  23.74317
          Condensed to atoms (all electrons):
               1          2          3          4          5
     1  H    0.535867   0.399833  -0.022250  -0.020507  -0.021186
     2  C    0.399833   4.906761   0.400011   0.390334   0.399872
     3  H   -0.022250   0.400011   0.535277  -0.019921  -0.021183
     4  H   -0.020507   0.390334  -0.019921   0.562435  -0.022931
     5  H   -0.021186   0.399872  -0.021183  -0.022931   0.535518
 Mulliken charges:
               1
     1  H    0.128243
     2  C   -0.496811
     3  H    0.128068
     4  H    0.110590
     5  H    0.129910
 Sum of Mulliken charges =  -0.00000
 Mulliken charges with hydrogens summed into heavy atoms:
               1
     2  C   -0.000000
 Electronic spatial extent (au):  <R**2>=             36.5099
 Charge=             -0.0000 electrons
 Dipole moment (field-independent basis, Debye):
    X=             -0.0470    Y=             -0.0073    Z=              0.0279  Tot=              0.0551
 Quadrupole moment (field-independent basis, Debye-Ang):
   XX=             -8.3959   YY=             -8.5554   ZZ=             -8.5715
   XY=             -0.0101   XZ=              0.0442   YZ=              0.0017
 Traceless Quadrupole moment (field-independent basis, Debye-Ang):
   XX=              0.1117   YY=             -0.0478   ZZ=             -0.0639
   XY=             -0.0101   XZ=              0.0442   YZ=              0.0017
 Octapole moment (field-independent basis, Debye-Ang**2):
  XXX=              0.6053  YYY=             -0.0170  ZZZ=              0.9085  XYY=             -0.6871
  XXY=              0.1044  XXZ=             -0.3702  XZZ=             -0.2160  YZZ=             -0.1178
  YYZ=             -0.4091  XYZ=             -0.0220
 Hexadecapole moment (field-independent basis, Debye-Ang**3):
 XXXX=            -17.2360 YYYY=            -16.4529 ZZZZ=            -16.2094 XXXY=              0.0092
 XXXZ=             -0.2418 YYYX=             -0.0988 YYYZ=              0.0900 ZZZX=              0.0465
 ZZZY=             -0.0516 XXYY=             -5.7178 XXZZ=             -6.0041 YYZZ=             -5.6724
 XXYZ=             -0.0298 YYXZ=              0.4170 ZZXY=              0.0374
 N-N= 1.323149757644D+01 E-N=-1.195860241554D+02  KE= 4.015028622793D+01
 1\1\GINC-NODE85\SP\RM062X\def2TZVPP\C1H4\YANZ\22-Sep-2023\0\\# M062X/d
 ef2TZVPP\\tmpdir/M2_conf_0_31.gjf\\0,1\H,0,0.,0.,0.\C,0,1.0912,0.,0.\H
 ,0,1.43522,0.,1.03597\H,0,1.50502,0.91018,-0.58815\H,0,1.44361,-0.9032
 8,-0.49228\\Version=ES64L-G16RevA.03\State=1-A\HF=-40.4986182\RMSD=1.6
 93e-09\Dipole=-0.005705,-0.0201767,0.005563\Quadrupole=-0.0090648,-0.0
 309417,0.0400065,0.0272618,-0.0447275,-0.0478508\PG=C01 [X(C1H4)]\\@


 I DO NOT DEFINE TIME, SPACE, PLACE, AND MOTION, AS BEING WELL KNOWN TO ALL.
                                            -- NEWTON (1642-1726), PRINCIPIA
 Job cpu time:       0 days  0 hours  0 minutes 48.5 seconds.
 Elapsed time:       0 days  0 hours  0 minutes  9.2 seconds.
 File lengths (MBytes):  RWF=      6 Int=      0 D2E=      0 Chk=      2 Scr=      1
 Normal termination of Gaussian 16 at Fri Sep 22 16:49:59 2023.
