 Entering Gaussian System, Link 0=g16
 Initial command:
 /share/apps/gaussian/g16/l1.exe "/tmp/55604.mgr/Gau-82887.inp" -scrdir="/tmp/55604.mgr/"
 Entering Link 1 = /share/apps/gaussian/g16/l1.exe PID=     82889.
  
 Copyright (c) 1988,1990,1992,1993,1995,1998,2003,2009,2016,
            Gaussian, Inc.  All Rights Reserved.
  
 This is part of the Gaussian(R) 16 program.  It is based on
 the Gaussian(R) 09 system (copyright 2009, Gaussian, Inc.),
 the Gaussian(R) 03 system (copyright 2003, Gaussian, Inc.),
 the Gaussian(R) 98 system (copyright 1998, Gaussian, Inc.),
 the Gaussian(R) 94 system (copyright 1995, Gaussian, Inc.),
 the Gaussian 92(TM) system (copyright 1992, Gaussian, Inc.),
 the Gaussian 90(TM) system (copyright 1990, Gaussian, Inc.),
 the Gaussian 88(TM) system (copyright 1988, Gaussian, Inc.),
 the Gaussian 86(TM) system (copyright 1986, Carnegie Mellon
 University), and the Gaussian 82(TM) system (copyright 1983,
 Carnegie Mellon University). Gaussian is a federally registered
 trademark of Gaussian, Inc.
  
 This software contains proprietary and confidential information,
 including trade secrets, belonging to Gaussian, Inc.
  
 This software is provided under written license and may be
 used, copied, transmitted, or stored only in accord with that
 written license.
  
 The following legend is applicable only to US Government
 contracts under FAR:
  
                    RESTRICTED RIGHTS LEGEND
  
 Use, reproduction and disclosure by the US Government is
 subject to restrictions as set forth in subparagraphs (a)
 and (c) of the Commercial Computer Software - Restricted
 Rights clause in FAR 52.227-19.
  
 Gaussian, Inc.
 340 Quinnipiac St., Bldg. 40, Wallingford CT 06492
  
  
 ---------------------------------------------------------------
 Warning -- This program may not be used in any manner that
 competes with the business of Gaussian, Inc. or will provide
 assistance to any competitor of Gaussian, Inc.  The licensee
 of this program is prohibited from giving any competitor of
 Gaussian, Inc. access to this program.  By using this program,
 the user acknowledges that Gaussian, Inc. is engaged in the
 business of creating and licensing software in the field of
 computational chemistry and represents and warrants to the
 licensee that it is not a competitor of Gaussian, Inc. and that
 it will not use this program in any manner prohibited above.
 ---------------------------------------------------------------
  

 Cite this work as:
 Gaussian 16, Revision A.03,
 M. J. Frisch, G. W. Trucks, H. B. Schlegel, G. E. Scuseria, 
 M. A. Robb, J. R. Cheeseman, G. Scalmani, V. Barone, 
 G. A. Petersson, H. Nakatsuji, X. Li, M. Caricato, A. V. Marenich, 
 J. Bloino, B. G. Janesko, R. Gomperts, B. Mennucci, H. P. Hratchian, 
 J. V. Ortiz, A. F. Izmaylov, J. L. Sonnenberg, D. Williams-Young, 
 F. Ding, F. Lipparini, F. Egidi, J. Goings, B. Peng, A. Petrone, 
 T. Henderson, D. Ranasinghe, V. G. Zakrzewski, J. Gao, N. Rega, 
 G. Zheng, W. Liang, M. Hada, M. Ehara, K. Toyota, R. Fukuda, 
 J. Hasegawa, M. Ishida, T. Nakajima, Y. Honda, O. Kitao, H. Nakai, 
 T. Vreven, K. Throssell, J. A. Montgomery, Jr., J. E. Peralta, 
 F. Ogliaro, M. J. Bearpark, J. J. Heyd, E. N. Brothers, K. N. Kudin, 
 V. N. Staroverov, T. A. Keith, R. Kobayashi, J. Normand, 
 K. Raghavachari, A. P. Rendell, J. C. Burant, S. S. Iyengar, 
 J. Tomasi, M. Cossi, J. M. Millam, M. Klene, C. Adamo, R. Cammi, 
 J. W. Ochterski, R. L. Martin, K. Morokuma, O. Farkas, 
 J. B. Foresman, and D. J. Fox, Gaussian, Inc., Wallingford CT, 2016.
 
 ******************************************
 Gaussian 16:  ES64L-G16RevA.03 25-Dec-2016
                22-Sep-2023 
 ******************************************
 %nprocshared=6
 Will use up to    6 processors via shared memory.
 %mem=6GB
 -----------------
 # M062X/def2TZVPP
 -----------------
 1/38=1,172=1/1;
 2/12=2,17=6,18=5,40=1/2;
 3/5=44,7=202,11=2,25=1,30=1,74=-55/1,2,3;
 4//1;
 5/5=2,38=5/2;
 6/7=2,8=2,9=2,10=2,28=1/1;
 99/5=1,9=1/99;
 ----------------------
 tmpdir/M2_conf_0_9.gjf
 ----------------------
 Symbolic Z-matrix:
 Charge =  0 Multiplicity = 1
 C                     0.        0.        0. 
 B                     1.5786    0.        0. 
 O                     2.33611   0.        1.13456 
 H                    -0.43282  -0.24838  -1.0322 
 H                    -0.31662   0.98255   0.38882 
 H                    -0.36432  -0.72661   0.73401 
 H                     2.11479   0.03986  -0.99252 
 H                     1.92441  -0.03203   2.0126 
 
                          Input orientation:                          
 ---------------------------------------------------------------------
 Center     Atomic      Atomic             Coordinates (Angstroms)
 Number     Number       Type             X           Y           Z
 ---------------------------------------------------------------------
      1          6           0        0.000000    0.000000    0.000000
      2          5           0        1.578600    0.000000    0.000000
      3          8           0        2.336110    0.000000    1.134560
      4          1           0       -0.432820   -0.248380   -1.032200
      5          1           0       -0.316620    0.982550    0.388820
      6          1           0       -0.364320   -0.726610    0.734010
      7          1           0        2.114790    0.039860   -0.992520
      8          1           0        1.924410   -0.032030    2.012600
 ---------------------------------------------------------------------
                    Distance matrix (angstroms):
                    1          2          3          4          5
     1  C    0.000000
     2  B    1.578600   0.000000
     3  O    2.597044   1.364202   0.000000
     4  H    1.146500   2.274410   3.524701   0.000000
     5  H    1.103102   2.169895   2.925493   1.883611   0.000000
     6  H    1.095199   2.200380   2.825018   1.831091   1.744322
     7  H    2.336455   1.128798   2.138934   2.564171   2.951020
     8  H    2.784769   2.042344   0.970297   3.856702   2.947584
                    6          7          8
     6  H    0.000000
     7  H    3.116788   0.000000
     8  H    2.712106   3.012002   0.000000
 Stoichiometry    CH5BO
 Framework group  C1[X(CH5BO)]
 Deg. of freedom    18
 Full point group                 C1      NOp   1
 Largest Abelian subgroup         C1      NOp   1
 Largest concise Abelian subgroup C1      NOp   1
                         Standard orientation:                         
 ---------------------------------------------------------------------
 Center     Atomic      Atomic             Coordinates (Angstroms)
 Number     Number       Type             X           Y           Z
 ---------------------------------------------------------------------
      1          6           0       -1.289260   -0.171971    0.002570
      2          5           0        0.121693    0.535946   -0.003921
      3          8           0        1.307562   -0.138412   -0.002106
      4          1           0       -2.139446    0.555082   -0.248511
      5          1           0       -1.396188   -0.655854    0.988094
      6          1           0       -1.286969   -0.995562   -0.719340
      7          1           0        0.155902    1.663732    0.029421
      8          1           0        1.333296   -1.108006   -0.028628
 ---------------------------------------------------------------------
 Rotational constants (GHZ):          45.3823256           8.5914504           7.5632683
 Standard basis: def2TZVPP (5D, 7F)
 There are   183 symmetry adapted cartesian basis functions of A   symmetry.
 There are   163 symmetry adapted basis functions of A   symmetry.
   163 basis functions,   238 primitive gaussians,   183 cartesian basis functions
    12 alpha electrons       12 beta electrons
       nuclear repulsion energy        66.2289334384 Hartrees.
 NAtoms=    8 NActive=    8 NUniq=    8 SFac= 1.00D+00 NAtFMM=   60 NAOKFM=F Big=F
 Integral buffers will be    131072 words long.
 Raffenetti 2 integral format.
 Two-electron integral symmetry is turned on.
 One-electron integrals computed using PRISM.
   1 Symmetry operations used in ECPInt.
 ECPInt:  NShTT=    2016 NPrTT=    5131 LenC2=    2014 LenP2D=    4642.
 LDataN:  DoStor=T MaxTD1= 6 Len=  172
 NBasis=   163 RedAO= T EigKep=  4.70D-04  NBF=   163
 NBsUse=   163 1.00D-06 EigRej= -1.00D+00 NBFU=   163
 ExpMin= 6.06D-02 ExpMax= 2.70D+04 ExpMxC= 9.22D+02 IAcc=3 IRadAn=         5 AccDes= 0.00D+00
 Harris functional with IExCor= 1009 and IRadAn=       5 diagonalized for initial guess.
 HarFok:  IExCor= 1009 AccDes= 0.00D+00 IRadAn=         5 IDoV= 1 UseB2=F ITyADJ=14
 ICtDFT=  3500011 ScaDFX=  1.000000  1.000000  1.000000  1.000000
 FoFCou: FMM=F IPFlag=           0 FMFlag=      100000 FMFlg1=           0
         NFxFlg=           0 DoJE=T BraDBF=F KetDBF=T FulRan=T
         wScrn=  0.000000 ICntrl=       500 IOpCl=  0 I1Cent=   200000004 NGrid=           0
         NMat0=    1 NMatS0=      1 NMatT0=    0 NMatD0=    1 NMtDS0=    0 NMtDT0=    0
 Petite list used in FoFCou.
 Keep R1 ints in memory in canonical form, NReq=95387557.
 Requested convergence on RMS density matrix=1.00D-08 within 128 cycles.
 Requested convergence on MAX density matrix=1.00D-06.
 Requested convergence on             energy=1.00D-06.
 No special actions if energy rises.
 Integral accuracy reduced to 1.0D-05 until final iterations.
 Initial convergence to 1.0D-05 achieved.  Increase integral accuracy.
 SCF Done:  E(RM062X) =  -141.227457398     A.U. after   12 cycles
            NFock= 12  Conv=0.69D-08     -V/T= 2.0053

 **********************************************************************

            Population analysis using the SCF density.

 **********************************************************************

 Orbital symmetries:
       Occupied  (A) (A) (A) (A) (A) (A) (A) (A) (A) (A) (A) (A)
       Virtual   (A) (A) (A) (A) (A) (A) (A) (A) (A) (A) (A) (A)
                 (A) (A) (A) (A) (A) (A) (A) (A) (A) (A) (A) (A)
                 (A) (A) (A) (A) (A) (A) (A) (A) (A) (A) (A) (A)
                 (A) (A) (A) (A) (A) (A) (A) (A) (A) (A) (A) (A)
                 (A) (A) (A) (A) (A) (A) (A) (A) (A) (A) (A) (A)
                 (A) (A) (A) (A) (A) (A) (A) (A) (A) (A) (A) (A)
                 (A) (A) (A) (A) (A) (A) (A) (A) (A) (A) (A) (A)
                 (A) (A) (A) (A) (A) (A) (A) (A) (A) (A) (A) (A)
                 (A) (A) (A) (A) (A) (A) (A) (A) (A) (A) (A) (A)
                 (A) (A) (A) (A) (A) (A) (A) (A) (A) (A) (A) (A)
                 (A) (A) (A) (A) (A) (A) (A) (A) (A) (A) (A) (A)
                 (A) (A) (A) (A) (A) (A) (A) (A) (A) (A) (A) (A)
                 (A) (A) (A) (A) (A) (A) (A)
 The electronic state is 1-A.
 Alpha  occ. eigenvalues --  -19.64104 -10.51337  -7.05163  -1.14341  -0.78362
 Alpha  occ. eigenvalues --   -0.65095  -0.50328  -0.49659  -0.47418  -0.43265
 Alpha  occ. eigenvalues --   -0.42694  -0.35911
 Alpha virt. eigenvalues --    0.03730   0.04747   0.08222   0.10699   0.12404
 Alpha virt. eigenvalues --    0.13789   0.17086   0.19175   0.21729   0.22005
 Alpha virt. eigenvalues --    0.26457   0.27022   0.30008   0.35351   0.36938
 Alpha virt. eigenvalues --    0.40692   0.42369   0.45666   0.49117   0.50284
 Alpha virt. eigenvalues --    0.51492   0.52770   0.55526   0.57359   0.60787
 Alpha virt. eigenvalues --    0.65143   0.70737   0.72170   0.72977   0.78508
 Alpha virt. eigenvalues --    0.80289   0.83678   0.85113   0.88954   0.89478
 Alpha virt. eigenvalues --    0.93913   0.96625   0.98779   1.01519   1.05808
 Alpha virt. eigenvalues --    1.07323   1.16029   1.19666   1.22150   1.25938
 Alpha virt. eigenvalues --    1.28686   1.29624   1.32734   1.35882   1.41171
 Alpha virt. eigenvalues --    1.45797   1.47964   1.52472   1.54376   1.59956
 Alpha virt. eigenvalues --    1.64518   1.75306   1.76627   1.80354   1.84349
 Alpha virt. eigenvalues --    1.90792   1.95208   2.01183   2.06054   2.12226
 Alpha virt. eigenvalues --    2.17101   2.18830   2.19754   2.33446   2.33984
 Alpha virt. eigenvalues --    2.37461   2.41517   2.45250   2.47675   2.55533
 Alpha virt. eigenvalues --    2.59809   2.62560   2.69053   2.78716   2.83513
 Alpha virt. eigenvalues --    2.92069   2.94722   2.98935   3.03105   3.06310
 Alpha virt. eigenvalues --    3.09224   3.17699   3.24166   3.27740   3.28951
 Alpha virt. eigenvalues --    3.32425   3.33637   3.35333   3.38309   3.39322
 Alpha virt. eigenvalues --    3.44734   3.45506   3.52507   3.56077   3.61953
 Alpha virt. eigenvalues --    3.64176   3.65483   3.66493   3.79297   3.85803
 Alpha virt. eigenvalues --    3.88276   3.92414   3.94518   3.96976   3.98593
 Alpha virt. eigenvalues --    4.04035   4.06336   4.09466   4.10906   4.13878
 Alpha virt. eigenvalues --    4.15152   4.20255   4.30099   4.36014   4.43491
 Alpha virt. eigenvalues --    4.54729   4.58839   4.59460   4.77469   4.85054
 Alpha virt. eigenvalues --    4.89951   4.92966   4.97555   5.05213   5.09366
 Alpha virt. eigenvalues --    5.13600   5.15775   5.18680   5.30714   5.40680
 Alpha virt. eigenvalues --    5.44506   5.47256   5.62281   5.72628   5.80283
 Alpha virt. eigenvalues --    6.45258   6.56811   6.64777   6.69489   6.72148
 Alpha virt. eigenvalues --    6.90463   7.25625   7.39856  15.79435  23.46226
 Alpha virt. eigenvalues --   43.78605
          Condensed to atoms (all electrons):
               1          2          3          4          5          6
     1  C    4.969046   0.385483  -0.053562   0.395287   0.384242   0.395990
     2  B    0.385483   3.684412   0.479610  -0.028935  -0.023923  -0.033475
     3  O   -0.053562   0.479610   7.602853   0.002716  -0.001030  -0.002626
     4  H    0.395287  -0.028935   0.002716   0.553348  -0.013786  -0.020882
     5  H    0.384242  -0.023923  -0.001030  -0.013786   0.550614  -0.022921
     6  H    0.395990  -0.033475  -0.002626  -0.020882  -0.022921   0.567274
     7  H   -0.063289   0.440819  -0.017202  -0.000934   0.003475   0.003865
     8  H   -0.010656  -0.051783   0.337777   0.000056   0.000804   0.003002
               7          8
     1  C   -0.063289  -0.010656
     2  B    0.440819  -0.051783
     3  O   -0.017202   0.337777
     4  H   -0.000934   0.000056
     5  H    0.003475   0.000804
     6  H    0.003865   0.003002
     7  H    0.598175   0.008234
     8  H    0.008234   0.481567
 Mulliken charges:
               1
     1  C   -0.402540
     2  B    0.147792
     3  O   -0.348536
     4  H    0.113130
     5  H    0.122525
     6  H    0.109773
     7  H    0.026858
     8  H    0.230999
 Sum of Mulliken charges =  -0.00000
 Mulliken charges with hydrogens summed into heavy atoms:
               1
     1  C   -0.057112
     2  B    0.174649
     3  O   -0.117537
 Electronic spatial extent (au):  <R**2>=            196.9938
 Charge=             -0.0000 electrons
 Dipole moment (field-independent basis, Debye):
    X=             -0.5923    Y=             -1.5619    Z=             -0.0432  Tot=              1.6710
 Quadrupole moment (field-independent basis, Debye-Ang):
   XX=            -22.1763   YY=            -18.1469   ZZ=            -19.2593
   XY=             -2.5560   XZ=             -0.0118   YZ=             -0.1017
 Traceless Quadrupole moment (field-independent basis, Debye-Ang):
   XX=             -2.3154   YY=              1.7139   ZZ=              0.6015
   XY=             -2.5560   XZ=             -0.0118   YZ=             -0.1017
 Octapole moment (field-independent basis, Debye-Ang**2):
  XXX=              4.2108  YYY=             -8.3696  ZZZ=              0.3996  XYY=              5.1265
  XXY=             -3.1568  XXZ=             -0.4929  XZZ=              1.5215  YZZ=             -1.4057
  YYZ=             -0.3660  XYZ=              0.3863
 Hexadecapole moment (field-independent basis, Debye-Ang**3):
 XXXX=           -187.7733 YYYY=            -59.2622 ZZZZ=            -26.7544 XXXY=            -11.8319
 XXXZ=              1.1343 YYYX=             -7.5614 YYYZ=              0.3182 ZZZX=             -0.7407
 ZZZY=             -0.4287 XXYY=            -34.6671 XXZZ=            -35.1574 YYZZ=            -13.9294
 XXYZ=             -0.6065 YYXZ=              0.2371 ZZXY=             -0.0827
 N-N= 6.622893343838D+01 E-N=-4.625395398379D+02  KE= 1.404799048584D+02
 1\1\GINC-NODE85\SP\RM062X\def2TZVPP\C1H5B1O1\YANZ\22-Sep-2023\0\\# M06
 2X/def2TZVPP\\tmpdir/M2_conf_0_9.gjf\\0,1\C,0,0.,0.,0.\B,0,1.5786,0.,0
 .\O,0,2.33611,0.,1.13456\H,0,-0.43282,-0.24838,-1.0322\H,0,-0.31662,0.
 98255,0.38882\H,0,-0.36432,-0.72661,0.73401\H,0,2.11479,0.03986,-0.992
 52\H,0,1.92441,-0.03203,2.0126\\Version=ES64L-G16RevA.03\State=1-A\HF=
 -141.2274574\RMSD=6.915e-09\Dipole=-0.4837871,-0.0209268,0.4446449\Qua
 drupole=-2.642013,0.4462984,2.1957147,-0.054155,-0.0652814,0.0558226\P
 G=C01 [X(C1H5B1O1)]\\@


 COLLEGE PROFESSOR: SOMEONE WHO TALKS IN OTHER PEOPLE'S SLEEP.
 Job cpu time:       0 days  0 hours  1 minutes 42.7 seconds.
 Elapsed time:       0 days  0 hours  0 minutes 19.4 seconds.
 File lengths (MBytes):  RWF=     14 Int=      0 D2E=      0 Chk=      3 Scr=      1
 Normal termination of Gaussian 16 at Fri Sep 22 16:49:11 2023.
