 Entering Gaussian System, Link 0=g16
 Initial command:
 /share/apps/gaussian/g16/l1.exe "/tmp/55604.mgr/Gau-84188.inp" -scrdir="/tmp/55604.mgr/"
 Entering Link 1 = /share/apps/gaussian/g16/l1.exe PID=     84189.
  
 Copyright (c) 1988,1990,1992,1993,1995,1998,2003,2009,2016,
            Gaussian, Inc.  All Rights Reserved.
  
 This is part of the Gaussian(R) 16 program.  It is based on
 the Gaussian(R) 09 system (copyright 2009, Gaussian, Inc.),
 the Gaussian(R) 03 system (copyright 2003, Gaussian, Inc.),
 the Gaussian(R) 98 system (copyright 1998, Gaussian, Inc.),
 the Gaussian(R) 94 system (copyright 1995, Gaussian, Inc.),
 the Gaussian 92(TM) system (copyright 1992, Gaussian, Inc.),
 the Gaussian 90(TM) system (copyright 1990, Gaussian, Inc.),
 the Gaussian 88(TM) system (copyright 1988, Gaussian, Inc.),
 the Gaussian 86(TM) system (copyright 1986, Carnegie Mellon
 University), and the Gaussian 82(TM) system (copyright 1983,
 Carnegie Mellon University). Gaussian is a federally registered
 trademark of Gaussian, Inc.
  
 This software contains proprietary and confidential information,
 including trade secrets, belonging to Gaussian, Inc.
  
 This software is provided under written license and may be
 used, copied, transmitted, or stored only in accord with that
 written license.
  
 The following legend is applicable only to US Government
 contracts under FAR:
  
                    RESTRICTED RIGHTS LEGEND
  
 Use, reproduction and disclosure by the US Government is
 subject to restrictions as set forth in subparagraphs (a)
 and (c) of the Commercial Computer Software - Restricted
 Rights clause in FAR 52.227-19.
  
 Gaussian, Inc.
 340 Quinnipiac St., Bldg. 40, Wallingford CT 06492
  
  
 ---------------------------------------------------------------
 Warning -- This program may not be used in any manner that
 competes with the business of Gaussian, Inc. or will provide
 assistance to any competitor of Gaussian, Inc.  The licensee
 of this program is prohibited from giving any competitor of
 Gaussian, Inc. access to this program.  By using this program,
 the user acknowledges that Gaussian, Inc. is engaged in the
 business of creating and licensing software in the field of
 computational chemistry and represents and warrants to the
 licensee that it is not a competitor of Gaussian, Inc. and that
 it will not use this program in any manner prohibited above.
 ---------------------------------------------------------------
  

 Cite this work as:
 Gaussian 16, Revision A.03,
 M. J. Frisch, G. W. Trucks, H. B. Schlegel, G. E. Scuseria, 
 M. A. Robb, J. R. Cheeseman, G. Scalmani, V. Barone, 
 G. A. Petersson, H. Nakatsuji, X. Li, M. Caricato, A. V. Marenich, 
 J. Bloino, B. G. Janesko, R. Gomperts, B. Mennucci, H. P. Hratchian, 
 J. V. Ortiz, A. F. Izmaylov, J. L. Sonnenberg, D. Williams-Young, 
 F. Ding, F. Lipparini, F. Egidi, J. Goings, B. Peng, A. Petrone, 
 T. Henderson, D. Ranasinghe, V. G. Zakrzewski, J. Gao, N. Rega, 
 G. Zheng, W. Liang, M. Hada, M. Ehara, K. Toyota, R. Fukuda, 
 J. Hasegawa, M. Ishida, T. Nakajima, Y. Honda, O. Kitao, H. Nakai, 
 T. Vreven, K. Throssell, J. A. Montgomery, Jr., J. E. Peralta, 
 F. Ogliaro, M. J. Bearpark, J. J. Heyd, E. N. Brothers, K. N. Kudin, 
 V. N. Staroverov, T. A. Keith, R. Kobayashi, J. Normand, 
 K. Raghavachari, A. P. Rendell, J. C. Burant, S. S. Iyengar, 
 J. Tomasi, M. Cossi, J. M. Millam, M. Klene, C. Adamo, R. Cammi, 
 J. W. Ochterski, R. L. Martin, K. Morokuma, O. Farkas, 
 J. B. Foresman, and D. J. Fox, Gaussian, Inc., Wallingford CT, 2016.
 
 ******************************************
 Gaussian 16:  ES64L-G16RevA.03 25-Dec-2016
                22-Sep-2023 
 ******************************************
 %nprocshared=6
 Will use up to    6 processors via shared memory.
 %mem=6GB
 -----------------
 # M062X/def2TZVPP
 -----------------
 1/38=1,172=1/1;
 2/12=2,17=6,18=5,40=1/2;
 3/5=44,7=202,11=2,25=1,30=1,74=-55/1,2,3;
 4//1;
 5/5=2,38=5/2;
 6/7=2,8=2,9=2,10=2,28=1/1;
 99/5=1,9=1/99;
 -----------------------
 tmpdir/M2_conf_0_30.gjf
 -----------------------
 Symbolic Z-matrix:
 Charge =  0 Multiplicity = 1
 H                     0.        0.        0. 
 C                     1.0912    0.        0. 
 H                     1.4375    0.        1.03078 
 H                     1.50502  -0.95199  -0.51775 
 H                     1.44353   0.9072   -0.49442 
 
                          Input orientation:                          
 ---------------------------------------------------------------------
 Center     Atomic      Atomic             Coordinates (Angstroms)
 Number     Number       Type             X           Y           Z
 ---------------------------------------------------------------------
      1          1           0        0.000000    0.000000    0.000000
      2          6           0        1.091200    0.000000    0.000000
      3          1           0        1.437500    0.000000    1.030780
      4          1           0        1.505020   -0.951990   -0.517750
      5          1           0        1.443530    0.907200   -0.494420
 ---------------------------------------------------------------------
                    Distance matrix (angstroms):
                    1          2          3          4          5
     1  H    0.000000
     2  C    1.091200   0.000000
     3  H    1.768874   1.087396   0.000000
     4  H    1.854571   1.159999   1.819008   0.000000
     5  H    1.775174   1.091604   1.774622   1.860353   0.000000
 Stoichiometry    CH4
 Framework group  C1[X(CH4)]
 Deg. of freedom     9
 Full point group                 C1      NOp   1
 Largest Abelian subgroup         C1      NOp   1
 Largest concise Abelian subgroup C1      NOp   1
                         Standard orientation:                         
 ---------------------------------------------------------------------
 Center     Atomic      Atomic             Coordinates (Angstroms)
 Number     Number       Type             X           Y           Z
 ---------------------------------------------------------------------
      1          1           0       -0.464617   -0.783383   -0.604834
      2          6           0       -0.004317    0.001590   -0.002623
      3          1           0       -0.121847   -0.253931    1.047771
      4          1           0        1.130752    0.083628   -0.227313
      5          1           0       -0.518388    0.944149   -0.199885
 ---------------------------------------------------------------------
 Rotational constants (GHZ):         160.1098317         150.4261404         149.4726146
 Standard basis: def2TZVPP (5D, 7F)
 There are    96 symmetry adapted cartesian basis functions of A   symmetry.
 There are    87 symmetry adapted basis functions of A   symmetry.
    87 basis functions,   119 primitive gaussians,    96 cartesian basis functions
     5 alpha electrons        5 beta electrons
       nuclear repulsion energy        13.2314761572 Hartrees.
 NAtoms=    5 NActive=    5 NUniq=    5 SFac= 1.00D+00 NAtFMM=   60 NAOKFM=F Big=F
 Integral buffers will be    131072 words long.
 Raffenetti 2 integral format.
 Two-electron integral symmetry is turned on.
 One-electron integrals computed using PRISM.
   1 Symmetry operations used in ECPInt.
 ECPInt:  NShTT=     630 NPrTT=    1412 LenC2=     631 LenP2D=    1376.
 LDataN:  DoStor=T MaxTD1= 6 Len=  172
 NBasis=    87 RedAO= T EigKep=  5.57D-04  NBF=    87
 NBsUse=    87 1.00D-06 EigRej= -1.00D+00 NBFU=    87
 ExpMin= 9.52D-02 ExpMax= 1.36D+04 ExpMxC= 4.63D+02 IAcc=3 IRadAn=         5 AccDes= 0.00D+00
 Harris functional with IExCor= 1009 and IRadAn=       5 diagonalized for initial guess.
 HarFok:  IExCor= 1009 AccDes= 0.00D+00 IRadAn=         5 IDoV= 1 UseB2=F ITyADJ=14
 ICtDFT=  3500011 ScaDFX=  1.000000  1.000000  1.000000  1.000000
 FoFCou: FMM=F IPFlag=           0 FMFlag=      100000 FMFlg1=           0
         NFxFlg=           0 DoJE=T BraDBF=F KetDBF=T FulRan=T
         wScrn=  0.000000 ICntrl=       500 IOpCl=  0 I1Cent=   200000004 NGrid=           0
         NMat0=    1 NMatS0=      1 NMatT0=    0 NMatD0=    1 NMtDS0=    0 NMtDT0=    0
 Petite list used in FoFCou.
 Keep R1 ints in memory in canonical form, NReq=12860297.
 Requested convergence on RMS density matrix=1.00D-08 within 128 cycles.
 Requested convergence on MAX density matrix=1.00D-06.
 Requested convergence on             energy=1.00D-06.
 No special actions if energy rises.
 Integral accuracy reduced to 1.0D-05 until final iterations.
 Initial convergence to 1.0D-05 achieved.  Increase integral accuracy.
 SCF Done:  E(RM062X) =  -40.4986546642     A.U. after   10 cycles
            NFock= 10  Conv=0.18D-08     -V/T= 2.0087

 **********************************************************************

            Population analysis using the SCF density.

 **********************************************************************

 Orbital symmetries:
       Occupied  (A) (A) (A) (A) (A)
       Virtual   (A) (A) (A) (A) (A) (A) (A) (A) (A) (A) (A) (A)
                 (A) (A) (A) (A) (A) (A) (A) (A) (A) (A) (A) (A)
                 (A) (A) (A) (A) (A) (A) (A) (A) (A) (A) (A) (A)
                 (A) (A) (A) (A) (A) (A) (A) (A) (A) (A) (A) (A)
                 (A) (A) (A) (A) (A) (A) (A) (A) (A) (A) (A) (A)
                 (A) (A) (A) (A) (A) (A) (A) (A) (A) (A) (A) (A)
                 (A) (A) (A) (A) (A) (A) (A) (A) (A) (A)
 The electronic state is 1-A.
 Alpha  occ. eigenvalues --  -10.52403  -0.78016  -0.45692  -0.45510  -0.44478
 Alpha virt. eigenvalues --    0.08467   0.15311   0.16179   0.16282   0.23711
 Alpha virt. eigenvalues --    0.23714   0.24213   0.41642   0.48356   0.50818
 Alpha virt. eigenvalues --    0.51049   0.54514   0.55179   0.55639   0.90329
 Alpha virt. eigenvalues --    0.91086   0.92585   0.97232   0.97742   0.98130
 Alpha virt. eigenvalues --    1.10350   1.12136   1.13326   1.35035   1.40757
 Alpha virt. eigenvalues --    1.41169   1.41974   1.47632   1.48126   1.56618
 Alpha virt. eigenvalues --    1.85303   1.86410   1.92874   2.52128   2.53173
 Alpha virt. eigenvalues --    2.53612   2.65378   2.82765   2.83757   2.84867
 Alpha virt. eigenvalues --    2.85555   2.85664   2.86373   2.91181   2.91305
 Alpha virt. eigenvalues --    3.26623   3.27829   3.30011   3.33420   3.37980
 Alpha virt. eigenvalues --    3.38851   3.45029   3.45553   3.58639   3.75382
 Alpha virt. eigenvalues --    3.76346   3.84516   3.85719   3.86327   3.95885
 Alpha virt. eigenvalues --    3.98914   4.03508   4.10621   4.11128   4.15000
 Alpha virt. eigenvalues --    4.44093   4.46998   4.48639   4.75735   5.00521
 Alpha virt. eigenvalues --    5.04102   5.06072   5.07517   5.14241   5.15657
 Alpha virt. eigenvalues --    5.19392   5.27228   5.27662   5.46649   5.47448
 Alpha virt. eigenvalues --    5.49000  23.74334
          Condensed to atoms (all electrons):
               1          2          3          4          5
     1  H    0.535715   0.399873  -0.021448  -0.020503  -0.021901
     2  C    0.399873   4.906841   0.399740   0.390332   0.400109
     3  H   -0.021448   0.399740   0.535762  -0.022737  -0.021200
     4  H   -0.020503   0.390332  -0.022737   0.562476  -0.020160
     5  H   -0.021901   0.400109  -0.021200  -0.020160   0.534994
 Mulliken charges:
               1
     1  H    0.128265
     2  C   -0.496896
     3  H    0.129883
     4  H    0.110592
     5  H    0.128157
 Sum of Mulliken charges =  -0.00000
 Mulliken charges with hydrogens summed into heavy atoms:
               1
     2  C   -0.000000
 Electronic spatial extent (au):  <R**2>=             36.5097
 Charge=             -0.0000 electrons
 Dipole moment (field-independent basis, Debye):
    X=             -0.0475    Y=             -0.0112    Z=              0.0259  Tot=              0.0553
 Quadrupole moment (field-independent basis, Debye-Ang):
   XX=             -8.4068   YY=             -8.5388   ZZ=             -8.5771
   XY=             -0.0141   XZ=              0.0366   YZ=              0.0018
 Traceless Quadrupole moment (field-independent basis, Debye-Ang):
   XX=              0.1007   YY=             -0.0312   ZZ=             -0.0695
   XY=             -0.0141   XZ=              0.0366   YZ=              0.0018
 Octapole moment (field-independent basis, Debye-Ang**2):
  XXX=              0.6487  YYY=              0.2170  ZZZ=              0.7484  XYY=             -0.6600
  XXY=              0.1295  XXZ=             -0.3111  XZZ=             -0.2901  YZZ=             -0.3923
  YYZ=             -0.3220  XYZ=             -0.0832
 Hexadecapole moment (field-independent basis, Debye-Ang**3):
 XXXX=            -17.1979 YYYY=            -16.5202 ZZZZ=            -16.2774 XXXY=              0.0478
 XXXZ=             -0.2036 YYYX=             -0.2946 YYYZ=              0.1340 ZZZX=              0.0425
 ZZZY=             -0.1540 XXYY=             -5.7565 XXZZ=             -6.0133 YYZZ=             -5.5751
 XXYZ=              0.0311 YYXZ=              0.3457 ZZXY=              0.1743
 N-N= 1.323147615722D+01 E-N=-1.195860618864D+02  KE= 4.015029926675D+01
 1\1\GINC-NODE85\SP\RM062X\def2TZVPP\C1H4\YANZ\22-Sep-2023\0\\# M062X/d
 ef2TZVPP\\tmpdir/M2_conf_0_30.gjf\\0,1\H,0,0.,0.,0.\C,0,1.0912,0.,0.\H
 ,0,1.4375,0.,1.03078\H,0,1.50502,-0.95199,-0.51775\H,0,1.44353,0.9072,
 -0.49442\\Version=ES64L-G16RevA.03\State=1-A\HF=-40.4986547\RMSD=1.791
 e-09\Dipole=-0.0054266,0.0143085,0.0154453\Quadrupole=-0.0070664,0.058
 9669,-0.0519005,-0.0444177,-0.013416,-0.0012432\PG=C01 [X(C1H4)]\\@


 WHEN A MATHEMATICIAN ENGAGED IN INVESTIGATING
 PHYSICAL ACTIONS AND RESULTS HAS ARRIVED AT HIS
 CONCLUSIONS, MAY THEY NOT BE EXPRESSED IN COMMON
 LANGUAGE AS FULLY, CLEARLY, AND DEFINITELY AS IN
 MATHEMATICAL FORMULAE?
           - LETTER FROM M. FARADAY TO J.C. MAXWELL, 1857.
 Job cpu time:       0 days  0 hours  0 minutes 24.2 seconds.
 Elapsed time:       0 days  0 hours  0 minutes  4.4 seconds.
 File lengths (MBytes):  RWF=      6 Int=      0 D2E=      0 Chk=      2 Scr=      1
 Normal termination of Gaussian 16 at Fri Sep 22 16:49:50 2023.
