 Entering Gaussian System, Link 0=g16
 Initial command:
 /share/apps/gaussian/g16/l1.exe "/tmp/55604.mgr/Gau-84135.inp" -scrdir="/tmp/55604.mgr/"
 Entering Link 1 = /share/apps/gaussian/g16/l1.exe PID=     84136.
  
 Copyright (c) 1988,1990,1992,1993,1995,1998,2003,2009,2016,
            Gaussian, Inc.  All Rights Reserved.
  
 This is part of the Gaussian(R) 16 program.  It is based on
 the Gaussian(R) 09 system (copyright 2009, Gaussian, Inc.),
 the Gaussian(R) 03 system (copyright 2003, Gaussian, Inc.),
 the Gaussian(R) 98 system (copyright 1998, Gaussian, Inc.),
 the Gaussian(R) 94 system (copyright 1995, Gaussian, Inc.),
 the Gaussian 92(TM) system (copyright 1992, Gaussian, Inc.),
 the Gaussian 90(TM) system (copyright 1990, Gaussian, Inc.),
 the Gaussian 88(TM) system (copyright 1988, Gaussian, Inc.),
 the Gaussian 86(TM) system (copyright 1986, Carnegie Mellon
 University), and the Gaussian 82(TM) system (copyright 1983,
 Carnegie Mellon University). Gaussian is a federally registered
 trademark of Gaussian, Inc.
  
 This software contains proprietary and confidential information,
 including trade secrets, belonging to Gaussian, Inc.
  
 This software is provided under written license and may be
 used, copied, transmitted, or stored only in accord with that
 written license.
  
 The following legend is applicable only to US Government
 contracts under FAR:
  
                    RESTRICTED RIGHTS LEGEND
  
 Use, reproduction and disclosure by the US Government is
 subject to restrictions as set forth in subparagraphs (a)
 and (c) of the Commercial Computer Software - Restricted
 Rights clause in FAR 52.227-19.
  
 Gaussian, Inc.
 340 Quinnipiac St., Bldg. 40, Wallingford CT 06492
  
  
 ---------------------------------------------------------------
 Warning -- This program may not be used in any manner that
 competes with the business of Gaussian, Inc. or will provide
 assistance to any competitor of Gaussian, Inc.  The licensee
 of this program is prohibited from giving any competitor of
 Gaussian, Inc. access to this program.  By using this program,
 the user acknowledges that Gaussian, Inc. is engaged in the
 business of creating and licensing software in the field of
 computational chemistry and represents and warrants to the
 licensee that it is not a competitor of Gaussian, Inc. and that
 it will not use this program in any manner prohibited above.
 ---------------------------------------------------------------
  

 Cite this work as:
 Gaussian 16, Revision A.03,
 M. J. Frisch, G. W. Trucks, H. B. Schlegel, G. E. Scuseria, 
 M. A. Robb, J. R. Cheeseman, G. Scalmani, V. Barone, 
 G. A. Petersson, H. Nakatsuji, X. Li, M. Caricato, A. V. Marenich, 
 J. Bloino, B. G. Janesko, R. Gomperts, B. Mennucci, H. P. Hratchian, 
 J. V. Ortiz, A. F. Izmaylov, J. L. Sonnenberg, D. Williams-Young, 
 F. Ding, F. Lipparini, F. Egidi, J. Goings, B. Peng, A. Petrone, 
 T. Henderson, D. Ranasinghe, V. G. Zakrzewski, J. Gao, N. Rega, 
 G. Zheng, W. Liang, M. Hada, M. Ehara, K. Toyota, R. Fukuda, 
 J. Hasegawa, M. Ishida, T. Nakajima, Y. Honda, O. Kitao, H. Nakai, 
 T. Vreven, K. Throssell, J. A. Montgomery, Jr., J. E. Peralta, 
 F. Ogliaro, M. J. Bearpark, J. J. Heyd, E. N. Brothers, K. N. Kudin, 
 V. N. Staroverov, T. A. Keith, R. Kobayashi, J. Normand, 
 K. Raghavachari, A. P. Rendell, J. C. Burant, S. S. Iyengar, 
 J. Tomasi, M. Cossi, J. M. Millam, M. Klene, C. Adamo, R. Cammi, 
 J. W. Ochterski, R. L. Martin, K. Morokuma, O. Farkas, 
 J. B. Foresman, and D. J. Fox, Gaussian, Inc., Wallingford CT, 2016.
 
 ******************************************
 Gaussian 16:  ES64L-G16RevA.03 25-Dec-2016
                22-Sep-2023 
 ******************************************
 %nprocshared=6
 Will use up to    6 processors via shared memory.
 %mem=6GB
 -----------------
 # M062X/def2TZVPP
 -----------------
 1/38=1,172=1/1;
 2/12=2,17=6,18=5,40=1/2;
 3/5=44,7=202,11=2,25=1,30=1,74=-55/1,2,3;
 4//1;
 5/5=2,38=5/2;
 6/7=2,8=2,9=2,10=2,28=1/1;
 99/5=1,9=1/99;
 -----------------------
 tmpdir/M2_conf_0_25.gjf
 -----------------------
 Symbolic Z-matrix:
 Charge =  0 Multiplicity = 1
 C                     0.        0.        0. 
 H                     1.089     0.        0. 
 H                    -0.35576   0.       -1.1041 
 H                    -0.35364  -0.8901    0.52285 
 H                    -0.35341   0.8851    0.53224 
 
                          Input orientation:                          
 ---------------------------------------------------------------------
 Center     Atomic      Atomic             Coordinates (Angstroms)
 Number     Number       Type             X           Y           Z
 ---------------------------------------------------------------------
      1          6           0        0.000000    0.000000    0.000000
      2          1           0        1.089000    0.000000    0.000000
      3          1           0       -0.355760    0.000000   -1.104100
      4          1           0       -0.353640   -0.890100    0.522850
      5          1           0       -0.353410    0.885100    0.532240
 ---------------------------------------------------------------------
                    Distance matrix (angstroms):
                    1          2          3          4          5
     1  C    0.000000
     2  H    1.089000   0.000000
     3  H    1.160001   1.818342   0.000000
     4  H    1.091197   1.773939   1.854521   0.000000
     5  H    1.091595   1.774043   1.860381   1.775225   0.000000
 Stoichiometry    CH4
 Framework group  C1[X(CH4)]
 Deg. of freedom     9
 Full point group                 C1      NOp   1
 Largest Abelian subgroup         C1      NOp   1
 Largest concise Abelian subgroup C1      NOp   1
                         Standard orientation:                         
 ---------------------------------------------------------------------
 Center     Atomic      Atomic             Coordinates (Angstroms)
 Number     Number       Type             X           Y           Z
 ---------------------------------------------------------------------
      1          6           0        0.004650   -0.000071   -0.003082
      2          1           0        0.105340   -0.100862    1.076559
      3          1           0       -1.127151   -0.008523   -0.257161
      4          1           0        0.466630    0.937905   -0.315308
      5          1           0        0.527279   -0.828092   -0.485597
 ---------------------------------------------------------------------
 Rotational constants (GHZ):         159.8989619         150.2275552         149.5455785
 Standard basis: def2TZVPP (5D, 7F)
 There are    96 symmetry adapted cartesian basis functions of A   symmetry.
 There are    87 symmetry adapted basis functions of A   symmetry.
    87 basis functions,   119 primitive gaussians,    96 cartesian basis functions
     5 alpha electrons        5 beta electrons
       nuclear repulsion energy        13.2265471285 Hartrees.
 NAtoms=    5 NActive=    5 NUniq=    5 SFac= 1.00D+00 NAtFMM=   60 NAOKFM=F Big=F
 Integral buffers will be    131072 words long.
 Raffenetti 2 integral format.
 Two-electron integral symmetry is turned on.
 One-electron integrals computed using PRISM.
   1 Symmetry operations used in ECPInt.
 ECPInt:  NShTT=     630 NPrTT=    1412 LenC2=     631 LenP2D=    1376.
 LDataN:  DoStor=T MaxTD1= 6 Len=  172
 NBasis=    87 RedAO= T EigKep=  5.59D-04  NBF=    87
 NBsUse=    87 1.00D-06 EigRej= -1.00D+00 NBFU=    87
 ExpMin= 9.52D-02 ExpMax= 1.36D+04 ExpMxC= 4.63D+02 IAcc=3 IRadAn=         5 AccDes= 0.00D+00
 Harris functional with IExCor= 1009 and IRadAn=       5 diagonalized for initial guess.
 HarFok:  IExCor= 1009 AccDes= 0.00D+00 IRadAn=         5 IDoV= 1 UseB2=F ITyADJ=14
 ICtDFT=  3500011 ScaDFX=  1.000000  1.000000  1.000000  1.000000
 FoFCou: FMM=F IPFlag=           0 FMFlag=      100000 FMFlg1=           0
         NFxFlg=           0 DoJE=T BraDBF=F KetDBF=T FulRan=T
         wScrn=  0.000000 ICntrl=       500 IOpCl=  0 I1Cent=   200000004 NGrid=           0
         NMat0=    1 NMatS0=      1 NMatT0=    0 NMatD0=    1 NMtDS0=    0 NMtDT0=    0
 Petite list used in FoFCou.
 Keep R1 ints in memory in canonical form, NReq=12860297.
 Requested convergence on RMS density matrix=1.00D-08 within 128 cycles.
 Requested convergence on MAX density matrix=1.00D-06.
 Requested convergence on             energy=1.00D-06.
 No special actions if energy rises.
 Integral accuracy reduced to 1.0D-05 until final iterations.
 Initial convergence to 1.0D-05 achieved.  Increase integral accuracy.
 SCF Done:  E(RM062X) =  -40.4986571737     A.U. after   10 cycles
            NFock= 10  Conv=0.15D-08     -V/T= 2.0087

 **********************************************************************

            Population analysis using the SCF density.

 **********************************************************************

 Orbital symmetries:
       Occupied  (A) (A) (A) (A) (A)
       Virtual   (A) (A) (A) (A) (A) (A) (A) (A) (A) (A) (A) (A)
                 (A) (A) (A) (A) (A) (A) (A) (A) (A) (A) (A) (A)
                 (A) (A) (A) (A) (A) (A) (A) (A) (A) (A) (A) (A)
                 (A) (A) (A) (A) (A) (A) (A) (A) (A) (A) (A) (A)
                 (A) (A) (A) (A) (A) (A) (A) (A) (A) (A) (A) (A)
                 (A) (A) (A) (A) (A) (A) (A) (A) (A) (A) (A) (A)
                 (A) (A) (A) (A) (A) (A) (A) (A) (A) (A)
 The electronic state is 1-A.
 Alpha  occ. eigenvalues --  -10.52421  -0.78000  -0.45687  -0.45531  -0.44441
 Alpha virt. eigenvalues --    0.08464   0.15306   0.16176   0.16268   0.23709
 Alpha virt. eigenvalues --    0.23723   0.24212   0.41634   0.48347   0.50818
 Alpha virt. eigenvalues --    0.51023   0.54456   0.55180   0.55631   0.90327
 Alpha virt. eigenvalues --    0.91084   0.92532   0.97259   0.97724   0.98105
 Alpha virt. eigenvalues --    1.10322   1.12188   1.13269   1.35039   1.40761
 Alpha virt. eigenvalues --    1.41146   1.41996   1.47625   1.47982   1.56561
 Alpha virt. eigenvalues --    1.85128   1.86542   1.92937   2.52088   2.53218
 Alpha virt. eigenvalues --    2.53614   2.65406   2.82684   2.83769   2.84841
 Alpha virt. eigenvalues --    2.85590   2.85628   2.86419   2.91199   2.91237
 Alpha virt. eigenvalues --    3.26640   3.27828   3.29899   3.33365   3.37862
 Alpha virt. eigenvalues --    3.38921   3.44981   3.45558   3.58577   3.75326
 Alpha virt. eigenvalues --    3.76391   3.84428   3.85627   3.86339   3.95848
 Alpha virt. eigenvalues --    3.98927   4.03285   4.10602   4.10978   4.14869
 Alpha virt. eigenvalues --    4.44101   4.46925   4.48482   4.75715   5.00304
 Alpha virt. eigenvalues --    5.03902   5.05972   5.07706   5.14137   5.15505
 Alpha virt. eigenvalues --    5.19419   5.26971   5.27307   5.46628   5.47233
 Alpha virt. eigenvalues --    5.48960  23.74074
          Condensed to atoms (all electrons):
               1          2          3          4          5
     1  C    4.906787   0.399516   0.390279   0.400018   0.400054
     2  H    0.399516   0.536463  -0.022882  -0.021234  -0.021345
     3  H    0.390279  -0.022882   0.562653  -0.020533  -0.020118
     4  H    0.400018  -0.021234  -0.020533   0.535288  -0.021909
     5  H    0.400054  -0.021345  -0.020118  -0.021909   0.535117
 Mulliken charges:
               1
     1  C   -0.496654
     2  H    0.129481
     3  H    0.110602
     4  H    0.128370
     5  H    0.128201
 Sum of Mulliken charges =   0.00000
 Mulliken charges with hydrogens summed into heavy atoms:
               1
     1  C    0.000000
 Electronic spatial extent (au):  <R**2>=             36.5247
 Charge=             -0.0000 electrons
 Dipole moment (field-independent basis, Debye):
    X=              0.0462    Y=              0.0007    Z=              0.0279  Tot=              0.0540
 Quadrupole moment (field-independent basis, Debye-Ang):
   XX=             -8.4089   YY=             -8.5408   ZZ=             -8.5768
   XY=             -0.0014   XZ=             -0.0423   YZ=              0.0000
 Traceless Quadrupole moment (field-independent basis, Debye-Ang):
   XX=              0.0999   YY=             -0.0320   ZZ=             -0.0679
   XY=             -0.0014   XZ=             -0.0423   YZ=              0.0000
 Octapole moment (field-independent basis, Debye-Ang**2):
  XXX=             -0.6344  YYY=              0.1910  ZZZ=              0.8815  XYY=              0.6777
  XXY=             -0.0289  XXZ=             -0.3538  XZZ=              0.2544  YZZ=             -0.1584
  YYZ=             -0.4059  XYZ=              0.0467
 Hexadecapole moment (field-independent basis, Debye-Ang**3):
 XXXX=            -17.2127 YYYY=            -16.4297 ZZZZ=            -16.2350 XXXY=             -0.0213
 XXXZ=              0.2193 YYYX=              0.1018 YYYZ=              0.0168 ZZZX=             -0.0220
 ZZZY=             -0.0757 XXYY=             -5.7542 XXZZ=             -6.0058 YYZZ=             -5.6689
 XXYZ=              0.0605 YYXZ=             -0.4104 ZZXY=             -0.0882
 N-N= 1.322654712849D+01 E-N=-1.195746827408D+02  KE= 4.014814924867D+01
 1\1\GINC-NODE85\SP\RM062X\def2TZVPP\C1H4\YANZ\22-Sep-2023\0\\# M062X/d
 ef2TZVPP\\tmpdir/M2_conf_0_25.gjf\\0,1\C,0,0.,0.,0.\H,0,1.089,0.,0.\H,
 0,-0.35576,0.,-1.1041\H,0,-0.35364,-0.8901,0.52285\H,0,-0.35341,0.8851
 ,0.53224\\Version=ES64L-G16RevA.03\State=1-A\HF=-40.4986572\RMSD=1.492
 e-09\Dipole=0.0125509,-0.0008176,0.0171192\Quadrupole=-0.0549662,-0.02
 36961,0.0786623,0.0022571,-0.0192559,0.006703\PG=C01 [X(C1H4)]\\@


 IF MATHEMATICALLY YOU END UP WITH THE INCORRECT ANSWER,
 TRY MULTIPLYING BY THE PAGE NUMBER.
 Job cpu time:       0 days  0 hours  0 minutes 23.4 seconds.
 Elapsed time:       0 days  0 hours  0 minutes  4.2 seconds.
 File lengths (MBytes):  RWF=      6 Int=      0 D2E=      0 Chk=      2 Scr=      1
 Normal termination of Gaussian 16 at Fri Sep 22 16:49:49 2023.
