 Entering Gaussian System, Link 0=g16
 Initial command:
 /share/apps/gaussian/g16/l1.exe "/tmp/55604.mgr/Gau-83178.inp" -scrdir="/tmp/55604.mgr/"
 Entering Link 1 = /share/apps/gaussian/g16/l1.exe PID=     83179.
  
 Copyright (c) 1988,1990,1992,1993,1995,1998,2003,2009,2016,
            Gaussian, Inc.  All Rights Reserved.
  
 This is part of the Gaussian(R) 16 program.  It is based on
 the Gaussian(R) 09 system (copyright 2009, Gaussian, Inc.),
 the Gaussian(R) 03 system (copyright 2003, Gaussian, Inc.),
 the Gaussian(R) 98 system (copyright 1998, Gaussian, Inc.),
 the Gaussian(R) 94 system (copyright 1995, Gaussian, Inc.),
 the Gaussian 92(TM) system (copyright 1992, Gaussian, Inc.),
 the Gaussian 90(TM) system (copyright 1990, Gaussian, Inc.),
 the Gaussian 88(TM) system (copyright 1988, Gaussian, Inc.),
 the Gaussian 86(TM) system (copyright 1986, Carnegie Mellon
 University), and the Gaussian 82(TM) system (copyright 1983,
 Carnegie Mellon University). Gaussian is a federally registered
 trademark of Gaussian, Inc.
  
 This software contains proprietary and confidential information,
 including trade secrets, belonging to Gaussian, Inc.
  
 This software is provided under written license and may be
 used, copied, transmitted, or stored only in accord with that
 written license.
  
 The following legend is applicable only to US Government
 contracts under FAR:
  
                    RESTRICTED RIGHTS LEGEND
  
 Use, reproduction and disclosure by the US Government is
 subject to restrictions as set forth in subparagraphs (a)
 and (c) of the Commercial Computer Software - Restricted
 Rights clause in FAR 52.227-19.
  
 Gaussian, Inc.
 340 Quinnipiac St., Bldg. 40, Wallingford CT 06492
  
  
 ---------------------------------------------------------------
 Warning -- This program may not be used in any manner that
 competes with the business of Gaussian, Inc. or will provide
 assistance to any competitor of Gaussian, Inc.  The licensee
 of this program is prohibited from giving any competitor of
 Gaussian, Inc. access to this program.  By using this program,
 the user acknowledges that Gaussian, Inc. is engaged in the
 business of creating and licensing software in the field of
 computational chemistry and represents and warrants to the
 licensee that it is not a competitor of Gaussian, Inc. and that
 it will not use this program in any manner prohibited above.
 ---------------------------------------------------------------
  

 Cite this work as:
 Gaussian 16, Revision A.03,
 M. J. Frisch, G. W. Trucks, H. B. Schlegel, G. E. Scuseria, 
 M. A. Robb, J. R. Cheeseman, G. Scalmani, V. Barone, 
 G. A. Petersson, H. Nakatsuji, X. Li, M. Caricato, A. V. Marenich, 
 J. Bloino, B. G. Janesko, R. Gomperts, B. Mennucci, H. P. Hratchian, 
 J. V. Ortiz, A. F. Izmaylov, J. L. Sonnenberg, D. Williams-Young, 
 F. Ding, F. Lipparini, F. Egidi, J. Goings, B. Peng, A. Petrone, 
 T. Henderson, D. Ranasinghe, V. G. Zakrzewski, J. Gao, N. Rega, 
 G. Zheng, W. Liang, M. Hada, M. Ehara, K. Toyota, R. Fukuda, 
 J. Hasegawa, M. Ishida, T. Nakajima, Y. Honda, O. Kitao, H. Nakai, 
 T. Vreven, K. Throssell, J. A. Montgomery, Jr., J. E. Peralta, 
 F. Ogliaro, M. J. Bearpark, J. J. Heyd, E. N. Brothers, K. N. Kudin, 
 V. N. Staroverov, T. A. Keith, R. Kobayashi, J. Normand, 
 K. Raghavachari, A. P. Rendell, J. C. Burant, S. S. Iyengar, 
 J. Tomasi, M. Cossi, J. M. Millam, M. Klene, C. Adamo, R. Cammi, 
 J. W. Ochterski, R. L. Martin, K. Morokuma, O. Farkas, 
 J. B. Foresman, and D. J. Fox, Gaussian, Inc., Wallingford CT, 2016.
 
 ******************************************
 Gaussian 16:  ES64L-G16RevA.03 25-Dec-2016
                22-Sep-2023 
 ******************************************
 %nprocshared=6
 Will use up to    6 processors via shared memory.
 %mem=6GB
 -----------------
 # M062X/def2TZVPP
 -----------------
 1/38=1,172=1/1;
 2/12=2,17=6,18=5,40=1/2;
 3/5=44,7=202,11=2,25=1,30=1,74=-55/1,2,3;
 4//1;
 5/5=2,38=5/2;
 6/7=2,8=2,9=2,10=2,28=1/1;
 99/5=1,9=1/99;
 ----------------------
 tmpdir/M2_conf_0_2.gjf
 ----------------------
 Symbolic Z-matrix:
 Charge =  0 Multiplicity = 1
 N                     0.        0.        0. 
 C                     1.4871    0.        0. 
 H                    -0.35601   0.       -0.94614 
 H                    -0.38004   0.80175   0.48193 
 H                     1.89693  -0.58176  -0.81983 
 H                     1.93049   1.00735  -0.07398 
 H                     1.85287  -0.40236   0.95067 
 
                          Input orientation:                          
 ---------------------------------------------------------------------
 Center     Atomic      Atomic             Coordinates (Angstroms)
 Number     Number       Type             X           Y           Z
 ---------------------------------------------------------------------
      1          7           0        0.000000    0.000000    0.000000
      2          6           0        1.487100    0.000000    0.000000
      3          1           0       -0.356010    0.000000   -0.946140
      4          1           0       -0.380040    0.801750    0.481930
      5          1           0        1.896930   -0.581760   -0.819830
      6          1           0        1.930490    1.007350   -0.073980
      7          1           0        1.852870   -0.402360    0.950670
 ---------------------------------------------------------------------
                    Distance matrix (angstroms):
                    1          2          3          4          5
     1  N    0.000000
     2  C    1.487100   0.000000
     3  H    1.010903   2.071771   0.000000
     4  H    1.009698   2.088366   1.637915   0.000000
     5  H    2.146837   1.085600   2.330266   2.965345   0.000000
     6  H    2.178765   1.103096   2.646413   2.385342   1.755759
     7  H    2.121036   1.095196   2.939206   2.579823   1.780111
                    6          7
     6  H    0.000000
     7  H    1.744481   0.000000
 Stoichiometry    CH5N
 Framework group  C1[X(CH5N)]
 Deg. of freedom    15
 Full point group                 C1      NOp   1
 Largest Abelian subgroup         C1      NOp   1
 Largest concise Abelian subgroup C1      NOp   1
                         Standard orientation:                         
 ---------------------------------------------------------------------
 Center     Atomic      Atomic             Coordinates (Angstroms)
 Number     Number       Type             X           Y           Z
 ---------------------------------------------------------------------
      1          7           0       -0.763359   -0.003219   -0.115634
      2          6           0        0.718452    0.006324    0.009313
      3          1           0       -1.161015    0.828220    0.299701
      4          1           0       -1.177127   -0.809338    0.329853
      5          1           0        1.130956    1.006390   -0.081431
      6          1           0        1.085370   -0.401845    0.966178
      7          1           0        1.154614   -0.638837   -0.760743
 ---------------------------------------------------------------------
 Rotational constants (GHZ):         104.6944898          22.1695711          21.1788525
 Standard basis: def2TZVPP (5D, 7F)
 There are   147 symmetry adapted cartesian basis functions of A   symmetry.
 There are   132 symmetry adapted basis functions of A   symmetry.
   132 basis functions,   187 primitive gaussians,   147 cartesian basis functions
     9 alpha electrons        9 beta electrons
       nuclear repulsion energy        41.6430763602 Hartrees.
 NAtoms=    7 NActive=    7 NUniq=    7 SFac= 1.00D+00 NAtFMM=   60 NAOKFM=F Big=F
 Integral buffers will be    131072 words long.
 Raffenetti 2 integral format.
 Two-electron integral symmetry is turned on.
 One-electron integrals computed using PRISM.
   1 Symmetry operations used in ECPInt.
 ECPInt:  NShTT=    1378 NPrTT=    3299 LenC2=    1378 LenP2D=    3094.
 LDataN:  DoStor=T MaxTD1= 6 Len=  172
 NBasis=   132 RedAO= T EigKep=  5.44D-04  NBF=   132
 NBsUse=   132 1.00D-06 EigRej= -1.00D+00 NBFU=   132
 ExpMin= 9.52D-02 ExpMax= 1.97D+04 ExpMxC= 6.73D+02 IAcc=3 IRadAn=         5 AccDes= 0.00D+00
 Harris functional with IExCor= 1009 and IRadAn=       5 diagonalized for initial guess.
 HarFok:  IExCor= 1009 AccDes= 0.00D+00 IRadAn=         5 IDoV= 1 UseB2=F ITyADJ=14
 ICtDFT=  3500011 ScaDFX=  1.000000  1.000000  1.000000  1.000000
 FoFCou: FMM=F IPFlag=           0 FMFlag=      100000 FMFlg1=           0
         NFxFlg=           0 DoJE=T BraDBF=F KetDBF=T FulRan=T
         wScrn=  0.000000 ICntrl=       500 IOpCl=  0 I1Cent=   200000004 NGrid=           0
         NMat0=    1 NMatS0=      1 NMatT0=    0 NMatD0=    1 NMtDS0=    0 NMtDT0=    0
 Petite list used in FoFCou.
 Keep R1 ints in memory in canonical form, NReq=44362774.
 Requested convergence on RMS density matrix=1.00D-08 within 128 cycles.
 Requested convergence on MAX density matrix=1.00D-06.
 Requested convergence on             energy=1.00D-06.
 No special actions if energy rises.
 Integral accuracy reduced to 1.0D-05 until final iterations.
 Initial convergence to 1.0D-05 achieved.  Increase integral accuracy.
 SCF Done:  E(RM062X) =  -95.8430850429     A.U. after   11 cycles
            NFock= 11  Conv=0.80D-08     -V/T= 2.0058

 **********************************************************************

            Population analysis using the SCF density.

 **********************************************************************

 Orbital symmetries:
       Occupied  (A) (A) (A) (A) (A) (A) (A) (A) (A)
       Virtual   (A) (A) (A) (A) (A) (A) (A) (A) (A) (A) (A) (A)
                 (A) (A) (A) (A) (A) (A) (A) (A) (A) (A) (A) (A)
                 (A) (A) (A) (A) (A) (A) (A) (A) (A) (A) (A) (A)
                 (A) (A) (A) (A) (A) (A) (A) (A) (A) (A) (A) (A)
                 (A) (A) (A) (A) (A) (A) (A) (A) (A) (A) (A) (A)
                 (A) (A) (A) (A) (A) (A) (A) (A) (A) (A) (A) (A)
                 (A) (A) (A) (A) (A) (A) (A) (A) (A) (A) (A) (A)
                 (A) (A) (A) (A) (A) (A) (A) (A) (A) (A) (A) (A)
                 (A) (A) (A) (A) (A) (A) (A) (A) (A) (A) (A) (A)
                 (A) (A) (A) (A) (A) (A) (A) (A) (A) (A) (A) (A)
                 (A) (A) (A)
 The electronic state is 1-A.
 Alpha  occ. eigenvalues --  -14.72265 -10.55259  -0.97089  -0.74943  -0.56104
 Alpha  occ. eigenvalues --   -0.50086  -0.46333  -0.43694  -0.30242
 Alpha virt. eigenvalues --    0.06438   0.10818   0.12267   0.16001   0.17052
 Alpha virt. eigenvalues --    0.19651   0.25872   0.26871   0.31468   0.39143
 Alpha virt. eigenvalues --    0.41006   0.41380   0.44818   0.49091   0.50321
 Alpha virt. eigenvalues --    0.51648   0.54912   0.55382   0.60209   0.61165
 Alpha virt. eigenvalues --    0.64182   0.85391   0.87765   0.91591   0.97543
 Alpha virt. eigenvalues --    0.99077   1.01526   1.02826   1.04606   1.12104
 Alpha virt. eigenvalues --    1.13322   1.20505   1.23982   1.25955   1.33853
 Alpha virt. eigenvalues --    1.36499   1.37822   1.47826   1.48260   1.53794
 Alpha virt. eigenvalues --    1.55981   1.62902   1.63677   1.68885   1.71680
 Alpha virt. eigenvalues --    1.90756   2.01596   2.05907   2.19418   2.37816
 Alpha virt. eigenvalues --    2.41957   2.54630   2.58412   2.59624   2.60935
 Alpha virt. eigenvalues --    2.76342   2.83917   2.84450   2.89142   2.92846
 Alpha virt. eigenvalues --    2.93325   2.96506   3.01073   3.05941   3.12945
 Alpha virt. eigenvalues --    3.25872   3.27707   3.31714   3.33099   3.35172
 Alpha virt. eigenvalues --    3.40776   3.42057   3.43700   3.47023   3.51650
 Alpha virt. eigenvalues --    3.57023   3.61284   3.67623   3.72533   3.74864
 Alpha virt. eigenvalues --    3.83424   3.84753   3.88449   3.90517   3.96061
 Alpha virt. eigenvalues --    3.97208   3.99666   4.08726   4.13495   4.15444
 Alpha virt. eigenvalues --    4.18898   4.19926   4.26458   4.34270   4.41506
 Alpha virt. eigenvalues --    4.51745   4.53489   4.58486   4.74379   4.77424
 Alpha virt. eigenvalues --    4.79283   4.88398   4.95806   4.97515   5.08527
 Alpha virt. eigenvalues --    5.13452   5.16197   5.20951   5.30427   5.31217
 Alpha virt. eigenvalues --    5.34519   5.49634   5.52794   5.60036   5.65274
 Alpha virt. eigenvalues --    5.72390   5.80826   5.90884   6.08406   6.34446
 Alpha virt. eigenvalues --    6.42604  23.50851  32.69110
          Condensed to atoms (all electrons):
               1          2          3          4          5          6
     1  N    6.455219   0.271800   0.387482   0.388742  -0.025796  -0.050299
     2  C    0.271800   4.820594  -0.045708  -0.044116   0.408926   0.429610
     3  H    0.387482  -0.045708   0.564794  -0.043457  -0.010911  -0.001276
     4  H    0.388742  -0.044116  -0.043457   0.558898   0.007088  -0.011507
     5  H   -0.025796   0.408926  -0.010911   0.007088   0.556210  -0.029017
     6  H   -0.050299   0.429610  -0.001276  -0.011507  -0.029017   0.605289
     7  H   -0.043565   0.407429   0.008218   0.000306  -0.025206  -0.049492
               7
     1  N   -0.043565
     2  C    0.407429
     3  H    0.008218
     4  H    0.000306
     5  H   -0.025206
     6  H   -0.049492
     7  H    0.580493
 Mulliken charges:
               1
     1  N   -0.383583
     2  C   -0.248536
     3  H    0.140859
     4  H    0.144047
     5  H    0.118706
     6  H    0.106691
     7  H    0.121817
 Sum of Mulliken charges =  -0.00000
 Mulliken charges with hydrogens summed into heavy atoms:
               1
     1  N   -0.098677
     2  C    0.098677
 Electronic spatial extent (au):  <R**2>=             97.0117
 Charge=             -0.0000 electrons
 Dipole moment (field-independent basis, Debye):
    X=              0.2577    Y=              0.0579    Z=              1.3077  Tot=              1.3341
 Quadrupole moment (field-independent basis, Debye-Ang):
   XX=            -13.7626   YY=            -12.5644   ZZ=            -15.6091
   XY=              0.1120   XZ=             -1.9034   YZ=              0.0124
 Traceless Quadrupole moment (field-independent basis, Debye-Ang):
   XX=              0.2161   YY=              1.4143   ZZ=             -1.6304
   XY=              0.1120   XZ=             -1.9034   YZ=              0.0124
 Octapole moment (field-independent basis, Debye-Ang**2):
  XXX=             -2.9936  YYY=              0.6502  ZZZ=              1.2664  XYY=             -2.0738
  XXY=              0.1428  XXZ=              2.1835  XZZ=              0.6217  YZZ=             -0.4828
  YYZ=              0.6718  XYZ=              0.1414
 Hexadecapole moment (field-independent basis, Debye-Ang**3):
 XXXX=            -78.2750 YYYY=            -23.9541 ZZZZ=            -25.2968 XXXY=              0.4205
 XXXZ=             -3.8030 YYYX=              0.8062 YYYZ=              0.0838 ZZZX=             -1.7422
 ZZZY=              0.0085 XXYY=            -14.6813 XXZZ=            -18.3117 YYZZ=             -8.2389
 XXYZ=              0.0509 YYXZ=             -1.5664 ZZXY=             -0.4841
 N-N= 4.164307636019D+01 E-N=-3.061254042013D+02  KE= 9.528959829760D+01
 1\1\GINC-NODE85\SP\RM062X\def2TZVPP\C1H5N1\YANZ\22-Sep-2023\0\\# M062X
 /def2TZVPP\\tmpdir/M2_conf_0_2.gjf\\0,1\N,0,0.,0.,0.\C,0,1.4871,0.,0.\
 H,0,-0.35601,0.,-0.94614\H,0,-0.38004,0.80175,0.48193\H,0,1.89693,-0.5
 8176,-0.81983\H,0,1.93049,1.00735,-0.07398\H,0,1.85287,-0.40236,0.9506
 7\\Version=ES64L-G16RevA.03\State=1-A\HF=-95.843085\RMSD=7.967e-09\Dip
 ole=0.1443836,0.4339102,-0.2575886\Quadrupole=-0.0848726,-0.5249047,0.
 6097773,-1.3736675,0.6336585,0.8332118\PG=C01 [X(C1H5N1)]\\@


 Everywhere is walking distance if you have the time.
                                    -- Steven Wright
 Job cpu time:       0 days  0 hours  0 minutes 57.7 seconds.
 Elapsed time:       0 days  0 hours  0 minutes 10.9 seconds.
 File lengths (MBytes):  RWF=     10 Int=      0 D2E=      0 Chk=      2 Scr=      1
 Normal termination of Gaussian 16 at Fri Sep 22 16:49:09 2023.
