 Entering Gaussian System, Link 0=g16
 Initial command:
 /share/apps/gaussian/g16/l1.exe "/tmp/55604.mgr/Gau-83443.inp" -scrdir="/tmp/55604.mgr/"
 Entering Link 1 = /share/apps/gaussian/g16/l1.exe PID=     83444.
  
 Copyright (c) 1988,1990,1992,1993,1995,1998,2003,2009,2016,
            Gaussian, Inc.  All Rights Reserved.
  
 This is part of the Gaussian(R) 16 program.  It is based on
 the Gaussian(R) 09 system (copyright 2009, Gaussian, Inc.),
 the Gaussian(R) 03 system (copyright 2003, Gaussian, Inc.),
 the Gaussian(R) 98 system (copyright 1998, Gaussian, Inc.),
 the Gaussian(R) 94 system (copyright 1995, Gaussian, Inc.),
 the Gaussian 92(TM) system (copyright 1992, Gaussian, Inc.),
 the Gaussian 90(TM) system (copyright 1990, Gaussian, Inc.),
 the Gaussian 88(TM) system (copyright 1988, Gaussian, Inc.),
 the Gaussian 86(TM) system (copyright 1986, Carnegie Mellon
 University), and the Gaussian 82(TM) system (copyright 1983,
 Carnegie Mellon University). Gaussian is a federally registered
 trademark of Gaussian, Inc.
  
 This software contains proprietary and confidential information,
 including trade secrets, belonging to Gaussian, Inc.
  
 This software is provided under written license and may be
 used, copied, transmitted, or stored only in accord with that
 written license.
  
 The following legend is applicable only to US Government
 contracts under FAR:
  
                    RESTRICTED RIGHTS LEGEND
  
 Use, reproduction and disclosure by the US Government is
 subject to restrictions as set forth in subparagraphs (a)
 and (c) of the Commercial Computer Software - Restricted
 Rights clause in FAR 52.227-19.
  
 Gaussian, Inc.
 340 Quinnipiac St., Bldg. 40, Wallingford CT 06492
  
  
 ---------------------------------------------------------------
 Warning -- This program may not be used in any manner that
 competes with the business of Gaussian, Inc. or will provide
 assistance to any competitor of Gaussian, Inc.  The licensee
 of this program is prohibited from giving any competitor of
 Gaussian, Inc. access to this program.  By using this program,
 the user acknowledges that Gaussian, Inc. is engaged in the
 business of creating and licensing software in the field of
 computational chemistry and represents and warrants to the
 licensee that it is not a competitor of Gaussian, Inc. and that
 it will not use this program in any manner prohibited above.
 ---------------------------------------------------------------
  

 Cite this work as:
 Gaussian 16, Revision A.03,
 M. J. Frisch, G. W. Trucks, H. B. Schlegel, G. E. Scuseria, 
 M. A. Robb, J. R. Cheeseman, G. Scalmani, V. Barone, 
 G. A. Petersson, H. Nakatsuji, X. Li, M. Caricato, A. V. Marenich, 
 J. Bloino, B. G. Janesko, R. Gomperts, B. Mennucci, H. P. Hratchian, 
 J. V. Ortiz, A. F. Izmaylov, J. L. Sonnenberg, D. Williams-Young, 
 F. Ding, F. Lipparini, F. Egidi, J. Goings, B. Peng, A. Petrone, 
 T. Henderson, D. Ranasinghe, V. G. Zakrzewski, J. Gao, N. Rega, 
 G. Zheng, W. Liang, M. Hada, M. Ehara, K. Toyota, R. Fukuda, 
 J. Hasegawa, M. Ishida, T. Nakajima, Y. Honda, O. Kitao, H. Nakai, 
 T. Vreven, K. Throssell, J. A. Montgomery, Jr., J. E. Peralta, 
 F. Ogliaro, M. J. Bearpark, J. J. Heyd, E. N. Brothers, K. N. Kudin, 
 V. N. Staroverov, T. A. Keith, R. Kobayashi, J. Normand, 
 K. Raghavachari, A. P. Rendell, J. C. Burant, S. S. Iyengar, 
 J. Tomasi, M. Cossi, J. M. Millam, M. Klene, C. Adamo, R. Cammi, 
 J. W. Ochterski, R. L. Martin, K. Morokuma, O. Farkas, 
 J. B. Foresman, and D. J. Fox, Gaussian, Inc., Wallingford CT, 2016.
 
 ******************************************
 Gaussian 16:  ES64L-G16RevA.03 25-Dec-2016
                22-Sep-2023 
 ******************************************
 %nprocshared=6
 Will use up to    6 processors via shared memory.
 %mem=6GB
 -----------------
 # M062X/def2TZVPP
 -----------------
 1/38=1,172=1/1;
 2/12=2,17=6,18=5,40=1/2;
 3/5=44,7=202,11=2,25=1,30=1,74=-55/1,2,3;
 4//1;
 5/5=2,38=5/2;
 6/7=2,8=2,9=2,10=2,28=1/1;
 99/5=1,9=1/99;
 -----------------------
 tmpdir/M2_conf_0_10.gjf
 -----------------------
 Symbolic Z-matrix:
 Charge =  0 Multiplicity = 1
 C                     0.        0.        0. 
 B                     1.5786    0.        0. 
 O                     2.01335   0.        1.28663 
 H                    -0.43282   0.2896    1.0214 
 H                    -0.31662  -0.99736  -0.34908 
 H                    -0.36432   0.69657  -0.76257 
 H                     2.20163  -0.03802  -0.94663 
 H                     2.96674  -0.02011   1.48194 
 
                          Input orientation:                          
 ---------------------------------------------------------------------
 Center     Atomic      Atomic             Coordinates (Angstroms)
 Number     Number       Type             X           Y           Z
 ---------------------------------------------------------------------
      1          6           0        0.000000    0.000000    0.000000
      2          5           0        1.578600    0.000000    0.000000
      3          8           0        2.013350    0.000000    1.286630
      4          1           0       -0.432820    0.289600    1.021400
      5          1           0       -0.316620   -0.997360   -0.349080
      6          1           0       -0.364320    0.696570   -0.762570
      7          1           0        2.201630   -0.038020   -0.946630
      8          1           0        2.966740   -0.020110    1.481940
 ---------------------------------------------------------------------
                    Distance matrix (angstroms):
                    1          2          3          4          5
     1  C    0.000000
     2  B    1.578600   0.000000
     3  O    2.389350   1.358096   0.000000
     4  H    1.146499   2.274409   2.477491   0.000000
     5  H    1.103101   2.169895   3.016461   1.883609   0.000000
     6  H    1.095195   2.200377   3.215236   1.831083   1.744319
     7  H    2.396816   1.133896   2.241505   3.304664   2.760250
     8  H    3.316338   2.030636   0.973398   3.444565   3.884341
                    6          7          8
     6  H    0.000000
     7  H    2.675369   0.000000
     8  H    4.080125   2.546304   0.000000
 Stoichiometry    CH5BO
 Framework group  C1[X(CH5BO)]
 Deg. of freedom    18
 Full point group                 C1      NOp   1
 Largest Abelian subgroup         C1      NOp   1
 Largest concise Abelian subgroup C1      NOp   1
                         Standard orientation:                         
 ---------------------------------------------------------------------
 Center     Atomic      Atomic             Coordinates (Angstroms)
 Number     Number       Type             X           Y           Z
 ---------------------------------------------------------------------
      1          6           0        1.238835   -0.178514    0.004419
      2          5           0       -0.139872    0.589881   -0.022268
      3          8           0       -1.146224   -0.321639    0.006200
      4          1           0        1.119726   -1.290229   -0.249276
      5          1           0        1.684178    0.004552    0.996885
      6          1           0        1.929273    0.287150   -0.706850
      7          1           0       -0.223000    1.720726   -0.021153
      8          1           0       -2.074039   -0.027407    0.015619
 ---------------------------------------------------------------------
 Rotational constants (GHZ):          41.5672247           9.4709451           8.1026639
 Standard basis: def2TZVPP (5D, 7F)
 There are   183 symmetry adapted cartesian basis functions of A   symmetry.
 There are   163 symmetry adapted basis functions of A   symmetry.
   163 basis functions,   238 primitive gaussians,   183 cartesian basis functions
    12 alpha electrons       12 beta electrons
       nuclear repulsion energy        67.0405458712 Hartrees.
 NAtoms=    8 NActive=    8 NUniq=    8 SFac= 1.00D+00 NAtFMM=   60 NAOKFM=F Big=F
 Integral buffers will be    131072 words long.
 Raffenetti 2 integral format.
 Two-electron integral symmetry is turned on.
 One-electron integrals computed using PRISM.
   1 Symmetry operations used in ECPInt.
 ECPInt:  NShTT=    2016 NPrTT=    5131 LenC2=    2015 LenP2D=    4654.
 LDataN:  DoStor=T MaxTD1= 6 Len=  172
 NBasis=   163 RedAO= T EigKep=  4.75D-04  NBF=   163
 NBsUse=   163 1.00D-06 EigRej= -1.00D+00 NBFU=   163
 ExpMin= 6.06D-02 ExpMax= 2.70D+04 ExpMxC= 9.22D+02 IAcc=3 IRadAn=         5 AccDes= 0.00D+00
 Harris functional with IExCor= 1009 and IRadAn=       5 diagonalized for initial guess.
 HarFok:  IExCor= 1009 AccDes= 0.00D+00 IRadAn=         5 IDoV= 1 UseB2=F ITyADJ=14
 ICtDFT=  3500011 ScaDFX=  1.000000  1.000000  1.000000  1.000000
 FoFCou: FMM=F IPFlag=           0 FMFlag=      100000 FMFlg1=           0
         NFxFlg=           0 DoJE=T BraDBF=F KetDBF=T FulRan=T
         wScrn=  0.000000 ICntrl=       500 IOpCl=  0 I1Cent=   200000004 NGrid=           0
         NMat0=    1 NMatS0=      1 NMatT0=    0 NMatD0=    1 NMtDS0=    0 NMtDT0=    0
 Petite list used in FoFCou.
 Keep R1 ints in memory in canonical form, NReq=95387557.
 Requested convergence on RMS density matrix=1.00D-08 within 128 cycles.
 Requested convergence on MAX density matrix=1.00D-06.
 Requested convergence on             energy=1.00D-06.
 No special actions if energy rises.
 Integral accuracy reduced to 1.0D-05 until final iterations.
 Initial convergence to 1.0D-05 achieved.  Increase integral accuracy.
 SCF Done:  E(RM062X) =  -141.225983838     A.U. after   12 cycles
            NFock= 12  Conv=0.80D-08     -V/T= 2.0051

 **********************************************************************

            Population analysis using the SCF density.

 **********************************************************************

 Orbital symmetries:
       Occupied  (A) (A) (A) (A) (A) (A) (A) (A) (A) (A) (A) (A)
       Virtual   (A) (A) (A) (A) (A) (A) (A) (A) (A) (A) (A) (A)
                 (A) (A) (A) (A) (A) (A) (A) (A) (A) (A) (A) (A)
                 (A) (A) (A) (A) (A) (A) (A) (A) (A) (A) (A) (A)
                 (A) (A) (A) (A) (A) (A) (A) (A) (A) (A) (A) (A)
                 (A) (A) (A) (A) (A) (A) (A) (A) (A) (A) (A) (A)
                 (A) (A) (A) (A) (A) (A) (A) (A) (A) (A) (A) (A)
                 (A) (A) (A) (A) (A) (A) (A) (A) (A) (A) (A) (A)
                 (A) (A) (A) (A) (A) (A) (A) (A) (A) (A) (A) (A)
                 (A) (A) (A) (A) (A) (A) (A) (A) (A) (A) (A) (A)
                 (A) (A) (A) (A) (A) (A) (A) (A) (A) (A) (A) (A)
                 (A) (A) (A) (A) (A) (A) (A) (A) (A) (A) (A) (A)
                 (A) (A) (A) (A) (A) (A) (A) (A) (A) (A) (A) (A)
                 (A) (A) (A) (A) (A) (A) (A)
 The electronic state is 1-A.
 Alpha  occ. eigenvalues --  -19.64143 -10.49933  -7.05080  -1.14496  -0.77479
 Alpha  occ. eigenvalues --   -0.63849  -0.54001  -0.46692  -0.45303  -0.42848
 Alpha  occ. eigenvalues --   -0.42299  -0.36104
 Alpha virt. eigenvalues --    0.03824   0.05149   0.07564   0.10687   0.13212
 Alpha virt. eigenvalues --    0.14886   0.16307   0.19342   0.20859   0.23436
 Alpha virt. eigenvalues --    0.25057   0.27348   0.30640   0.36506   0.39011
 Alpha virt. eigenvalues --    0.41521   0.44977   0.46444   0.49411   0.51164
 Alpha virt. eigenvalues --    0.52401   0.53711   0.54497   0.56150   0.58048
 Alpha virt. eigenvalues --    0.64563   0.69672   0.72000   0.73743   0.77451
 Alpha virt. eigenvalues --    0.79966   0.85502   0.87020   0.88957   0.91170
 Alpha virt. eigenvalues --    0.96216   0.98464   0.98697   1.01320   1.06974
 Alpha virt. eigenvalues --    1.09932   1.13416   1.18887   1.22647   1.26161
 Alpha virt. eigenvalues --    1.26557   1.32368   1.34539   1.36613   1.42317
 Alpha virt. eigenvalues --    1.48180   1.50082   1.52568   1.58065   1.60479
 Alpha virt. eigenvalues --    1.65334   1.70729   1.75655   1.79286   1.93369
 Alpha virt. eigenvalues --    1.93842   1.95259   1.98847   2.03091   2.07622
 Alpha virt. eigenvalues --    2.16984   2.21293   2.23844   2.29428   2.33179
 Alpha virt. eigenvalues --    2.34956   2.41922   2.45551   2.50137   2.57989
 Alpha virt. eigenvalues --    2.59924   2.63795   2.73113   2.79070   2.84553
 Alpha virt. eigenvalues --    2.91710   2.97728   3.00839   3.04465   3.06672
 Alpha virt. eigenvalues --    3.11620   3.17803   3.21935   3.23810   3.30011
 Alpha virt. eigenvalues --    3.30812   3.35197   3.38023   3.40418   3.45442
 Alpha virt. eigenvalues --    3.46968   3.47841   3.56932   3.58941   3.63838
 Alpha virt. eigenvalues --    3.65136   3.70865   3.72874   3.76240   3.79915
 Alpha virt. eigenvalues --    3.87840   3.89029   3.93371   3.94727   3.98067
 Alpha virt. eigenvalues --    4.00664   4.03647   4.04836   4.09451   4.15598
 Alpha virt. eigenvalues --    4.17439   4.22735   4.33405   4.39104   4.42794
 Alpha virt. eigenvalues --    4.53811   4.54959   4.60095   4.69865   4.87514
 Alpha virt. eigenvalues --    4.94138   5.00623   5.02730   5.04154   5.12162
 Alpha virt. eigenvalues --    5.14525   5.18111   5.20171   5.30876   5.43104
 Alpha virt. eigenvalues --    5.47324   5.50881   5.65227   5.70265   5.81946
 Alpha virt. eigenvalues --    6.45603   6.55020   6.63319   6.68877   6.72559
 Alpha virt. eigenvalues --    6.90374   7.27288   7.44526  15.83783  23.48305
 Alpha virt. eigenvalues --   43.82482
          Condensed to atoms (all electrons):
               1          2          3          4          5          6
     1  C    4.970264   0.378036  -0.071826   0.393742   0.379245   0.390195
     2  B    0.378036   3.667869   0.476877  -0.026093  -0.022789  -0.031930
     3  O   -0.071826   0.476877   7.634252  -0.004919   0.001070   0.003231
     4  H    0.393742  -0.026093  -0.004919   0.561472  -0.014565  -0.022101
     5  H    0.379245  -0.022789   0.001070  -0.014565   0.569370  -0.021408
     6  H    0.390195  -0.031930   0.003231  -0.022101  -0.021408   0.573307
     7  H   -0.063682   0.448156  -0.034276   0.003844   0.002417   0.001943
     8  H    0.016598  -0.049712   0.330025  -0.000071  -0.000585  -0.000705
               7          8
     1  C   -0.063682   0.016598
     2  B    0.448156  -0.049712
     3  O   -0.034276   0.330025
     4  H    0.003844  -0.000071
     5  H    0.002417  -0.000585
     6  H    0.001943  -0.000705
     7  H    0.641315  -0.012729
     8  H   -0.012729   0.486172
 Mulliken charges:
               1
     1  C   -0.392572
     2  B    0.159585
     3  O   -0.334435
     4  H    0.108690
     5  H    0.107246
     6  H    0.107468
     7  H    0.013011
     8  H    0.231007
 Sum of Mulliken charges =  -0.00000
 Mulliken charges with hydrogens summed into heavy atoms:
               1
     1  C   -0.069168
     2  B    0.172596
     3  O   -0.103428
 Electronic spatial extent (au):  <R**2>=            188.4719
 Charge=             -0.0000 electrons
 Dipole moment (field-independent basis, Debye):
    X=             -1.1751    Y=              0.9297    Z=              0.0036  Tot=              1.4983
 Quadrupole moment (field-independent basis, Debye-Ang):
   XX=            -16.1594   YY=            -21.0558   ZZ=            -19.3209
   XY=             -0.7470   XZ=              0.0336   YZ=              0.1439
 Traceless Quadrupole moment (field-independent basis, Debye-Ang):
   XX=              2.6860   YY=             -2.2104   ZZ=             -0.4756
   XY=             -0.7470   XZ=              0.0336   YZ=              0.1439
 Octapole moment (field-independent basis, Debye-Ang**2):
  XXX=            -21.3032  YYY=             -5.3046  ZZZ=              0.4815  XYY=             -1.1875
  XXY=              0.9385  XXZ=              0.1780  XZZ=             -1.2786  YZZ=             -0.2384
  YYZ=             -0.3564  XYZ=              0.0782
 Hexadecapole moment (field-independent basis, Debye-Ang**3):
 XXXX=           -138.6144 YYYY=            -64.7595 ZZZZ=            -26.9309 XXXY=              3.8079
 XXXZ=             -0.6801 YYYX=              1.6173 YYYZ=              0.7188 ZZZX=              0.7964
 ZZZY=              0.0271 XXYY=            -39.9307 XXZZ=            -31.4643 YYZZ=            -15.3394
 XXYZ=             -0.1466 YYXZ=             -0.5270 ZZXY=              1.0889
 N-N= 6.704054587125D+01 E-N=-4.642956667809D+02  KE= 1.405073549737D+02
 1\1\GINC-NODE85\SP\RM062X\def2TZVPP\C1H5B1O1\YANZ\22-Sep-2023\0\\# M06
 2X/def2TZVPP\\tmpdir/M2_conf_0_10.gjf\\0,1\C,0,0.,0.,0.\B,0,1.5786,0.,
 0.\O,0,2.01335,0.,1.28663\H,0,-0.43282,0.2896,1.0214\H,0,-0.31662,-0.9
 9736,-0.34908\H,0,-0.36432,0.69657,-0.76257\H,0,2.20163,-0.03802,-0.94
 663\H,0,2.96674,-0.02011,1.48194\\Version=ES64L-G16RevA.03\State=1-A\H
 F=-141.2259838\RMSD=8.033e-09\Dipole=0.5817757,-0.0138956,-0.0940698\Q
 uadrupole=1.6049894,-0.348012,-1.2569775,-0.0283186,1.2587699,0.059142
 9\PG=C01 [X(C1H5B1O1)]\\@


 LAW OF COMPENSATION:
      NO CALCULATION IS EVER A COMPLETE FAILURE; IT 
      CAN ALWAYS SERVE AS A BAD EXAMPLE.

                                           -- ANON
 Job cpu time:       0 days  0 hours  1 minutes 36.3 seconds.
 Elapsed time:       0 days  0 hours  0 minutes 18.3 seconds.
 File lengths (MBytes):  RWF=     14 Int=      0 D2E=      0 Chk=      3 Scr=      1
 Normal termination of Gaussian 16 at Fri Sep 22 16:49:29 2023.
