 Entering Gaussian System, Link 0=g16
 Initial command:
 /share/apps/gaussian/g16/l1.exe "/tmp/55604.mgr/Gau-81681.inp" -scrdir="/tmp/55604.mgr/"
 Entering Link 1 = /share/apps/gaussian/g16/l1.exe PID=     81682.
  
 Copyright (c) 1988,1990,1992,1993,1995,1998,2003,2009,2016,
            Gaussian, Inc.  All Rights Reserved.
  
 This is part of the Gaussian(R) 16 program.  It is based on
 the Gaussian(R) 09 system (copyright 2009, Gaussian, Inc.),
 the Gaussian(R) 03 system (copyright 2003, Gaussian, Inc.),
 the Gaussian(R) 98 system (copyright 1998, Gaussian, Inc.),
 the Gaussian(R) 94 system (copyright 1995, Gaussian, Inc.),
 the Gaussian 92(TM) system (copyright 1992, Gaussian, Inc.),
 the Gaussian 90(TM) system (copyright 1990, Gaussian, Inc.),
 the Gaussian 88(TM) system (copyright 1988, Gaussian, Inc.),
 the Gaussian 86(TM) system (copyright 1986, Carnegie Mellon
 University), and the Gaussian 82(TM) system (copyright 1983,
 Carnegie Mellon University). Gaussian is a federally registered
 trademark of Gaussian, Inc.
  
 This software contains proprietary and confidential information,
 including trade secrets, belonging to Gaussian, Inc.
  
 This software is provided under written license and may be
 used, copied, transmitted, or stored only in accord with that
 written license.
  
 The following legend is applicable only to US Government
 contracts under FAR:
  
                    RESTRICTED RIGHTS LEGEND
  
 Use, reproduction and disclosure by the US Government is
 subject to restrictions as set forth in subparagraphs (a)
 and (c) of the Commercial Computer Software - Restricted
 Rights clause in FAR 52.227-19.
  
 Gaussian, Inc.
 340 Quinnipiac St., Bldg. 40, Wallingford CT 06492
  
  
 ---------------------------------------------------------------
 Warning -- This program may not be used in any manner that
 competes with the business of Gaussian, Inc. or will provide
 assistance to any competitor of Gaussian, Inc.  The licensee
 of this program is prohibited from giving any competitor of
 Gaussian, Inc. access to this program.  By using this program,
 the user acknowledges that Gaussian, Inc. is engaged in the
 business of creating and licensing software in the field of
 computational chemistry and represents and warrants to the
 licensee that it is not a competitor of Gaussian, Inc. and that
 it will not use this program in any manner prohibited above.
 ---------------------------------------------------------------
  

 Cite this work as:
 Gaussian 16, Revision A.03,
 M. J. Frisch, G. W. Trucks, H. B. Schlegel, G. E. Scuseria, 
 M. A. Robb, J. R. Cheeseman, G. Scalmani, V. Barone, 
 G. A. Petersson, H. Nakatsuji, X. Li, M. Caricato, A. V. Marenich, 
 J. Bloino, B. G. Janesko, R. Gomperts, B. Mennucci, H. P. Hratchian, 
 J. V. Ortiz, A. F. Izmaylov, J. L. Sonnenberg, D. Williams-Young, 
 F. Ding, F. Lipparini, F. Egidi, J. Goings, B. Peng, A. Petrone, 
 T. Henderson, D. Ranasinghe, V. G. Zakrzewski, J. Gao, N. Rega, 
 G. Zheng, W. Liang, M. Hada, M. Ehara, K. Toyota, R. Fukuda, 
 J. Hasegawa, M. Ishida, T. Nakajima, Y. Honda, O. Kitao, H. Nakai, 
 T. Vreven, K. Throssell, J. A. Montgomery, Jr., J. E. Peralta, 
 F. Ogliaro, M. J. Bearpark, J. J. Heyd, E. N. Brothers, K. N. Kudin, 
 V. N. Staroverov, T. A. Keith, R. Kobayashi, J. Normand, 
 K. Raghavachari, A. P. Rendell, J. C. Burant, S. S. Iyengar, 
 J. Tomasi, M. Cossi, J. M. Millam, M. Klene, C. Adamo, R. Cammi, 
 J. W. Ochterski, R. L. Martin, K. Morokuma, O. Farkas, 
 J. B. Foresman, and D. J. Fox, Gaussian, Inc., Wallingford CT, 2016.
 
 ******************************************
 Gaussian 16:  ES64L-G16RevA.03 25-Dec-2016
                22-Sep-2023 
 ******************************************
 %nprocshared=6
 Will use up to    6 processors via shared memory.
 %mem=6GB
 -----------------
 # M062X/def2TZVPP
 -----------------
 1/38=1,172=1/1;
 2/12=2,17=6,18=5,40=1/2;
 3/5=44,7=202,11=2,25=1,30=1,74=-55/1,2,3;
 4//1;
 5/5=2,38=5/2;
 6/7=2,8=2,9=2,10=2,28=1/1;
 99/5=1,9=1/99;
 --------------------
 tmpdir/M2_ref_21.gjf
 --------------------
 Symbolic Z-matrix:
 Charge =  0 Multiplicity = 1
 B                    -0.17753  -0.0258   -0.24407 
 O                    -1.13872   0.70486   0.39095 
 C                    -1.69922   0.2696    1.61255 
 H                     0.20989  -1.05159   0.14797 
 H                     0.23575   0.36662  -1.21842 
 H                    -0.97903   0.36429   2.42682 
 H                    -2.55937   0.89903   1.82787 
 H                    -2.02798  -0.7696    1.55196 
 
                          Input orientation:                          
 ---------------------------------------------------------------------
 Center     Atomic      Atomic             Coordinates (Angstroms)
 Number     Number       Type             X           Y           Z
 ---------------------------------------------------------------------
      1          5           0       -0.177531   -0.025800   -0.244072
      2          8           0       -1.138724    0.704861    0.390950
      3          6           0       -1.699221    0.269601    1.612554
      4          1           0        0.209890   -1.051594    0.147969
      5          1           0        0.235749    0.366619   -1.218424
      6          1           0       -0.979032    0.364286    2.426820
      7          1           0       -2.559365    0.899031    1.827874
      8          1           0       -2.027979   -0.769596    1.551958
 ---------------------------------------------------------------------
                    Distance matrix (angstroms):
                    1          2          3          4          5
     1  B    0.000000
     2  O    1.364188   0.000000
     3  C    2.418648   1.412772   0.000000
     4  H    1.164493   2.227764   2.745044   0.000000
     5  H    1.128785   2.143284   3.430445   1.969525   0.000000
     6  H    2.815712   2.070329   1.091177   2.934521   3.842330
     7  H    3.289590   2.029945   1.087379   3.780978   4.168459
     8  H    2.683861   2.076712   1.091642   2.656833   3.753726
                    6          7          8
     6  H    0.000000
     7  H    1.772609   0.000000
     8  H    1.775208   1.772799   0.000000
 Stoichiometry    CH5BO
 Framework group  C1[X(CH5BO)]
 Deg. of freedom    18
 Full point group                 C1      NOp   1
 Largest Abelian subgroup         C1      NOp   1
 Largest concise Abelian subgroup C1      NOp   1
                         Standard orientation:                         
 ---------------------------------------------------------------------
 Center     Atomic      Atomic             Coordinates (Angstroms)
 Number     Number       Type             X           Y           Z
 ---------------------------------------------------------------------
      1          5           0       -1.295454    0.210117    0.006675
      2          8           0       -0.128818   -0.496889   -0.003859
      3          6           0        1.122641    0.158663    0.001408
      4          1           0       -1.338854    1.373557   -0.017146
      5          1           0       -2.267910   -0.362984    0.000352
      6          1           0        1.318055    0.616551    0.972397
      7          1           0        1.889868   -0.585632   -0.198042
      8          1           0        1.170807    0.931052   -0.768513
 ---------------------------------------------------------------------
 Rotational constants (GHZ):          51.0836765          10.2972820           9.0578202
 Standard basis: def2TZVPP (5D, 7F)
 There are   183 symmetry adapted cartesian basis functions of A   symmetry.
 There are   163 symmetry adapted basis functions of A   symmetry.
   163 basis functions,   238 primitive gaussians,   183 cartesian basis functions
    12 alpha electrons       12 beta electrons
       nuclear repulsion energy        70.3588055829 Hartrees.
 NAtoms=    8 NActive=    8 NUniq=    8 SFac= 1.00D+00 NAtFMM=   60 NAOKFM=F Big=F
 Integral buffers will be    131072 words long.
 Raffenetti 2 integral format.
 Two-electron integral symmetry is turned on.
 One-electron integrals computed using PRISM.
   1 Symmetry operations used in ECPInt.
 ECPInt:  NShTT=    2016 NPrTT=    5131 LenC2=    2015 LenP2D=    4648.
 LDataN:  DoStor=T MaxTD1= 6 Len=  172
 NBasis=   163 RedAO= T EigKep=  3.84D-04  NBF=   163
 NBsUse=   163 1.00D-06 EigRej= -1.00D+00 NBFU=   163
 ExpMin= 6.06D-02 ExpMax= 2.70D+04 ExpMxC= 9.22D+02 IAcc=3 IRadAn=         5 AccDes= 0.00D+00
 Harris functional with IExCor= 1009 and IRadAn=       5 diagonalized for initial guess.
 HarFok:  IExCor= 1009 AccDes= 0.00D+00 IRadAn=         5 IDoV= 1 UseB2=F ITyADJ=14
 ICtDFT=  3500011 ScaDFX=  1.000000  1.000000  1.000000  1.000000
 FoFCou: FMM=F IPFlag=           0 FMFlag=      100000 FMFlg1=           0
         NFxFlg=           0 DoJE=T BraDBF=F KetDBF=T FulRan=T
         wScrn=  0.000000 ICntrl=       500 IOpCl=  0 I1Cent=   200000004 NGrid=           0
         NMat0=    1 NMatS0=      1 NMatT0=    0 NMatD0=    1 NMtDS0=    0 NMtDT0=    0
 Petite list used in FoFCou.
 Keep R1 ints in memory in canonical form, NReq=95387557.
 Requested convergence on RMS density matrix=1.00D-08 within 128 cycles.
 Requested convergence on MAX density matrix=1.00D-06.
 Requested convergence on             energy=1.00D-06.
 No special actions if energy rises.
 Integral accuracy reduced to 1.0D-05 until final iterations.
 Initial convergence to 1.0D-05 achieved.  Increase integral accuracy.
 SCF Done:  E(RM062X) =  -141.195504392     A.U. after   12 cycles
            NFock= 12  Conv=0.76D-08     -V/T= 2.0044

 **********************************************************************

            Population analysis using the SCF density.

 **********************************************************************

 Orbital symmetries:
       Occupied  (A) (A) (A) (A) (A) (A) (A) (A) (A) (A) (A) (A)
       Virtual   (A) (A) (A) (A) (A) (A) (A) (A) (A) (A) (A) (A)
                 (A) (A) (A) (A) (A) (A) (A) (A) (A) (A) (A) (A)
                 (A) (A) (A) (A) (A) (A) (A) (A) (A) (A) (A) (A)
                 (A) (A) (A) (A) (A) (A) (A) (A) (A) (A) (A) (A)
                 (A) (A) (A) (A) (A) (A) (A) (A) (A) (A) (A) (A)
                 (A) (A) (A) (A) (A) (A) (A) (A) (A) (A) (A) (A)
                 (A) (A) (A) (A) (A) (A) (A) (A) (A) (A) (A) (A)
                 (A) (A) (A) (A) (A) (A) (A) (A) (A) (A) (A) (A)
                 (A) (A) (A) (A) (A) (A) (A) (A) (A) (A) (A) (A)
                 (A) (A) (A) (A) (A) (A) (A) (A) (A) (A) (A) (A)
                 (A) (A) (A) (A) (A) (A) (A) (A) (A) (A) (A) (A)
                 (A) (A) (A) (A) (A) (A) (A) (A) (A) (A) (A) (A)
                 (A) (A) (A) (A) (A) (A) (A)
 The electronic state is 1-A.
 Alpha  occ. eigenvalues --  -19.64765 -10.58916  -7.05015  -1.16092  -0.79635
 Alpha  occ. eigenvalues --   -0.61782  -0.54398  -0.53852  -0.50956  -0.42745
 Alpha  occ. eigenvalues --   -0.39180  -0.37150
 Alpha virt. eigenvalues --    0.01237   0.06828   0.09750   0.10627   0.12670
 Alpha virt. eigenvalues --    0.15249   0.16120   0.18384   0.18988   0.20399
 Alpha virt. eigenvalues --    0.23768   0.25570   0.29525   0.35952   0.37256
 Alpha virt. eigenvalues --    0.39962   0.42676   0.45512   0.47301   0.48417
 Alpha virt. eigenvalues --    0.50213   0.54314   0.55351   0.57957   0.61435
 Alpha virt. eigenvalues --    0.62143   0.68317   0.70764   0.74973   0.76616
 Alpha virt. eigenvalues --    0.78609   0.82704   0.86386   0.89978   0.93232
 Alpha virt. eigenvalues --    0.95826   0.97442   0.97859   1.01012   1.04603
 Alpha virt. eigenvalues --    1.08108   1.10275   1.12736   1.16226   1.23176
 Alpha virt. eigenvalues --    1.27175   1.29757   1.33486   1.38271   1.45172
 Alpha virt. eigenvalues --    1.46653   1.47386   1.50691   1.54403   1.59090
 Alpha virt. eigenvalues --    1.65093   1.69931   1.75259   1.82441   1.87014
 Alpha virt. eigenvalues --    1.91081   1.94465   1.99193   2.01079   2.03824
 Alpha virt. eigenvalues --    2.10149   2.12947   2.23101   2.26735   2.27279
 Alpha virt. eigenvalues --    2.30170   2.38421   2.47598   2.49333   2.57389
 Alpha virt. eigenvalues --    2.60194   2.66397   2.70705   2.81338   2.82647
 Alpha virt. eigenvalues --    2.89240   2.90246   2.93156   2.98301   3.02241
 Alpha virt. eigenvalues --    3.04031   3.07307   3.12515   3.22211   3.28481
 Alpha virt. eigenvalues --    3.29071   3.30516   3.34059   3.43121   3.46506
 Alpha virt. eigenvalues --    3.50039   3.56049   3.57957   3.64846   3.67641
 Alpha virt. eigenvalues --    3.70608   3.74698   3.80154   3.83075   3.84142
 Alpha virt. eigenvalues --    3.89125   3.95255   3.97335   4.00189   4.01785
 Alpha virt. eigenvalues --    4.06635   4.10417   4.12654   4.18900   4.21723
 Alpha virt. eigenvalues --    4.23542   4.33224   4.41608   4.45110   4.50600
 Alpha virt. eigenvalues --    4.55058   4.59068   4.70632   4.76427   4.83567
 Alpha virt. eigenvalues --    4.92058   4.94101   4.96284   5.03113   5.04759
 Alpha virt. eigenvalues --    5.15987   5.23186   5.25788   5.30974   5.37334
 Alpha virt. eigenvalues --    5.49923   5.51604   5.54989   5.73364   5.87778
 Alpha virt. eigenvalues --    6.00312   6.24723   6.37532   6.67766   6.71902
 Alpha virt. eigenvalues --    6.90633   7.18134   7.28208  16.03262  23.63228
 Alpha virt. eigenvalues --   43.99665
          Condensed to atoms (all electrons):
               1          2          3          4          5          6
     1  B    3.683583   0.451690  -0.054662   0.426561   0.425189  -0.012521
     2  O    0.451690   7.786425   0.223455  -0.033716  -0.016855  -0.036767
     3  C   -0.054662   0.223455   4.784671  -0.004938   0.004139   0.417503
     4  H    0.426561  -0.033716  -0.004938   0.648811  -0.041722   0.000554
     5  H    0.425189  -0.016855   0.004139  -0.041722   0.608557  -0.000264
     6  H   -0.012521  -0.036767   0.417503   0.000554  -0.000264   0.570737
     7  H    0.007310  -0.036063   0.415900  -0.000244   0.000157  -0.030338
     8  H   -0.016272  -0.039996   0.412930   0.004302  -0.000914  -0.039093
               7          8
     1  B    0.007310  -0.016272
     2  O   -0.036063  -0.039996
     3  C    0.415900   0.412930
     4  H   -0.000244   0.004302
     5  H    0.000157  -0.000914
     6  H   -0.030338  -0.039093
     7  H    0.536621  -0.028688
     8  H   -0.028688   0.587318
 Mulliken charges:
               1
     1  B    0.089122
     2  O   -0.298174
     3  C   -0.198998
     4  H    0.000391
     5  H    0.021714
     6  H    0.130188
     7  H    0.135345
     8  H    0.120412
 Sum of Mulliken charges =  -0.00000
 Mulliken charges with hydrogens summed into heavy atoms:
               1
     1  B    0.111227
     2  O   -0.298174
     3  C    0.186947
 Electronic spatial extent (au):  <R**2>=            176.9990
 Charge=             -0.0000 electrons
 Dipole moment (field-independent basis, Debye):
    X=              1.2150    Y=              0.8996    Z=              0.0385  Tot=              1.5123
 Quadrupole moment (field-independent basis, Debye-Ang):
   XX=            -19.0383   YY=            -21.3661   ZZ=            -18.8291
   XY=             -0.0397   XZ=             -0.0472   YZ=              0.0308
 Traceless Quadrupole moment (field-independent basis, Debye-Ang):
   XX=              0.7062   YY=             -1.6216   ZZ=              0.9154
   XY=             -0.0397   XZ=             -0.0472   YZ=              0.0308
 Octapole moment (field-independent basis, Debye-Ang**2):
  XXX=             10.6229  YYY=             -3.7017  ZZZ=              0.3700  XYY=              3.7772
  XXY=             -1.7133  XXZ=             -0.0718  XZZ=              1.3255  YZZ=             -0.1990
  YYZ=             -0.2806  XYZ=              0.1094
 Hexadecapole moment (field-independent basis, Debye-Ang**3):
 XXXX=           -189.3626 YYYY=            -53.6595 ZZZZ=            -25.5537 XXXY=              0.2336
 XXXZ=             -0.3232 YYYX=              2.5899 YYYZ=             -0.2548 ZZZX=              0.4643
 ZZZY=              0.2024 XXYY=            -39.5120 XXZZ=            -33.6935 YYZZ=            -12.7830
 XXYZ=              0.4782 YYXZ=             -0.3434 ZZXY=              0.9766
 N-N= 7.035880558292D+01 E-N=-4.704966255060D+02  KE= 1.405739491171D+02
 1\1\GINC-NODE85\SP\RM062X\def2TZVPP\C1H5B1O1\YANZ\22-Sep-2023\0\\# M06
 2X/def2TZVPP\\tmpdir/M2_ref_21.gjf\\0,1\B,0,-0.17753149,-0.02579991,-0
 .24407203\O,0,-1.13872374,0.70486068,0.3909496\C,0,-1.69922068,0.26960
 066,1.61255371\H,0,0.2098899,-1.05159398,0.14796895\H,0,0.23574877,0.3
 6661949,-1.21842394\H,0,-0.97903174,0.36428605,2.42682036\H,0,-2.55936
 524,0.89903077,1.82787369\H,0,-2.02797854,-0.76959552,1.55195751\\Vers
 ion=ES64L-G16RevA.03\State=1-A\HF=-141.1955044\RMSD=7.617e-09\Dipole=-
 0.1711504,-0.249719,0.5122061\Quadrupole=0.4756779,-0.7592276,0.283549
 7,0.5217126,-0.1543791,0.6010766\PG=C01 [X(C1H5B1O1)]\\@


 ALL MEN WHO EXPLORE
 DEPLORE
 THAT FRUSTRATING HURDLE
 THE GIRDLE.

         -- COLIN FLETCHER
 Job cpu time:       0 days  0 hours  1 minutes 40.7 seconds.
 Elapsed time:       0 days  0 hours  0 minutes 18.9 seconds.
 File lengths (MBytes):  RWF=     14 Int=      0 D2E=      0 Chk=      3 Scr=      1
 Normal termination of Gaussian 16 at Fri Sep 22 16:48:27 2023.
